-catch_rsh /opt/gridengine/default/spool/compute-0-6/active_jobs/35949.1/pe_hostfile
compute-0-6
The primary node assigned by SGE to this run is compute-0-6
Warning: no access to tty (Bad file descriptor).
Thus no job control in this shell.
source /home/sarom/dir.git.branch.saromleang-travis-ci/install.info
setenv GMS_PATH /home/sarom/dir.git.branch.saromleang-travis-ci
setenv GMS_BUILD_DIR /home/sarom/dir.git.branch.saromleang-travis-ci
setenv GMS_TARGET linux64
setenv GMS_FORTRAN gfortran
setenv GMS_GFORTRAN_VERNO 4.4
setenv GMS_MATHLIB mkl-so
setenv GMS_MATHLIB none
setenv GMS_MATHLIB_PATH /share/apps/intel/compilers_and_libraries_2017.1.132/linux/mkl/lib/intel64
setenv GMS_MKL_VERNO 12
setenv GMS_DDI_COMM sockets
setenv GMS_LIBCCHEM false
setenv GMS_EIGEN_PATH
setenv GMS_PHI false
setenv GMS_SHMTYPE sysv
setenv GMS_OPENMP false
unset echo
mc-hess-c2h4-s1
/home/sarom/dir.git.branch.saromleang-travis-ci/tests/mcscf/freq/parallel
----- GAMESS execution script 'rungms' -----
This job is running on host compute-0-6.local
under operating system Linux at Wed Aug 9 20:44:56 CDT 2017
Available scratch disk space (Kbyte units) at beginning of the job is
Filesystem           1K-blocks      Used Available Use% Mounted on
/dev/sda1             16126920   3962040  11345680  26% /
GAMESS temporary binary files will be written to /scratch
GAMESS supplementary output files will be written to /home/sarom/restart
Copying input file mc-hess-c2h4-s1.inp to your run's scratch directory...
cp /home/sarom/dir.git.branch.saromleang-travis-ci/tests/mcscf/freq/parallel/mc-hess-c2h4-s1.inp /scratch/mc-hess-c2h4-s1.F05
unset echo
The generated host list is
compute-0-6.local
/home/sarom/dir.git.branch.saromleang-travis-ci/ddikick.x /home/sarom/dir.git.branch.saromleang-travis-ci/gamess.00.x mc-hess-c2h4-s1 -ddi 1 1 compute-0-6.local -scr /scratch

 Distributed Data Interface kickoff program.
 Initiating 1 compute processes on 1 nodes to run the following command:
 /home/sarom/dir.git.branch.saromleang-travis-ci/gamess.00.x mc-hess-c2h4-s1 

          ******************************************************
          *         GAMESS VERSION = 20 APR 2017 (R1)          *
          *             FROM IOWA STATE UNIVERSITY             *
          * M.W.SCHMIDT, K.K.BALDRIDGE, J.A.BOATZ, S.T.ELBERT, *
          *   M.S.GORDON, J.H.JENSEN, S.KOSEKI, N.MATSUNAGA,   *
          *          K.A.NGUYEN, S.J.SU, T.L.WINDUS,           *
          *       TOGETHER WITH M.DUPUIS, J.A.MONTGOMERY       *
          *         J.COMPUT.CHEM.  14, 1347-1363(1993)        *
          **************** 64 BIT LINUX VERSION ****************

  SINCE 1993, STUDENTS AND POSTDOCS WORKING AT IOWA STATE UNIVERSITY
  AND ALSO IN THEIR VARIOUS JOBS AFTER LEAVING ISU HAVE MADE IMPORTANT
  CONTRIBUTIONS TO THE CODE:
     IVANA ADAMOVIC, CHRISTINE AIKENS, YURI ALEXEEV, POOJA ARORA,
     ANDREY ASADCHEV, ROB BELL, PRADIPTA BANDYOPADHYAY, JONATHAN BENTZ,
     BRETT BODE, KURT BRORSEN, CALEB CARLIN, GALINA CHABAN, WEI CHEN,
     CHEOL HO CHOI, PAUL DAY, ALBERT DEFUSCO, NUWAN DESILVA, TIM DUDLEY,
     DMITRI FEDOROV, GRAHAM FLETCHER, MARK FREITAG, KURT GLAESEMANN,
     DAN KEMP, GRANT MERRILL, NORIYUKI MINEZAWA, JONATHAN MULLIN,
     TAKESHI NAGATA, SEAN NEDD, HEATHER NETZLOFF, BOSILJKA NJEGIC, RYAN OLSON,
     MIKE PAK, SPENCER PRUITT, LUKE ROSKOP, JIM SHOEMAKER, LYUDMILA SLIPCHENKO,
     TONY SMITH, SAROM SOK LEANG, JIE SONG, TETSUYA TAKETSUGU, SIMON WEBB,
     PENG XU, SOOHAENG YOO, FEDERICO ZAHARIEV

  ADDITIONAL CODE HAS BEEN PROVIDED BY COLLABORATORS IN OTHER GROUPS:
     IOWA STATE UNIVERSITY:
          JOE IVANIC, AARON WEST, LAIMUTIS BYTAUTAS, KLAUS RUEDENBERG
     UNIVERSITY OF TOKYO: KIMIHIKO HIRAO, TAKAHITO NAKAJIMA,
          TAKAO TSUNEDA, MUNEAKI KAMIYA, SUSUMU YANAGISAWA,
          KIYOSHI YAGI, MAHITO CHIBA, SEIKEN TOKURA, NAOAKI KAWAKAMI
     UNIVERSITY OF AARHUS: FRANK JENSEN
     UNIVERSITY OF IOWA: VISVALDAS KAIRYS, HUI LI
     NATIONAL INST. OF STANDARDS AND TECHNOLOGY: WALT STEVENS, DAVID GARMER
     UNIVERSITY OF PISA: BENEDETTA MENNUCCI, JACOPO TOMASI
     UNIVERSITY OF MEMPHIS: HENRY KURTZ, PRAKASHAN KORAMBATH
     UNIVERSITY OF ALBERTA: TOBY ZENG, MARIUSZ KLOBUKOWSKI
     UNIVERSITY OF NEW ENGLAND: MARK SPACKMAN
     MIE UNIVERSITY: HIROAKI UMEDA
     NAT. INST. OF ADVANCED INDUSTRIAL SCIENCE AND TECHNOLOGY: KAZUO KITAURA
     MICHIGAN STATE UNIVERSITY:
          KAROL KOWALSKI, MARTA WLOCH, JEFFREY GOUR, JESSE LUTZ,
          WEI LI, PIOTR PIECUCH
     UNIVERSITY OF SILESIA: MONIKA MUSIAL, STANISLAW KUCHARSKI
     FACULTES UNIVERSITAIRES NOTRE-DAME DE LA PAIX:
          OLIVIER QUINET, BENOIT CHAMPAGNE
     UNIVERSITY OF CALIFORNIA - SANTA BARBARA: BERNARD KIRTMAN
     INSTITUTE FOR MOLECULAR SCIENCE:
          KAZUYA ISHIMURA, MICHIO KATOUDA, AND SHIGERU NAGASE
     UNIVERSITY OF NOTRE DAME: ANNA POMOGAEVA, DAN CHIPMAN
     KYUSHU UNIVERSITY:
          HARUYUKI NAKANO,
          FENG LONG GU, JACEK KORCHOWIEC, MARCIN MAKOWSKI, AND YURIKO AOKI,
          HIROTOSHI MORI AND EISAKU MIYOSHI
     PENNSYLVANIA STATE UNIVERSITY:
          TZVETELIN IORDANOV, CHET SWALINA, JONATHAN SKONE,
          SHARON HAMMES-SCHIFFER
     WASEDA UNIVERSITY:
          MASATO KOBAYASHI, TOMOKO AKAMA, TSUGUKI TOUMA,
          TAKESHI YOSHIKAWA, YASUHIRO IKABATA, JUNJI SEINO,
          YUYA NAKAJIMA, HIROMI NAKAI
     NANJING UNIVERSITY: SHUHUA LI
     UNIVERSITY OF NEBRASKA:
          PEIFENG SU, DEJUN SI, NANDUN THELLAMUREGE, YALI WANG, HUI LI
     UNIVERSITY OF ZURICH: ROBERTO PEVERATI, KIM BALDRIDGE
     N. COPERNICUS UNIVERSITY AND JACKSON STATE UNIVERSITY:
          MARIA BARYSZ
     UNIVERSITY OF COPENHAGEN: Jimmy Kromann, CASPER STEINMANN
     TOKYO INSTITUTE OF TECHNOLOGY: HIROYA NAKATA
     NAGOYA UNIVERSITY: YOSHIO NISHIMOTO, STEPHAN IRLE
     MOSCOW STATE UNIVERSITY: VLADIMIR MIRONOV

 EXECUTION OF GAMESS BEGUN Wed Aug  9 20:44:56 2017

            ECHO OF THE FIRST FEW INPUT CARDS -
 INPUT CARD>!   C2H4...at the rotational minimum point for the "V" excited state.           
 INPUT CARD>!   Run in D2 subgroup of D2d to have Abelian symmetry in CI steps.             
 INPUT CARD>!   At this geometry, S0= -77.965895, and T1= -77.927393.                       
 INPUT CARD>!                                                                               
 INPUT CARD>!   FINAL E= -77.8243539827, 6 iters.  Responses took 29 iterations.            
 INPUT CARD>!   FREQ= 718.39(b2/b3), 984.58(a), 995.21(b2/b3), 1337.80(a), 1564.95(a),      
 INPUT CARD>!   FREQ= 1656.30(b1), 3185.79(a), 3211.68(b2/b3), 3266.16(b1)                  
 INPUT CARD>!   The maximum intensity is for the highest mode, namely 34.638913.            
 INPUT CARD>!                                                                               
 INPUT CARD>!   This run takes 3 seconds on a 2.66 GHz Cloverton (13 Feb 2012)              
 INPUT CARD>!                                                                               
 INPUT CARD> $contrl scftyp=mcscf runtyp=hessian ispher=1 $end                              
 INPUT CARD> $system mwords=1 memddi=5 $end                                                 
 INPUT CARD> $basis  gbasis=n31 ngauss=6 ndfunc=1 $end                                      
 INPUT CARD> $guess  guess=moread norb=36 $end                                              
 INPUT CARD> $mcscf  cistep=aldet fullnr=.t. $end                                           
 INPUT CARD>!           the term symbol means S0 is invisible in this calculation           
 INPUT CARD> $det    group=d2 stsym=B1                                                      
 INPUT CARD>         ncore=6 nact=4 nels=4 pures=.t. nstate=4 wstate(1)=1,0 $end            
 INPUT CARD> $statpt opttol=1d-5 $end                                                       
 INPUT CARD> $data                                                                          
 INPUT CARD>C2H4 in the V state                                                             
 INPUT CARD>Dn 2                                                                            
 INPUT CARD>                                                                                
 INPUT CARD>C           6.0   0.0000000000   0.0000000000   0.6917328242                    
 INPUT CARD>H           1.0   0.6382238628   0.6382238628   1.2997776241                    
 INPUT CARD> $end                                                                           
 INPUT CARD>                                                                                
 INPUT CARD>------ geometry of ground N state at rotational maximum                         
 INPUT CARD>C           6.0   0.0000000000   0.0000000000   0.7486926908                    
 INPUT CARD>H           1.0   0.6500976762   0.6500976762   1.3062796706                    
 INPUT CARD>                                                                                
 INPUT CARD>------ geometry of pi->pi* state (V state)                                      
 INPUT CARD>C           6.0   0.0000000000   0.0000000000   0.6917328242                    
 INPUT CARD>H           1.0   0.6382238628   0.6382238628   1.2997776241                    
 INPUT CARD>                                                                                
 INPUT CARD>------ geometry of pi->pi* doubly excited state (Z state)                       
 INPUT CARD>                                                                                
 INPUT CARD>--- OPTIMIZED MCSCF MO-S --- GENERATED AT Tue Apr  6 17:02:35 2004              
 INPUT CARD>C2H4 at rotational saddle point...sigma,pi,pi*,sigma* active                    
 INPUT CARD>E(MCSCF)=      -77.9753563834, E(NUC)=       31.4762283844                      
 INPUT CARD> $VEC                                                                           
 INPUT CARD> 1  1 7.04434406E-01 1.72988902E-02 0.00000000E+00 0.00000000E+00 3.00830120E-04
 INPUT CARD> 1  2-1.10179264E-02 0.00000000E+00 0.00000000E+00-1.60418643E-03-2.55693147E-04
 INPUT CARD> 1  3-2.55693147E-04 5.11386295E-04-1.61095699E-04 0.00000000E+00 0.00000000E+00
 INPUT CARD> 1  4-7.04434406E-01-1.72988902E-02 0.00000000E+00 0.00000000E+00 3.00830120E-04
 INPUT CARD> 1  5 1.10179264E-02 0.00000000E+00 0.00000000E+00-1.60418643E-03 2.55693147E-04
 INPUT CARD> 1  6 2.55693147E-04-5.11386295E-04-1.61095699E-04 0.00000000E+00 0.00000000E+00
 INPUT CARD> 1  7 9.97072164E-05-1.60027604E-03-9.97072164E-05 1.60027604E-03-9.97072164E-05
 INPUT CARD> 1  8 1.60027604E-03 9.97072164E-05-1.60027604E-03                              
    1000000 WORDS OF MEMORY AVAILABLE

     BASIS OPTIONS
     -------------
     GBASIS=N31          IGAUSS=       6      POLAR=POPN31  
     NDFUNC=       1     NFFUNC=       0     DIFFSP=       F
     NPFUNC=       0      DIFFS=       F     BASNAM=        


     RUN TITLE
     ---------
 C2H4 in the V state                                                             

 THE POINT GROUP OF THE MOLECULE IS DN      
 THE ORDER OF THE PRINCIPAL AXIS IS     2

 ATOM      ATOMIC                      COORDINATES (BOHR)
           CHARGE         X                   Y                   Z
 C           6.0     0.0000000000        0.0000000000       -1.3071854945
 C           6.0     0.0000000000        0.0000000000        1.3071854945
 H           1.0    -1.2060682195       -1.2060682195        2.4562235545
 H           1.0     1.2060682195       -1.2060682195       -2.4562235545
 H           1.0    -1.2060682195        1.2060682195       -2.4562235545
 H           1.0     1.2060682195        1.2060682195        2.4562235545

          INTERNUCLEAR DISTANCES (ANGS.)
          ------------------------------

                1 C          2 C          3 H          4 H          5 H     

   1 C       0.0000000    1.3834656 *  2.1864979 *  1.0882913 *  1.0882913 *
   2 C       1.3834656 *  0.0000000    1.0882913 *  2.1864979 *  2.1864979 *
   3 H       2.1864979 *  1.0882913 *  0.0000000    2.8960329 *  2.8960329 *
   4 H       1.0882913 *  2.1864979 *  2.8960329 *  0.0000000    1.8051697 *
   5 H       1.0882913 *  2.1864979 *  2.8960329 *  1.8051697 *  0.0000000  
   6 H       2.1864979 *  1.0882913 *  1.8051697 *  2.8960329 *  2.8960329 *

                6 H     

   1 C       2.1864979 *
   2 C       1.0882913 *
   3 H       1.8051697 *
   4 H       2.8960329 *
   5 H       2.8960329 *
   6 H       0.0000000  

  * ... LESS THAN  3.000


     ATOMIC BASIS SET
     ----------------
 THE CONTRACTED PRIMITIVE FUNCTIONS HAVE BEEN UNNORMALIZED
 THE CONTRACTED BASIS FUNCTIONS ARE NOW NORMALIZED TO UNITY

  SHELL TYPE  PRIMITIVE        EXPONENT          CONTRACTION COEFFICIENT(S)

 C         

      5   S       1          3047.5248800    0.001834737132
      5   S       2           457.3695180    0.014037322813
      5   S       3           103.9486850    0.068842622264
      5   S       4            29.2101553    0.232184443216
      5   S       5             9.2866630    0.467941348435
      5   S       6             3.1639270    0.362311985337

      6   L       7             7.8682723   -0.119332419775    0.068999066591
      6   L       8             1.8812885   -0.160854151696    0.316423960957
      6   L       9             0.5442493    1.143456437840    0.744308290898

      7   L      10             0.1687145    1.000000000000    1.000000000000

      8   D      11             0.8000000    1.000000000000

 H         

     15   S      12            18.7311370    0.033494604338
     15   S      13             2.8253944    0.234726953484
     15   S      14             0.6401217    0.813757326146

     16   S      15             0.1612778    1.000000000000

 TOTAL NUMBER OF BASIS SET SHELLS             =   16
 NUMBER OF CARTESIAN GAUSSIAN BASIS FUNCTIONS =   38
 NOTE: THIS RUN WILL RESTRICT THE MO VARIATION SPACE TO SPHERICAL HARMONICS.
 THE NUMBER OF ORBITALS KEPT IN THE VARIATIONAL SPACE WILL BE PRINTED LATER.
 NUMBER OF ELECTRONS                          =   16
 CHARGE OF MOLECULE                           =    0
 SPIN MULTIPLICITY                            =    1
 NUMBER OF OCCUPIED ORBITALS (ALPHA)          =    8
 NUMBER OF OCCUPIED ORBITALS (BETA )          =    8
 TOTAL NUMBER OF ATOMS                        =    6
 THE NUCLEAR REPULSION ENERGY IS       32.5656276260

     $CONTRL OPTIONS
     ---------------
 SCFTYP=MCSCF        RUNTYP=HESSIAN      EXETYP=RUN     
 MPLEVL=       0     CITYP =NONE         CCTYP =NONE         VBTYP =NONE    
 DFTTYP=NONE         TDDFT =NONE    
 MULT  =       1     ICHARG=       0     NZVAR =       0     COORD =UNIQUE  
 PP    =NONE         RELWFN=NONE         LOCAL =NONE         NUMGRD=       F
 ISPHER=       1     NOSYM =       0     MAXIT =      30     UNITS =ANGS    
 PLTORB=       F     MOLPLT=       F     AIMPAC=       F     FRIEND=        
 NPRINT=       7     IREST =       0     GEOM  =INPUT   
 NORMF =       0     NORMP =       0     ITOL  =      20     ICUT  =       9
 INTTYP=BEST         GRDTYP=BEST         QMTTOL= 1.0E-06

     $SYSTEM OPTIONS
     ---------------
  REPLICATED MEMORY=     1000000 WORDS (ON EVERY NODE).
 DISTRIBUTED MEMDDI=           5 MILLION WORDS IN AGGREGATE,
 MEMDDI DISTRIBUTED OVER   1 PROCESSORS IS     5000000 WORDS/PROCESSOR.
 TOTAL MEMORY REQUESTED ON EACH PROCESSOR=     6000000 WORDS.
 TIMLIM=      525600.00 MINUTES, OR     365.0 DAYS.
 PARALL= F  BALTYP=  DLB     KDIAG=    0  COREFL= F
 MXSEQ2=     300 MXSEQ3=     150  mem10=         0

          ----------------
          PROPERTIES INPUT
          ----------------

     MOMENTS            FIELD           POTENTIAL          DENSITY
 IEMOM =       1   IEFLD =       0   IEPOT =       0   IEDEN =       0
 WHERE =COMASS     WHERE =NUCLEI     WHERE =NUCLEI     WHERE =NUCLEI  
 OUTPUT=BOTH       OUTPUT=BOTH       OUTPUT=BOTH       OUTPUT=BOTH    
 IEMINT=       0   IEFINT=       0                     IEDINT=       0
                                                       MORB  =       0

     -------------------------------
     INTEGRAL TRANSFORMATION OPTIONS
     -------------------------------
     NWORD  =            0
     CUTOFF = 1.0E-09     MPTRAN =       0
     DIRTRF =       F     AOINTS =DUP     

          ----------------------
          MCSCF INPUT PARAMETERS
          ----------------------
 CONVERGER SELECTION: FOCAS = F  SOSCF = F  FULLNR = T  QUD = F  JACOBI = F
 SECULAR EQUATION METHOD CISTEP = ALDET   
 --- GENERAL INPUT OPTIONS:
 MAXIT =      30  MICIT =       1  ACURCY= 1.000E-05
 DAMP  =   0.000  CANONC=       T  ENGTOL= 1.000E-10
 EKT   =       F  NPUNCH=       2  NWORD =         0
 REGENERATE CI AFTER CONVERGENCE = NONE    
 DIABATIZATION AFTER CONVERGENCE =        F
 --- INPUT FOR FULLNR CONVERGER:
 METHOD=DM2       FORS  =       F  DROPC =       T
 LINSER=       F  FCORE =       F  NORB  =      38

          ----------------------
          INTEGRAL INPUT OPTIONS
          ----------------------
 NOPK  =       1 NORDER=       0 SCHWRZ=       T

     ------------------------------------------
     THE POINT GROUP IS DN , NAXIS= 2, ORDER= 4
     ------------------------------------------

 -- VARIATIONAL SPACE WILL BE RESTRICTED TO PURE SPHERICAL HARMONICS ONLY --
 AFTER EXCLUDING CONTAMINANT COMBINATIONS FROM THE CARTESIAN GAUSSIAN BASIS
 SET, THE NUMBER OF SPHERICAL HARMONICS KEPT IN THE VARIATION SPACE IS   36

     DIMENSIONS OF THE SYMMETRY SUBSPACES ARE
 A   =   10     B1  =   10     B3  =    8     B2  =    8

 ..... DONE SETTING UP THE RUN .....
 STEP CPU TIME =     0.03 TOTAL CPU TIME =        0.0 (    0.0 MIN)
 TOTAL WALL CLOCK TIME=        0.0 SECONDS, CPU UTILIZATION IS  75.00%

     ---------------------------------
     HESSIAN MATRIX CONTROL PARAMETERS
     ---------------------------------
     METHOD=ANALYTIC   NVIB  =       2   VIBSIZ= 0.01000
     RDHESS=       F   PURIFY=       F   PRTIFC=       F
     VIBANL=       T   DECOMP=       F   PROJCT=       F
     SCLFAC= 1.00000   PRTSCN=       F   NPRT  =       0
     PULCOR=       F   NPUN  =       0   REDOVB=       T
     HSSTYP=GENERAL 
     THERMOCHEMISTRY WILL BE PRINTED FOR    1 TEMPERATURES:
      298.15000
 Old integral subroutine is used

     ------------------------------
     CPHF RESPONSE SOLUTION OPTIONS
     ------------------------------
     POLAR  =       F     NWORD  =       0
     CPHF   =MO      

          ********************
          1 ELECTRON INTEGRALS
          ********************
 TIME TO DO   DIPOLE INTEGRALS=      0.01
 ...... END OF ONE-ELECTRON INTEGRALS ......
 STEP CPU TIME =     0.01 TOTAL CPU TIME =        0.0 (    0.0 MIN)
 TOTAL WALL CLOCK TIME=        0.0 SECONDS, CPU UTILIZATION IS 100.00%

          -------------
          GUESS OPTIONS
          -------------
          GUESS =MOREAD            NORB  =      36          NORDER=       0
          MIX   =       F          PRTMO =       F          PUNMO =       F
          TOLZ  = 1.0E-08          TOLE  = 1.0E-05
          SYMDEN=       F          PURIFY=       F

 INITIAL GUESS ORBITALS GENERATED BY MOREAD   ROUTINE.

 STATISTICS FOR GENERATION OF SYMMETRY ORBITAL -Q- MATRIX
 NUMBER OF CARTESIAN ATOMIC ORBITALS=         38
 NUMBER OF SPHERICAL CONTAMINANTS DROPPED=     2
 NUMBER OF LINEARLY DEPENDENT MOS DROPPED=     0
 TOTAL NUMBER OF MOS IN VARIATION SPACE=      36

 SYMMETRIES FOR INITIAL GUESS ORBITALS FOLLOW.   BOTH SET(S).
     8 ORBITALS ARE OCCUPIED (    2 CORE ORBITALS).
     1=B1       2=A        3=B1       4=A        5=B2       6=B3       7=A   
     8=B3       9=B2      10=B1      11=A       12=B1      13=B3      14=B2  
    15=B1      16=A       17=B2      18=B3      19=A       20=B3      21=B2  
    22=B1      23=B2      24=B3      25=B1      26=A       27=A       28=B1  
    29=B3      30=B2      31=A       32=B1      33=A       34=B3      35=B2  
    36=B1  
 ...... END OF INITIAL ORBITAL SELECTION ......
 STEP CPU TIME =     0.00 TOTAL CPU TIME =        0.0 (    0.0 MIN)
 TOTAL WALL CLOCK TIME=        0.0 SECONDS, CPU UTILIZATION IS  80.00%

                    ----------------------
                    AO INTEGRAL TECHNOLOGY
                    ----------------------
     S,P,L SHELL ROTATED AXIS INTEGRALS, REPROGRAMMED BY
        KAZUYA ISHIMURA (IMS) AND JOSE SIERRA (SYNSTAR).
     S,P,D,L SHELL ROTATED AXIS INTEGRALS PROGRAMMED BY
        KAZUYA ISHIMURA (INSTITUTE FOR MOLECULAR SCIENCE).
     S,P,D,F,G SHELL TO TOTAL QUARTET ANGULAR MOMENTUM SUM 5,
        ERIC PROGRAM BY GRAHAM FLETCHER (ELORET AND NASA ADVANCED
        SUPERCOMPUTING DIVISION, AMES RESEARCH CENTER).
     S,P,D,F,G,L SHELL GENERAL RYS QUADRATURE PROGRAMMED BY
        MICHEL DUPUIS (PACIFIC NORTHWEST NATIONAL LABORATORY).

          --------------------
          2 ELECTRON INTEGRALS
          --------------------

 THE -PK- OPTION IS OFF, THE INTEGRALS ARE NOT IN SUPERMATRIX FORM.
 STORING   15000 INTEGRALS/RECORD ON DISK, USING 12 BYTES/INTEGRAL.
 TWO ELECTRON INTEGRAL EVALUATION REQUIRES   90532 WORDS OF MEMORY.
 SCHWARZ INEQUALITY OVERHEAD:       741 INTEGRALS, T=        0.00
 II,JST,KST,LST =  1  1  1  1 NREC =         1 INTLOC =    1
 II,JST,KST,LST =  2  1  1  1 NREC =         1 INTLOC =    1
 II,JST,KST,LST =  3  1  1  1 NREC =         1 INTLOC =    1
 II,JST,KST,LST =  4  1  1  1 NREC =         1 INTLOC =    1
 II,JST,KST,LST =  5  1  1  1 NREC =         1 INTLOC =    1
 II,JST,KST,LST =  6  1  1  1 NREC =         1 INTLOC =    4
 II,JST,KST,LST =  7  1  1  1 NREC =         1 INTLOC =  305
 II,JST,KST,LST =  8  1  1  1 NREC =         1 INTLOC = 2380
 II,JST,KST,LST =  9  1  1  1 NREC =         2 INTLOC =  185
 II,JST,KST,LST = 10  1  1  1 NREC =         2 INTLOC =  185
 II,JST,KST,LST = 11  1  1  1 NREC =         2 INTLOC =  185
 II,JST,KST,LST = 12  1  1  1 NREC =         2 INTLOC =  185
 II,JST,KST,LST = 13  1  1  1 NREC =         2 INTLOC =  185
 II,JST,KST,LST = 14  1  1  1 NREC =         2 INTLOC =  185
 II,JST,KST,LST = 15  1  1  1 NREC =         2 INTLOC =  185
 II,JST,KST,LST = 16  1  1  1 NREC =         3 INTLOC = 2607
 SCHWARZ INEQUALITY TEST SKIPPED           4 INTEGRAL BLOCKS.
 TOTAL NUMBER OF NONZERO TWO-ELECTRON INTEGRALS =               57041
          4 INTEGRAL RECORDS WERE STORED ON DISK FILE  8.
  ...... END OF TWO-ELECTRON INTEGRALS .....
 STEP CPU TIME =     0.02 TOTAL CPU TIME =        0.1 (    0.0 MIN)
 TOTAL WALL CLOCK TIME=        0.1 SECONDS, CPU UTILIZATION IS  85.71%

          -----------------
          MCSCF CALCULATION
          -----------------

 ----- NUCLEAR ENERGY ----- =        32.5656276260

     --------------------------------------------------
          AMES LABORATORY DETERMINANTAL FULL CI
     PROGRAM WRITTEN BY JOE IVANIC AND KLAUS RUEDENBERG
     --------------------------------------------------

 THE POINT GROUP                  =   D2      
 THE STATE SYMMETRY               =   B1      
 NUMBER OF CORE ORBITALS          =    6
 NUMBER OF ACTIVE ORBITALS        =    4
 NUMBER OF ALPHA ELECTRONS        =    8 (   2 ACTIVE)
 NUMBER OF BETA ELECTRONS         =    8 (   2 ACTIVE)
 NUMBER OF OCCUPIED ORBITALS      =   10
 NUMBER OF CI STATES REQUESTED    =    4
 NUMBER OF CI STARTING VECTORS    =    4
 MAX. NO. OF CI EXPANSION VECTORS =   10
 SIZE OF INITIAL CI GUESS MATRIX  =  300
 MAX. NO. OF CI ITERS/STATE       =  100
 CI DIAGONALIZATION CRITERION     = 1.00E-06
 PURE SPIN STATE AVERAGED 1E- AND 2E- DENSITY MATRIX OPTION=.T.
 STATE=   1 DM2 WEIGHT=   1.00000

 CORRELATION ENERGY ANALYSIS      =    F

 SYMMETRIES FOR THE   6 CORE,   4 ACTIVE ARE

     CORE= B1    A     B1    A     B2    B3  

   ACTIVE= A     B3    B2    B1  

     --------------------------------------------
     PARTIAL TWO ELECTRON INTEGRAL TRANSFORMATION
     --------------------------------------------

 NUMBER OF CORE MOLECULAR ORBITALS     =    6
 NUMBER OF OCCUPIED MOLECULAR ORBITALS =   10
 TOTAL NUMBER OF MOLECULAR ORBITALS    =   36
 TOTAL NUMBER OF ATOMIC ORBITALS       =   38
 THRESHOLD FOR KEEPING TRANSFORMED 2E- INTEGRALS = 1.000E-09
 AO INTEGRALS WILL BE READ IN FROM DISK...

 PLAN A: REQUIREMENTS FOR FULLY IN-MEMORY TRANSFORMATION:
 # OF WORDS AVAILABLE =              1000000
 # OF WORDS NEEDED    =               348878

 CHOOSING IN MEMORY PARTIAL TRANSFORMATION...
 TOTAL NUMBER OF TRANSFORMED 2E- INTEGRALS KEPT =        15644
 ----- FROZEN CORE ENERGY =      -105.3108567685
 ... END OF INTEGRAL TRANSFORMATION ...
 STEP CPU TIME =     0.02 TOTAL CPU TIME =        0.1 (    0.0 MIN)
 TOTAL WALL CLOCK TIME=        0.1 SECONDS, CPU UTILIZATION IS  88.89%

     --------------------------------------------------
          AMES LABORATORY DETERMINANTAL FULL CI
     PROGRAM WRITTEN BY JOE IVANIC AND KLAUS RUEDENBERG
     --------------------------------------------------

 THE NUMBER OF DETERMINANTS HAVING SPACE SYMMETRY B1 
 IN POINT GROUP D2   WITH SZ=  0.0 IS              8
 THE DETERMINANT FULL CI REQUIRES          171461 WORDS
 SMALL CI MATRIX, JUST USING INCORE DIAGONALIZATION...

 CI EIGENVECTORS WILL BE LABELED IN GROUP=D2      
 PRINTING ALL NON-ZERO CI COEFFICIENTS

 STATE   1  ENERGY=       -77.9595312424  S=  1.00  SZ=  0.00  SPACE SYM=B1  

ALPHA |BETA  | CI COEFFICIENT
------|------|---------------
 1010 | 1100 |                                                                                                       0.7045701812
 1100 | 1010 |                                                                                                      -0.7045701812
 0101 | 0011 |                                                                                                       0.0461410291
 0011 | 0101 |                                                                                                      -0.0461410291
 1100 | 0101 |                                                                                                       0.0269431360
 0101 | 1100 |                                                                                                      -0.0269431360
 0011 | 1010 |                                                                                                       0.0269431360
 1010 | 0011 |                                                                                                      -0.0269431360

 STATE   2  ENERGY=       -77.7586221771  S=  0.00  SZ=  0.00  SPACE SYM=B1  

ALPHA |BETA  | CI COEFFICIENT
------|------|---------------
 1100 | 1010 |                                                                                                       0.6966699531
 1010 | 1100 |                                                                                                       0.6966699531
 0011 | 1010 |                                                                                                       0.0824130944
 0101 | 1100 |                                                                                                       0.0824130944
 1010 | 0011 |                                                                                                       0.0824130944
 1100 | 0101 |                                                                                                       0.0824130944
 0011 | 0101 |                                                                                                      -0.0326671112
 0101 | 0011 |                                                                                                      -0.0326671112

 STATE   3  ENERGY=       -76.9882008967  S=  1.00  SZ=  0.00  SPACE SYM=B1  

ALPHA |BETA  | CI COEFFICIENT
------|------|---------------
 1010 | 0011 |                                                                                                       0.4989652118
 1100 | 0101 |                                                                                                      -0.4989652118
 0011 | 1010 |                                                                                                      -0.4989652118
 0101 | 1100 |                                                                                                       0.4989652118
 1100 | 1010 |                                                                                                      -0.0396221152
 1010 | 1100 |                                                                                                       0.0396221152
 0011 | 0101 |                                                                                                       0.0223052206
 0101 | 0011 |                                                                                                      -0.0223052206

 STATE   4  ENERGY=       -76.7558588904  S=  1.00  SZ=  0.00  SPACE SYM=B1  

ALPHA |BETA  | CI COEFFICIENT
------|------|---------------
 0101 | 1100 |                                                                                                       0.5000000000
 1010 | 0011 |                                                                                                      -0.5000000000
 0011 | 1010 |                                                                                                       0.5000000000
 1100 | 0101 |                                                                                                      -0.5000000000
 1100 | 1010 |                                                                                                      -0.0000000000
 1010 | 1100 |                                                                                                      -0.0000000000
 0101 | 0011 |                                                                                                       0.0000000000
 0011 | 0101 |                                                                                                      -0.0000000000
 ..... DONE WITH DETERMINANT CI COMPUTATION .....
 STEP CPU TIME =     0.00 TOTAL CPU TIME =        0.1 (    0.0 MIN)
 TOTAL WALL CLOCK TIME=        0.1 SECONDS, CPU UTILIZATION IS  88.89%

     --------------------------------------------------
      ONE AND TWO PARTICLE DENSITY MATRIX COMPUTATION
     PROGRAM WRITTEN BY JOE IVANIC AND KLAUS RUEDENBERG
     --------------------------------------------------

      30472 WORDS WILL BE USED TO FORM THE DENSITIES
 THE DENSITIES ARE STATE AVERAGED OVER   1 ROOT(S)
 STATE=   2   ENERGY=      -77.7586221771   WEIGHT= 1.00000   S=  0.00
 SIEVING THE A    SYMMETRY NONZERO DENSITY ELEMENTS IN GROUP D2      
         19 NONZERO DM2 ELEMENTS WRITTEN IN       1 RECORDS TO FILE 15
 ..... DONE WITH 1 AND 2 PARTICLE DENSITY MATRIX .....
 STEP CPU TIME =     0.00 TOTAL CPU TIME =        0.1 (    0.0 MIN)
 TOTAL WALL CLOCK TIME=        0.1 SECONDS, CPU UTILIZATION IS  88.89%

     --------------------------------     -----------------------------
     MCHF NEWTON-RAPHSON OPTIMIZATION     CODE WRITTEN BY MICHEL DUPUIS
     --------------------------------     -----------------------------
 FORMING FOCK OPERATOR OVER ACTIVE ORBITAL DENSITY, MEMORY=     37461
 STEP CPU TIME =     0.01 TOTAL CPU TIME =        0.1 (    0.0 MIN)
 TOTAL WALL CLOCK TIME=        0.1 SECONDS, CPU UTILIZATION IS  90.00%
 MEMORY DEMAND FOR 2 ELECTRON NTN-RPH CONTRIBUTIONS
      METHOD=DM2     NEEDS     68314 WORDS
      METHOD=TEI     NEEDS     35914 WORDS
 TOTAL AVAILABLE MEMORY IS   1000000 WORDS
 CHOOSING DM2 DRIVEN METHOD...
 FORMING -LGR- + -COU- + -EXC- FROM (IJ//KL) INTEGRALS
 STEP CPU TIME =     0.00 TOTAL CPU TIME =        0.1 (    0.0 MIN)
 TOTAL WALL CLOCK TIME=        0.1 SECONDS, CPU UTILIZATION IS  90.00%
 FORMING -LGR- + -COU- + -EXC- FROM (AJ//KL) INTEGRALS
 STEP CPU TIME =     0.00 TOTAL CPU TIME =        0.1 (    0.0 MIN)
 TOTAL WALL CLOCK TIME=        0.1 SECONDS, CPU UTILIZATION IS  90.00%
 FORMING         -COU-         FROM (AB//KL) INTEGRALS
 STEP CPU TIME =     0.00 TOTAL CPU TIME =        0.1 (    0.0 MIN)
 TOTAL WALL CLOCK TIME=        0.1 SECONDS, CPU UTILIZATION IS  90.00%
 FORMING                 -EXC- FROM (AJ//BL) INTEGRALS
 ..... DONE WITH 2 ELECTRON CONTRIBUTIONS .....
 STEP CPU TIME =     0.00 TOTAL CPU TIME =        0.1 (    0.0 MIN)
 TOTAL WALL CLOCK TIME=        0.1 SECONDS, CPU UTILIZATION IS  90.00%
 ..... DONE WITH 1 ELECTRON CONTRIBUTIONS .....
 STEP CPU TIME =     0.00 TOTAL CPU TIME =        0.1 (    0.0 MIN)
 TOTAL WALL CLOCK TIME=        0.1 SECONDS, CPU UTILIZATION IS  90.00%
 NUMBER OF INDEPENDENT ORBITAL ROTATION PARAMETERS =    66
 ..... DONE SOLVING NEWTON-RAPHSON EQUATIONS .....
 STEP CPU TIME =     0.00 TOTAL CPU TIME =        0.1 (    0.0 MIN)
 TOTAL WALL CLOCK TIME=        0.1 SECONDS, CPU UTILIZATION IS  90.00%
 ..... DONE WITH NTN-RPH ORBITAL ROTATIONS ..... 
 STEP CPU TIME =     0.00 TOTAL CPU TIME =        0.1 (    0.0 MIN)
 TOTAL WALL CLOCK TIME=        0.1 SECONDS, CPU UTILIZATION IS  90.00%
 MAXIMUM MEMORY USED BY NTN-RPH CODE WAS     68314 WORDS.

 ITER     TOTAL ENERGY      DEL(E)  LAGRANGIAN ASYMMETRY   SQCDF  MICIT   DAMP
   1      -77.758622177 -0.758622177  0.089623   17    9 1.388E-01  1   0.0000
   2      -77.821908575 -0.063286398  0.018228   18    6 4.044E-02  1   0.0000
   3      -77.824343260 -0.002434685  0.000381   17    5 4.528E-04  1   0.0000
   4      -77.824353921 -0.000010661  0.000054   18    8 9.470E-07  1   0.0000
   5      -77.824353980 -0.000000059  0.000013   17    9 3.942E-08  1   0.0000
   6      -77.824353983 -0.000000003  0.000003    8    6 1.566E-09  1   0.0000

          --------------------
          LAGRANGIAN CONVERGED
          --------------------

 FINAL MCSCF ENERGY IS      -77.8243539827 AFTER   6 ITERATIONS

 -MCCI- BASED ON OPTIMIZED ORBITALS
 ----------------------------------

 PLEASE NOTE: IF THE ACTIVE ORBITALS ARE CANONICALIZED BELOW,
 THE FOLLOWING CI EXPANSION COEFFICIENTS AND THE DENSITY DO NOT
 CORRESPOND TO THE PRINTED ORBITALS.  THE PRINTED EXPANSIONS MATCH
 THE ORBITALS USED DURING THE LAST ITERATION.  IF YOU WISH TO SEE
 CI EXPANSIONS BASED ON THE CANONICAL (OR NATURAL) ORBITALS, YOU
 MUST RUN A CI CALCULATION WITH THAT ORBITAL CHOICE READ IN $VEC.

 CI EIGENVECTORS WILL BE LABELED IN GROUP=D2      
 PRINTING ALL NON-ZERO CI COEFFICIENTS

 STATE   1  ENERGY=       -77.9273927771  S=  1.00  SZ=  0.00  SPACE SYM=B1  

ALPHA |BETA  | CI COEFFICIENT
------|------|---------------
 1100 | 1010 |                                                                                                       0.7049901806
 1010 | 1100 |                                                                                                      -0.7049901806
 0101 | 0011 |                                                                                                      -0.0497791488
 0011 | 0101 |                                                                                                       0.0497791488
 0101 | 1100 |                                                                                                       0.0159825147
 1010 | 0011 |                                                                                                       0.0159825147
 1100 | 0101 |                                                                                                      -0.0159825147
 0011 | 1010 |                                                                                                      -0.0159825147

 STATE   2  ENERGY=       -77.8243539827  S=  0.00  SZ=  0.00  SPACE SYM=B1  

ALPHA |BETA  | CI COEFFICIENT
------|------|---------------
 1010 | 1100 |                                                                                                       0.7009403386
 1100 | 1010 |                                                                                                       0.7009403386
 1010 | 0011 |                                                                                                       0.0584733736
 0011 | 1010 |                                                                                                       0.0584733736
 0101 | 1100 |                                                                                                       0.0584733736
 1100 | 0101 |                                                                                                       0.0584733736
 0011 | 0101 |                                                                                                      -0.0429461395
 0101 | 0011 |                                                                                                      -0.0429461395

 STATE   3  ENERGY=       -76.9976886102  S=  1.00  SZ=  0.00  SPACE SYM=B1  

ALPHA |BETA  | CI COEFFICIENT
------|------|---------------
 1010 | 0011 |                                                                                                       0.4996417175
 0011 | 1010 |                                                                                                      -0.4996417175
 1100 | 0101 |                                                                                                      -0.4996417175
 0101 | 1100 |                                                                                                       0.4996417175
 1100 | 1010 |                                                                                                      -0.0235519480
 1010 | 1100 |                                                                                                       0.0235519480
 0011 | 0101 |                                                                                                       0.0127127502
 0101 | 0011 |                                                                                                      -0.0127127502

 STATE   4  ENERGY=       -76.8788248251  S=  1.00  SZ=  0.00  SPACE SYM=B1  

ALPHA |BETA  | CI COEFFICIENT
------|------|---------------
 0101 | 1100 |                                                                                                       0.5000000000
 1100 | 0101 |                                                                                                      -0.5000000000
 1010 | 0011 |                                                                                                      -0.5000000000
 0011 | 1010 |                                                                                                       0.5000000000
 1100 | 1010 |                                                                                                      -0.0000000000
 1010 | 1100 |                                                                                                       0.0000000000
 0011 | 0101 |                                                                                                      -0.0000000000
 0101 | 0011 |                                                                                                      -0.0000000000

 DENSITY MATRIX OVER ACTIVE MO-S

             1           2           3           4

    1    1.9789460
    2    0.0000000   1.0000000
    3    0.0000000   0.0000000   1.0000000
    4    0.0000000   0.0000000   0.0000000   0.0210540

 FORMING THE "STANDARD FOCK OPERATOR" USING INTEGRALS FROM DISK...
     6 FILLED,    4 ACTIVE, AND   26 VIRTUAL ORBITALS  WILL BE CANONICALIZED

          ----------------------
          MCSCF NATURAL ORBITALS
          ----------------------

                      1          2          3          4          5
                  -11.2417   -11.2409    -0.8995    -0.8017    -0.5753
                     A          B1         A          B1         B2  
    1  C  1  S    0.703675   0.704498  -0.127526  -0.121628  -0.000000
    2  C  1  S    0.017784   0.017495   0.245560   0.240552  -0.000000
    3  C  1  X   -0.000000  -0.000000  -0.000000   0.000000  -0.135173
    4  C  1  Y   -0.000000  -0.000000  -0.000000   0.000000   0.296476
    5  C  1  Z    0.002212   0.000567  -0.130706  -0.164969  -0.000000
    6  C  1  S   -0.006542  -0.011567   0.218674   0.253763  -0.000000
    7  C  1  X   -0.000000  -0.000000  -0.000000   0.000000  -0.055505
    8  C  1  Y   -0.000000  -0.000000  -0.000000   0.000000   0.159361
    9  C  1  Z    0.002000  -0.001630  -0.079850  -0.063389  -0.000000
   10  C  1 XX   -0.000097  -0.000349  -0.002653   0.001536  -0.000000
   11  C  1 YY   -0.000097  -0.000349  -0.002653   0.001536  -0.000000
   12  C  1 ZZ    0.000193   0.000697   0.005307  -0.003073  -0.000000
   13  C  1 XY   -0.000228  -0.000159  -0.016398  -0.017997  -0.000000
   14  C  1 XZ   -0.000000  -0.000000  -0.000000   0.000000   0.018651
   15  C  1 YZ   -0.000000  -0.000000  -0.000000   0.000000  -0.005091
   16  C  2  S    0.703675  -0.704498  -0.127526   0.121628  -0.000000
   17  C  2  S    0.017784  -0.017495   0.245560  -0.240552  -0.000000
   18  C  2  X   -0.000000  -0.000000  -0.000000   0.000000   0.135173
   19  C  2  Y   -0.000000  -0.000000  -0.000000   0.000000   0.296476
   20  C  2  Z   -0.002212   0.000567   0.130706  -0.164969  -0.000000
   21  C  2  S   -0.006542   0.011567   0.218674  -0.253763  -0.000000
   22  C  2  X   -0.000000  -0.000000  -0.000000   0.000000   0.055505
   23  C  2  Y   -0.000000  -0.000000  -0.000000   0.000000   0.159361
   24  C  2  Z   -0.002000  -0.001630   0.079850  -0.063389  -0.000000
   25  C  2 XX   -0.000097   0.000349  -0.002653  -0.001536  -0.000000
   26  C  2 YY   -0.000097   0.000349  -0.002653  -0.001536  -0.000000
   27  C  2 ZZ    0.000193  -0.000697   0.005307   0.003073  -0.000000
   28  C  2 XY    0.000228  -0.000159   0.016398  -0.017997  -0.000000
   29  C  2 XZ   -0.000000  -0.000000  -0.000000   0.000000   0.018651
   30  C  2 YZ   -0.000000  -0.000000  -0.000000   0.000000   0.005091
   31  H  3  S   -0.000744   0.000123   0.136739  -0.143719  -0.153583
   32  H  3  S    0.001807  -0.001574   0.059210  -0.060852  -0.105077
   33  H  4  S   -0.000744  -0.000123   0.136739   0.143719  -0.153583
   34  H  4  S    0.001807   0.001574   0.059210   0.060852  -0.105077
   35  H  5  S   -0.000744  -0.000123   0.136739   0.143719   0.153583
   36  H  5  S    0.001807   0.001574   0.059210   0.060852   0.105077
   37  H  6  S   -0.000744   0.000123   0.136739  -0.143719   0.153583
   38  H  6  S    0.001807  -0.001574   0.059210  -0.060852   0.105077

                      6          7          8          9         10
                   -0.5753     1.9789     1.0000     1.0000     0.0211
                     B3         A          B3         B2         B1  
    1  C  1  S    0.000000  -0.094173   0.000000  -0.000000  -0.108709
    2  C  1  S    0.000000   0.183608   0.000000  -0.000000   0.574667
    3  C  1  X    0.296476  -0.000000   0.194589   0.278895   0.000000
    4  C  1  Y   -0.135173  -0.000000   0.278895   0.194589   0.000000
    5  C  1  Z    0.000000   0.398975   0.000000  -0.000000   0.817625
    6  C  1  S    0.000000   0.106117   0.000000  -0.000000   0.442089
    7  C  1  X    0.159361  -0.000000   0.312809   0.267177   0.000000
    8  C  1  Y   -0.055505  -0.000000   0.267177   0.312809   0.000000
    9  C  1  Z    0.000000   0.134511   0.000000  -0.000000   0.265849
   10  C  1 XX    0.000000  -0.009548   0.000000  -0.000000  -0.023423
   11  C  1 YY    0.000000  -0.009548   0.000000  -0.000000  -0.023423
   12  C  1 ZZ    0.000000   0.019095   0.000000  -0.000000   0.046845
   13  C  1 XY    0.000000   0.005479   0.000000  -0.000000   0.015195
   14  C  1 XZ   -0.005091  -0.000000   0.034336  -0.027492   0.000000
   15  C  1 YZ    0.018651  -0.000000  -0.027492   0.034336   0.000000
   16  C  2  S    0.000000  -0.094173   0.000000  -0.000000   0.108709
   17  C  2  S    0.000000   0.183608   0.000000  -0.000000  -0.574667
   18  C  2  X    0.296476  -0.000000   0.194589  -0.278895   0.000000
   19  C  2  Y    0.135173  -0.000000  -0.278895   0.194589   0.000000
   20  C  2  Z    0.000000  -0.398975   0.000000  -0.000000   0.817625
   21  C  2  S    0.000000   0.106117   0.000000  -0.000000  -0.442089
   22  C  2  X    0.159361  -0.000000   0.312809  -0.267177   0.000000
   23  C  2  Y    0.055505  -0.000000  -0.267177   0.312809   0.000000
   24  C  2  Z    0.000000  -0.134511   0.000000  -0.000000   0.265849
   25  C  2 XX    0.000000  -0.009548   0.000000  -0.000000   0.023423
   26  C  2 YY    0.000000  -0.009548   0.000000  -0.000000   0.023423
   27  C  2 ZZ    0.000000   0.019095   0.000000  -0.000000  -0.046845
   28  C  2 XY    0.000000  -0.005479   0.000000  -0.000000   0.015195
   29  C  2 XZ    0.005091  -0.000000  -0.034336  -0.027492   0.000000
   30  C  2 YZ    0.018651  -0.000000  -0.027492  -0.034336   0.000000
   31  H  3  S   -0.153583  -0.061521   0.106382   0.106382   0.022242
   32  H  3  S   -0.105077  -0.067912   0.205917   0.205917   0.007694
   33  H  4  S    0.153583  -0.061521  -0.106382   0.106382  -0.022242
   34  H  4  S    0.105077  -0.067912  -0.205917   0.205917  -0.007694
   35  H  5  S   -0.153583  -0.061521   0.106382  -0.106382  -0.022242
   36  H  5  S   -0.105077  -0.067912   0.205917  -0.205917  -0.007694
   37  H  6  S    0.153583  -0.061521  -0.106382  -0.106382   0.022242
   38  H  6  S    0.105077  -0.067912  -0.205917  -0.205917   0.007694

          ------------------------
          MCSCF OPTIMIZED ORBITALS
          ------------------------

                      1          2          3          4          5
                  -11.2417   -11.2409    -0.8995    -0.8017    -0.5753
                     A          B1         A          B1         B2  
    1  C  1  S    0.703675   0.704498  -0.127526  -0.121628  -0.000000
    2  C  1  S    0.017784   0.017495   0.245560   0.240552  -0.000000
    3  C  1  X   -0.000000  -0.000000  -0.000000   0.000000  -0.135173
    4  C  1  Y   -0.000000  -0.000000  -0.000000   0.000000   0.296476
    5  C  1  Z    0.002212   0.000567  -0.130706  -0.164969  -0.000000
    6  C  1  S   -0.006542  -0.011567   0.218674   0.253763  -0.000000
    7  C  1  X   -0.000000  -0.000000  -0.000000   0.000000  -0.055505
    8  C  1  Y   -0.000000  -0.000000  -0.000000   0.000000   0.159361
    9  C  1  Z    0.002000  -0.001630  -0.079850  -0.063389  -0.000000
   10  C  1 XX   -0.000097  -0.000349  -0.002653   0.001536  -0.000000
   11  C  1 YY   -0.000097  -0.000349  -0.002653   0.001536  -0.000000
   12  C  1 ZZ    0.000193   0.000697   0.005307  -0.003073  -0.000000
   13  C  1 XY   -0.000228  -0.000159  -0.016398  -0.017997  -0.000000
   14  C  1 XZ   -0.000000  -0.000000  -0.000000   0.000000   0.018651
   15  C  1 YZ   -0.000000  -0.000000  -0.000000   0.000000  -0.005091
   16  C  2  S    0.703675  -0.704498  -0.127526   0.121628  -0.000000
   17  C  2  S    0.017784  -0.017495   0.245560  -0.240552  -0.000000
   18  C  2  X   -0.000000  -0.000000  -0.000000   0.000000   0.135173
   19  C  2  Y   -0.000000  -0.000000  -0.000000   0.000000   0.296476
   20  C  2  Z   -0.002212   0.000567   0.130706  -0.164969  -0.000000
   21  C  2  S   -0.006542   0.011567   0.218674  -0.253763  -0.000000
   22  C  2  X   -0.000000  -0.000000  -0.000000   0.000000   0.055505
   23  C  2  Y   -0.000000  -0.000000  -0.000000   0.000000   0.159361
   24  C  2  Z   -0.002000  -0.001630   0.079850  -0.063389  -0.000000
   25  C  2 XX   -0.000097   0.000349  -0.002653  -0.001536  -0.000000
   26  C  2 YY   -0.000097   0.000349  -0.002653  -0.001536  -0.000000
   27  C  2 ZZ    0.000193  -0.000697   0.005307   0.003073  -0.000000
   28  C  2 XY    0.000228  -0.000159   0.016398  -0.017997  -0.000000
   29  C  2 XZ   -0.000000  -0.000000  -0.000000   0.000000   0.018651
   30  C  2 YZ   -0.000000  -0.000000  -0.000000   0.000000   0.005091
   31  H  3  S   -0.000744   0.000123   0.136739  -0.143719  -0.153583
   32  H  3  S    0.001807  -0.001574   0.059210  -0.060852  -0.105077
   33  H  4  S   -0.000744  -0.000123   0.136739   0.143719  -0.153583
   34  H  4  S    0.001807   0.001574   0.059210   0.060852  -0.105077
   35  H  5  S   -0.000744  -0.000123   0.136739   0.143719   0.153583
   36  H  5  S    0.001807   0.001574   0.059210   0.060852   0.105077
   37  H  6  S   -0.000744   0.000123   0.136739  -0.143719   0.153583
   38  H  6  S    0.001807  -0.001574   0.059210  -0.060852   0.105077

                      6          7          8          9         10
                   -0.5753    -0.7006    -0.0992    -0.0992     0.8774
                     B3         A          B3         B2         B1  
    1  C  1  S    0.000000  -0.094173  -0.000000   0.000000  -0.108709
    2  C  1  S    0.000000   0.183608  -0.000000   0.000000   0.574667
    3  C  1  X    0.296476   0.000000   0.194589   0.278895  -0.000000
    4  C  1  Y   -0.135173   0.000000   0.278895   0.194589  -0.000000
    5  C  1  Z    0.000000   0.398975  -0.000000   0.000000   0.817625
    6  C  1  S    0.000000   0.106117  -0.000000   0.000000   0.442089
    7  C  1  X    0.159361   0.000000   0.312809   0.267177  -0.000000
    8  C  1  Y   -0.055505   0.000000   0.267177   0.312809  -0.000000
    9  C  1  Z    0.000000   0.134511  -0.000000   0.000000   0.265849
   10  C  1 XX    0.000000  -0.009548  -0.000000   0.000000  -0.023423
   11  C  1 YY    0.000000  -0.009548  -0.000000   0.000000  -0.023423
   12  C  1 ZZ    0.000000   0.019095  -0.000000   0.000000   0.046845
   13  C  1 XY    0.000000   0.005479  -0.000000   0.000000   0.015195
   14  C  1 XZ   -0.005091   0.000000   0.034336  -0.027492  -0.000000
   15  C  1 YZ    0.018651   0.000000  -0.027492   0.034336  -0.000000
   16  C  2  S    0.000000  -0.094173  -0.000000   0.000000   0.108709
   17  C  2  S    0.000000   0.183608  -0.000000   0.000000  -0.574667
   18  C  2  X    0.296476   0.000000   0.194589  -0.278895  -0.000000
   19  C  2  Y    0.135173   0.000000  -0.278895   0.194589  -0.000000
   20  C  2  Z    0.000000  -0.398975  -0.000000   0.000000   0.817625
   21  C  2  S    0.000000   0.106117  -0.000000   0.000000  -0.442089
   22  C  2  X    0.159361   0.000000   0.312809  -0.267177  -0.000000
   23  C  2  Y    0.055505   0.000000  -0.267177   0.312809  -0.000000
   24  C  2  Z    0.000000  -0.134511  -0.000000   0.000000   0.265849
   25  C  2 XX    0.000000  -0.009548  -0.000000   0.000000   0.023423
   26  C  2 YY    0.000000  -0.009548  -0.000000   0.000000   0.023423
   27  C  2 ZZ    0.000000   0.019095  -0.000000   0.000000  -0.046845
   28  C  2 XY    0.000000  -0.005479  -0.000000   0.000000   0.015195
   29  C  2 XZ    0.005091   0.000000  -0.034336  -0.027492  -0.000000
   30  C  2 YZ    0.018651   0.000000  -0.027492  -0.034336  -0.000000
   31  H  3  S   -0.153583  -0.061521   0.106382   0.106382   0.022242
   32  H  3  S   -0.105077  -0.067912   0.205917   0.205917   0.007694
   33  H  4  S    0.153583  -0.061521  -0.106382   0.106382  -0.022242
   34  H  4  S    0.105077  -0.067912  -0.205917   0.205917  -0.007694
   35  H  5  S   -0.153583  -0.061521   0.106382  -0.106382  -0.022242
   36  H  5  S   -0.105077  -0.067912   0.205917  -0.205917  -0.007694
   37  H  6  S    0.153583  -0.061521  -0.106382  -0.106382   0.022242
   38  H  6  S    0.105077  -0.067912  -0.205917  -0.205917   0.007694

                     11         12         13         14         15
                    0.2860     0.2879     0.3454     0.3454     0.6448
                     B1         A          B3         B2         B1  
    1  C  1  S   -0.079661  -0.079522   0.000000  -0.000000  -0.036092
    2  C  1  S    0.043627   0.104950   0.000000  -0.000000  -0.082669
    3  C  1  X   -0.000000  -0.000000   0.173721  -0.208632   0.000000
    4  C  1  Y   -0.000000  -0.000000  -0.208632   0.173721   0.000000
    5  C  1  Z   -0.167657  -0.159918   0.000000  -0.000000  -0.387312
    6  C  1  S    1.100992   1.510226   0.000000  -0.000000   2.704466
    7  C  1  X   -0.000000  -0.000000   0.536861  -1.142511   0.000000
    8  C  1  Y   -0.000000  -0.000000  -1.142511   0.536861   0.000000
    9  C  1  Z   -0.833874  -0.664306   0.000000  -0.000000   2.919602
   10  C  1 XX   -0.003334  -0.004004   0.000000  -0.000000  -0.032920
   11  C  1 YY   -0.003334  -0.004004   0.000000  -0.000000  -0.032920
   12  C  1 ZZ    0.006669   0.008007   0.000000  -0.000000   0.065840
   13  C  1 XY    0.006346  -0.006891   0.000000  -0.000000  -0.051519
   14  C  1 XZ   -0.000000  -0.000000   0.010994   0.011988   0.000000
   15  C  1 YZ   -0.000000  -0.000000   0.011988   0.010994   0.000000
   16  C  2  S    0.079661  -0.079522   0.000000  -0.000000   0.036092
   17  C  2  S   -0.043627   0.104950   0.000000  -0.000000   0.082669
   18  C  2  X   -0.000000  -0.000000   0.173721   0.208632   0.000000
   19  C  2  Y   -0.000000  -0.000000   0.208632   0.173721   0.000000
   20  C  2  Z   -0.167657   0.159918   0.000000  -0.000000  -0.387312
   21  C  2  S   -1.100992   1.510226   0.000000  -0.000000  -2.704466
   22  C  2  X   -0.000000  -0.000000   0.536861   1.142511   0.000000
   23  C  2  Y   -0.000000  -0.000000   1.142511   0.536861   0.000000
   24  C  2  Z   -0.833874   0.664306   0.000000  -0.000000   2.919602
   25  C  2 XX    0.003334  -0.004004   0.000000  -0.000000   0.032920
   26  C  2 YY    0.003334  -0.004004   0.000000  -0.000000   0.032920
   27  C  2 ZZ   -0.006669   0.008007   0.000000  -0.000000  -0.065840
   28  C  2 XY    0.006346   0.006891   0.000000  -0.000000  -0.051519
   29  C  2 XZ   -0.000000  -0.000000  -0.010994   0.011988   0.000000
   30  C  2 YZ   -0.000000  -0.000000   0.011988  -0.010994   0.000000
   31  H  3  S    0.029759   0.000210  -0.008697  -0.008697  -0.181653
   32  H  3  S    1.109276  -1.094485   1.240127   1.240127  -0.377366
   33  H  4  S   -0.029759   0.000210   0.008697  -0.008697   0.181653
   34  H  4  S   -1.109276  -1.094485  -1.240127   1.240127   0.377366
   35  H  5  S   -0.029759   0.000210  -0.008697   0.008697   0.181653
   36  H  5  S   -1.109276  -1.094485   1.240127  -1.240127   0.377366
   37  H  6  S    0.029759   0.000210   0.008697   0.008697  -0.181653
   38  H  6  S    1.109276  -1.094485  -1.240127  -1.240127  -0.377366

                     16         17         18         19         20
                    0.6879     0.8199     0.8199     0.9041     0.9064
                     A          B3         B2         A          B3  
    1  C  1  S   -0.014882  -0.000000   0.000000  -0.032009  -0.000000
    2  C  1  S   -0.321380  -0.000000   0.000000  -0.783723  -0.000000
    3  C  1  X    0.000000  -0.617921  -0.460809  -0.000000   0.202993
    4  C  1  Y    0.000000  -0.460809  -0.617921  -0.000000  -0.440929
    5  C  1  Z   -0.567030  -0.000000   0.000000   0.002061  -0.000000
    6  C  1  S   -0.185474  -0.000000   0.000000   1.575909  -0.000000
    7  C  1  X    0.000000   0.689451   0.228545  -0.000000  -0.554142
    8  C  1  Y    0.000000   0.228545   0.689451  -0.000000   1.575897
    9  C  1  Z    1.030091  -0.000000   0.000000  -0.571691  -0.000000
   10  C  1 XX    0.040220  -0.000000   0.000000   0.011028  -0.000000
   11  C  1 YY    0.040220  -0.000000   0.000000   0.011028  -0.000000
   12  C  1 ZZ   -0.080441  -0.000000   0.000000  -0.022055  -0.000000
   13  C  1 XY   -0.011102  -0.000000   0.000000   0.101113  -0.000000
   14  C  1 XZ    0.000000  -0.018148   0.010121  -0.000000  -0.119492
   15  C  1 YZ    0.000000   0.010121  -0.018148  -0.000000   0.034492
   16  C  2  S   -0.014882  -0.000000   0.000000  -0.032009  -0.000000
   17  C  2  S   -0.321380  -0.000000   0.000000  -0.783723  -0.000000
   18  C  2  X    0.000000  -0.617921   0.460809  -0.000000   0.202993
   19  C  2  Y    0.000000   0.460809  -0.617921  -0.000000   0.440929
   20  C  2  Z    0.567030  -0.000000   0.000000  -0.002061  -0.000000
   21  C  2  S   -0.185474  -0.000000   0.000000   1.575909  -0.000000
   22  C  2  X    0.000000   0.689451  -0.228545  -0.000000  -0.554142
   23  C  2  Y    0.000000  -0.228545   0.689451  -0.000000  -1.575897
   24  C  2  Z   -1.030091  -0.000000   0.000000   0.571691  -0.000000
   25  C  2 XX    0.040220  -0.000000   0.000000   0.011028  -0.000000
   26  C  2 YY    0.040220  -0.000000   0.000000   0.011028  -0.000000
   27  C  2 ZZ   -0.080441  -0.000000   0.000000  -0.022055  -0.000000
   28  C  2 XY    0.011102  -0.000000   0.000000  -0.101113  -0.000000
   29  C  2 XZ    0.000000   0.018148   0.010121  -0.000000   0.119492
   30  C  2 YZ    0.000000   0.010121   0.018148  -0.000000   0.034492
   31  H  3  S    0.056356   0.086581   0.086581  -0.462273  -0.351387
   32  H  3  S    0.133614   0.213821   0.213821  -0.305228  -0.344871
   33  H  4  S    0.056356  -0.086581   0.086581  -0.462273   0.351387
   34  H  4  S    0.133614  -0.213821   0.213821  -0.305228   0.344871
   35  H  5  S    0.056356   0.086581  -0.086581  -0.462273  -0.351387
   36  H  5  S    0.133614   0.213821  -0.213821  -0.305228  -0.344871
   37  H  6  S    0.056356  -0.086581  -0.086581  -0.462273   0.351387
   38  H  6  S    0.133614  -0.213821  -0.213821  -0.305228   0.344871

                     21         22         23         24         25
                    0.9064     1.1437     1.1437     1.1556     1.2114
                     B2         B2         B3         B1         B1  
    1  C  1  S   -0.000000   0.000000  -0.000000  -0.076218  -0.003009
    2  C  1  S   -0.000000   0.000000  -0.000000  -0.554193  -1.443026
    3  C  1  X   -0.440929   0.556824  -0.433764  -0.000000  -0.000000
    4  C  1  Y    0.202993  -0.433764   0.556824  -0.000000  -0.000000
    5  C  1  Z   -0.000000   0.000000  -0.000000  -0.261322   0.339251
    6  C  1  S   -0.000000   0.000000  -0.000000   2.951459   4.037835
    7  C  1  X    1.575897  -1.000547   0.692569  -0.000000  -0.000000
    8  C  1  Y   -0.554142   0.692569  -1.000547  -0.000000  -0.000000
    9  C  1  Z   -0.000000   0.000000  -0.000000   1.753776   0.634721
   10  C  1 XX   -0.000000   0.000000  -0.000000  -0.017167   0.003009
   11  C  1 YY   -0.000000   0.000000  -0.000000  -0.017167   0.003009
   12  C  1 ZZ   -0.000000   0.000000  -0.000000   0.034335  -0.006018
   13  C  1 XY   -0.000000   0.000000  -0.000000   0.174040  -0.002609
   14  C  1 XZ    0.034492   0.033488  -0.164883  -0.000000  -0.000000
   15  C  1 YZ   -0.119492  -0.164883   0.033488  -0.000000  -0.000000
   16  C  2  S   -0.000000   0.000000  -0.000000   0.076218   0.003009
   17  C  2  S   -0.000000   0.000000  -0.000000   0.554193   1.443026
   18  C  2  X    0.440929  -0.556824  -0.433764  -0.000000  -0.000000
   19  C  2  Y    0.202993  -0.433764  -0.556824  -0.000000  -0.000000
   20  C  2  Z   -0.000000   0.000000  -0.000000  -0.261322   0.339251
   21  C  2  S   -0.000000   0.000000  -0.000000  -2.951459  -4.037835
   22  C  2  X   -1.575897   1.000547   0.692569  -0.000000  -0.000000
   23  C  2  Y   -0.554142   0.692569   1.000547  -0.000000  -0.000000
   24  C  2  Z   -0.000000   0.000000  -0.000000   1.753776   0.634721
   25  C  2 XX   -0.000000   0.000000  -0.000000   0.017167  -0.003009
   26  C  2 YY   -0.000000   0.000000  -0.000000   0.017167  -0.003009
   27  C  2 ZZ   -0.000000   0.000000  -0.000000  -0.034335   0.006018
   28  C  2 XY   -0.000000   0.000000  -0.000000   0.174040  -0.002609
   29  C  2 XZ    0.034492   0.033488   0.164883  -0.000000  -0.000000
   30  C  2 YZ    0.119492   0.164883   0.033488  -0.000000  -0.000000
   31  H  3  S   -0.351387  -0.431964  -0.431964   0.548313  -0.209915
   32  H  3  S   -0.344871   1.037866   1.037866  -0.447409   0.755042
   33  H  4  S   -0.351387  -0.431964   0.431964  -0.548313   0.209915
   34  H  4  S   -0.344871   1.037866  -1.037866   0.447409  -0.755042
   35  H  5  S    0.351387   0.431964  -0.431964  -0.548313   0.209915
   36  H  5  S    0.344871  -1.037866   1.037866   0.447409  -0.755042
   37  H  6  S    0.351387   0.431964   0.431964   0.548313  -0.209915
   38  H  6  S    0.344871  -1.037866  -1.037866  -0.447409   0.755042

                     26         27         28         29         30
                    1.2286     1.8331     2.0828     2.0828     2.1039
                     A          A          B3         B2         B1  
    1  C  1  S    0.026588  -0.000000  -0.000000   0.000000   0.000000
    2  C  1  S   -1.129777  -0.000000  -0.000000   0.000000   0.000000
    3  C  1  X    0.000000  -0.000000  -0.158405   0.023553   0.000000
    4  C  1  Y    0.000000  -0.000000   0.023553  -0.158405   0.000000
    5  C  1  Z    0.369434  -0.000000  -0.000000   0.000000   0.000000
    6  C  1  S    2.007008  -0.000000  -0.000000   0.000000   0.000000
    7  C  1  X    0.000000  -0.000000  -0.245507   0.678673   0.000000
    8  C  1  Y    0.000000  -0.000000   0.678673  -0.245507   0.000000
    9  C  1  Z   -0.631787  -0.000000  -0.000000   0.000000   0.000000
   10  C  1 XX    0.027363   0.593402  -0.000000   0.000000  -0.633287
   11  C  1 YY    0.027363  -0.593402  -0.000000   0.000000   0.633287
   12  C  1 ZZ   -0.054726  -0.000000  -0.000000   0.000000   0.000000
   13  C  1 XY   -0.089107  -0.000000  -0.000000   0.000000   0.000000
   14  C  1 XZ    0.000000  -0.000000   0.626139   0.226792   0.000000
   15  C  1 YZ    0.000000  -0.000000   0.226792   0.626139   0.000000
   16  C  2  S    0.026588  -0.000000  -0.000000   0.000000   0.000000
   17  C  2  S   -1.129777  -0.000000  -0.000000   0.000000   0.000000
   18  C  2  X    0.000000  -0.000000  -0.158405  -0.023553   0.000000
   19  C  2  Y    0.000000  -0.000000  -0.023553  -0.158405   0.000000
   20  C  2  Z   -0.369434  -0.000000  -0.000000   0.000000   0.000000
   21  C  2  S    2.007008  -0.000000  -0.000000   0.000000   0.000000
   22  C  2  X    0.000000  -0.000000  -0.245507  -0.678673   0.000000
   23  C  2  Y    0.000000  -0.000000  -0.678673  -0.245507   0.000000
   24  C  2  Z    0.631787  -0.000000  -0.000000   0.000000   0.000000
   25  C  2 XX    0.027363   0.593402  -0.000000   0.000000   0.633287
   26  C  2 YY    0.027363  -0.593402  -0.000000   0.000000  -0.633287
   27  C  2 ZZ   -0.054726  -0.000000  -0.000000   0.000000   0.000000
   28  C  2 XY    0.089107  -0.000000  -0.000000   0.000000   0.000000
   29  C  2 XZ    0.000000  -0.000000  -0.626139   0.226792   0.000000
   30  C  2 YZ    0.000000  -0.000000   0.226792  -0.626139   0.000000
   31  H  3  S    0.403080  -0.000000  -0.375408  -0.375408   0.000000
   32  H  3  S   -0.981088  -0.000000  -0.140708  -0.140708   0.000000
   33  H  4  S    0.403080  -0.000000   0.375408  -0.375408   0.000000
   34  H  4  S   -0.981088  -0.000000   0.140708  -0.140708   0.000000
   35  H  5  S    0.403080  -0.000000  -0.375408   0.375408   0.000000
   36  H  5  S   -0.981088  -0.000000  -0.140708   0.140708   0.000000
   37  H  6  S    0.403080  -0.000000   0.375408   0.375408   0.000000
   38  H  6  S   -0.981088  -0.000000   0.140708   0.140708   0.000000

                     31         32         33         34         35
                    2.2324     2.3211     2.5165     2.8579     2.8579
                     B1         A          A          B3         B2  
    1  C  1  S   -0.040767  -0.006522   0.022921  -0.000000  -0.000000
    2  C  1  S   -0.306627  -0.501724  -0.030374  -0.000000  -0.000000
    3  C  1  X   -0.000000  -0.000000  -0.000000   0.110787   0.037589
    4  C  1  Y   -0.000000  -0.000000  -0.000000   0.037589   0.110787
    5  C  1  Z   -0.050268  -0.311740  -0.015986  -0.000000  -0.000000
    6  C  1  S    1.157124   0.294395  -0.399557  -0.000000  -0.000000
    7  C  1  X   -0.000000  -0.000000  -0.000000   0.046909   0.026088
    8  C  1  Y   -0.000000  -0.000000  -0.000000   0.026088   0.046909
    9  C  1  Z   -0.020565   0.339658   0.340714  -0.000000  -0.000000
   10  C  1 XX    0.018914  -0.338450  -0.060319  -0.000000  -0.000000
   11  C  1 YY    0.018914  -0.338450  -0.060319  -0.000000  -0.000000
   12  C  1 ZZ   -0.037829   0.676901   0.120638  -0.000000  -0.000000
   13  C  1 XY   -0.723771  -0.124886   0.776585  -0.000000  -0.000000
   14  C  1 XZ   -0.000000  -0.000000  -0.000000  -0.219810   0.886061
   15  C  1 YZ   -0.000000  -0.000000  -0.000000   0.886061  -0.219810
   16  C  2  S    0.040767  -0.006522   0.022921  -0.000000  -0.000000
   17  C  2  S    0.306627  -0.501724  -0.030374  -0.000000  -0.000000
   18  C  2  X   -0.000000  -0.000000  -0.000000   0.110787  -0.037589
   19  C  2  Y   -0.000000  -0.000000  -0.000000  -0.037589   0.110787
   20  C  2  Z   -0.050268   0.311740   0.015986  -0.000000  -0.000000
   21  C  2  S   -1.157124   0.294395  -0.399557  -0.000000  -0.000000
   22  C  2  X   -0.000000  -0.000000  -0.000000   0.046909  -0.026088
   23  C  2  Y   -0.000000  -0.000000  -0.000000  -0.026088   0.046909
   24  C  2  Z   -0.020565  -0.339658  -0.340714  -0.000000  -0.000000
   25  C  2 XX   -0.018914  -0.338450  -0.060319  -0.000000  -0.000000
   26  C  2 YY   -0.018914  -0.338450  -0.060319  -0.000000  -0.000000
   27  C  2 ZZ    0.037829   0.676901   0.120638  -0.000000  -0.000000
   28  C  2 XY   -0.723771   0.124886  -0.776585  -0.000000  -0.000000
   29  C  2 XZ   -0.000000  -0.000000  -0.000000   0.219810   0.886061
   30  C  2 YZ   -0.000000  -0.000000  -0.000000   0.886061   0.219810
   31  H  3  S    0.416357  -0.008850   0.392210   0.369823   0.369823
   32  H  3  S    0.117767  -0.029030   0.044469  -0.150683  -0.150683
   33  H  4  S   -0.416357  -0.008850   0.392210  -0.369823   0.369823
   34  H  4  S   -0.117767  -0.029030   0.044469   0.150683  -0.150683
   35  H  5  S   -0.416357  -0.008850   0.392210   0.369823  -0.369823
   36  H  5  S   -0.117767  -0.029030   0.044469  -0.150683   0.150683
   37  H  6  S    0.416357  -0.008850   0.392210  -0.369823  -0.369823
   38  H  6  S    0.117767  -0.029030   0.044469   0.150683   0.150683

                     36
                    2.9465
                     B1  
    1  C  1  S   -0.059211
    2  C  1  S    0.046329
    3  C  1  X    0.000000
    4  C  1  Y    0.000000
    5  C  1  Z    0.531703
    6  C  1  S    2.134388
    7  C  1  X    0.000000
    8  C  1  Y    0.000000
    9  C  1  Z    1.253852
   10  C  1 XX   -0.546436
   11  C  1 YY   -0.546436
   12  C  1 ZZ    1.092872
   13  C  1 XY   -0.023545
   14  C  1 XZ    0.000000
   15  C  1 YZ    0.000000
   16  C  2  S    0.059211
   17  C  2  S   -0.046329
   18  C  2  X    0.000000
   19  C  2  Y    0.000000
   20  C  2  Z    0.531703
   21  C  2  S   -2.134388
   22  C  2  X    0.000000
   23  C  2  Y    0.000000
   24  C  2  Z    1.253852
   25  C  2 XX    0.546436
   26  C  2 YY    0.546436
   27  C  2 ZZ   -1.092872
   28  C  2 XY   -0.023545
   29  C  2 XZ    0.000000
   30  C  2 YZ    0.000000
   31  H  3  S    0.021800
   32  H  3  S   -0.064800
   33  H  4  S   -0.021800
   34  H  4  S    0.064800
   35  H  5  S   -0.021800
   36  H  5  S    0.064800
   37  H  6  S    0.021800
   38  H  6  S   -0.064800

 THIS RUN IS GOING TO SOLVE THE CP-MC-HF RESPONSE EQUATIONS,
 USING CANONICAL ACTIVE ORBITALS TO IMPROVE THEIR CONVERGENCE.
 ROTATION OF THE ACTIVE ORBITALS REQUIRES REGENERATION OF THE CI STATES,
 THE 1 PARTICLE DENSITY, AND THE 2 PARTICLE DENSITY OVER THE NEW ACTIVE
 ORBITALS.  AWAY WE GO...

          ------------------------------
          CASSCF INTEGRAL TRANSFORMATION
          ------------------------------
 AO INTEGRALS WILL BE READ IN FROM DISK...

 NUMBER OF CORE MOLECULAR ORBITALS     =     6
 NUMBER OF OCCUPIED MOLECULAR ORBITALS =    10
 TOTAL NUMBER OF MOLECULAR ORBITALS    =    36
 TOTAL NUMBER OF ATOMIC ORBITALS       =    36

 ----- CHOOSING THREE STEPS TRANSFORMATION -----
 NUMBER OF WORDS USED      =     183748
 NUMBER OF WORDS AVAILABLE =     960139
 NUMBER OF PASSES          =          1

 ----- NUCLEAR REPULSION ENERGY =     32.56562763
 ----- FROZEN CORE ENERGY       =   -105.74095203

 ... SYMMETRY ...           CPU =    0.00
 ... (PQ|RS) -> (PQ|KL) ... CPU =    0.00
 ... (PQ|KL) -> (IJ|KL) ... CPU =    0.00

 NUMBER OF (PQ|KL) INTEGRALS WRITTEN       7410
 NUMBER OF (IJ|KL) INTEGRALS WRITTEN         19
 ..... END OF CAS INTEGRAL TRANSFORMATION .....
 STEP CPU TIME =     0.10 TOTAL CPU TIME =        0.2 (    0.0 MIN)
 TOTAL WALL CLOCK TIME=        0.2 SECONDS, CPU UTILIZATION IS  90.48%

     --------------------------------------------------
          AMES LABORATORY DETERMINANTAL FULL CI
     PROGRAM WRITTEN BY JOE IVANIC AND KLAUS RUEDENBERG
     --------------------------------------------------

 THE NUMBER OF DETERMINANTS HAVING SPACE SYMMETRY B1 
 IN POINT GROUP D2   WITH SZ=  0.0 IS              8
 THE DETERMINANT FULL CI REQUIRES          171461 WORDS
 SMALL CI MATRIX, JUST USING INCORE DIAGONALIZATION...

 CI EIGENVECTORS WILL BE LABELED IN GROUP=D2      
 PRINTING ALL NON-ZERO CI COEFFICIENTS

 STATE   1  ENERGY=       -77.9273927771  S=  1.00  SZ=  0.00  SPACE SYM=B1  

ALPHA |BETA  | CI COEFFICIENT
------|------|---------------
 1010 | 1100 |                                                                                                       0.7049901806
 1100 | 1010 |                                                                                                      -0.7049901806
 0011 | 0101 |                                                                                                      -0.0497791488
 0101 | 0011 |                                                                                                       0.0497791488
 0011 | 1010 |                                                                                                       0.0159825147
 1100 | 0101 |                                                                                                       0.0159825147
 1010 | 0011 |                                                                                                      -0.0159825147
 0101 | 1100 |                                                                                                      -0.0159825147

 STATE   2  ENERGY=       -77.8243539827  S=  0.00  SZ=  0.00  SPACE SYM=B1  

ALPHA |BETA  | CI COEFFICIENT
------|------|---------------
 1100 | 1010 |                                                                                                       0.7009403386
 1010 | 1100 |                                                                                                       0.7009403386
 0011 | 1010 |                                                                                                       0.0584733736
 1010 | 0011 |                                                                                                       0.0584733736
 1100 | 0101 |                                                                                                       0.0584733736
 0101 | 1100 |                                                                                                       0.0584733736
 0101 | 0011 |                                                                                                      -0.0429461395
 0011 | 0101 |                                                                                                      -0.0429461395

 STATE   3  ENERGY=       -76.9976886102  S=  1.00  SZ=  0.00  SPACE SYM=B1  

ALPHA |BETA  | CI COEFFICIENT
------|------|---------------
 0101 | 1100 |                                                                                                       0.4996417175
 0011 | 1010 |                                                                                                      -0.4996417175
 1100 | 0101 |                                                                                                      -0.4996417175
 1010 | 0011 |                                                                                                       0.4996417175
 1010 | 1100 |                                                                                                       0.0235519480
 1100 | 1010 |                                                                                                      -0.0235519480
 0011 | 0101 |                                                                                                       0.0127127502
 0101 | 0011 |                                                                                                      -0.0127127502

 STATE   4  ENERGY=       -76.8788248251  S=  1.00  SZ=  0.00  SPACE SYM=B1  

ALPHA |BETA  | CI COEFFICIENT
------|------|---------------
 1010 | 0011 |                                                                                                       0.5000000000
 0101 | 1100 |                                                                                                      -0.5000000000
 0011 | 1010 |                                                                                                      -0.5000000000
 1100 | 0101 |                                                                                                       0.5000000000
 1100 | 1010 |                                                                                                      -0.0000000000
 0101 | 0011 |                                                                                                       0.0000000000
 0011 | 0101 |                                                                                                       0.0000000000
 1010 | 1100 |                                                                                                      -0.0000000000
 ..... DONE WITH DETERMINANT CI COMPUTATION .....
 STEP CPU TIME =     0.00 TOTAL CPU TIME =        0.2 (    0.0 MIN)
 TOTAL WALL CLOCK TIME=        0.2 SECONDS, CPU UTILIZATION IS  90.48%

     --------------------------------------------------
      ONE AND TWO PARTICLE DENSITY MATRIX COMPUTATION
     PROGRAM WRITTEN BY JOE IVANIC AND KLAUS RUEDENBERG
     --------------------------------------------------

      30472 WORDS WILL BE USED TO FORM THE DENSITIES
 THE DENSITIES ARE STATE AVERAGED OVER   1 ROOT(S)
 STATE=   2   ENERGY=      -77.8243539827   WEIGHT= 1.00000   S=  0.00
 SIEVING THE A    SYMMETRY NONZERO DENSITY ELEMENTS IN GROUP D2      
         19 NONZERO DM2 ELEMENTS WRITTEN IN       1 RECORDS TO FILE 15
 ..... DONE WITH 1 AND 2 PARTICLE DENSITY MATRIX .....
 STEP CPU TIME =     0.00 TOTAL CPU TIME =        0.2 (    0.0 MIN)
 TOTAL WALL CLOCK TIME=        0.2 SECONDS, CPU UTILIZATION IS  90.48%
 .....DONE WITH MCSCF ITERATIONS.....
 STEP CPU TIME =     0.00 TOTAL CPU TIME =        0.2 (    0.0 MIN)
 TOTAL WALL CLOCK TIME=        0.2 SECONDS, CPU UTILIZATION IS  90.48%

     ----------------------------------------------------------------
     PROPERTY VALUES FOR THE MCSCF SELF-CONSISTENT FIELD WAVEFUNCTION
     ----------------------------------------------------------------

          -----------------
          ENERGY COMPONENTS
          -----------------

         WAVEFUNCTION NORMALIZATION =       1.0000000000

                ONE ELECTRON ENERGY =    -168.2218223617
                TWO ELECTRON ENERGY =      57.8318407530
           NUCLEAR REPULSION ENERGY =      32.5656276260
                                      ------------------
                       TOTAL ENERGY =     -77.8243539827

 ELECTRON-ELECTRON POTENTIAL ENERGY =      57.8318407530
  NUCLEUS-ELECTRON POTENTIAL ENERGY =    -246.1478649317
   NUCLEUS-NUCLEUS POTENTIAL ENERGY =      32.5656276260
                                      ------------------
             TOTAL POTENTIAL ENERGY =    -155.7503965528
               TOTAL KINETIC ENERGY =      77.9260425700
                 VIRIAL RATIO (V/T) =       1.9986950629

          ---------------------------------------
          MULLIKEN AND LOWDIN POPULATION ANALYSES
          ---------------------------------------

     ATOMIC MULLIKEN POPULATION IN EACH MOLECULAR ORBITAL

                      1          2          3          4          5

                  2.000000   2.000000   2.000000   2.000000   2.000000

    1             0.999497   0.999633   0.658198   0.655096   0.642752
    2             0.999497   0.999633   0.658198   0.655096   0.642752
    3             0.000251   0.000184   0.170901   0.172452   0.178624
    4             0.000251   0.000184   0.170901   0.172452   0.178624
    5             0.000251   0.000184   0.170901   0.172452   0.178624
    6             0.000251   0.000184   0.170901   0.172452   0.178624

                      6          7          8          9         10

                  2.000000   1.978946   1.000000   1.000000   0.021054

    1             0.642752   0.967144   0.418522   0.418522   0.010486
    2             0.642752   0.967144   0.418522   0.418522   0.010486
    3             0.178624   0.011165   0.040739   0.040739   0.000021
    4             0.178624   0.011165   0.040739   0.040739   0.000021
    5             0.178624   0.011165   0.040739   0.040739   0.000021
    6             0.178624   0.011165   0.040739   0.040739   0.000021
 WARNING! MCSCF POPULATIONS SHOWN ABOVE ARE FOR THE NATURAL ORBITALS.
 IGNORE THE ABOVE DATA FOR MCSCF FUNCTIONS WHICH ARE NOT OF -FORS- TYPE.
 THE FOLLOWING POPULATIONS ARE CORRECT FOR ANY MCSCF WAVEFUNCTION.

               ----- POPULATIONS IN EACH AO -----
                             MULLIKEN      LOWDIN
              1  C  1  S      1.99749     1.98196
              2  C  1  S      0.67878     0.36480
              3  C  1  X      0.58704     0.54714
              4  C  1  Y      0.58704     0.54714
              5  C  1  Z      0.74936     0.66514
              6  C  1  S      0.61755     0.34492
              7  C  1  X      0.45891     0.51210
              8  C  1  Y      0.45891     0.51210
              9  C  1  Z      0.23406     0.37936
             10  C  1 XX      0.00692     0.13251
             11  C  1 YY      0.00000     0.13251
             12  C  1 ZZ      0.00589     0.18434
             13  C  1 XY      0.01532     0.00759
             14  C  1 XZ      0.01532     0.02705
             15  C  1 YZ      0.00000     0.02705
             16  C  2  S      1.99749     1.98196
             17  C  2  S      0.67878     0.36480
             18  C  2  X      0.58704     0.54714
             19  C  2  Y      0.58704     0.54714
             20  C  2  Z      0.74936     0.66514
             21  C  2  S      0.61755     0.34492
             22  C  2  X      0.45891     0.51210
             23  C  2  Y      0.45891     0.51210
             24  C  2  Z      0.23406     0.37936
             25  C  2 XX      0.00692     0.13251
             26  C  2 YY      0.00000     0.13251
             27  C  2 ZZ      0.00589     0.18434
             28  C  2 XY      0.01532     0.00759
             29  C  2 XZ      0.01532     0.02705
             30  C  2 YZ      0.00000     0.02705
             31  H  3  S      0.50763     0.46543
             32  H  3  S      0.28607     0.35171
             33  H  4  S      0.50763     0.46543
             34  H  4  S      0.28607     0.35171
             35  H  5  S      0.50763     0.46543
             36  H  5  S      0.28607     0.35171
             37  H  6  S      0.50763     0.46543
             38  H  6  S      0.28607     0.35171

          ----- MULLIKEN ATOMIC OVERLAP POPULATIONS -----
          (OFF-DIAGONAL ELEMENTS NEED TO BE MULTIPLIED BY 2)

             1           2           3           4           5

    1    5.2846835
    2    0.5301219   5.2846835
    3   -0.0546047   0.3535030   0.5536220
    4    0.3535030  -0.0546047   0.0009628   0.5536220
    5    0.3535030  -0.0546047   0.0009628  -0.0607469   0.5536220
    6   -0.0546047   0.3535030  -0.0607469   0.0009628   0.0009628

             6

    6    0.5536220

          TOTAL MULLIKEN AND LOWDIN ATOMIC POPULATIONS
       ATOM         MULL.POP.    CHARGE          LOW.POP.     CHARGE
    1 C             6.412602   -0.412602         6.365706   -0.365706
    2 C             6.412602   -0.412602         6.365706   -0.365706
    3 H             0.793699    0.206301         0.817147    0.182853
    4 H             0.793699    0.206301         0.817147    0.182853
    5 H             0.793699    0.206301         0.817147    0.182853
[...]
    6 H                0.000000050       0.000000050      -0.000000393

          -------------------------------
          CARTESIAN FORCE CONSTANT MATRIX
          -------------------------------

                                   1                          2
                               C                          C         
                          X        Y        Z        X        Y        Z
  1   C            X 0.333903-0.225954 0.000000-0.078938 0.000000 0.000000
                   Y-0.225954 0.333903 0.000000-0.000000-0.078938 0.000000
                   Z 0.000000 0.000000 0.714667 0.000000 0.000000-0.351666
  2   C            X-0.078938-0.000000 0.000000 0.333903 0.225954 0.000000
                   Y 0.000000-0.078938 0.000000 0.225954 0.333903 0.000000
                   Z 0.000000 0.000000-0.351666 0.000000 0.000000 0.714667
  3   H            X 0.011929-0.000402 0.003973-0.139411-0.113379 0.090666
                   Y-0.000402 0.011929 0.003973-0.113379-0.139411 0.090666
                   Z 0.012390 0.012390-0.037326 0.096881 0.096881-0.144175
  4   H            X-0.139411 0.113379 0.090666 0.011929 0.000402 0.003973
                   Y 0.113379-0.139411-0.090666 0.000402 0.011929-0.003973
                   Z 0.096881-0.096881-0.144175 0.012390-0.012390-0.037326
  5   H            X-0.139411 0.113379-0.090666 0.011929 0.000402-0.003973
                   Y 0.113379-0.139411 0.090666 0.000402 0.011929 0.003973
                   Z-0.096881 0.096881-0.144175-0.012390 0.012390-0.037326
  6   H            X 0.011929-0.000402-0.003973-0.139411-0.113379-0.090666
                   Y-0.000402 0.011929-0.003973-0.113379-0.139411-0.090666
                   Z-0.012390-0.012390-0.037326-0.096881-0.096881-0.144175

                                   3                          4
                               H                          H         
                          X        Y        Z        X        Y        Z
  3   H            X 0.144570 0.126694-0.100901-0.005952-0.005074-0.001054
                   Y 0.126694 0.144570-0.100901 0.005074 0.002387-0.001477
                   Z-0.100901-0.100901 0.152544-0.001054 0.001477 0.004549
  4   H            X-0.005952 0.005074-0.001054 0.144570-0.126694-0.100901
                   Y-0.005074 0.002387 0.001477-0.126694 0.144570 0.100901
                   Z-0.001054-0.001477 0.004549-0.100901 0.100901 0.152544
  5   H            X 0.002387-0.005074 0.001477-0.013523 0.012913-0.008794
                   Y 0.005074-0.005952-0.001054 0.012913-0.013523 0.008794
                   Z-0.001477-0.001054 0.004549 0.008794-0.008794 0.019859
  6   H            X-0.013523-0.012913-0.008794 0.002387 0.005074 0.001477
                   Y-0.012913-0.013523-0.008794-0.005074-0.005952 0.001054
                   Z 0.008794 0.008794 0.019859-0.001477 0.001054 0.004549

                                   5                          6
                               H                          H         
                          X        Y        Z        X        Y        Z
  5   H            X 0.144570-0.126694 0.100901-0.005952 0.005074 0.001054
                   Y-0.126694 0.144570-0.100901-0.005074 0.002387-0.001477
                   Z 0.100901-0.100901 0.152544 0.001054 0.001477 0.004549
  6   H            X-0.005952-0.005074 0.001054 0.144570 0.126694 0.100901
                   Y 0.005074 0.002387 0.001477 0.126694 0.144570 0.100901
                   Z 0.001054-0.001477 0.004549 0.100901 0.100901 0.152544

          ------------------------          ----------------
          DIPOLE DERIVATIVE TENSOR          (DEBYE/ANGSTROM)
          ------------------------          ----------------

        ATOM                 MU-X           MU-Y           MU-Z
     C          D/DX    -0.768569765   -1.505571030    0.000000000
                D/DY    -1.505571031   -0.768569765    0.000000000
                D/DZ     0.000000000    0.000000000    6.738354700
     C          D/DX    -0.768569765    1.505571030    0.000000000
                D/DY     1.505571031   -0.768569765    0.000000000
                D/DZ     0.000000000    0.000000000    6.738354700
     H          D/DX     0.384284782   -0.615916098    0.690491578
                D/DY    -0.615916098    0.384284782    0.690491581
                D/DZ     0.438460923    0.438460923   -3.369177589
     H          D/DX     0.384284782    0.615916098    0.690491578
                D/DY     0.615916098    0.384284782   -0.690491581
                D/DZ     0.438460923   -0.438460923   -3.369177589
     H          D/DX     0.384284782    0.615916098   -0.690491578
                D/DY     0.615916098    0.384284782    0.690491581
                D/DZ    -0.438460923    0.438460923   -3.369177589
     H          D/DX     0.384284782   -0.615916098   -0.690491578
                D/DY    -0.615916098    0.384284782   -0.690491581
                D/DZ    -0.438460923   -0.438460923   -3.369177589

          --------------------------------------------------------
          NORMAL COORDINATE ANALYSIS IN THE HARMONIC APPROXIMATION
          --------------------------------------------------------

          ATOMIC WEIGHTS (AMU)

    1     C                12.00000
    2     C                12.00000
    3     H                 1.00782
    4     H                 1.00782
    5     H                 1.00782
    6     H                 1.00782

 MODES    1 TO    6 ARE TAKEN AS ROTATIONS AND TRANSLATIONS.

 ANALYZING SYMMETRY OF NORMAL MODES...

 --- SYMMETRY FOR NORMAL MODES ---
 INCLUDING TRANSLATION AND ROTATION
    4*A      4*B1     5*B3     5*B2  
 EXCLUDING TRANSLATION AND ROTATION (SAYVETZ < 0.01)
    4*A      2*B1     3*B3     3*B2  

     FREQUENCIES IN CM**-1, IR INTENSITIES IN DEBYE**2/AMU-ANGSTROM**2,
     REDUCED MASSES IN AMU.

                            1           2           3           4           5
       FREQUENCY:         0.01        0.01        0.00        2.13        3.47  
        SYMMETRY:         B3          B2          B1          B1          B2  
    REDUCED MASS:      4.67185     4.67185     4.67188     1.00783     2.13357
    IR INTENSITY:      0.00000     0.00000     0.00000     0.00000     0.00000

  1   C            X  0.18887613 -0.00038145  0.00000021  0.00000000  0.15492024
                   Y -0.00038105  0.18887612  0.00000009 -0.00000000  0.00046602
                   Z -0.00000021 -0.00000009  0.18887668  0.00008172  0.00000000
  2   C            X  0.18887612  0.00038261  0.00000021  0.00000000 -0.15492024
                   Y  0.00037989  0.18887612  0.00000009 -0.00000000  0.00046578
                   Z -0.00000021 -0.00000009  0.18887668  0.00008172  0.00000000
  3   H            X  0.18887615  0.00071843 -0.00015217  0.35217815 -0.29110328
                   Y  0.00071433  0.18887614  0.00015246 -0.35217815  0.00046474
                   Z  0.00035087  0.00035244  0.18887667  0.00008172 -0.14294307
  4   H            X  0.18887615 -0.00071727 -0.00015217  0.35217815  0.29110328
                   Y -0.00071549  0.18887614 -0.00015228  0.35217815  0.00046519
                   Z  0.00035087 -0.00035261  0.18887667  0.00008172  0.14294285
  5   H            X  0.18887615 -0.00071727  0.00015258 -0.35217815  0.29110328
                   Y -0.00071549  0.18887614  0.00015246 -0.35217815  0.00046519
                   Z -0.00035128  0.00035243  0.18887667  0.00008172 -0.14294285
  6   H            X  0.18887614  0.00071843  0.00015258 -0.35217815 -0.29110328
                   Y  0.00071433  0.18887614 -0.00015228  0.35217815  0.00046474
                   Z -0.00035128 -0.00035261  0.18887667  0.00008172  0.14294307

 TRANS. SAYVETZ    X  5.29444340  0.00001625  0.00000580  0.00000000  0.00000001
                   Y -0.00001625  5.29444327  0.00000246 -0.00000000  0.01305612
                   Z -0.00000580 -0.00000246  5.29445887  0.00229071  0.00000000
               TOTAL  5.29444340  5.29444327  5.29445887  0.00229071  0.01305612

   ROT. SAYVETZ    X -0.02072199 -0.00000006 -0.00000002 -0.00000000  0.00000650
                   Y -0.00000006  0.02080730  0.00000001  0.00000000 -8.43765861
                   Z  0.00000000  0.00000000 -0.00148169  3.42459636  0.00000000
               TOTAL  0.02072199  0.02080730  0.00148169  3.42459636  8.43765861

                            6           7           8           9          10
       FREQUENCY:         3.47      718.39      718.39      984.58      995.21  
        SYMMETRY:         B3          B2          B3          A           B2  
    REDUCED MASS:      2.13357     1.11948     1.11948     1.00782     1.49549
    IR INTENSITY:      0.00000     2.52212     2.52212     0.00000     0.15013

  1   C            X -0.00046388 -0.02523886 -0.06244844  0.00000000  0.12170084
                   Y -0.15492025 -0.06244870 -0.02523822 -0.00000000  0.00466144
                   Z -0.00000000 -0.00000000  0.00000000 -0.00000000 -0.00000000
  2   C            X -0.00046411  0.02523822 -0.06244870 -0.00000000 -0.12170069
                   Y  0.15492025 -0.06244844  0.02523886  0.00000000  0.00465739
                   Z -0.00000000 -0.00000000  0.00000000  0.00000000 -0.00000000
  3   H            X -0.00046328 -0.18727064  0.37178310 -0.35217818  0.22341697
                   Y  0.29110328  0.37178118 -0.18727445  0.35217818 -0.02773574
                   Z  0.14294285  0.21853368  0.21853144  0.00000000  0.33026052
  4   H            X -0.00046283  0.18727445  0.37178118  0.35217818 -0.22341790
                   Y -0.29110328  0.37178310  0.18727064  0.35217818 -0.02774316
                   Z  0.14294307 -0.21853144  0.21853368 -0.00000000 -0.33024955
  5   H            X -0.00046283  0.18727445  0.37178118 -0.35217818 -0.22341790
                   Y -0.29110328  0.37178310  0.18727064 -0.35217818 -0.02774316
                   Z -0.14294307  0.21853144 -0.21853368 -0.00000000  0.33024955
  6   H            X -0.00046328 -0.18727064  0.37178310  0.35217818  0.22341697
                   Y  0.29110328  0.37178118 -0.18727445 -0.35217818 -0.02773574
                   Z -0.14294285 -0.21853368 -0.21853144  0.00000000 -0.33026052

 TRANS. SAYVETZ    X -0.01300259 -0.00000000 -0.00000031 -0.00000000 -0.00000000
                   Y  0.00000001 -0.00000031  0.00000000 -0.00000000 -0.00000012
                   Z -0.00000000 -0.00000000  0.00000000  0.00000000 -0.00000000
               TOTAL  0.01300259  0.00000031  0.00000031  0.00000000  0.00000012

   ROT. SAYVETZ    X -8.43765882  0.00000000  0.00002538 -0.00000000  0.00000000
                   Y -0.00000650 -0.00002538  0.00000000 -0.00000000 -0.00011490
                   Z -0.00000000 -0.00000000  0.00000000  0.00000000 -0.00000000
               TOTAL  8.43765882  0.00002538  0.00002538  0.00000000  0.00011490

                           11          12          13          14          15
       FREQUENCY:       995.21     1337.80     1564.95     1656.30     3185.79  
        SYMMETRY:         B3          A           A           B1          A   
    REDUCED MASS:      1.49549     2.78727     1.31731     1.10138     1.05273
    IR INTENSITY:      0.15013     0.00000     0.00000    21.76616     0.00000

  1   C            X -0.00465739  0.00000000  0.00000000 -0.00000000 -0.00000000
                   Y -0.12170069 -0.00000000 -0.00000000 -0.00000000  0.00000000
                   Z -0.00000000  0.17041030  0.10337604 -0.06215908  0.04404988
  2   C            X -0.00466143 -0.00000000 -0.00000000  0.00000000 -0.00000000
                   Y  0.12170084 -0.00000000 -0.00000000  0.00000000 -0.00000000
                   Z  0.00000000 -0.17041030 -0.10337604 -0.06215908 -0.04404988
  3   H            X  0.02774316 -0.04060037  0.19163831  0.20989629 -0.29267019
                   Y -0.22341790 -0.04060037  0.19163831  0.20989629 -0.29267019
                   Z -0.33024955 -0.26809880  0.33314662  0.37005880  0.25533371
  4   H            X  0.02773574  0.04060037 -0.19163831  0.20989629  0.29267019
                   Y  0.22341697 -0.04060037  0.19163831 -0.20989629 -0.29267019
                   Z -0.33026052  0.26809880 -0.33314662  0.37005880 -0.25533371
  5   H            X  0.02773574 -0.04060037  0.19163831 -0.20989629 -0.29267019
                   Y  0.22341697  0.04060037 -0.19163831  0.20989629  0.29267019
                   Z  0.33026052  0.26809880 -0.33314662  0.37005880 -0.25533371
  6   H            X  0.02774316  0.04060037 -0.19163831 -0.20989629  0.29267019
                   Y -0.22341790  0.04060037 -0.19163831 -0.20989629  0.29267019
                   Z  0.33024955 -0.26809880  0.33314662  0.37005880  0.25533371

 TRANS. SAYVETZ    X  0.00000012  0.00000000  0.00000000 -0.00000000 -0.00000000
                   Y -0.00000000 -0.00000000 -0.00000000  0.00000000 -0.00000000
                   Z -0.00000000 -0.00000000 -0.00000000  0.00000009  0.00000000
               TOTAL  0.00000012  0.00000000  0.00000000  0.00000009  0.00000000

   ROT. SAYVETZ    X -0.00011490  0.00000000 -0.00000000 -0.00000000 -0.00000000
                   Y -0.00000000 -0.00000000 -0.00000000  0.00000000  0.00000000
                   Z -0.00000000 -0.00000000 -0.00000000 -0.00000000  0.00000000
               TOTAL  0.00011490  0.00000000  0.00000000  0.00000000  0.00000000

                           16          17          18
       FREQUENCY:      3211.68     3211.68     3266.16  
        SYMMETRY:         B3          B2          B1  
    REDUCED MASS:      1.11274     1.11274     1.05730
    IR INTENSITY:      0.65875     0.65875    34.63891

  1   C            X -0.04550515 -0.04709764 -0.00000000
                   Y  0.04709747  0.04550533  0.00000000
                   Z -0.00000000  0.00000000  0.04613576
  2   C            X -0.04550533  0.04709747 -0.00000000
                   Y -0.04709764  0.04550515 -0.00000000
                   Z  0.00000000 -0.00000000  0.04613576
  3   H            X  0.27091213 -0.27987615  0.28279501
                   Y  0.27987719 -0.27091105  0.28279501
                   Z -0.26608558  0.26608455 -0.27466528
  4   H            X  0.27091105  0.27987719  0.28279501
                   Y -0.27987615 -0.27091213 -0.28279501
                   Z -0.26608455 -0.26608558 -0.27466528
  5   H            X  0.27091105  0.27987719 -0.28279501
                   Y -0.27987615 -0.27091213  0.28279501
                   Z  0.26608455  0.26608558 -0.27466528
  6   H            X  0.27091213 -0.27987615 -0.28279501
                   Y  0.27987719 -0.27091105 -0.28279501
                   Z  0.26608558 -0.26608455 -0.27466528

 TRANS. SAYVETZ    X  0.00000007  0.00000000  0.00000000
                   Y  0.00000000 -0.00000007 -0.00000000
                   Z  0.00000000 -0.00000000 -0.00000001
               TOTAL  0.00000007  0.00000007  0.00000001

   ROT. SAYVETZ    X  0.00000193  0.00000000  0.00000000
                   Y -0.00000000  0.00000193  0.00000000
                   Z -0.00000000 -0.00000000 -0.00000000
               TOTAL  0.00000193  0.00000193  0.00000000

 REFERENCE ON SAYVETZ CONDITIONS - A. SAYVETZ, J.CHEM.PHYS., 7, 383-389(1939).

 NOTE - THE MODES J,K ARE ORTHONORMALIZED ACCORDING TO
 SUM ON I   M(I) * (X(I,J)*X(I,K) + Y(I,J)*Y(I,K) + Z(I,J)*Z(I,K)) = DELTA(J,K)

  MODE FREQ(CM**-1)  SYMMETRY  RED. MASS  IR INTENS.
     1       0.011    B3       4.671849    0.000000
     2       0.010    B2       4.671849    0.000000
     3       0.002    B1       4.671880    0.000000
     4       2.127    B1       1.007825    0.000000
     5       3.474    B2       2.133574    0.000000
     6       3.474    B3       2.133574    0.000000
     7     718.389    B2       1.119481    2.522120
     8     718.389    B3       1.119481    2.522120
     9     984.583    A        1.007825    0.000000
    10     995.215    B2       1.495487    0.150133
    11     995.215    B3       1.495487    0.150133
    12    1337.803    A        2.787267    0.000000
    13    1564.946    A        1.317312    0.000000
    14    1656.300    B1       1.101378   21.766164
    15    3185.785    A        1.052733    0.000000
    16    3211.684    B3       1.112744    0.658751
    17    3211.684    B2       1.112744    0.658751
    18    3266.163    B1       1.057300   34.638913

     -------------------------------
     THERMOCHEMISTRY AT T=  298.15 K
     -------------------------------

 USING IDEAL GAS, RIGID ROTOR, HARMONIC NORMAL MODE APPROXIMATIONS.
 P=  1.01325E+05 PASCAL.
 ALL FREQUENCIES ARE SCALED BY   1.00000
 THE MOMENTS OF INERTIA ARE (IN AMU*BOHR**2)
     11.72786    71.19452    71.19452
 THE ROTATIONAL SYMMETRY NUMBER IS  4.0
 THE ROTATIONAL CONSTANTS ARE (IN GHZ)
    153.74398    25.32622    25.32622
      7 -     18 VIBRATIONAL MODES ARE USED IN THERMOCHEMISTRY.
 THE HARMONIC ZERO POINT ENERGY IS (SCALED BY   1.000)
        0.049769 HARTREE/MOLECULE    10923.078806 CM**-1/MOLECULE 
       31.230681 KCAL/MOL              130.669169 KJ/MOL

               Q               LN Q
 ELEC.     1.00000E+00       0.000000
 TRANS.    5.83336E+06      15.579103
 ROT.      6.89981E+02       6.536665
 VIB.      1.09530E+00       0.091031
 TOT.      4.40849E+09      22.206799

              E         H         G         CV        CP        S
           KJ/MOL    KJ/MOL    KJ/MOL   J/MOL-K   J/MOL-K   J/MOL-K
 ELEC.      0.000     0.000     0.000     0.000     0.000     0.000
 TRANS.     3.718     6.197   -38.620    12.472    20.786   150.317
 ROT.       3.718     3.718   -16.204    12.472    12.472    66.820
 VIB.     131.564   131.564   130.444    12.475    12.475     3.760
 TOTAL    139.001   141.480    75.620    37.418    45.732   220.897
 VIB. THERMAL CORRECTION E(T)-E(0) = H(T)-H(0) =   895.330 J/MOL

              E         H         G         CV        CP        S
         KCAL/MOL  KCAL/MOL  KCAL/MOL CAL/MOL-K CAL/MOL-K CAL/MOL-K
 ELEC.      0.000     0.000     0.000     0.000     0.000     0.000
 TRANS.     0.889     1.481    -9.230     2.981     4.968    35.927
 ROT.       0.889     0.889    -3.873     2.981     2.981    15.970
 VIB.      31.445    31.445    31.177     2.982     2.982     0.899
 TOTAL     33.222    33.815    18.074     8.943    10.930    52.796
 VIB. THERMAL CORRECTION E(T)-E(0) = H(T)-H(0) =   213.989 CAL/MOL
 ......END OF NORMAL COORDINATE ANALYSIS......
 CPU     0: STEP CPU TIME=     0.00 TOTAL CPU TIME=        1.7 (    0.0 MIN)
 TOTAL WALL CLOCK TIME=        1.7 SECONDS, CPU UTILIZATION IS  99.41%
               580000  WORDS OF DYNAMIC MEMORY USED
 EXECUTION OF GAMESS TERMINATED NORMALLY Wed Aug  9 20:44:58 2017
 DDI: 1363672 bytes (1.3 MB / 0 MWords) used by master data server.

 ----------------------------------------
 CPU timing information for all processes
 ========================================
 0: 1.664 + 0.34 = 1.699
 ----------------------------------------
 ddikick.x: exited gracefully.
unset echo
----- accounting info -----
Files used on the master node compute-0-6.local were:
-rw-rw-r-- 1 sarom sarom  24K Aug  9 20:44 /scratch/mc-hess-c2h4-s1.F05
-rw-rw-r-- 1 sarom sarom 704K Aug  9 20:44 /scratch/mc-hess-c2h4-s1.F08
-rw-rw-r-- 1 sarom sarom 5.3K Aug  9 20:44 /scratch/mc-hess-c2h4-s1.F09
-rw-rw-r-- 1 sarom sarom 2.3M Aug  9 20:44 /scratch/mc-hess-c2h4-s1.F10
-rw-rw-r-- 1 sarom sarom  312 Aug  9 20:44 /scratch/mc-hess-c2h4-s1.F12
-rw-rw-r-- 1 sarom sarom  73K Aug  9 20:45 /scratch/mc-hess-c2h4-s1.F13
-rw-rw-r-- 1 sarom sarom 177K Aug  9 20:44 /scratch/mc-hess-c2h4-s1.F15
-rw-rw-r-- 1 sarom sarom  22K Aug  9 20:44 /scratch/mc-hess-c2h4-s1.F16
-rw-rw-r-- 1 sarom sarom 204K Aug  9 20:44 /scratch/mc-hess-c2h4-s1.F18
-rw-rw-r-- 1 sarom sarom 5.3K Aug  9 20:44 /scratch/mc-hess-c2h4-s1.F19
rm: No match.
ls: No match.
ls: No match.
ls: No match.
Wed Aug  9 20:45:01 CDT 2017
0.263u 0.153s 0:05.18 7.9%	0+0k 48+400io 0pf+0w
/opt/gridengine/default/spool/compute-0-6/active_jobs/35949.1/pe_hostfile compute-0-6.local
