-catch_rsh /opt/gridengine/default/spool/compute-0-1/active_jobs/23994.1/pe_hostfile
compute-0-1
The primary node assigned by SGE to this run is compute-0-1
Warning: no access to tty (Bad file descriptor).
Thus no job control in this shell.
source /home/sarom/gamess.github.2017-05-31.14.06/install.info
setenv GMS_PATH /home/sarom/gamess.github.2017-05-31.14.06
setenv GMS_BUILD_DIR /home/sarom/gamess.github.2017-05-31.14.06
setenv GMS_TARGET linux64
setenv GMS_FORTRAN gfortran
setenv GMS_GFORTRAN_VERNO 4.4
setenv GMS_MATHLIB mkl-so
setenv GMS_MATHLIB_PATH /share/apps/intel/compilers_and_libraries_2017.1.132/linux/mkl/lib/intel64
setenv GMS_MKL_VERNO 12
setenv GMS_DDI_COMM sockets
setenv GMS_LIBCCHEM false
setenv GMS_EIGEN_PATH
setenv GMS_PHI false
setenv GMS_SHMTYPE sysv
setenv GMS_OPENMP false
unset echo
efp2-64ccl4-rdf
tests/solvent/efp2
----- GAMESS execution script 'rungms' -----
This job is running on host compute-0-1.local
under operating system Linux at Fri Jun 2 04:54:12 CDT 2017
Available scratch disk space (Kbyte units) at beginning of the job is
Filesystem           1K-blocks      Used Available Use% Mounted on
/dev/sda1             16126920   3867344  11440376  26% /
GAMESS temporary binary files will be written to /scratch
GAMESS supplementary output files will be written to /home/sarom/restart
Copying input file efp2-64ccl4-rdf.inp to your run's scratch directory...
cp tests/solvent/efp2/efp2-64ccl4-rdf.inp /scratch/efp2-64ccl4-rdf.F05
unset echo
The generated host list is
compute-0-1.local
/home/sarom/gamess.github.2017-05-31.14.06/ddikick.x /home/sarom/gamess.github.2017-05-31.14.06/gamess.00.x efp2-64ccl4-rdf -ddi 1 1 compute-0-1.local -scr /scratch

 Distributed Data Interface kickoff program.
 Initiating 1 compute processes on 1 nodes to run the following command:
 /home/sarom/gamess.github.2017-05-31.14.06/gamess.00.x efp2-64ccl4-rdf 

          ******************************************************
          *         GAMESS VERSION = 20 APR 2017 (R1)          *
          *             FROM IOWA STATE UNIVERSITY             *
          * M.W.SCHMIDT, K.K.BALDRIDGE, J.A.BOATZ, S.T.ELBERT, *
          *   M.S.GORDON, J.H.JENSEN, S.KOSEKI, N.MATSUNAGA,   *
          *          K.A.NGUYEN, S.J.SU, T.L.WINDUS,           *
          *       TOGETHER WITH M.DUPUIS, J.A.MONTGOMERY       *
          *         J.COMPUT.CHEM.  14, 1347-1363(1993)        *
          **************** 64 BIT LINUX VERSION ****************

  SINCE 1993, STUDENTS AND POSTDOCS WORKING AT IOWA STATE UNIVERSITY
  AND ALSO IN THEIR VARIOUS JOBS AFTER LEAVING ISU HAVE MADE IMPORTANT
  CONTRIBUTIONS TO THE CODE:
     IVANA ADAMOVIC, CHRISTINE AIKENS, YURI ALEXEEV, POOJA ARORA,
     ANDREY ASADCHEV, ROB BELL, PRADIPTA BANDYOPADHYAY, JONATHAN BENTZ,
     BRETT BODE, KURT BRORSEN, CALEB CARLIN, GALINA CHABAN, WEI CHEN,
     CHEOL HO CHOI, PAUL DAY, ALBERT DEFUSCO, NUWAN DESILVA, TIM DUDLEY,
     DMITRI FEDOROV, GRAHAM FLETCHER, MARK FREITAG, KURT GLAESEMANN,
     DAN KEMP, GRANT MERRILL, NORIYUKI MINEZAWA, JONATHAN MULLIN,
     TAKESHI NAGATA, SEAN NEDD, HEATHER NETZLOFF, BOSILJKA NJEGIC, RYAN OLSON,
     MIKE PAK, SPENCER PRUITT, LUKE ROSKOP, JIM SHOEMAKER, LYUDMILA SLIPCHENKO,
     TONY SMITH, SAROM SOK LEANG, JIE SONG, TETSUYA TAKETSUGU, SIMON WEBB,
     PENG XU, SOOHAENG YOO, FEDERICO ZAHARIEV

  ADDITIONAL CODE HAS BEEN PROVIDED BY COLLABORATORS IN OTHER GROUPS:
     IOWA STATE UNIVERSITY:
          JOE IVANIC, AARON WEST, LAIMUTIS BYTAUTAS, KLAUS RUEDENBERG
     UNIVERSITY OF TOKYO: KIMIHIKO HIRAO, TAKAHITO NAKAJIMA,
          TAKAO TSUNEDA, MUNEAKI KAMIYA, SUSUMU YANAGISAWA,
          KIYOSHI YAGI, MAHITO CHIBA, SEIKEN TOKURA, NAOAKI KAWAKAMI
     UNIVERSITY OF AARHUS: FRANK JENSEN
     UNIVERSITY OF IOWA: VISVALDAS KAIRYS, HUI LI
     NATIONAL INST. OF STANDARDS AND TECHNOLOGY: WALT STEVENS, DAVID GARMER
     UNIVERSITY OF PISA: BENEDETTA MENNUCCI, JACOPO TOMASI
     UNIVERSITY OF MEMPHIS: HENRY KURTZ, PRAKASHAN KORAMBATH
     UNIVERSITY OF ALBERTA: TOBY ZENG, MARIUSZ KLOBUKOWSKI
     UNIVERSITY OF NEW ENGLAND: MARK SPACKMAN
     MIE UNIVERSITY: HIROAKI UMEDA
     NAT. INST. OF ADVANCED INDUSTRIAL SCIENCE AND TECHNOLOGY: KAZUO KITAURA
     MICHIGAN STATE UNIVERSITY:
          KAROL KOWALSKI, MARTA WLOCH, JEFFREY GOUR, JESSE LUTZ,
          WEI LI, PIOTR PIECUCH
     UNIVERSITY OF SILESIA: MONIKA MUSIAL, STANISLAW KUCHARSKI
     FACULTES UNIVERSITAIRES NOTRE-DAME DE LA PAIX:
          OLIVIER QUINET, BENOIT CHAMPAGNE
     UNIVERSITY OF CALIFORNIA - SANTA BARBARA: BERNARD KIRTMAN
     INSTITUTE FOR MOLECULAR SCIENCE:
          KAZUYA ISHIMURA, MICHIO KATOUDA, AND SHIGERU NAGASE
     UNIVERSITY OF NOTRE DAME: ANNA POMOGAEVA, DAN CHIPMAN
     KYUSHU UNIVERSITY:
          HARUYUKI NAKANO,
          FENG LONG GU, JACEK KORCHOWIEC, MARCIN MAKOWSKI, AND YURIKO AOKI,
          HIROTOSHI MORI AND EISAKU MIYOSHI
     PENNSYLVANIA STATE UNIVERSITY:
          TZVETELIN IORDANOV, CHET SWALINA, JONATHAN SKONE,
          SHARON HAMMES-SCHIFFER
     WASEDA UNIVERSITY:
          MASATO KOBAYASHI, TOMOKO AKAMA, TSUGUKI TOUMA,
          TAKESHI YOSHIKAWA, YASUHIRO IKABATA, JUNJI SEINO,
          YUYA NAKAJIMA, HIROMI NAKAI
     NANJING UNIVERSITY: SHUHUA LI
     UNIVERSITY OF NEBRASKA:
          PEIFENG SU, DEJUN SI, NANDUN THELLAMUREGE, YALI WANG, HUI LI
     UNIVERSITY OF ZURICH: ROBERTO PEVERATI, KIM BALDRIDGE
     N. COPERNICUS UNIVERSITY AND JACKSON STATE UNIVERSITY:
          MARIA BARYSZ
     UNIVERSITY OF COPENHAGEN: Jimmy Kromann, CASPER STEINMANN
     TOKYO INSTITUTE OF TECHNOLOGY: HIROYA NAKATA
     NAGOYA UNIVERSITY: YOSHIO NISHIMOTO, STEPHAN IRLE
     MOSCOW STATE UNIVERSITY: VLADIMIR MIRONOV

 EXECUTION OF GAMESS BEGUN Fri Jun  2 04:54:12 2017

            ECHO OF THE FIRST FEW INPUT CARDS -
 INPUT CARD>!   NVE MD trajectory...64 CCl4 molecules modeled by EFP2                       
 INPUT CARD>!   this test case came from Lyuda                                              
 INPUT CARD>!   the main point of the test is the RDF values at the end,                    
 INPUT CARD>!   but one should also check the very short trajectory data.                   
 INPUT CARD>!                                                                               
 INPUT CARD>!   The MD simulation is analyzed to obtain the radial                          
 INPUT CARD>!   distribution functions.  The MD simulation is done in                       
 INPUT CARD>!   a box with periodic boundary conditions applied.                            
 INPUT CARD>!                                                                               
 INPUT CARD>!*** AT T=          0.00 FSEC, THIS RUN'S STEP NO.=       0                     
 INPUT CARD>!    ELEC ENERGY      =        -226.00764536 KCAL/MOL                           
 INPUT CARD>!    POLZ ENERGY      =          -3.66206663 KCAL/MOL                           
 INPUT CARD>!    DISP ENERGY      =        -487.16552220 KCAL/MOL                           
 INPUT CARD>!    CH-TR ENRGY      =           0.00000000 KCAL/MOL                           
 INPUT CARD>!    REP  ENERGY      =         430.32002351 KCAL/MOL                           
 INPUT CARD>!    POT  ENERGY      =        -286.51521068 KCAL/MOL                           
 INPUT CARD>!                                                                               
 INPUT CARD>!         after a simulation far too short to generate meaningful RDFs,         
 INPUT CARD>!*** AT T=          5.00 FSEC, THIS RUN'S STEP NO.=       5                     
 INPUT CARD>!    ELEC ENERGY      =        -226.05070772 KCAL/MOL                           
 INPUT CARD>!    POLZ ENERGY      =          -3.66348092 KCAL/MOL                           
 INPUT CARD>!    DISP ENERGY      =        -487.36959909 KCAL/MOL                           
 INPUT CARD>!    CH-TR ENRGY      =           0.00000000 KCAL/MOL                           
 INPUT CARD>!    REP  ENERGY      =         430.60725232 KCAL/MOL                           
 INPUT CARD>!    POT  ENERGY      =        -286.47653539 KCAL/MOL                           
 INPUT CARD>!    TRANS    KE      =          51.95335917 KCAL/MOL                           
 INPUT CARD>!    ROT      KE      =          65.47279056 KCAL/MOL                           
 INPUT CARD>!    TOT      KE      =         117.42614973 KCAL/MOL                           
 INPUT CARD>!    TOTAL ENERGY     =        -169.05038567 KCAL/MOL  0.00000000               
 INPUT CARD>!                                                                               
 INPUT CARD>!    TEMPERATURE      =         307.76449557 K                                  
 INPUT CARD>!    PRESSURE(AVERAGE)=           -9150.5372 BAR    (          -9150.1577 BAR)  
 INPUT CARD>!    DIFFUSION        =          95.18702220 ANG^2/PS                           
 INPUT CARD>!    HEAT OF VAP      =           5.08769579 KCAL/MOL*K                         
 INPUT CARD>!      ROT.KE TEMP =     343.20                                                 
 INPUT CARD>!    TRANS.KE TEMP =     272.33                                                 
 INPUT CARD>!                                                                               
 INPUT CARD>!  Periodic Boundary Condition coords:                                          
 INPUT CARD>!     FRAGNAME=CCL4    !  30                                                    
 INPUT CARD>!     C1                 6.423783559273   15.716301833353   10.323053111014     
 INPUT CARD>!     CL2                7.985710438193   14.984696934123    9.916656584918     
 INPUT CARD>!     CL3                5.248130603602   15.343844454844    9.050600727185     
 INPUT CARD>!     CL4                5.849653585350   15.063499219694   11.867152512180     
 INPUT CARD>!     CL5                6.611641201066   17.473165979472   10.457802205781     
 INPUT CARD>!                                                                               
 INPUT CARD>!    we obtain these RDF values (only selected radii shown)                     
 INPUT CARD>!    C-C    5.190     0.7441666824                                              
 INPUT CARD>!    C-Cl   4.470     1.2038460453                                              
 INPUT CARD>!   Cl-Cl   3.610     0.6152476334                                              
 INPUT CARD>!                                                                               
   10000000 WORDS OF MEMORY AVAILABLE

     $CONTRL OPTIONS
     ---------------
 SCFTYP=RHF          RUNTYP=MD           EXETYP=RUN     
 MPLEVL=       0     CITYP =NONE         CCTYP =NONE         VBTYP =NONE    
 DFTTYP=NONE         TDDFT =NONE    
 MULT  =       1     ICHARG=       0     NZVAR =       0     COORD =FRAGONLY
 PP    =NONE         RELWFN=NONE         LOCAL =NONE         NUMGRD=       F
 ISPHER=      -1     NOSYM =       0     MAXIT =      30     UNITS =ANGS    
 PLTORB=       F     MOLPLT=       F     AIMPAC=       F     FRIEND=        
 NPRINT=       7     IREST =       0     GEOM  =INPUT   
 NORMF =       0     NORMP =       0     ITOL  =      20     ICUT  =       9
 INTTYP=BEST         GRDTYP=BEST         QMTTOL= 1.0E-06

     $SYSTEM OPTIONS
     ---------------
  REPLICATED MEMORY=    10000000 WORDS (ON EVERY NODE).
 DISTRIBUTED MEMDDI=           0 MILLION WORDS IN AGGREGATE,
 MEMDDI DISTRIBUTED OVER   1 PROCESSORS IS           0 WORDS/PROCESSOR.
 TOTAL MEMORY REQUESTED ON EACH PROCESSOR=    10000000 WORDS.
 TIMLIM=      525600.00 MINUTES, OR     365.0 DAYS.
 PARALL= F  BALTYP=  DLB     KDIAG=    0  COREFL= F
 MXSEQ2=     300 MXSEQ3=     150  mem10=         0

 READING $EFRAG GROUP
 COORD=CART      POSITION=OPTIMIZE  POLMETHD=FRGSCF   NBUFFMO=0
 READING COORDINATES OF FRAGMENT   1 NAMED   CCL4  
 READING COORDINATES OF FRAGMENT   2 NAMED   CCL4  
 READING COORDINATES OF FRAGMENT   3 NAMED   CCL4  
 READING COORDINATES OF FRAGMENT   4 NAMED   CCL4  
 READING COORDINATES OF FRAGMENT   5 NAMED   CCL4  
 READING COORDINATES OF FRAGMENT   6 NAMED   CCL4  
 READING COORDINATES OF FRAGMENT   7 NAMED   CCL4  
 READING COORDINATES OF FRAGMENT   8 NAMED   CCL4  
 READING COORDINATES OF FRAGMENT   9 NAMED   CCL4  
 READING COORDINATES OF FRAGMENT  10 NAMED   CCL4  
 READING COORDINATES OF FRAGMENT  11 NAMED   CCL4  
 READING COORDINATES OF FRAGMENT  12 NAMED   CCL4  
 READING COORDINATES OF FRAGMENT  13 NAMED   CCL4  
 READING COORDINATES OF FRAGMENT  14 NAMED   CCL4  
 READING COORDINATES OF FRAGMENT  15 NAMED   CCL4  
 READING COORDINATES OF FRAGMENT  16 NAMED   CCL4  
 READING COORDINATES OF FRAGMENT  17 NAMED   CCL4  
 READING COORDINATES OF FRAGMENT  18 NAMED   CCL4  
 READING COORDINATES OF FRAGMENT  19 NAMED   CCL4  
 READING COORDINATES OF FRAGMENT  20 NAMED   CCL4  
 READING COORDINATES OF FRAGMENT  21 NAMED   CCL4  
 READING COORDINATES OF FRAGMENT  22 NAMED   CCL4  
 READING COORDINATES OF FRAGMENT  23 NAMED   CCL4  
 READING COORDINATES OF FRAGMENT  24 NAMED   CCL4  
 READING COORDINATES OF FRAGMENT  25 NAMED   CCL4  
 READING COORDINATES OF FRAGMENT  26 NAMED   CCL4  
 READING COORDINATES OF FRAGMENT  27 NAMED   CCL4  
 READING COORDINATES OF FRAGMENT  28 NAMED   CCL4  
 READING COORDINATES OF FRAGMENT  29 NAMED   CCL4  
 READING COORDINATES OF FRAGMENT  30 NAMED   CCL4  
 READING COORDINATES OF FRAGMENT  31 NAMED   CCL4  
 READING COORDINATES OF FRAGMENT  32 NAMED   CCL4  
 READING COORDINATES OF FRAGMENT  33 NAMED   CCL4  
 READING COORDINATES OF FRAGMENT  34 NAMED   CCL4  
 READING COORDINATES OF FRAGMENT  35 NAMED   CCL4  
 READING COORDINATES OF FRAGMENT  36 NAMED   CCL4  
 READING COORDINATES OF FRAGMENT  37 NAMED   CCL4  
 READING COORDINATES OF FRAGMENT  38 NAMED   CCL4  
 READING COORDINATES OF FRAGMENT  39 NAMED   CCL4  
 READING COORDINATES OF FRAGMENT  40 NAMED   CCL4  
 READING COORDINATES OF FRAGMENT  41 NAMED   CCL4  
 READING COORDINATES OF FRAGMENT  42 NAMED   CCL4  
 READING COORDINATES OF FRAGMENT  43 NAMED   CCL4  
 READING COORDINATES OF FRAGMENT  44 NAMED   CCL4  
 READING COORDINATES OF FRAGMENT  45 NAMED   CCL4  
 READING COORDINATES OF FRAGMENT  46 NAMED   CCL4  
 READING COORDINATES OF FRAGMENT  47 NAMED   CCL4  
 READING COORDINATES OF FRAGMENT  48 NAMED   CCL4  
 READING COORDINATES OF FRAGMENT  49 NAMED   CCL4  
 READING COORDINATES OF FRAGMENT  50 NAMED   CCL4  
 READING COORDINATES OF FRAGMENT  51 NAMED   CCL4  
 READING COORDINATES OF FRAGMENT  52 NAMED   CCL4  
 READING COORDINATES OF FRAGMENT  53 NAMED   CCL4  
 READING COORDINATES OF FRAGMENT  54 NAMED   CCL4  
 READING COORDINATES OF FRAGMENT  55 NAMED   CCL4  
 READING COORDINATES OF FRAGMENT  56 NAMED   CCL4  
 READING COORDINATES OF FRAGMENT  57 NAMED   CCL4  
 READING COORDINATES OF FRAGMENT  58 NAMED   CCL4  
 READING COORDINATES OF FRAGMENT  59 NAMED   CCL4  
 READING COORDINATES OF FRAGMENT  60 NAMED   CCL4  
 READING COORDINATES OF FRAGMENT  61 NAMED   CCL4  
 READING COORDINATES OF FRAGMENT  62 NAMED   CCL4  
 READING COORDINATES OF FRAGMENT  63 NAMED   CCL4  
 READING COORDINATES OF FRAGMENT  64 NAMED   CCL4  
 FINISHED READING $EFRAG GROUP,  64 FRAGMENTS WILL BE USED.

 READING POTENTIAL PARAMETERS FOR FRAGMENT    1 FROM GROUP $CCL4  
 READING POTENTIAL PARAMETERS FOR FRAGMENT    2 FROM GROUP $CCL4  
 READING POTENTIAL PARAMETERS FOR FRAGMENT    3 FROM GROUP $CCL4  
 READING POTENTIAL PARAMETERS FOR FRAGMENT    4 FROM GROUP $CCL4  
 READING POTENTIAL PARAMETERS FOR FRAGMENT    5 FROM GROUP $CCL4  
 READING POTENTIAL PARAMETERS FOR FRAGMENT    6 FROM GROUP $CCL4  
 READING POTENTIAL PARAMETERS FOR FRAGMENT    7 FROM GROUP $CCL4  
 READING POTENTIAL PARAMETERS FOR FRAGMENT    8 FROM GROUP $CCL4  
 READING POTENTIAL PARAMETERS FOR FRAGMENT    9 FROM GROUP $CCL4  
 READING POTENTIAL PARAMETERS FOR FRAGMENT   10 FROM GROUP $CCL4  
 READING POTENTIAL PARAMETERS FOR FRAGMENT   11 FROM GROUP $CCL4  
 READING POTENTIAL PARAMETERS FOR FRAGMENT   12 FROM GROUP $CCL4  
 READING POTENTIAL PARAMETERS FOR FRAGMENT   13 FROM GROUP $CCL4  
 READING POTENTIAL PARAMETERS FOR FRAGMENT   14 FROM GROUP $CCL4  
 READING POTENTIAL PARAMETERS FOR FRAGMENT   15 FROM GROUP $CCL4  
 READING POTENTIAL PARAMETERS FOR FRAGMENT   16 FROM GROUP $CCL4  
 READING POTENTIAL PARAMETERS FOR FRAGMENT   17 FROM GROUP $CCL4  
 READING POTENTIAL PARAMETERS FOR FRAGMENT   18 FROM GROUP $CCL4  
 READING POTENTIAL PARAMETERS FOR FRAGMENT   19 FROM GROUP $CCL4  
 READING POTENTIAL PARAMETERS FOR FRAGMENT   20 FROM GROUP $CCL4  
 READING POTENTIAL PARAMETERS FOR FRAGMENT   21 FROM GROUP $CCL4  
 READING POTENTIAL PARAMETERS FOR FRAGMENT   22 FROM GROUP $CCL4  
 READING POTENTIAL PARAMETERS FOR FRAGMENT   23 FROM GROUP $CCL4  
 READING POTENTIAL PARAMETERS FOR FRAGMENT   24 FROM GROUP $CCL4  
 READING POTENTIAL PARAMETERS FOR FRAGMENT   25 FROM GROUP $CCL4  
 READING POTENTIAL PARAMETERS FOR FRAGMENT   26 FROM GROUP $CCL4  
 READING POTENTIAL PARAMETERS FOR FRAGMENT   27 FROM GROUP $CCL4  
 READING POTENTIAL PARAMETERS FOR FRAGMENT   28 FROM GROUP $CCL4  
 READING POTENTIAL PARAMETERS FOR FRAGMENT   29 FROM GROUP $CCL4  
 READING POTENTIAL PARAMETERS FOR FRAGMENT   30 FROM GROUP $CCL4  
 READING POTENTIAL PARAMETERS FOR FRAGMENT   31 FROM GROUP $CCL4  
 READING POTENTIAL PARAMETERS FOR FRAGMENT   32 FROM GROUP $CCL4  
 READING POTENTIAL PARAMETERS FOR FRAGMENT   33 FROM GROUP $CCL4  
 READING POTENTIAL PARAMETERS FOR FRAGMENT   34 FROM GROUP $CCL4  
 READING POTENTIAL PARAMETERS FOR FRAGMENT   35 FROM GROUP $CCL4  
 READING POTENTIAL PARAMETERS FOR FRAGMENT   36 FROM GROUP $CCL4  
 READING POTENTIAL PARAMETERS FOR FRAGMENT   37 FROM GROUP $CCL4  
 READING POTENTIAL PARAMETERS FOR FRAGMENT   38 FROM GROUP $CCL4  
 READING POTENTIAL PARAMETERS FOR FRAGMENT   39 FROM GROUP $CCL4  
 READING POTENTIAL PARAMETERS FOR FRAGMENT   40 FROM GROUP $CCL4  
 READING POTENTIAL PARAMETERS FOR FRAGMENT   41 FROM GROUP $CCL4  
 READING POTENTIAL PARAMETERS FOR FRAGMENT   42 FROM GROUP $CCL4  
 READING POTENTIAL PARAMETERS FOR FRAGMENT   43 FROM GROUP $CCL4  
 READING POTENTIAL PARAMETERS FOR FRAGMENT   44 FROM GROUP $CCL4  
 READING POTENTIAL PARAMETERS FOR FRAGMENT   45 FROM GROUP $CCL4  
 READING POTENTIAL PARAMETERS FOR FRAGMENT   46 FROM GROUP $CCL4  
 READING POTENTIAL PARAMETERS FOR FRAGMENT   47 FROM GROUP $CCL4  
 READING POTENTIAL PARAMETERS FOR FRAGMENT   48 FROM GROUP $CCL4  
 READING POTENTIAL PARAMETERS FOR FRAGMENT   49 FROM GROUP $CCL4  
 READING POTENTIAL PARAMETERS FOR FRAGMENT   50 FROM GROUP $CCL4  
 READING POTENTIAL PARAMETERS FOR FRAGMENT   51 FROM GROUP $CCL4  
 READING POTENTIAL PARAMETERS FOR FRAGMENT   52 FROM GROUP $CCL4  
 READING POTENTIAL PARAMETERS FOR FRAGMENT   53 FROM GROUP $CCL4  
 READING POTENTIAL PARAMETERS FOR FRAGMENT   54 FROM GROUP $CCL4  
 READING POTENTIAL PARAMETERS FOR FRAGMENT   55 FROM GROUP $CCL4  
 READING POTENTIAL PARAMETERS FOR FRAGMENT   56 FROM GROUP $CCL4  
 READING POTENTIAL PARAMETERS FOR FRAGMENT   57 FROM GROUP $CCL4  
 READING POTENTIAL PARAMETERS FOR FRAGMENT   58 FROM GROUP $CCL4  
 READING POTENTIAL PARAMETERS FOR FRAGMENT   59 FROM GROUP $CCL4  
 READING POTENTIAL PARAMETERS FOR FRAGMENT   60 FROM GROUP $CCL4  
 READING POTENTIAL PARAMETERS FOR FRAGMENT   61 FROM GROUP $CCL4  
 READING POTENTIAL PARAMETERS FOR FRAGMENT   62 FROM GROUP $CCL4  
 READING POTENTIAL PARAMETERS FOR FRAGMENT   63 FROM GROUP $CCL4  
 READING POTENTIAL PARAMETERS FOR FRAGMENT   64 FROM GROUP $CCL4  


     SUMMARY OF THE EFFECTIVE FRAGMENT POTENTIAL MODEL CHOSEN
     --------------------------------------------------------
 TOTAL NUMBER OF MULTIPOLE POINTS   =       576  (EFP1/EFP2 ELECTROSTATICS)
 TOTAL NUMBER OF POLARIZABLE POINTS =      1024  (EFP1/EFP2 INDUCTION)
 TOTAL NUMBER OF L-J POINTS         =         0  (REPULSION AND DISPERSION)
 TOTAL NUMBER OF AO CENTERS         =       320  (EFP2 PAULI REPULSION)
 TOTAL NUMBER OF EFP MOS            =      1024  (EFP2 PAULI REPULSION)
 TOTAL NO OF DYNAMIC POLARIZABLE PTS=     12288  (EFP2 DISPERSION)
 TOTAL NUMBER OF EFP MOS            =         0  (EFP2 CHARGE TRANSFER)

 THIS IS A -EFP2- TYPE RUN, INCLUDING SEPARATE FORMULAE FOR
   PAULI REPULSION=T  DISPERSION=T  CHARGE TRANSFER=F

 OPTIONS FOR EFP SCREENING:
     ELECTROSTATIC EFP-EFP SCREENING CHOICE IS EXPONENTIAL, TO HIGHER ORDER
     POLARIZATION EFP-EFP SCREENING IS TANG-TOENNIS LIKE
     DISPERSION EFP-EFP SCREENING CHOICE IS USING OVERLAP

     PERIODIC BOUNDARY CONDITIONS WILL BE APPLIED
     BOX SIZE IS =    21.7700   21.7700   21.7700 ANGSTROMS
     SWITCHING FUNCTIONS WILL BE APPLIED BETWEEN     8.0000 AND    10.0000 ANG.

     $EWALD OPTIONS
     -----------

     IFEWLD   =        F         TINFOIL        =        T
     BETA    =    0.200         ELECTRIC CONST =     1.00
     EPSILON =     1.00         CUT_OFF        = 0.10E+04
     CUTLIST =  1000.00         LEVEL          =    1
     KMAX    =       10         EWLDPL         =        F

            MULTIPOLE COORDINATES, ELECTRONIC AND NUCLEAR CHARGES

                  X              Y              Z           ELEC.   NUC.
 C1         5.9507030653   3.1856854262  11.6556998364   -5.63891    6.0
 CL2        3.3978429839   2.3141987729  13.6397935259  -16.93778   17.0
 CL3        8.0821882306   0.6171582164  11.3861626155  -16.93778   17.0
 CL4        4.7826498138   3.9899174189   8.6222078132  -16.93778   17.0
 CL5        7.5401286324   5.8214664090  12.9746374120  -16.93778   17.0
 BO21       4.6742730246   2.7499420996  12.6477466812   -0.15249    0.0
 BO31       7.0164456480   1.9014218213  11.5209312259   -0.15249    0.0
 BO41       5.3666764396   3.5878014226  10.1389538248   -0.15249    0.0
 BO51       6.7454158489   4.5035759176  12.3151686241   -0.15249    0.0
 C1        20.2351657409   4.2919412443  17.6905606204   -5.63891    6.0
 CL2       23.3025409351   5.6179502208  17.4758027014  -16.93778   17.0
 CL3       20.3834470335   1.0184605743  17.0009605098  -16.93778   17.0
 CL4       19.0456400852   4.7268599156  20.7904131676  -16.93778   17.0
 CL5       18.2090380347   5.8044956174  15.4950658840  -16.93778   17.0
 BO21      21.7688533381   4.9549457326  17.5831816609   -0.15249    0.0
 BO31      20.3093063872   2.6552009093  17.3457605651   -0.15249    0.0
 BO41      19.6404029130   4.5094005800  19.2404868940   -0.15249    0.0
 BO51      19.2221018878   5.0482184308  16.5928132522   -0.15249    0.0
 C1        27.1504819727  -2.3066112758  14.0906538272   -5.63891    6.0
 CL2       24.1768148326  -2.1732095932  12.5567962453  -16.93778   17.0
 CL3       28.3181331061   0.8003586587  14.5339821570  -16.93778   17.0
 CL4       26.8056911221  -3.8045464400  17.0656363253  -16.93778   17.0
 CL5       29.3012858009  -4.0490475927  12.2061990188  -16.93778   17.0
 BO21      25.6636484026  -2.2399104345  13.3237250363   -0.15249    0.0
 BO31      27.7343075395  -0.7531263085  14.3123179922   -0.15249    0.0
 BO41      26.9780865475  -3.0555788579  15.5781450763   -0.15249    0.0
 BO51      28.2258838868  -3.1778294342  13.1484264230   -0.15249    0.0
 C1        36.8344882789   1.2147111471  16.9102710204   -5.63891    6.0
 CL2       39.7832069944   2.6254681111  17.6369305532  -16.93778   17.0
 CL3       36.7537785774  -1.8991325749  18.1393660410  -16.93778   17.0
 CL4       34.3668610524   3.0187355887  18.2775760472  -16.93778   17.0
 CL5       36.4341094952   1.1137749008  13.5872121803  -16.93778   17.0
 BO21      38.3088476367   1.9200896291  17.2736007868   -0.15249    0.0
 BO31      36.7941334281  -0.3422107139  17.5248185307   -0.15249    0.0
 BO41      35.6006746656   2.1167233679  17.5939235338   -0.15249    0.0
 BO51      36.6342988870   1.1642430240  15.2487416003   -0.15249    0.0
 C1         1.1823317899  12.1743880864   9.8179486317   -5.63891    6.0
 CL2        3.4618231581  10.4767903972   8.0472729021  -16.93778   17.0
 CL3       -1.6928510751  12.3010066353   8.1060775540  -16.93778   17.0
 CL4        0.6706220262  10.6340334873  12.7468856705  -16.93778   17.0
 CL5        2.2897353727  15.2857200965  10.3715565963  -16.93778   17.0
 BO21       2.3220774741  11.3255892418   8.9326107669   -0.15249    0.0
 BO31      -0.2552596426  12.2376973609   8.9620130928   -0.15249    0.0
 BO41       0.9264769080  11.4042107869  11.2824171511   -0.15249    0.0
 BO51       1.7360335813  13.7300540915  10.0947526140   -0.15249    0.0
 C1        12.0573302755  11.7391532095  14.7358831095   -5.63891    6.0
 CL2       12.6807000367  10.8647378576  11.5641297640  -16.93778   17.0
 CL3       12.0944873926   9.0089035463  16.6743277118  -16.93778   17.0
 CL4       14.4050172944  13.8844753163  15.7842962295  -16.93778   17.0
 CL5        9.0491170134  13.1984952269  14.9207755015  -16.93778   17.0
 BO21      12.3690151561  11.3019455335  13.1500064367   -0.15249    0.0
 BO31      12.0759088340  10.3740283779  15.7051054107   -0.15249    0.0
 BO41      13.2311737849  12.8118142629  15.2600896695   -0.15249    0.0
 BO51      10.5532236444  12.4688242182  14.8283293055   -0.15249    0.0
 C1        22.0173318713  12.2238061958  10.2275212224   -5.63891    6.0
 CL2       24.1895858503  14.5660287273   9.2232714453  -16.93778   17.0
 CL3       19.1250644101  12.6055653430   8.5836659254  -16.93778   17.0
 CL4       23.2739549517   9.1871272261   9.5851112138  -16.93778   17.0
 CL5       21.4807244859  12.5365058730  13.5180352820  -16.93778   17.0
 BO21      23.1034588608  13.3949174616   9.7253963339   -0.15249    0.0
 BO31      20.5711981407  12.4146857694   9.4055935739   -0.15249    0.0
 BO41      22.6456434115  10.7054667109   9.9063162181   -0.15249    0.0
 BO51      21.7490281786  12.3801560344  11.8727782522   -0.15249    0.0
 C1        30.9858685977   9.2477827844  12.7549471538   -5.63891    6.0
 CL2       29.5163579176   6.3612789754  11.9053322569  -16.93778   17.0
 CL3       34.2888088569   8.7768629043  13.0413585044  -16.93778   17.0
 CL4       30.3864378889  11.5433954905  10.3918863252  -16.93778   17.0
 CL5       29.7518682305  10.3095908268  15.6812106630  -16.93778   17.0
 BO21      30.2511132577   7.8045308799  12.3301397053   -0.15249    0.0
 BO31      32.6373387274   9.0123228444  12.8981528291   -0.15249    0.0
 BO41      30.6861532433  10.3955891375  11.5734167395   -0.15249    0.0
 BO51      30.3688684142   9.7786868056  14.2180789084   -0.15249    0.0
 C1        11.8040853179  27.6697421607   7.4532395070   -5.63891    6.0
 CL2        9.8106828684  25.3603874051   8.8339779463  -16.93778   17.0
 CL3       10.5592219452  28.5869395357   4.4830079487  -16.93778   17.0
 CL4       11.9767674405  30.3416142769   9.4643316556  -16.93778   17.0
 CL5       14.8696669870  26.3900250727   7.0316418838  -16.93778   17.0
 BO21      10.8073840931  26.5150647829   8.1436087266   -0.15249    0.0
 BO31      11.1816536316  28.1283408483   5.9681237278   -0.15249    0.0
 BO41      11.8904263792  29.0056782188   8.4587855813   -0.15249    0.0
 BO51      13.3368761525  27.0298836167   7.2424406954   -0.15249    0.0
 C1        18.8562761106  20.8772180281  13.9548250952   -5.63891    6.0
 CL2       17.2781880140  18.8231258404  11.8326670909  -16.93778   17.0
 CL3       21.5961954662  22.1150933606  12.4804716989  -16.93778   17.0
 CL4       16.8127418499  23.3908199658  14.8027545587  -16.93778   17.0
 CL5       19.7379775047  19.1798308531  16.7034048704  -16.93778   17.0
 BO21      18.0672320623  19.8501719342  12.8937460930   -0.15249    0.0
 BO31      20.2262357884  21.4961556944  13.2176483971   -0.15249    0.0
 BO41      17.8345089803  22.1340189970  14.3787898270   -0.15249    0.0
 BO51      19.2971268077  20.0285244406  15.3291149828   -0.15249    0.0
 C1        27.8183394675  19.2805216117  17.9188655538   -5.63891    6.0
 CL2       27.0580698581  18.8135721689  21.1464280536  -16.93778   17.0
 CL3       31.1300637420  19.0122281148  17.5020775016  -16.93778   17.0
 CL4       26.2683293132  16.9657336534  16.0607922022  -16.93778   17.0
 CL5       26.8168941823  22.3305520343  16.9661677458  -16.93778   17.0
 BO21      27.4382046628  19.0470468903  19.5326468038   -0.15249    0.0
 BO31      29.4742016047  19.1463748633  17.7104715277   -0.15249    0.0
 BO41      27.0433343903  18.1231276326  16.9898288779   -0.15249    0.0
 BO51      27.3176168249  20.8055368230  17.4425166498   -0.15249    0.0
 C1        41.7653161882  24.7014259509   7.8628310666   -5.63891    6.0
 CL2       38.8734596639  26.1283044715   6.9603927689  -16.93778   17.0
 CL3       42.1808398162  21.8476567472   6.1609048643  -16.93778   17.0
 CL4       44.2975724859  26.7847184771   7.1840220774  -16.93778   17.0
 CL5       41.7093898410  24.0450255612  11.1460036364  -16.93778   17.0
 BO21      40.3193879260  25.4148652112   7.4116119177   -0.15249    0.0
 BO31      41.9730780023  23.2745413490   7.0118679654   -0.15249    0.0
 BO41      43.0314443371  25.7430722140   7.5234265720   -0.15249    0.0
 BO51      41.7373530146  24.3732257560   9.5044173515   -0.15249    0.0
 C1         2.2424271353  35.1579476346   6.5978941546   -5.63891    6.0
 CL2        2.0832153512  37.8021991319   8.6462586187  -16.93778   17.0
 CL3        5.1380626015  33.5463192870   7.0786858632  -16.93778   17.0
 CL4       -0.3083437445  33.0878708963   7.2471718814  -16.93778   17.0
 CL5        2.0567741709  36.1954039171   3.4194623416  -16.93778   17.0
 BO21       2.1628212433  36.4800733833   7.6220763867   -0.15249    0.0
 BO31       3.6902448684  34.3521334608   6.8382900089   -0.15249    0.0
 BO41       0.9670416954  34.1229092654   6.9225330180   -0.15249    0.0
 BO51       2.1496006531  35.6766757758   5.0086782481   -0.15249    0.0
 C1        14.8357184662  37.8799377616  11.6197188031   -5.63891    6.0
 CL2       17.7918679160  36.3279182886  11.8758971336  -16.93778   17.0
 CL3       13.6824781452  37.5751810233   8.4907618772  -16.93778   17.0
 CL4       12.6581530825  36.4925635721  13.7519976799  -16.93778   17.0
 CL5       15.2103777326  41.1240865815  12.3602187824  -16.93778   17.0
 BO21      16.3137931912  37.1039280251  11.7478079683   -0.15249    0.0
 BO31      14.2590983057  37.7275593925  10.0552403401   -0.15249    0.0
 BO41      13.7469357743  37.1862506669  12.6858582415   -0.15249    0.0
 BO51      15.0230480994  39.5020121716  11.9899687927   -0.15249    0.0
 C1        25.2744615413  28.5950074171   9.3569946240   -5.63891    6.0
 CL2       27.1983506799  26.5495744222  11.1812933376  -16.93778   17.0
 CL3       25.8520701598  28.0624260322   6.1018545804  -16.93778   17.0
 CL4       22.0504895349  27.9918672647  10.0318559498  -16.93778   17.0
 CL5       25.9969377504  31.7761598658  10.1129764865  -16.93778   17.0
 BO21      26.2364061106  27.5722909197  10.2691439808   -0.15249    0.0
 BO31      25.5632658505  28.3287167247   7.7294246022   -0.15249    0.0
 BO41      23.6624755380  28.2934373409   9.6944252869   -0.15249    0.0
 BO51      25.6356996458  30.1855836415   9.7349855552   -0.15249    0.0
 C1        35.7533299682  29.5347702101  17.1310010144   -5.63891    6.0
 CL2       35.8459700189  28.4582576177  20.3005041002  -16.93778   17.0
 CL3       33.1164785968  28.1842810826  15.5701021346  -16.93778   17.0
 CL4       35.4838651986  32.8723096971  17.0931822173  -16.93778   17.0
 CL5       38.5670061527  28.6242313463  15.5602188344  -16.93778   17.0
 BO21      35.7996499936  28.9965139139  18.7157525573   -0.15249    0.0
 BO31      34.4349042825  28.8595256464  16.3505515745   -0.15249    0.0
 BO41      35.6185975834  31.2035399536  17.1120916158   -0.15249    0.0
 BO51      37.1601680604  29.0795007782  16.3456099243   -0.15249    0.0
 C1         9.7111354730   0.5737759807  21.2022142291   -5.63891    6.0
 CL2        6.3801759066   0.5925677231  21.5450940747  -16.93778   17.0
 CL3       10.9456879314   3.5445057124  22.1316530060  -16.93778   17.0
 CL4       11.0182536294  -1.8311343890  23.1312190477  -16.93778   17.0
 CL5       10.5004210313  -0.0108351046  18.0008911375  -16.93778   17.0
 BO21       8.0456556897   0.5831718519  21.3736541519   -0.15249    0.0
 BO31      10.3284117022   2.0591408465  21.6669336176   -0.15249    0.0
 BO41      10.3646945512  -0.6286792041  22.1667166384   -0.15249    0.0
 BO51      10.1057782522   0.2814704380  19.6015526833   -0.15249    0.0
 C1        15.9240948553   5.8244610234  28.2914900121   -5.63891    6.0
 CL2       17.1797271743   7.8787089230  30.6188628653  -16.93778   17.0
 CL3       13.0358265549   4.5306867211  29.3856863521  -16.93778   17.0
 CL4       15.3803597805   7.5380260190  25.4663778860  -16.93778   17.0
 CL5       18.1004671907   3.3504245233  27.6950353160  -16.93778   17.0
 BO21      16.5519110148   6.8515849733  29.4551764387   -0.15249    0.0
 BO31      14.4799607051   5.1775738722  28.8385881821   -0.15249    0.0
 BO41      15.6522273179   6.6812435212  26.8789339490   -0.15249    0.0
 BO51      17.0122810230   4.5874427733  27.9932626641   -0.15249    0.0
 C1        27.2438998936   4.5338507495  24.2144205302   -5.63891    6.0
 CL2       24.4378622319   5.7856453559  25.5457260006  -16.93778   17.0
 CL3       29.5710335248   4.2248788407  26.6023478267  -16.93778   17.0
 CL4       26.6038981524   1.5282694458  22.8839731812  -16.93778   17.0
 CL5       28.3628028069   6.5966106310  21.8256364686  -16.93778   17.0
 BO21      25.8408810627   5.1597480527  24.8800732654   -0.15249    0.0
 BO31      28.4074667093   4.3793647951  25.4083841784   -0.15249    0.0
 BO41      26.9238990231   3.0310600976  23.5491968557   -0.15249    0.0
 BO51      27.8033513503   5.5652306902  23.0200284994   -0.15249    0.0
 C1        37.4587779850   3.1141146636  28.6196623319   -5.63891    6.0
 CL2       37.3809404802   2.8061119561  25.2861526190  -16.93778   17.0
 CL3       37.1300355312   0.0937411712  30.0276693334  -16.93778   17.0
 CL4       40.3781467520   4.4665435193  29.5477967746  -16.93778   17.0
 CL5       34.9459890975   5.0900616942  29.6170272048  -16.93778   17.0
 BO21      37.4198592326   2.9601133098  26.9529074754   -0.15249    0.0
 BO31      37.2944067581   1.6039279174  29.3236658327   -0.15249    0.0
 BO41      38.9184623685   3.7903290914  29.0837295533   -0.15249    0.0
 BO51      36.2023835413   4.1020881789  29.1183447684   -0.15249    0.0
 C1         2.9395960424   9.2022644119  21.3216536296   -5.63891    6.0
 CL2        1.3270020201   7.9171319533  18.6832475892  -16.93778   17.0
 CL3        2.9309494411  12.5445228956  21.1156322336  -16.93778   17.0
 CL4        1.4011510951   8.2537224628  24.1406368977  -16.93778   17.0
 CL5        6.0992799706   8.0936790269  21.3470951102  -16.93778   17.0
 BO21       2.1332990312   8.5596981826  20.0024506093   -0.15249    0.0
 BO31       2.9352727417  10.8733936538  21.2186429316   -0.15249    0.0
 BO41       2.1703735687   8.7279934374  22.7311452637   -0.15249    0.0
 BO51       4.5194380065   8.6479717194  21.3343743699   -0.15249    0.0
 C1        12.1396208108  14.4290312923  25.7194885078   -5.63891    6.0
 CL2        9.8848320495  12.4384838368  24.2474627537  -16.93778   17.0
 CL3       13.2367641701  12.9830182859  28.5334775243  -16.93778   17.0
 CL4       14.7175774773  14.9240467366  23.6404717964  -16.93778   17.0
 CL5       10.7193072492  17.3705742823  26.4565404571  -16.93778   17.0
 BO21      11.0122264301  13.4337575645  24.9834756307   -0.15249    0.0
 BO31      12.6881924905  13.7060247891  27.1264830161   -0.15249    0.0
 BO41      13.4285991441  14.6765390145  24.6799801521   -0.15249    0.0
 BO51      11.4294640300  15.8998027873  26.0880144824   -0.15249    0.0
 C1        21.8164579898  13.5858537583  24.8682896302   -5.63891    6.0
 CL2       21.2359059431  16.6637153620  26.0527467297  -16.93778   17.0
 CL3       20.5394241866  11.3192479392  26.9765813741  -16.93778   17.0
 CL4       20.3727219656  13.2548705985  21.8650767188  -16.93778   17.0
 CL5       25.1177792724  13.1055842688  24.5787549048  -16.93778   17.0
 BO21      21.5261819665  15.1247845602  25.4605181799   -0.15249    0.0
 BO31      21.1779410882  12.4525508487  25.9224355021   -0.15249    0.0
 BO41      21.0945899777  13.4203621783  23.3666831745   -0.15249    0.0
 BO51      23.4671186311  13.3457190135  24.7235222675   -0.15249    0.0
 C1        34.9258196525  11.7011140661  22.3039760263   -5.63891    6.0
 CL2       34.2717167515   9.9962836032  25.1109163247  -16.93778   17.0
 CL3       37.1896566501  14.0833477949  22.9467947102  -16.93778   17.0
 CL4       36.1337265105   9.6102662939  19.9839484474  -16.93778   17.0
 CL5       32.1081780314  13.1145568356  21.1742474822  -16.93778   17.0
 BO21      34.5987682020  10.8486988346  23.7074461755   -0.15249    0.0
 BO31      36.0577381513  12.8922309305  22.6253853682   -0.15249    0.0
 BO41      35.5297730815  10.6556901800  21.1439622368   -0.15249    0.0
 BO51      33.5169988419  12.4078354508  21.7391117542   -0.15249    0.0
 C1        10.1477955623  20.3489084641  18.5592987585   -5.63891    6.0
 CL2       10.7213470969  20.0369629342  15.2749510341  -16.93778   17.0
 CL3        8.6487515266  17.5797694131  19.6985736359  -16.93778   17.0
 CL4       13.0545745138  20.7851474307  20.1635253765  -16.93778   17.0
 CL5        8.1665096961  22.9937537607  19.1001416417  -16.93778   17.0
 BO21      10.4345713296  20.1929356992  16.9171248963   -0.15249    0.0
 BO31       9.3982735445  18.9643389386  19.1289361972   -0.15249    0.0
 BO41      11.6011850380  20.5670279474  19.3614120676   -0.15249    0.0
 BO51       9.1571526292  21.6713311124  18.8297202001   -0.15249    0.0
 C1        17.3566243410  24.2631668792  27.9463207719   -5.63891    6.0
 CL2       14.2926216902  24.3593103140  29.2938576164  -16.93778   17.0
 CL3       18.4249492890  27.3856582754  27.3789226428  -16.93778   17.0
 CL4       19.4567668879  22.7311522113  30.0571366546  -16.93778   17.0
 CL5       17.2521563754  22.5765468140  25.0553675466  -16.93778   17.0
 BO21      15.8246230155  24.3112385966  28.6200891942   -0.15249    0.0
 BO31      17.8907868150  25.8244125773  27.6626217073   -0.15249    0.0
 BO41      18.4066956145  23.4971595452  29.0017287132   -0.15249    0.0
 BO51      17.3043903582  23.4198568466  26.5008441592   -0.15249    0.0
 C1        27.6761986697  25.2051595670  26.3714976399   -5.63891    6.0
 CL2       27.8796786363  23.9741507111  29.4789764333  -16.93778   17.0
 CL3       24.9233539529  24.0188101091  24.8789721696  -16.93778   17.0
 CL4       27.5222868643  28.5476533789  26.5028659195  -16.93778   17.0
 CL5       30.3794754328  24.2800228150  24.6251792030  -16.93778   17.0
 BO21      27.7779386530  24.5896551391  27.9252370366   -0.15249    0.0
 BO31      26.2997763113  24.6119848381  25.6252349047   -0.15249    0.0
 BO41      27.5992427670  26.8764064730  26.4371817796   -0.15249    0.0
 BO51      29.0278370512  24.7425911910  25.4983384214   -0.15249    0.0
 C1        40.8693082171  19.7991380291  18.9447707206   -5.63891    6.0
 CL2       42.2581151636  18.2596678982  21.5743064843  -16.93778   17.0
 CL3       42.5869179665  22.5882213147  18.2490390727  -16.93778   17.0
 CL4       40.9358342546  17.7563695388  16.2922469163  -16.93778   17.0
 CL5       37.6963668985  20.5922917963  19.6634930877  -16.93778   17.0
 BO21      41.5637116904  19.0294029636  20.2595386025   -0.15249    0.0
 BO31      41.7281130918  21.1936796719  18.5969048966   -0.15249    0.0
 BO41      40.9025712359  18.7777537839  17.6185088184   -0.15249    0.0
 BO51      39.2828375578  20.1957149127  19.3041319041   -0.15249    0.0
 C1         3.6930729079  34.2022370908  15.5098617247   -5.63891    6.0
 CL2        0.6860436587  35.5988844681  15.0404338289  -16.93778   17.0
 CL3        6.0817139381  36.4829995704  14.9569350641  -16.93778   17.0
 CL4        3.9250900760  33.0835268004  18.6575381170  -16.93778   17.0
 CL5        4.0794408955  31.6435389472  13.3845394106  -16.93778   17.0
 BO21       2.1895582833  34.9005607795  15.2751477768   -0.15249    0.0
 BO31       4.8873934230  35.3426183306  15.2333983944   -0.15249    0.0
 BO41       3.8090814920  33.6428819456  17.0836999209   -0.15249    0.0
 BO51       3.8862569017  32.9228880190  14.4472005677   -0.15249    0.0
 C1        12.1486516131  29.7169687153  19.5245117341   -5.63891    6.0
 CL2       15.0973432091  28.3193246979  18.7728333300  -16.93778   17.0
 CL3        9.9300922253  29.0039745949  17.1197570734  -16.93778   17.0
 CL4       11.0529669983  28.5071394833  22.4483790028  -16.93778   17.0
 CL5       12.5142070233  33.0374346615  19.7570767644  -16.93778   17.0
 BO21      13.6229974111  29.0181467066  19.1486725320   -0.15249    0.0
 BO31      11.0393719191  29.3604716551  18.3221344037   -0.15249    0.0
 BO41      11.6008093057  29.1120540993  20.9864453685   -0.15249    0.0
 BO51      12.3314293181  31.3772016884  19.6407942493   -0.15249    0.0
 C1        22.8663662790  30.3157231412  18.7014762314   -5.63891    6.0
 CL2       20.8284764384  32.5679250395  17.2915815696  -16.93778   17.0
 CL3       23.1438999701  30.9573261515  21.9763093537  -16.93778   17.0
 CL4       21.6051063146  27.2440399241  18.2688136988  -16.93778   17.0
 CL5       25.8879803170  30.4936037439  17.2691988674  -16.93778   17.0
 BO21      21.8474213587  31.4418240904  17.9965289005   -0.15249    0.0
 BO31      23.0051331246  30.6365246463  20.3388927926   -0.15249    0.0
 BO41      22.2357362968  28.7798815326  18.4851449651   -0.15249    0.0
 BO51      24.3771732981  30.4046634425  17.9853375495   -0.15249    0.0
 C1        31.5417035612  35.5827043879  25.4150728843   -5.63891    6.0
 CL2       29.6560468308  34.9081497776  28.0988176792  -16.93778   17.0
 CL3       33.7935661194  37.9349028914  26.1957703740  -16.93778   17.0
 CL4       33.1273998891  32.8001943115  24.4371075570  -16.93778   17.0
 CL5       29.5897994848  36.6875698839  22.9285986611  -16.93778   17.0
 BO21      30.5988751960  35.2454270827  26.7569452818   -0.15249    0.0
 BO31      32.6676348403  36.7588036396  25.8054216291   -0.15249    0.0
 BO41      32.3345517252  34.1914493497  24.9260902206   -0.15249    0.0
 BO51      30.5657515230  36.1351371359  24.1718357727   -0.15249    0.0
 C1         6.3138225206   2.0457839792  31.9436731164   -5.63891    6.0
 CL2        3.6109322419   0.4470707665  33.1063044233  -16.93778   17.0
 CL3        5.7312799483   5.3431507665  31.9086335343  -16.93778   17.0
 CL4        8.9335093354   1.3961101475  33.9256862989  -16.93778   17.0
 CL5        6.9795658034   0.9968026077  28.8340693933  -16.93778   17.0
 BO21       4.9623773812   1.2464273728  32.5249887699   -0.15249    0.0
 BO31       6.0225512345   3.6944673729  31.9261533253   -0.15249    0.0
 BO41       7.6236659281   1.7209470633  32.9346797076   -0.15249    0.0
 BO51       6.6466941621   1.5212932934  30.3888712548   -0.15249    0.0
 C1        17.6910184908  12.3294152556  38.6545822953   -5.63891    6.0
 CL2       15.5491606971   9.8255193587  38.0577892990  -16.93778   17.0
 CL3       16.3990148461  14.3757469134  40.9689860369  -16.93778   17.0
 CL4       20.5908311816  11.0767615546  39.7659582057  -16.93778   17.0
 CL5       18.2250650564  14.0396306450  35.8255950315  -16.93778   17.0
 BO21      16.6200895939  11.0774673071  38.3561857971   -0.15249    0.0
 BO31      17.0450166685  13.3525810845  39.8117841661   -0.15249    0.0
 BO41      19.1409248362  11.7030884051  39.2102702505   -0.15249    0.0
 BO51      17.9580417736  13.1845229503  37.2400886634   -0.15249    0.0
 C1        26.4081455122   8.2286706907  34.6715398561   -5.63891    6.0
 CL2       23.7318461341   9.7329821106  33.3344982930  -16.93778   17.0
 CL3       25.4042342658   5.9262764875  36.8861175796  -16.93778   17.0
 CL4       28.1828134635   6.7477515766  32.2485987525  -16.93778   17.0
 CL5       28.3136854593  10.5076741204  36.2169434371  -16.93778   17.0
 BO21      25.0699958231   8.9808264007  34.0030190745   -0.15249    0.0
 BO31      25.9061898891   7.0774735891  35.7788287178   -0.15249    0.0
 BO41      27.2954794879   7.4882111336  33.4600693043   -0.15249    0.0
 BO51      27.3609154858   9.3681724055  35.4442416466   -0.15249    0.0
 C1        36.4278546252   7.1693758403  37.2280519213   -5.63891    6.0
 CL2       37.6738108947   8.4784049926  40.0471381215  -16.93778   17.0
 CL3       33.3339438526   6.0239115195  37.8014967502  -16.93778   17.0
 CL4       36.3225634671   9.5280784888  34.8534683918  -16.93778   17.0
 CL5       38.3811015558   4.6471096938  36.2101072935  -16.93778   17.0
 BO21      37.0508327600   7.8238904165  38.6375950214   -0.15249    0.0
 BO31      34.8808992389   6.5966436798  37.5147743357   -0.15249    0.0
 BO41      36.3752090462   8.3487271645  36.0407601565   -0.15249    0.0
 BO51      37.4044780905   5.9082427670  36.7190796074   -0.15249    0.0
 C1         2.1897097069  15.3409466449  30.6631610277   -5.63891    6.0
 CL2        5.2932895532  14.6091595563  31.6856536417  -16.93778   17.0
 CL3        1.6608218028  18.6333261453  30.9693083146  -16.93778   17.0
 CL4        1.8309397689  14.4462391959  27.4562943228  -16.93778   17.0
 CL5       -0.0262091359  13.6750609366  32.5413888733  -16.93778   17.0
 BO21       3.7414996301  14.9750531006  31.1744073347   -0.15249    0.0
 BO31       1.9252657548  16.9871363951  30.8162346711   -0.15249    0.0
 BO41       2.0103247378  14.8935929204  29.0597276752   -0.15249    0.0
 BO51       1.0817502854  14.5080037907  31.6022749505   -0.15249    0.0
 C1        10.4163396009  19.2499363226  37.0312499580   -5.63891    6.0
 CL2        7.9252883405  21.1673502965  35.8773874786  -16.93778   17.0
 CL3       12.7652950356  18.9291281613  34.6663605652  -16.93778   17.0
 CL4       11.7558346449  20.6761548315  39.7487607938  -16.93778   17.0
 CL5        9.2189378451  16.2271139541  37.8324898190  -16.93778   17.0
 BO21       9.1708139707  20.2086433096  36.4543187183   -0.15249    0.0
 BO31      11.5908173183  19.0895322419  35.8488052616   -0.15249    0.0
 BO41      11.0860871229  19.9630455770  38.3900053759   -0.15249    0.0
 BO51       9.8176387230  17.7385251383  37.4318698885   -0.15249    0.0
 C1        24.1177140639  19.3349226330  35.8611749210   -5.63891    6.0
 CL2       21.2803868345  20.8771969164  36.7467118088  -16.93778   17.0
 CL3       26.6480593079  21.5271523707  35.9296809364  -16.93778   17.0
 CL4       24.7459420297  16.8379038356  38.0020714854  -16.93778   17.0
 CL5       23.7964651929  18.0974389805  32.7662363556  -16.93778   17.0
 BO21      22.6990504491  20.1060597747  36.3039433649   -0.15249    0.0
 BO31      25.3828866859  20.4310375018  35.8954279287   -0.15249    0.0
 BO41      24.4318280468  18.0864132343  36.9316232032   -0.15249    0.0
 BO51      23.9570896284  18.7161808068  34.3137056383   -0.15249    0.0
 C1        32.0483464337  16.6187421774  30.0017820717   -5.63891    6.0
 CL2       30.8655726562  13.4943588949  30.2308817139  -16.93778   17.0
 CL3       35.3953288171  16.5540280137  30.0838329910  -16.93778   17.0
 CL4       31.0287071772  17.9898811607  27.1219339809  -16.93778   17.0
 CL5       30.9037758794  18.4366974576  32.5704798345  -16.93778   17.0
 BO21      31.4569595449  15.0565505361  30.1163318928   -0.15249    0.0
 BO31      33.7218376254  16.5863850956  30.0428075313   -0.15249    0.0
 BO41      31.5385268055  17.3043116691  28.5618580263   -0.15249    0.0
 BO51      31.4760611566  17.5277198175  31.2861309531   -0.15249    0.0
 C1         5.2412693002  24.6168869618  27.8719890771   -5.63891    6.0
 CL2        3.1691700409  24.1523977332  25.2828066256  -16.93778   17.0
 CL3        6.9627058643  21.8019446662  28.4429246072  -16.93778   17.0
 CL4        7.3701255449  27.1033514689  27.1658186338  -16.93778   17.0
 CL5        3.4630736399  25.4098535057  30.5964038041  -16.93778   17.0
 BO21       4.2052196705  24.3846423475  26.5773978513   -0.15249    0.0
 BO31       6.1019875823  23.2094158140  28.1574568422   -0.15249    0.0
 BO41       6.3056974226  25.8601192154  27.5189038555   -0.15249    0.0
 BO51       4.3521714701  25.0133702337  29.2341964406   -0.15249    0.0
 C1        16.2404774850  28.7647758542  38.0867037578   -5.63891    6.0
 CL2       17.4338248635  31.8896339864  37.9305146452  -16.93778   17.0
 CL3       18.4474879473  26.8048613189  39.6681749668  -16.93778   17.0
 CL4       13.3413902748  28.7595386647  39.7625549656  -16.93778   17.0
 CL5       15.7392080700  27.6050726300  34.9855702947  -16.93778   17.0
 BO21      16.8371511743  30.3272049203  38.0086092015   -0.15249    0.0
 BO31      17.3439827161  27.7848185865  38.8774393623   -0.15249    0.0
 BO41      14.7909338799  28.7621572594  38.9246293617   -0.15249    0.0
 BO51      15.9898427775  28.1849242420  36.5361370263   -0.15249    0.0
 C1        24.9137289875  30.8151559434  34.9943290607   -5.63891    6.0
 CL2       25.2491526619  29.6076940786  38.0996049188  -16.93778   17.0
 CL3       23.5492045930  33.8703060119  35.1260203159  -16.93778   17.0
 CL4       27.9229730666  30.9985751003  33.5369276622  -16.93778   17.0
 CL5       22.9335859703  28.7840473526  33.2147665091  -16.93778   17.0
 BO21      25.0814408247  30.2114250109  36.5469669898   -0.15249    0.0
 BO31      24.2314667903  32.3427309776  35.0601746883   -0.15249    0.0
 BO41      26.4183510270  30.9068655218  34.2656283614   -0.15249    0.0
 BO51      23.9236574789  29.7996016480  34.1045477849   -0.15249    0.0
 C1        36.6738886000  25.9332771333  30.4316763921   -5.63891    6.0
 CL2       34.7598874125  23.2653778991  31.0890381506  -16.93778   17.0
 CL3       38.6967362254  26.5242527278  33.0339920305  -16.93778   17.0
 CL4       38.5154748882  25.3396827100  27.6986529831  -16.93778   17.0
 CL5       34.7234539241  28.6037924783  29.9050230741  -16.93778   17.0
 BO21      35.7168880062  24.5993275161  30.7603572714   -0.15249    0.0
 BO31      37.6853124127  26.2287649306  31.7328342113   -0.15249    0.0
 BO41      37.5946817441  25.6364799217  29.0651646876   -0.15249    0.0
 BO51      35.6986712621  27.2685348058  30.1683497331   -0.15249    0.0
 C1         0.9623632406  34.8874330220  25.6314033950   -5.63891    6.0
 CL2        3.7284620676  36.7480437413  25.9476886798  -16.93778   17.0
 CL3       -0.7825523356  34.9871124884  28.4877200768  -16.93778   17.0
 CL4       -0.9145187921  36.0933555973  23.1341497177  -16.93778   17.0
 CL5        1.8180648403  31.7212221563  24.9560554277  -16.93778   17.0
 BO21       2.3454126542  35.8177383817  25.7895460374   -0.15249    0.0
 BO31       0.0899054525  34.9372727552  27.0595617359   -0.15249    0.0
 BO41       0.0239222242  35.4903943096  24.3827765563   -0.15249    0.0
 BO51       1.3902140404  33.3043275891  25.2937294113   -0.15249    0.0
 C1         9.6648543561  32.6207267573  32.1295617140   -5.63891    6.0
 CL2        7.4239465278  34.6387583409  30.6738515838  -16.93778   17.0
 CL3       11.5181227666  31.1273534695  29.7740482301  -16.93778   17.0
 CL4       11.6502566071  34.4212487035  34.1369256506  -16.93778   17.0
 CL5        8.0670892402  30.2955485708  33.9334199087  -16.93778   17.0
 BO21       8.5444004419  33.6297425491  31.4017066489   -0.15249    0.0
 BO31      10.5914885614  31.8740401133  30.9518049721   -0.15249    0.0
 BO41      10.6575554816  33.5209877303  33.1332436824   -0.15249    0.0
 BO51       8.8659717982  31.4581376640  33.0314908114   -0.15249    0.0
 C1        20.6159585767  36.9242303633  26.9844465643   -5.63891    6.0
 CL2       20.5996650630  37.1684797533  23.6447926738  -16.93778   17.0
 CL3       22.5349501495  39.3478799662  28.2715383624  -16.93778   17.0
 CL4       17.4899798972  37.2423062934  28.1421582507  -16.93778   17.0
 CL5       21.8392391805  33.9382556891  27.8792935681  -16.93778   17.0
 BO21      20.6078118199  37.0463550583  25.3146196190   -0.15249    0.0
 BO31      21.5754543631  38.1360551647  27.6279924634   -0.15249    0.0
 BO41      19.0529692370  37.0832683284  27.5633024076   -0.15249    0.0
 BO51      21.2275988786  35.4312430262  27.4318700662   -0.15249    0.0
 C1        30.1668749074  38.5893315238  37.7972502740   -5.63891    6.0
 CL2       27.1223505214  39.8866563714  37.2863384871  -16.93778   17.0
 CL3       31.7862297911  40.4123387896  40.0923636961  -16.93778   17.0
 CL4       29.8685292720  35.4360071301  38.8838718738  -16.93778   17.0
 CL5       31.8903869436  38.6223251255  34.9264265187  -16.93778   17.0
 BO21      28.6446127144  39.2379939476  37.5417943805   -0.15249    0.0
 BO31      30.9765523493  39.5008351567  38.9448069851   -0.15249    0.0
 BO41      30.0177020898  37.0126693269  38.3405610739   -0.15249    0.0
 BO51      31.0286309255  38.6058283246  36.3618383964   -0.15249    0.0
 C1        10.4093356557  -2.8374921789  42.9743380215   -5.63891    6.0
 CL2       10.9915807427  -5.9098528863  44.1721701022  -16.93778   17.0
 CL3        7.7416027233  -2.9149982258  40.9518630118  -16.93778   17.0
 CL4        9.8210506636  -0.7406816787  45.5180592808  -16.93778   17.0
 CL5       13.0831090863  -1.7844390548  41.2552609115  -16.93778   17.0
 BO21      10.7004581992  -4.3736725327  43.5732540619   -0.15249    0.0
 BO31       9.0754691895  -2.8762452023  41.9631005166   -0.15249    0.0
 BO41      10.1151931596  -1.7890869288  44.2461986511   -0.15249    0.0
 BO51      11.7462223710  -2.3109656168  42.1147994665   -0.15249    0.0
 C1        14.4431496150   6.4460397167  46.5302667550   -5.63891    6.0
 CL2       13.9492476783   9.6443663228  45.6700463481  -16.93778   17.0
 CL3       15.5194587492   4.7269554882  43.8657744179  -16.93778   17.0
 CL4       16.7383498502   6.2862149502  48.9633148999  -16.93778   17.0
 CL5       11.5655416793   5.1266253636  47.6219304778  -16.93778   17.0
 BO21      14.1961986467   8.0452030198  46.1001565515   -0.15249    0.0
 BO31      14.9813041821   5.5864976024  45.1980205865   -0.15249    0.0
 BO41      15.5907497326   6.3661273334  47.7467908274   -0.15249    0.0
 BO51      13.0043456471   5.7863325401  47.0760986164   -0.15249    0.0
 C1        25.3809762162   3.7995013070  45.4778933596   -5.63891    6.0
 CL2       27.1072469975   6.6085749997  44.8928245347  -16.93778   17.0
 CL3       22.2285327319   4.1851213291  44.4164751444  -16.93778   17.0
 CL4       26.8068227718   1.2512821766  43.8387618170  -16.93778   17.0
 CL5       25.3813041222   3.1530295843  48.7635113464  -16.93778   17.0
 BO21      26.2441116069   5.2040381534  45.1853589472   -0.15249    0.0
 BO31      23.8047544741   3.9923113180  44.9471842520   -0.15249    0.0
 BO41      26.0938994940   2.5253917418  44.6583275883   -0.15249    0.0
 BO51      25.3811401692   3.4762654457  47.1207023530   -0.15249    0.0
 C1        37.5341761661   3.1015878698  45.9203788861   -5.63891    6.0
 CL2       40.0322173457   5.2719474707  46.4327662577  -16.93778   17.0
 CL3       37.6596654993   0.6878323724  48.2379742298  -16.93778   17.0
 CL4       34.6016810027   4.7039370778  46.1352287946  -16.93778   17.0
 CL5       37.8431433614   1.7426367691  42.8755467841  -16.93778   17.0
 BO21      38.7831967559   4.1867676703  46.1765725719   -0.15249    0.0
 BO31      37.5969208327   1.8947101210  47.0791765579   -0.15249    0.0
 BO41      36.0679285844   3.9027624737  46.0278038403   -0.15249    0.0
 BO51      37.6886597637   2.4221123194  44.3979628351   -0.15249    0.0
 C1         5.8815371274   7.7200873808  40.0935136348   -5.63891    6.0
 CL2        9.0499105984   6.6647404022  40.3402192368  -16.93778   17.0
 CL3        5.7880133855  10.5709606177  38.3393795328  -16.93778   17.0
 CL4        4.0472431947   5.3909333969  38.5367160119  -16.93778   17.0
 CL5        4.6409845586   8.2537140313  43.1577400090  -16.93778   17.0
 BO21       7.4657238630   7.1924138915  40.2168664358   -0.15249    0.0
 BO31       5.8347752564   9.1455239993  39.2164465838   -0.15249    0.0
 BO41       4.9643901610   6.5555103889  39.3151148233   -0.15249    0.0
 BO51       5.2612608430   7.9869007061  41.6256268219   -0.15249    0.0
 C1        10.2410035806  17.2197987035  47.7763994852   -5.63891    6.0
 CL2       13.5471258892  17.5166257752  47.3351962207  -16.93778   17.0
 CL3        9.1271480211  14.5431213527  46.1007099246  -16.93778   17.0
 CL4        9.5789299777  16.8498522302  51.0379956438  -16.93778   17.0
 CL5        8.7108138022  19.9695957582  46.6316957022  -16.93778   17.0
 BO21      11.8940647350  17.3682122394  47.5557978529   -0.15249    0.0
 BO31       9.6840758008  15.8814600281  46.9385547049   -0.15249    0.0
 BO41       9.9099667791  17.0348254669  49.4071975645   -0.15249    0.0
 BO51       9.4759086913  18.5946972308  47.2040475937   -0.15249    0.0
 C1        31.1261751350  14.5768845499  42.8591613305   -5.63891    6.0
 CL2       28.0190170808  13.4201763786  42.3892609324  -16.93778   17.0
 CL3       33.1297512451  12.0545829561  43.7739775919  -16.93778   17.0
 CL4       32.2581588787  15.9247488838  40.0104623481  -16.93778   17.0
 CL5       31.0977701701  16.9080288026  45.2629439708  -16.93778   17.0
 BO21      29.5725961079  13.9985304642  42.6242111314   -0.15249    0.0
 BO31      32.1279631901  13.3157337530  43.3165694612   -0.15249    0.0
 BO41      31.6921670069  15.2508167168  41.4348118393   -0.15249    0.0
 BO51      31.1119726526  15.7424566762  44.0610526506   -0.15249    0.0
 C1        40.6811733174  16.9820133524  40.3533906543   -5.63891    6.0
 CL2       38.3051100377  17.6025347169  38.0768828292  -16.93778   17.0
 CL3       42.6982736591  14.5570985516  39.2289771310  -16.93778   17.0
 CL4       42.4687813231  19.7627436378  40.8874393872  -16.93778   17.0
 CL5       39.2525258294  16.0056771356  43.2202609509  -16.93778   17.0
 BO21      39.4931416776  17.2922740347  39.2151367417   -0.15249    0.0
 BO31      41.6897234883  15.7695559520  39.7911838927   -0.15249    0.0
 BO41      41.5749773203  18.3723784951  40.6204150208   -0.15249    0.0
 BO51      39.9668495735  16.4938452440  41.7868258027   -0.15249    0.0
 C1         3.8367224422  27.3090854732  40.1903190563   -5.63891    6.0
 CL2        0.6957950002  27.8732521912  41.2049628704  -16.93778   17.0
 CL3        3.8263152512  26.4437473508  36.9554631127  -16.93778   17.0
 CL4        5.6573002033  30.0901187173  40.5959815529  -16.93778   17.0
 CL5        5.1674761143  24.8292242081  42.0048697226  -16.93778   17.0
 BO21       2.2662587211  27.5911688322  40.6976409633   -0.15249    0.0
 BO31       3.8315188467  26.8764164120  38.5728910845   -0.15249    0.0
 BO41       4.7470113228  28.6996020953  40.3931503046   -0.15249    0.0
 BO51       4.5020992783  26.0691548406  41.0975943894   -0.15249    0.0
 C1        22.4221206546  21.3641825625  45.2354501199   -5.63891    6.0
 CL2       21.3702486096  18.4368858524  43.9954055549  -16.93778   17.0
 CL3       19.7974127434  23.0975932849  46.3841045497  -16.93778   17.0
 CL4       24.5741046795  20.8068956500  47.7397678722  -16.93778   17.0
 CL5       23.9467155145  23.1153524806  42.8225212394  -16.93778   17.0
 BO21      21.8961846321  19.9005342074  44.6154278374   -0.15249    0.0
 BO31      21.1097666991  22.2308879237  45.8097773348   -0.15249    0.0
 BO41      23.4981126671  21.0855391063  46.4876089961   -0.15249    0.0
 BO51      23.1844180846  22.2397675216  44.0289856797   -0.15249    0.0
 C1        33.6548712976  20.6064593073  50.7711684740   -5.63891    6.0
 CL2       35.0132622757  21.5304674335  53.6890777057  -16.93778   17.0
 CL3       31.9566833285  23.1803866426  49.4656926813  -16.93778   17.0
 CL4       36.0791163435  19.6803788884  48.6548928856  -16.93778   17.0
 CL5       31.5704246263  18.0346052059  51.2750135959  -16.93778   17.0
 BO21      34.3340667867  21.0684633704  52.2301230899   -0.15249    0.0
 BO31      32.8057773130  21.8934229749  50.1184305776   -0.15249    0.0
 BO41      34.8669938205  20.1434190978  49.7130306798   -0.15249    0.0
 BO51      32.6126479619  19.3205322566  51.0230910349   -0.15249    0.0
 C1        33.4039646778  25.8157379301  39.5209359129   -5.63891    6.0
 CL2       34.0696927881  28.8317186049  38.2271515402  -16.93778   17.0
 CL3       32.3496397135  23.7668496826  37.0911895949  -16.93778   17.0
 CL4       36.1790242576  24.5610805444  40.9130891098  -16.93778   17.0
 CL5       31.0175026301  26.1033059608  41.8523120889  -16.93778   17.0
 BO21      33.7368287329  27.3237282675  38.8740437265   -0.15249    0.0
 BO31      32.8768021956  24.7912938063  38.3060627539   -0.15249    0.0
 BO41      34.7914944677  25.1884092372  40.2170125114   -0.15249    0.0
 BO51      32.2107336539  25.9595219454  40.6866240009   -0.15249    0.0
 C1        -1.2952311241  35.9917976966  37.0874536470   -5.63891    6.0
 CL2        1.8882900237  36.1222602390  38.1176885605  -16.93778   17.0
 CL3       -3.3330919755  36.1060368932  39.7421257374  -16.93778   17.0
 CL4       -1.9271915401  38.5980859087  35.0821857999  -16.93778   17.0
 CL5       -1.8089277616  33.1408078783  35.4078155398  -16.93778   17.0
 BO21       0.2965294498  36.0570289678  37.6025711038   -0.15249    0.0
 BO31      -2.3141615499  36.0489172949  38.4147896922   -0.15249    0.0
 BO41      -1.6112113322  37.2949418026  36.0848197235   -0.15249    0.0
 BO51      -1.5520794429  34.5663027874  36.2476345934   -0.15249    0.0
 C1        20.8992689978  35.9499334730  44.3348237635   -5.63891    6.0
 CL2       19.9692360173  38.9664938492  45.4522375199  -16.93778   17.0
 CL3       23.0769644690  34.5867121582  46.4824926004  -16.93778   17.0
 CL4       18.2059807732  33.9773653513  44.0733187056  -16.93778   17.0
 CL5       22.3448937844  36.2691656062  41.3312473665  -16.93778   17.0
 BO21      20.4342525076  37.4582136611  44.8935306417   -0.15249    0.0
 BO31      21.9881167334  35.2683228155  45.4086581819   -0.15249    0.0
 BO41      19.5526248856  34.9636494121  44.2040712345   -0.15249    0.0
 BO51      21.6220813911  36.1095495395  42.8330355650   -0.15249    0.0
 C1        18.1433467937  41.0848214121  36.1113115869   -5.63891    6.0
 CL2       16.9392325083  37.9961003154  36.5836696345  -16.93778   17.0
 CL3       21.3442968240  40.8993812185  35.1455257984  -16.93778   17.0
 CL4       16.3507937020  42.6316211891  33.7433218880  -16.93778   17.0
 CL5       17.9390629138  42.8121797791  38.9727295081  -16.93778   17.0
 BO21      17.5412896510  39.5404608637  36.3474906107   -0.15249    0.0
 BO31      19.7438218088  40.9921013154  35.6284186927   -0.15249    0.0
 BO41      17.2470702479  41.8582213007  34.9273167375   -0.15249    0.0
 BO51      18.0412048538  41.9485005957  37.5420205475   -0.15249    0.0
 C1        32.9401416002  33.8403439645  46.6886611575   -5.63891    6.0
 CL2       29.8069492325  34.4244319428  45.6614522346  -16.93778   17.0
 CL3       32.9765097498  33.4931284647  50.0190260182  -16.93778   17.0
 CL4       34.0777145636  31.0329323429  45.2612232111  -16.93778   17.0
 CL5       34.8993896634  36.4108837025  45.8129421197  -16.93778   17.0
 BO21      31.3735454163  34.1323879537  46.1750566960   -0.15249    0.0
 BO31      32.9583256751  33.6667362146  48.3538435879   -0.15249    0.0
 BO41      33.5089280820  32.4366381537  45.9749421843   -0.15249    0.0
 BO51      33.9197656319  35.1256138335  46.2508016386   -0.15249    0.0

   CHARGE SCREENING PARAMETERS (COEF AND ZETA)
   ICHGP=   6 AI-FRAGMENT SCREENING= 0   FRAGMENT-FRAGMENT SCREENING= 3

             GAUSSIAN DAMPING    EXPONENTIAL DAMPING
 C1         0.00000   0.00000      1.00000   2.81133
 CL2        0.00000   0.00000      1.00000   1.82719
 CL3        0.00000   0.00000      1.00000   1.82719
 CL4        0.00000   0.00000      1.00000   1.82719
 CL5        0.00000   0.00000      1.00000   1.82719
 BO21       0.00000   0.00000      1.00000  10.00000
 BO31       0.00000   0.00000      1.00000  10.00000
 BO41       0.00000   0.00000      1.00000  10.00000
 BO51       0.00000   0.00000      1.00000  10.00000
 C1         0.00000   0.00000      1.00000   2.81133
 CL2        0.00000   0.00000      1.00000   1.82719
 CL3        0.00000   0.00000      1.00000   1.82719
 CL4        0.00000   0.00000      1.00000   1.82719
 CL5        0.00000   0.00000      1.00000   1.82719
 BO21       0.00000   0.00000      1.00000  10.00000
 BO31       0.00000   0.00000      1.00000  10.00000
 BO41       0.00000   0.00000      1.00000  10.00000
 BO51       0.00000   0.00000      1.00000  10.00000
 C1         0.00000   0.00000      1.00000   2.81133
 CL2        0.00000   0.00000      1.00000   1.82719
 CL3        0.00000   0.00000      1.00000   1.82719
 CL4        0.00000   0.00000      1.00000   1.82719
 CL5        0.00000   0.00000      1.00000   1.82719
 BO21       0.00000   0.00000      1.00000  10.00000
 BO31       0.00000   0.00000      1.00000  10.00000
 BO41       0.00000   0.00000      1.00000  10.00000
 BO51       0.00000   0.00000      1.00000  10.00000
 C1         0.00000   0.00000      1.00000   2.81133
 CL2        0.00000   0.00000      1.00000   1.82719
 CL3        0.00000   0.00000      1.00000   1.82719
 CL4        0.00000   0.00000      1.00000   1.82719
 CL5        0.00000   0.00000      1.00000   1.82719
 BO21       0.00000   0.00000      1.00000  10.00000
 BO31       0.00000   0.00000      1.00000  10.00000
 BO41       0.00000   0.00000      1.00000  10.00000
 BO51       0.00000   0.00000      1.00000  10.00000
 C1         0.00000   0.00000      1.00000   2.81133
 CL2        0.00000   0.00000      1.00000   1.82719
 CL3        0.00000   0.00000      1.00000   1.82719
 CL4        0.00000   0.00000      1.00000   1.82719
 CL5        0.00000   0.00000      1.00000   1.82719
 BO21       0.00000   0.00000      1.00000  10.00000
 BO31       0.00000   0.00000      1.00000  10.00000
 BO41       0.00000   0.00000      1.00000  10.00000
 BO51       0.00000   0.00000      1.00000  10.00000
 C1         0.00000   0.00000      1.00000   2.81133
 CL2        0.00000   0.00000      1.00000   1.82719
 CL3        0.00000   0.00000      1.00000   1.82719
 CL4        0.00000   0.00000      1.00000   1.82719
 CL5        0.00000   0.00000      1.00000   1.82719
 BO21       0.00000   0.00000      1.00000  10.00000
 BO31       0.00000   0.00000      1.00000  10.00000
 BO41       0.00000   0.00000      1.00000  10.00000
 BO51       0.00000   0.00000      1.00000  10.00000
 C1         0.00000   0.00000      1.00000   2.81133
 CL2        0.00000   0.00000      1.00000   1.82719
 CL3        0.00000   0.00000      1.00000   1.82719
 CL4        0.00000   0.00000      1.00000   1.82719
 CL5        0.00000   0.00000      1.00000   1.82719
 BO21       0.00000   0.00000      1.00000  10.00000
 BO31       0.00000   0.00000      1.00000  10.00000
 BO41       0.00000   0.00000      1.00000  10.00000
 BO51       0.00000   0.00000      1.00000  10.00000
 C1         0.00000   0.00000      1.00000   2.81133
 CL2        0.00000   0.00000      1.00000   1.82719
 CL3        0.00000   0.00000      1.00000   1.82719
 CL4        0.00000   0.00000      1.00000   1.82719
 CL5        0.00000   0.00000      1.00000   1.82719
 BO21       0.00000   0.00000      1.00000  10.00000
 BO31       0.00000   0.00000      1.00000  10.00000
 BO41       0.00000   0.00000      1.00000  10.00000
 BO51       0.00000   0.00000      1.00000  10.00000
 C1         0.00000   0.00000      1.00000   2.81133
 CL2        0.00000   0.00000      1.00000   1.82719
 CL3        0.00000   0.00000      1.00000   1.82719
 CL4        0.00000   0.00000      1.00000   1.82719
 CL5        0.00000   0.00000      1.00000   1.82719
 BO21       0.00000   0.00000      1.00000  10.00000
 BO31       0.00000   0.00000      1.00000  10.00000
 BO41       0.00000   0.00000      1.00000  10.00000
 BO51       0.00000   0.00000      1.00000  10.00000
 C1         0.00000   0.00000      1.00000   2.81133
 CL2        0.00000   0.00000      1.00000   1.82719
 CL3        0.00000   0.00000      1.00000   1.82719
 CL4        0.00000   0.00000      1.00000   1.82719
 CL5        0.00000   0.00000      1.00000   1.82719
 BO21       0.00000   0.00000      1.00000  10.00000
 BO31       0.00000   0.00000      1.00000  10.00000
 BO41       0.00000   0.00000      1.00000  10.00000
 BO51       0.00000   0.00000      1.00000  10.00000
 C1         0.00000   0.00000      1.00000   2.81133
 CL2        0.00000   0.00000      1.00000   1.82719
 CL3        0.00000   0.00000      1.00000   1.82719
 CL4        0.00000   0.00000      1.00000   1.82719
 CL5        0.00000   0.00000      1.00000   1.82719
 BO21       0.00000   0.00000      1.00000  10.00000
 BO31       0.00000   0.00000      1.00000  10.00000
 BO41       0.00000   0.00000      1.00000  10.00000
 BO51       0.00000   0.00000      1.00000  10.00000
 C1         0.00000   0.00000      1.00000   2.81133
 CL2        0.00000   0.00000      1.00000   1.82719
 CL3        0.00000   0.00000      1.00000   1.82719
 CL4        0.00000   0.00000      1.00000   1.82719
 CL5        0.00000   0.00000      1.00000   1.82719
 BO21       0.00000   0.00000      1.00000  10.00000
 BO31       0.00000   0.00000      1.00000  10.00000
 BO41       0.00000   0.00000      1.00000  10.00000
 BO51       0.00000   0.00000      1.00000  10.00000
 C1         0.00000   0.00000      1.00000   2.81133
 CL2        0.00000   0.00000      1.00000   1.82719
 CL3        0.00000   0.00000      1.00000   1.82719
 CL4        0.00000   0.00000      1.00000   1.82719
 CL5        0.00000   0.00000      1.00000   1.82719
 BO21       0.00000   0.00000      1.00000  10.00000
 BO31       0.00000   0.00000      1.00000  10.00000
 BO41       0.00000   0.00000      1.00000  10.00000
 BO51       0.00000   0.00000      1.00000  10.00000
 C1         0.00000   0.00000      1.00000   2.81133
 CL2        0.00000   0.00000      1.00000   1.82719
 CL3        0.00000   0.00000      1.00000   1.82719
 CL4        0.00000   0.00000      1.00000   1.82719
 CL5        0.00000   0.00000      1.00000   1.82719
 BO21       0.00000   0.00000      1.00000  10.00000
 BO31       0.00000   0.00000      1.00000  10.00000
 BO41       0.00000   0.00000      1.00000  10.00000
 BO51       0.00000   0.00000      1.00000  10.00000
 C1         0.00000   0.00000      1.00000   2.81133
 CL2        0.00000   0.00000      1.00000   1.82719
 CL3        0.00000   0.00000      1.00000   1.82719
 CL4        0.00000   0.00000      1.00000   1.82719
 CL5        0.00000   0.00000      1.00000   1.82719
 BO21       0.00000   0.00000      1.00000  10.00000
 BO31       0.00000   0.00000      1.00000  10.00000
 BO41       0.00000   0.00000      1.00000  10.00000
 BO51       0.00000   0.00000      1.00000  10.00000
 C1         0.00000   0.00000      1.00000   2.81133
 CL2        0.00000   0.00000      1.00000   1.82719
 CL3        0.00000   0.00000      1.00000   1.82719
 CL4        0.00000   0.00000      1.00000   1.82719
 CL5        0.00000   0.00000      1.00000   1.82719
 BO21       0.00000   0.00000      1.00000  10.00000
 BO31       0.00000   0.00000      1.00000  10.00000
 BO41       0.00000   0.00000      1.00000  10.00000
 BO51       0.00000   0.00000      1.00000  10.00000
 C1         0.00000   0.00000      1.00000   2.81133
 CL2        0.00000   0.00000      1.00000   1.82719
 CL3        0.00000   0.00000      1.00000   1.82719
 CL4        0.00000   0.00000      1.00000   1.82719
 CL5        0.00000   0.00000      1.00000   1.82719
 BO21       0.00000   0.00000      1.00000  10.00000
 BO31       0.00000   0.00000      1.00000  10.00000
 BO41       0.00000   0.00000      1.00000  10.00000
 BO51       0.00000   0.00000      1.00000  10.00000
 C1         0.00000   0.00000      1.00000   2.81133
 CL2        0.00000   0.00000      1.00000   1.82719
 CL3        0.00000   0.00000      1.00000   1.82719
 CL4        0.00000   0.00000      1.00000   1.82719
 CL5        0.00000   0.00000      1.00000   1.82719
 BO21       0.00000   0.00000      1.00000  10.00000
 BO31       0.00000   0.00000      1.00000  10.00000
 BO41       0.00000   0.00000      1.00000  10.00000
 BO51       0.00000   0.00000      1.00000  10.00000
 C1         0.00000   0.00000      1.00000   2.81133
 CL2        0.00000   0.00000      1.00000   1.82719
 CL3        0.00000   0.00000      1.00000   1.82719
 CL4        0.00000   0.00000      1.00000   1.82719
 CL5        0.00000   0.00000      1.00000   1.82719
 BO21       0.00000   0.00000      1.00000  10.00000
 BO31       0.00000   0.00000      1.00000  10.00000
 BO41       0.00000   0.00000      1.00000  10.00000
 BO51       0.00000   0.00000      1.00000  10.00000
 C1         0.00000   0.00000      1.00000   2.81133
 CL2        0.00000   0.00000      1.00000   1.82719
 CL3        0.00000   0.00000      1.00000   1.82719
 CL4        0.00000   0.00000      1.00000   1.82719
 CL5        0.00000   0.00000      1.00000   1.82719
 BO21       0.00000   0.00000      1.00000  10.00000
 BO31       0.00000   0.00000      1.00000  10.00000
 BO41       0.00000   0.00000      1.00000  10.00000
 BO51       0.00000   0.00000      1.00000  10.00000
 C1         0.00000   0.00000      1.00000   2.81133
 CL2        0.00000   0.00000      1.00000   1.82719
 CL3        0.00000   0.00000      1.00000   1.82719
 CL4        0.00000   0.00000      1.00000   1.82719
 CL5        0.00000   0.00000      1.00000   1.82719
 BO21       0.00000   0.00000      1.00000  10.00000
 BO31       0.00000   0.00000      1.00000  10.00000
 BO41       0.00000   0.00000      1.00000  10.00000
 BO51       0.00000   0.00000      1.00000  10.00000
 C1         0.00000   0.00000      1.00000   2.81133
 CL2        0.00000   0.00000      1.00000   1.82719
 CL3        0.00000   0.00000      1.00000   1.82719
 CL4        0.00000   0.00000      1.00000   1.82719
 CL5        0.00000   0.00000      1.00000   1.82719
 BO21       0.00000   0.00000      1.00000  10.00000
 BO31       0.00000   0.00000      1.00000  10.00000
 BO41       0.00000   0.00000      1.00000  10.00000
 BO51       0.00000   0.00000      1.00000  10.00000
 C1         0.00000   0.00000      1.00000   2.81133
 CL2        0.00000   0.00000      1.00000   1.82719
 CL3        0.00000   0.00000      1.00000   1.82719
 CL4        0.00000   0.00000      1.00000   1.82719
 CL5        0.00000   0.00000      1.00000   1.82719
 BO21       0.00000   0.00000      1.00000  10.00000
 BO31       0.00000   0.00000      1.00000  10.00000
 BO41       0.00000   0.00000      1.00000  10.00000
 BO51       0.00000   0.00000      1.00000  10.00000
 C1         0.00000   0.00000      1.00000   2.81133
 CL2        0.00000   0.00000      1.00000   1.82719
 CL3        0.00000   0.00000      1.00000   1.82719
 CL4        0.00000   0.00000      1.00000   1.82719
 CL5        0.00000   0.00000      1.00000   1.82719
 BO21       0.00000   0.00000      1.00000  10.00000
 BO31       0.00000   0.00000      1.00000  10.00000
 BO41       0.00000   0.00000      1.00000  10.00000
 BO51       0.00000   0.00000      1.00000  10.00000
 C1         0.00000   0.00000      1.00000   2.81133
 CL2        0.00000   0.00000      1.00000   1.82719
 CL3        0.00000   0.00000      1.00000   1.82719
 CL4        0.00000   0.00000      1.00000   1.82719
 CL5        0.00000   0.00000      1.00000   1.82719
 BO21       0.00000   0.00000      1.00000  10.00000
 BO31       0.00000   0.00000      1.00000  10.00000
 BO41       0.00000   0.00000      1.00000  10.00000
 BO51       0.00000   0.00000      1.00000  10.00000
 C1         0.00000   0.00000      1.00000   2.81133
 CL2        0.00000   0.00000      1.00000   1.82719
 CL3        0.00000   0.00000      1.00000   1.82719
 CL4        0.00000   0.00000      1.00000   1.82719
 CL5        0.00000   0.00000      1.00000   1.82719
 BO21       0.00000   0.00000      1.00000  10.00000
 BO31       0.00000   0.00000      1.00000  10.00000
 BO41       0.00000   0.00000      1.00000  10.00000
 BO51       0.00000   0.00000      1.00000  10.00000
 C1         0.00000   0.00000      1.00000   2.81133
 CL2        0.00000   0.00000      1.00000   1.82719
 CL3        0.00000   0.00000      1.00000   1.82719
 CL4        0.00000   0.00000      1.00000   1.82719
 CL5        0.00000   0.00000      1.00000   1.82719
 BO21       0.00000   0.00000      1.00000  10.00000
 BO31       0.00000   0.00000      1.00000  10.00000
 BO41       0.00000   0.00000      1.00000  10.00000
 BO51       0.00000   0.00000      1.00000  10.00000
 C1         0.00000   0.00000      1.00000   2.81133
 CL2        0.00000   0.00000      1.00000   1.82719
 CL3        0.00000   0.00000      1.00000   1.82719
 CL4        0.00000   0.00000      1.00000   1.82719
 CL5        0.00000   0.00000      1.00000   1.82719
 BO21       0.00000   0.00000      1.00000  10.00000
 BO31       0.00000   0.00000      1.00000  10.00000
 BO41       0.00000   0.00000      1.00000  10.00000
 BO51       0.00000   0.00000      1.00000  10.00000
 C1         0.00000   0.00000      1.00000   2.81133
 CL2        0.00000   0.00000      1.00000   1.82719
 CL3        0.00000   0.00000      1.00000   1.82719
 CL4        0.00000   0.00000      1.00000   1.82719
 CL5        0.00000   0.00000      1.00000   1.82719
 BO21       0.00000   0.00000      1.00000  10.00000
 BO31       0.00000   0.00000      1.00000  10.00000
 BO41       0.00000   0.00000      1.00000  10.00000
 BO51       0.00000   0.00000      1.00000  10.00000
 C1         0.00000   0.00000      1.00000   2.81133
 CL2        0.00000   0.00000      1.00000   1.82719
 CL3        0.00000   0.00000      1.00000   1.82719
 CL4        0.00000   0.00000      1.00000   1.82719
 CL5        0.00000   0.00000      1.00000   1.82719
 BO21       0.00000   0.00000      1.00000  10.00000
 BO31       0.00000   0.00000      1.00000  10.00000
 BO41       0.00000   0.00000      1.00000  10.00000
 BO51       0.00000   0.00000      1.00000  10.00000
 C1         0.00000   0.00000      1.00000   2.81133
 CL2        0.00000   0.00000      1.00000   1.82719
 CL3        0.00000   0.00000      1.00000   1.82719
 CL4        0.00000   0.00000      1.00000   1.82719
 CL5        0.00000   0.00000      1.00000   1.82719
 BO21       0.00000   0.00000      1.00000  10.00000
 BO31       0.00000   0.00000      1.00000  10.00000
 BO41       0.00000   0.00000      1.00000  10.00000
 BO51       0.00000   0.00000      1.00000  10.00000
 C1         0.00000   0.00000      1.00000   2.81133
 CL2        0.00000   0.00000      1.00000   1.82719
 CL3        0.00000   0.00000      1.00000   1.82719
 CL4        0.00000   0.00000      1.00000   1.82719
 CL5        0.00000   0.00000      1.00000   1.82719
 BO21       0.00000   0.00000      1.00000  10.00000
 BO31       0.00000   0.00000      1.00000  10.00000
 BO41       0.00000   0.00000      1.00000  10.00000
 BO51       0.00000   0.00000      1.00000  10.00000
 C1         0.00000   0.00000      1.00000   2.81133
 CL2        0.00000   0.00000      1.00000   1.82719
 CL3        0.00000   0.00000      1.00000   1.82719
 CL4        0.00000   0.00000      1.00000   1.82719
 CL5        0.00000   0.00000      1.00000   1.82719
 BO21       0.00000   0.00000      1.00000  10.00000
 BO31       0.00000   0.00000      1.00000  10.00000
 BO41       0.00000   0.00000      1.00000  10.00000
 BO51       0.00000   0.00000      1.00000  10.00000
 C1         0.00000   0.00000      1.00000   2.81133
 CL2        0.00000   0.00000      1.00000   1.82719
 CL3        0.00000   0.00000      1.00000   1.82719
 CL4        0.00000   0.00000      1.00000   1.82719
 CL5        0.00000   0.00000      1.00000   1.82719
 BO21       0.00000   0.00000      1.00000  10.00000
 BO31       0.00000   0.00000      1.00000  10.00000
 BO41       0.00000   0.00000      1.00000  10.00000
 BO51       0.00000   0.00000      1.00000  10.00000
 C1         0.00000   0.00000      1.00000   2.81133
 CL2        0.00000   0.00000      1.00000   1.82719
 CL3        0.00000   0.00000      1.00000   1.82719
 CL4        0.00000   0.00000      1.00000   1.82719
 CL5        0.00000   0.00000      1.00000   1.82719
 BO21       0.00000   0.00000      1.00000  10.00000
 BO31       0.00000   0.00000      1.00000  10.00000
 BO41       0.00000   0.00000      1.00000  10.00000
 BO51       0.00000   0.00000      1.00000  10.00000
 C1         0.00000   0.00000      1.00000   2.81133
[...]
     10.510         1.0751975515
     10.530         0.8541819993
     10.550         1.0760645779
     10.570         0.9643481231
     10.590         0.8422960985
     10.610         0.8925426220
     10.630         0.9379705404
     10.650         1.0979246448
     10.670         1.1048167230
     10.690         1.0590271199
     10.710         1.0332313169
     10.730         0.9836811592
     10.750         0.8737827777
     10.770         1.0671142162
     10.790         0.9577066112
     10.810         1.1835948153
     10.830         0.9677354569
     10.850         0.7917696104
     10.870         0.9860733700
     10.890         1.1599304540

     G(COM-COM)(R)
      0.010     0.0000000000E+00
      0.030     0.0000000000E+00
      0.050     0.0000000000E+00
      0.070     0.0000000000E+00
      0.090     0.0000000000E+00
      0.110     0.0000000000E+00
      0.130     0.0000000000E+00
      0.150     0.0000000000E+00
      0.170     0.0000000000E+00
      0.190     0.0000000000E+00
      0.210     0.0000000000E+00
      0.230     0.0000000000E+00
      0.250     0.0000000000E+00
      0.270     0.0000000000E+00
      0.290     0.0000000000E+00
      0.310     0.0000000000E+00
      0.330     0.0000000000E+00
      0.350     0.0000000000E+00
      0.370     0.0000000000E+00
      0.390     0.0000000000E+00
      0.410     0.0000000000E+00
      0.430     0.0000000000E+00
      0.450     0.0000000000E+00
      0.470     0.0000000000E+00
      0.490     0.0000000000E+00
      0.510     0.0000000000E+00
      0.530     0.0000000000E+00
      0.550     0.0000000000E+00
      0.570     0.0000000000E+00
      0.590     0.0000000000E+00
      0.610     0.0000000000E+00
      0.630     0.0000000000E+00
      0.650     0.0000000000E+00
      0.670     0.0000000000E+00
      0.690     0.0000000000E+00
      0.710     0.0000000000E+00
      0.730     0.0000000000E+00
      0.750     0.0000000000E+00
      0.770     0.0000000000E+00
      0.790     0.0000000000E+00
      0.810     0.0000000000E+00
      0.830     0.0000000000E+00
      0.850     0.0000000000E+00
      0.870     0.0000000000E+00
      0.890     0.0000000000E+00
      0.910     0.0000000000E+00
      0.930     0.0000000000E+00
      0.950     0.0000000000E+00
      0.970     0.0000000000E+00
      0.990     0.0000000000E+00
      1.010     0.0000000000E+00
      1.030     0.0000000000E+00
      1.050     0.0000000000E+00
      1.070     0.0000000000E+00
      1.090     0.0000000000E+00
      1.110     0.0000000000E+00
      1.130     0.0000000000E+00
      1.150     0.0000000000E+00
      1.170     0.0000000000E+00
      1.190     0.0000000000E+00
      1.210     0.0000000000E+00
      1.230     0.0000000000E+00
      1.250     0.0000000000E+00
      1.270     0.0000000000E+00
      1.290     0.0000000000E+00
      1.310     0.0000000000E+00
      1.330     0.0000000000E+00
      1.350     0.0000000000E+00
      1.370     0.0000000000E+00
      1.390     0.0000000000E+00
      1.410     0.0000000000E+00
      1.430     0.0000000000E+00
      1.450     0.0000000000E+00
      1.470     0.0000000000E+00
      1.490     0.0000000000E+00
      1.510     0.0000000000E+00
      1.530     0.0000000000E+00
      1.550     0.0000000000E+00
      1.570     0.0000000000E+00
      1.590     0.0000000000E+00
      1.610     0.0000000000E+00
      1.630     0.0000000000E+00
      1.650     0.0000000000E+00
      1.670     0.0000000000E+00
      1.690     0.0000000000E+00
      1.710     0.0000000000E+00
      1.730     0.0000000000E+00
      1.750     0.0000000000E+00
      1.770     0.0000000000E+00
      1.790     0.0000000000E+00
      1.810     0.0000000000E+00
      1.830     0.0000000000E+00
      1.850     0.0000000000E+00
      1.870     0.0000000000E+00
      1.890     0.0000000000E+00
      1.910     0.0000000000E+00
      1.930     0.0000000000E+00
      1.950     0.0000000000E+00
      1.970     0.0000000000E+00
      1.990     0.0000000000E+00
      2.010     0.0000000000E+00
      2.030     0.0000000000E+00
      2.050     0.0000000000E+00
      2.070     0.0000000000E+00
      2.090     0.0000000000E+00
      2.110     0.0000000000E+00
      2.130     0.0000000000E+00
      2.150     0.0000000000E+00
      2.170     0.0000000000E+00
      2.190     0.0000000000E+00
      2.210     0.0000000000E+00
      2.230     0.0000000000E+00
      2.250     0.0000000000E+00
      2.270     0.0000000000E+00
      2.290     0.0000000000E+00
      2.310     0.0000000000E+00
      2.330     0.0000000000E+00
      2.350     0.0000000000E+00
      2.370     0.0000000000E+00
      2.390     0.0000000000E+00
      2.410     0.0000000000E+00
      2.430     0.0000000000E+00
      2.450     0.0000000000E+00
      2.470     0.0000000000E+00
      2.490     0.0000000000E+00
      2.510     0.0000000000E+00
      2.530     0.0000000000E+00
      2.550     0.0000000000E+00
      2.570     0.0000000000E+00
      2.590     0.0000000000E+00
      2.610     0.0000000000E+00
      2.630     0.0000000000E+00
      2.650     0.0000000000E+00
      2.670     0.0000000000E+00
      2.690     0.0000000000E+00
      2.710     0.0000000000E+00
      2.730     0.0000000000E+00
      2.750     0.0000000000E+00
      2.770     0.0000000000E+00
      2.790     0.0000000000E+00
      2.810     0.0000000000E+00
      2.830     0.0000000000E+00
      2.850     0.0000000000E+00
      2.870     0.0000000000E+00
      2.890     0.0000000000E+00
      2.910     0.0000000000E+00
      2.930     0.0000000000E+00
      2.950     0.0000000000E+00
      2.970     0.0000000000E+00
      2.990     0.0000000000E+00
      3.010     0.0000000000E+00
      3.030     0.0000000000E+00
      3.050     0.0000000000E+00
      3.070     0.0000000000E+00
      3.090     0.0000000000E+00
      3.110     0.0000000000E+00
      3.130     0.0000000000E+00
      3.150     0.0000000000E+00
      3.170     0.0000000000E+00
      3.190     0.0000000000E+00
      3.210     0.0000000000E+00
      3.230     0.0000000000E+00
      3.250     0.0000000000E+00
      3.270     0.0000000000E+00
      3.290     0.0000000000E+00
      3.310     0.0000000000E+00
      3.330     0.0000000000E+00
      3.350     0.0000000000E+00
      3.370     0.0000000000E+00
      3.390     0.0000000000E+00
      3.410     0.0000000000E+00
      3.430     0.0000000000E+00
      3.450     0.0000000000E+00
      3.470     0.0000000000E+00
      3.490     0.0000000000E+00
      3.510     0.0000000000E+00
      3.530     0.0000000000E+00
      3.550     0.0000000000E+00
      3.570     0.0000000000E+00
      3.590     0.0000000000E+00
      3.610     0.0000000000E+00
      3.630     0.0000000000E+00
      3.650     0.0000000000E+00
      3.670     0.0000000000E+00
      3.690     0.0000000000E+00
      3.710     0.0000000000E+00
      3.730     0.0000000000E+00
      3.750     0.0000000000E+00
      3.770     0.0000000000E+00
      3.790     0.0000000000E+00
      3.810     0.0000000000E+00
      3.830     0.0000000000E+00
      3.850     0.0000000000E+00
      3.870     0.0000000000E+00
      3.890     0.0000000000E+00
      3.910     0.0000000000E+00
      3.930     0.0000000000E+00
      3.950     0.0000000000E+00
      3.970     0.0000000000E+00
      3.990     0.0000000000E+00
      4.010     0.0000000000E+00
      4.030     0.0000000000E+00
      4.050     0.0000000000E+00
      4.070     0.0000000000E+00
      4.090     0.0000000000E+00
      4.110     0.0000000000E+00
      4.130     0.0000000000E+00
      4.150     0.0000000000E+00
      4.170     0.0000000000E+00
      4.190     0.0000000000E+00
      4.210     0.0000000000E+00
      4.230     0.0000000000E+00
      4.250     0.0000000000E+00
      4.270     0.0000000000E+00
      4.290     0.0000000000E+00
      4.310     0.0000000000E+00
      4.330     0.0000000000E+00
      4.350     0.0000000000E+00
      4.370     0.0000000000E+00
      4.390     0.0000000000E+00
      4.410     0.0000000000E+00
      4.430     0.0000000000E+00
      4.450     0.0000000000E+00
      4.470     0.0000000000E+00
      4.490     0.0000000000E+00
      4.510     0.0000000000E+00
      4.530     0.0000000000E+00
      4.550     0.0000000000E+00
      4.570     0.0000000000E+00
      4.590     0.0000000000E+00
      4.610     0.0000000000E+00
      4.630     0.0000000000E+00
      4.650     0.0000000000E+00
      4.670     0.0000000000E+00
      4.690     0.0000000000E+00
      4.710     0.0000000000E+00
      4.730     0.0000000000E+00
      4.750     0.0000000000E+00
      4.770     0.0000000000E+00
      4.790     0.0000000000E+00
      4.810     0.8663925250E+00
      4.830     0.0000000000E+00
      4.850     0.0000000000E+00
      4.870     0.0000000000E+00
      4.890     0.1676552460E+00
      4.910     0.6651688109E+00
      4.930     0.0000000000E+00
      4.950     0.0000000000E+00
      4.970     0.8115067033E+00
      4.990     0.8050146845E+00
      5.010     0.0000000000E+00
      5.030     0.9507146340E+00
      5.050     0.1257598857E+01
      5.070     0.2183468971E+01
      5.090     0.1083171906E+01
      5.110     0.2302949291E+01
      5.130     0.0000000000E+00
      5.150     0.3023085725E+01
      5.170     0.1499870775E+01
      5.190     0.7441666824E+00
      5.210     0.7384642837E+00
      5.230     0.7328271792E+00
      5.250     0.3054468379E+01
      5.270     0.1299140819E+01
      5.290     0.0000000000E+00
      5.310     0.1706189093E+01
      5.330     0.1552291317E+01
      5.350     0.1260578543E+01
      5.370     0.1251206255E+01
      5.390     0.2345883083E+01
      5.410     0.1643696733E+01
      5.430     0.6798378260E+00
      5.450     0.6748573515E+00
      5.470     0.3885602163E+01
      5.490     0.7980710406E+00
      5.510     0.2640959808E+01
      5.530     0.1310945795E+01
      5.550     0.1952271856E+01
      5.570     0.1033747806E+01
      5.590     0.2181023340E+01
      5.610     0.4585764934E+01
      5.630     0.1770705189E+01
      5.650     0.1381436119E+01
      5.670     0.1995211252E+01
      5.690     0.2476512284E+01
      5.710     0.2090314974E+01
      5.730     0.1465234149E+01
      5.750     0.2910117907E+01
      5.770     0.0000000000E+00
      5.790     0.3348389280E+01
      5.810     0.4513010810E+01
      5.830     0.2830799936E+01
      5.850     0.1991462977E+01
      5.870     0.2559655563E+01
      5.890     0.3697893866E+01
      5.910     0.2984237906E+01
      5.930     0.2052098380E+01
      5.950     0.6794419865E+00
      5.970     0.3262003332E+01
      5.990     0.2569858781E+01
      6.010     0.3107736277E+01
      6.030     0.1543577659E+01
      6.050     0.2190555806E+01
      6.070     0.2720180384E+01
      6.090     0.3242811839E+01
      6.110     0.1825583004E+01
      6.130     0.3520692348E+01
      6.150     0.8479589794E+00
      6.170     0.2422102949E+01
      6.190     0.3662029507E+01
      6.210     0.1455391824E+01
      6.230     0.2065803458E+01
      6.250     0.1128931915E+01
      6.270     0.2651388504E+01
      6.290     0.1925251254E+01
      6.310     0.1308940004E+01
      6.330     0.2601363471E+01
      6.350     0.1590770922E+01
      6.370     0.1383197786E+01
      6.390     0.3632746759E+01
      6.410     0.2731977327E+01
      6.430     0.8726813288E+00
      6.450     0.1541827105E+01
      6.470     0.2298464526E+01
      6.490     0.1522880116E+01
      6.510     0.7567686612E+00
      6.530     0.2726507939E+01
      6.550     0.2149217506E+01
      6.570     0.2043276203E+01
      6.590     0.1569326215E+01
      6.610     0.2477399152E+01
      6.630     0.1276838944E+01
      6.650     0.1631790340E+01
      6.670     0.2072580051E+01
      6.690     0.1701909697E+01
      6.710     0.3205476591E+01
      6.730     0.7966132618E+00
      6.750     0.1407821489E+01
      6.770     0.1749394727E+01
      6.790     0.1652148990E+01
      6.810     0.8644521023E+00
      6.830     0.1289095262E+01
      6.850     0.4271928976E+00
      6.870     0.3397673800E+00
      6.890     0.2955730046E+01
      6.910     0.9235741269E+00
      6.930     0.3088662279E+01
      6.950     0.9129736581E+00
      6.970     0.9902637073E+00
      6.990     0.8205042275E-01
      7.010     0.1142160603E+01
      7.030     0.8111936229E+00
      7.050     0.8065976373E+00
      7.070     0.4010203003E+00
      7.090     0.7975220741E+00
      7.110     0.7930416248E+00
      7.130     0.1577197652E+01
      7.150     0.1176289887E+01
      7.170     0.3119298017E+00
      7.190     0.4652952943E+00
      7.210     0.3855979064E+00
      7.230     0.0000000000E+00
      7.250     0.1144064320E+01
      7.270     0.2275556536E+00
      7.290     0.1056107623E+01
      7.310     0.6001923187E+00
      7.330     0.2984607620E+00
      7.350     0.7420967415E-01
      7.370     0.3690372734E+00
      7.390     0.5872679716E+00
      7.410     0.1460255285E+00
      7.430     0.3631011174E+00
      7.450     0.0000000000E+00
      7.470     0.7184457958E-01
      7.490     0.1357766779E+01
      7.510     0.1279463336E+01
      7.530     0.1626196789E+01
      7.550     0.2813204509E+00
      7.570     0.6995897844E+00
      7.590     0.6959077414E+00
      7.610     0.3461273454E+00
      7.630     0.0000000000E+00
      7.650     0.6850343564E+00
      7.670     0.1022199716E+01
      7.690     0.6779263996E+00
      7.710     0.3372069177E+00
      7.730     0.6709285004E+00
      7.750     0.0000000000E+00
      7.770     0.1128865277E+01
      7.790     0.5285064646E+00
      7.810     0.0000000000E+00
      7.830     0.3269502810E+00
      7.850     0.6505728309E-01
      7.870     0.2589081751E+00
      7.890     0.0000000000E+00
      7.910     0.5125925141E+00
      7.930     0.1083771653E+01
      7.950     0.2537236648E+00
      7.970     0.6942426416E+00
      7.990     0.3139870162E+00
      8.010     0.8122945985E+00
      8.030     0.4352133370E+00
      8.050     0.0000000000E+00
      8.070     0.3077926065E+00
      8.090     0.8575634091E+00
      8.110     0.1097150101E+01
      8.130     0.2426130468E+00
      8.150     0.8449831935E+00
      8.170     0.3003040195E+00
      8.190     0.0000000000E+00
      8.210     0.1070585722E+01
      8.230     0.7694474044E+00
      8.250     0.1354737639E+01
      8.270     0.9378734089E+00
      8.290     0.8750189492E+00
      8.310     0.5805414236E+00
      8.330     0.8088598807E+00
      8.350     0.6324919426E+00
      8.370     0.3433488511E+00
      8.390     0.5695230995E+00
      8.410     0.7935445444E+00
      8.430     0.6205443175E+00
      8.450     0.4491711326E+00
      8.470     0.2794077530E+00
      8.490     0.8898972652E+00
      8.510     0.2767872973E+00
      8.530     0.8264726163E+00
      8.550     0.5484070678E+00
      8.570     0.0000000000E+00
      8.590     0.2716557809E+00
      8.610     0.0000000000E+00
      8.630     0.0000000000E+00
      8.650     0.0000000000E+00
      8.670     0.1066662627E+01
      8.690     0.1008670518E+01
      8.710     0.5812883983E+00
      8.730     0.5260254947E+00
      8.750     0.5759859115E+00
      8.770     0.8339808502E+00
      8.790     0.1089624420E+01
      8.810     0.6198187552E+00
      8.830     0.4627606127E+00
      8.850     0.4606714036E+00
      8.870     0.6114617475E+00
      8.890     0.5072613412E+00
      8.910     0.1009973261E+00
      8.930     0.1407636122E+01
      8.950     0.1201158893E+01
      8.970     0.1046332462E+01
      8.990     0.4960390970E-01
      9.010     0.6913751189E+00
      9.030     0.4916542443E+00
      9.050     0.8321221011E+00
      9.070     0.1072120009E+01
      9.090     0.1164444438E+01
      9.110     0.3381400266E+00
      9.130     0.7695090374E+00
      9.150     0.1101338816E+01
      9.170     0.1001188660E+01
      9.190     0.9493673076E+00
      9.210     0.8979861547E+00
      9.230     0.8470409446E+00
      9.250     0.6091092411E+00
      9.270     0.1166314951E+01
      9.290     0.3251635940E+00
      9.310     0.1063809288E+01
      9.330     0.5526539304E+00
      9.350     0.8712959281E+00
      9.370     0.2420092656E+01
      9.390     0.6820172844E+00
      9.410     0.1086593999E+01
      9.430     0.4057461727E+00
      9.450     0.6733842444E+00
      9.470     0.1341085930E+00
      9.490     0.4451464202E+00
      9.510     0.2216380299E+00
      9.530     0.7062679404E+00
      9.550     0.1186840432E+01
      9.570     0.3064146159E+00
      9.590     0.1089778179E+01
      9.610     0.1475935762E+01
      9.630     0.3026082615E+00
      9.650     0.8179641875E+00
      9.670     0.9003298777E+00
      9.690     0.1067401408E+01
      9.710     0.1318130931E+01
      9.730     0.1100989014E+01
      9.750     0.1729059522E+01
      9.770     0.9659931076E+00
      9.790     0.1505817836E+01
      9.810     0.6248684029E+00
      9.830     0.1120190924E+01
      9.850     0.2024691878E+01
      9.870     0.6584472672E+00
      9.890     0.4508534785E+00
      9.910     0.5714997570E+00
      9.930     0.1097742784E+01
      9.950     0.1336297337E+01
      9.970     0.2016577944E+00
      9.990     0.1004255822E+01
     10.010     0.1400345550E+01
     10.030     0.9564113086E+00
     10.050     0.2063985052E+01
     10.070     0.1502311472E+01
     10.090     0.1338849970E+01
     10.110     0.9413351151E+00
     10.130     0.3125405888E+00
     10.150     0.2723963512E+00
     10.170     0.8139780987E+00
     10.190     0.7335683145E+00
     10.210     0.1346021175E+01
     10.230     0.1110918152E+01
     10.250     0.8394798631E+00
     10.270     0.1064271611E+01
     10.290     0.1817380324E+01
     10.310     0.1923482237E+01
     10.330     0.1690624685E+01
     10.350     0.1309853366E+01
     10.370     0.1752167745E+01
     10.390     0.8912827132E+00
     10.410     0.1442774591E+01
     10.430     0.1474099206E+01
     10.450     0.1505173675E+01
     10.470     0.1865143072E+01
     10.490     0.9472349436E+00
     10.510     0.1270275588E+01
     10.530     0.6146494810E+00
     10.550     0.1548812614E+01
     10.570     0.2296494135E+01
     10.590     0.8221882341E+00
     10.610     0.4629647516E+00
     10.630     0.1490109227E+01
     10.650     0.1378480842E+01
     10.670     0.4225593841E+00
     10.690     0.1192775887E+01
     10.710     0.1153374493E+01
     10.730     0.1462464024E+01
     10.750     0.1214189468E+01
     10.770     0.8640600941E+00
     10.790     0.1136335035E+01
     10.810     0.1749661901E+01
     10.830     0.2187552115E+01
     10.850     0.3064914621E+00
     10.870     0.1051811595E+01
     10.890     0.1419805583E+01
 .... DONE WITH THIS PORTION OF THE MD TRAJECTORY ....
 STEP CPU TIME =    38.07 TOTAL CPU TIME =       47.0 (    0.8 MIN)
 TOTAL WALL CLOCK TIME=       47.0 SECONDS, CPU UTILIZATION IS  99.96%
              8380945  WORDS OF DYNAMIC MEMORY USED
 EXECUTION OF GAMESS TERMINATED NORMALLY Fri Jun  2 04:54:59 2017
 DDI: 263640 bytes (0.3 MB / 0 MWords) used by master data server.

 ----------------------------------------
 CPU timing information for all processes
 ========================================
 0: 46.985 + 0.33 = 47.19
 ----------------------------------------
 ddikick.x: exited gracefully.
unset echo
----- accounting info -----
Files used on the master node compute-0-1.local were:
-rw-rw-r-- 1 sarom sarom  112684 Jun  2 04:54 /scratch/efp2-64ccl4-rdf.F05
-rw-rw-r-- 1 sarom sarom       0 Jun  2 04:54 /scratch/efp2-64ccl4-rdf.F08
-rw-rw-r-- 1 sarom sarom 1374240 Jun  2 04:54 /scratch/efp2-64ccl4-rdf.F10
-rw-rw-r-- 1 sarom sarom       0 Jun  2 04:54 /scratch/efp2-64ccl4-rdf.F25
rm: cannot remove `/scratch/sarom': Is a directory
rm: cannot remove `/scratch/tmp': Is a directory
ls: No match.
ls: No match.
ls: No match.
Fri Jun  2 04:55:02 CDT 2017
0.248u 0.176s 0:50.55 0.8%	0+0k 224+568io 0pf+0w
/opt/gridengine/default/spool/compute-0-1/active_jobs/23994.1/pe_hostfile compute-0-1.local
