-catch_rsh /opt/gridengine/default/spool/compute-0-8/active_jobs/23987.1/pe_hostfile
compute-0-8
The primary node assigned by SGE to this run is compute-0-8
Warning: no access to tty (Bad file descriptor).
Thus no job control in this shell.
Deleting shmid=2785280.
Deleting shmid=2818049.
source /home/sarom/gamess.github.2017-05-31.14.06/install.info
setenv GMS_PATH /home/sarom/gamess.github.2017-05-31.14.06
setenv GMS_BUILD_DIR /home/sarom/gamess.github.2017-05-31.14.06
setenv GMS_TARGET linux64
setenv GMS_FORTRAN gfortran
setenv GMS_GFORTRAN_VERNO 4.4
setenv GMS_MATHLIB mkl-so
setenv GMS_MATHLIB_PATH /share/apps/intel/compilers_and_libraries_2017.1.132/linux/mkl/lib/intel64
setenv GMS_MKL_VERNO 12
setenv GMS_DDI_COMM sockets
setenv GMS_LIBCCHEM false
setenv GMS_EIGEN_PATH
setenv GMS_PHI false
setenv GMS_SHMTYPE sysv
setenv GMS_OPENMP false
unset echo
efp2-1nh4-1no3
tests/solvent/efp2
----- GAMESS execution script 'rungms' -----
This job is running on host compute-0-8.local
under operating system Linux at Fri Jun 2 04:52:12 CDT 2017
Available scratch disk space (Kbyte units) at beginning of the job is
Filesystem           1K-blocks      Used Available Use% Mounted on
/dev/sda1             16126920   3867344  11440376  26% /
GAMESS temporary binary files will be written to /scratch
GAMESS supplementary output files will be written to /home/sarom/restart
Copying input file efp2-1nh4-1no3.inp to your run's scratch directory...
cp tests/solvent/efp2/efp2-1nh4-1no3.inp /scratch/efp2-1nh4-1no3.F05
unset echo
The generated host list is
compute-0-8.local
/home/sarom/gamess.github.2017-05-31.14.06/ddikick.x /home/sarom/gamess.github.2017-05-31.14.06/gamess.00.x efp2-1nh4-1no3 -ddi 1 1 compute-0-8.local -scr /scratch

 Distributed Data Interface kickoff program.
 Initiating 1 compute processes on 1 nodes to run the following command:
 /home/sarom/gamess.github.2017-05-31.14.06/gamess.00.x efp2-1nh4-1no3 

          ******************************************************
          *         GAMESS VERSION = 20 APR 2017 (R1)          *
          *             FROM IOWA STATE UNIVERSITY             *
          * M.W.SCHMIDT, K.K.BALDRIDGE, J.A.BOATZ, S.T.ELBERT, *
          *   M.S.GORDON, J.H.JENSEN, S.KOSEKI, N.MATSUNAGA,   *
          *          K.A.NGUYEN, S.J.SU, T.L.WINDUS,           *
          *       TOGETHER WITH M.DUPUIS, J.A.MONTGOMERY       *
          *         J.COMPUT.CHEM.  14, 1347-1363(1993)        *
          **************** 64 BIT LINUX VERSION ****************

  SINCE 1993, STUDENTS AND POSTDOCS WORKING AT IOWA STATE UNIVERSITY
  AND ALSO IN THEIR VARIOUS JOBS AFTER LEAVING ISU HAVE MADE IMPORTANT
  CONTRIBUTIONS TO THE CODE:
     IVANA ADAMOVIC, CHRISTINE AIKENS, YURI ALEXEEV, POOJA ARORA,
     ANDREY ASADCHEV, ROB BELL, PRADIPTA BANDYOPADHYAY, JONATHAN BENTZ,
     BRETT BODE, KURT BRORSEN, CALEB CARLIN, GALINA CHABAN, WEI CHEN,
     CHEOL HO CHOI, PAUL DAY, ALBERT DEFUSCO, NUWAN DESILVA, TIM DUDLEY,
     DMITRI FEDOROV, GRAHAM FLETCHER, MARK FREITAG, KURT GLAESEMANN,
     DAN KEMP, GRANT MERRILL, NORIYUKI MINEZAWA, JONATHAN MULLIN,
     TAKESHI NAGATA, SEAN NEDD, HEATHER NETZLOFF, BOSILJKA NJEGIC, RYAN OLSON,
     MIKE PAK, SPENCER PRUITT, LUKE ROSKOP, JIM SHOEMAKER, LYUDMILA SLIPCHENKO,
     TONY SMITH, SAROM SOK LEANG, JIE SONG, TETSUYA TAKETSUGU, SIMON WEBB,
     PENG XU, SOOHAENG YOO, FEDERICO ZAHARIEV

  ADDITIONAL CODE HAS BEEN PROVIDED BY COLLABORATORS IN OTHER GROUPS:
     IOWA STATE UNIVERSITY:
          JOE IVANIC, AARON WEST, LAIMUTIS BYTAUTAS, KLAUS RUEDENBERG
     UNIVERSITY OF TOKYO: KIMIHIKO HIRAO, TAKAHITO NAKAJIMA,
          TAKAO TSUNEDA, MUNEAKI KAMIYA, SUSUMU YANAGISAWA,
          KIYOSHI YAGI, MAHITO CHIBA, SEIKEN TOKURA, NAOAKI KAWAKAMI
     UNIVERSITY OF AARHUS: FRANK JENSEN
     UNIVERSITY OF IOWA: VISVALDAS KAIRYS, HUI LI
     NATIONAL INST. OF STANDARDS AND TECHNOLOGY: WALT STEVENS, DAVID GARMER
     UNIVERSITY OF PISA: BENEDETTA MENNUCCI, JACOPO TOMASI
     UNIVERSITY OF MEMPHIS: HENRY KURTZ, PRAKASHAN KORAMBATH
     UNIVERSITY OF ALBERTA: TOBY ZENG, MARIUSZ KLOBUKOWSKI
     UNIVERSITY OF NEW ENGLAND: MARK SPACKMAN
     MIE UNIVERSITY: HIROAKI UMEDA
     NAT. INST. OF ADVANCED INDUSTRIAL SCIENCE AND TECHNOLOGY: KAZUO KITAURA
     MICHIGAN STATE UNIVERSITY:
          KAROL KOWALSKI, MARTA WLOCH, JEFFREY GOUR, JESSE LUTZ,
          WEI LI, PIOTR PIECUCH
     UNIVERSITY OF SILESIA: MONIKA MUSIAL, STANISLAW KUCHARSKI
     FACULTES UNIVERSITAIRES NOTRE-DAME DE LA PAIX:
          OLIVIER QUINET, BENOIT CHAMPAGNE
     UNIVERSITY OF CALIFORNIA - SANTA BARBARA: BERNARD KIRTMAN
     INSTITUTE FOR MOLECULAR SCIENCE:
          KAZUYA ISHIMURA, MICHIO KATOUDA, AND SHIGERU NAGASE
     UNIVERSITY OF NOTRE DAME: ANNA POMOGAEVA, DAN CHIPMAN
     KYUSHU UNIVERSITY:
          HARUYUKI NAKANO,
          FENG LONG GU, JACEK KORCHOWIEC, MARCIN MAKOWSKI, AND YURIKO AOKI,
          HIROTOSHI MORI AND EISAKU MIYOSHI
     PENNSYLVANIA STATE UNIVERSITY:
          TZVETELIN IORDANOV, CHET SWALINA, JONATHAN SKONE,
          SHARON HAMMES-SCHIFFER
     WASEDA UNIVERSITY:
          MASATO KOBAYASHI, TOMOKO AKAMA, TSUGUKI TOUMA,
          TAKESHI YOSHIKAWA, YASUHIRO IKABATA, JUNJI SEINO,
          YUYA NAKAJIMA, HIROMI NAKAI
     NANJING UNIVERSITY: SHUHUA LI
     UNIVERSITY OF NEBRASKA:
          PEIFENG SU, DEJUN SI, NANDUN THELLAMUREGE, YALI WANG, HUI LI
     UNIVERSITY OF ZURICH: ROBERTO PEVERATI, KIM BALDRIDGE
     N. COPERNICUS UNIVERSITY AND JACKSON STATE UNIVERSITY:
          MARIA BARYSZ
     UNIVERSITY OF COPENHAGEN: Jimmy Kromann, CASPER STEINMANN
     TOKYO INSTITUTE OF TECHNOLOGY: HIROYA NAKATA
     NAGOYA UNIVERSITY: YOSHIO NISHIMOTO, STEPHAN IRLE
     MOSCOW STATE UNIVERSITY: VLADIMIR MIRONOV

 EXECUTION OF GAMESS BEGUN Fri Jun  2 04:52:12 2017

            ECHO OF THE FIRST FEW INPUT CARDS -
 INPUT CARD>!   This test case is NH4+/NO3-, from Hui Li                                    
 INPUT CARD>!   Test of the charge transfer term in an EFP2 potential                       
 INPUT CARD>!                                                                               
 INPUT CARD>!             ELECTROSTATIC ENERGY  =  -0.2019940315                            
 INPUT CARD>!             REPULSION ENERGY      =   0.0546045496                            
 INPUT CARD>!             POLARIZATION ENERGY   =  -0.0234957580                            
 INPUT CARD>!             CHARGE TRANSFER ENRGY =  -0.0097041171                            
 INPUT CARD>!             --------------------------------------                            
 INPUT CARD>!   NSERCH:   0  E=       -0.1805893570  R.M.S.=  0.0130085                     
 INPUT CARD>!   NSERCH:   1  E=       -0.1840395603  R.M.S.=  0.0049847                     
 INPUT CARD>!   NSERCH:   2  E=       -0.1842374785  R.M.S.=  0.0059822                     
 INPUT CARD>!       ...                                                                     
 INPUT CARD>!   NSERCH:  13  E=       -0.1854006891  R.M.S.=  0.0000859                     
 INPUT CARD>!   NSERCH:  14  E=       -0.1854007629  R.M.S.=  0.0000561                     
 INPUT CARD>!   NSERCH:  15  E=       -0.1854009005  R.M.S.=  0.0000018                     
 INPUT CARD>!                                                                               
 INPUT CARD>!   This run takes 10 seconds on 2.66 GHz Cloverton ( 6 Oct 2015)               
 INPUT CARD>!                                                                               
 INPUT CARD>!   back in 2009, this took only 9 steps:                                       
 INPUT CARD>!   nserch=0: FINAL EFP ENERGY      =  -0.1805893570, RMS= 0.0130085            
 INPUT CARD>!   nserch=9: FINAL EFP ENERGY      =  -0.1854008811, RMS= 0.0000218            
 INPUT CARD>!                                                                               
 INPUT CARD> $contrl runtyp=optimize coord=fragonly $end                                    
 INPUT CARD> $system  mwords=2 $end                                                         
 INPUT CARD> $efrag                                                                         
 INPUT CARD>iscrelec=0 iscrpol=1 iscrdisp=0 >                                               
 INPUT CARD>coord=cart polmethd=frgscf position=optimize                                    
 INPUT CARD> FRAGNAME=H4N                                                                   
 INPUT CARD>N1            -.0473088460    .6129962049    .1440955212                        
 INPUT CARD>H2             .6877820270   1.2213092576   -.1667693346                        
 INPUT CARD>H3            -.7800466394   1.1349243807    .5888172908                        
 INPUT CARD> FRAGNAME=NO3                                                                   
 INPUT CARD>N1            -.0683876932  -2.4154979753   -.2173025550                        
 INPUT CARD>O2            -.0779440065  -3.5949752764   -.3587619167                        
 INPUT CARD>O3             .4396451396  -1.8935992589    .7945013028                        
 INPUT CARD> $end                                                                           
 INPUT CARD>                                                                                
 INPUT CARD> $H4N                                                                           
 INPUT CARD>ammonium cation potential                                                       
 INPUT CARD> COORDINATES                                                                    
 INPUT CARD>N1         -.0894007557   1.1583948588    .2723010511  14.0030700  7.0          
 INPUT CARD>H2         1.2997195703   2.3079398431   -.3151483455   1.0078250  1.0          
 INPUT CARD>H3        -1.4740744061   2.1446960963   1.1127033364   1.0078250  1.0          
 INPUT CARD>H4         -.7700206116    .0341126389  -1.1713664051   1.0078250  1.0          
 INPUT CARD>H5          .5831419057   -.2725585008   1.4145032756   1.0078250  1.0          
 INPUT CARD>BO21        .6051594073   1.7331673510   -.0214236472    .0000000   .0          
 INPUT CARD>BO31       -.7817375809   1.6515454775    .6925021938    .0000000   .0          
 INPUT CARD>BO41       -.4297106837    .5962537488   -.4495326770    .0000000   .0          
 INPUT CARD>BO51        .2468705750    .4429181790    .8434021633    .0000000   .0          
 INPUT CARD> STOP                                                                           
    2000000 WORDS OF MEMORY AVAILABLE

     $CONTRL OPTIONS
     ---------------
 SCFTYP=RHF          RUNTYP=OPTIMIZE     EXETYP=RUN     
 MPLEVL=       0     CITYP =NONE         CCTYP =NONE         VBTYP =NONE    
 DFTTYP=NONE         TDDFT =NONE    
 MULT  =       1     ICHARG=       0     NZVAR =       0     COORD =FRAGONLY
 PP    =NONE         RELWFN=NONE         LOCAL =NONE         NUMGRD=       F
 ISPHER=      -1     NOSYM =       0     MAXIT =      30     UNITS =ANGS    
 PLTORB=       F     MOLPLT=       F     AIMPAC=       F     FRIEND=        
 NPRINT=       7     IREST =       0     GEOM  =INPUT   
 NORMF =       0     NORMP =       0     ITOL  =      20     ICUT  =       9
 INTTYP=BEST         GRDTYP=BEST         QMTTOL= 1.0E-06

     $SYSTEM OPTIONS
     ---------------
  REPLICATED MEMORY=     2000000 WORDS (ON EVERY NODE).
 DISTRIBUTED MEMDDI=           0 MILLION WORDS IN AGGREGATE,
 MEMDDI DISTRIBUTED OVER   1 PROCESSORS IS           0 WORDS/PROCESSOR.
 TOTAL MEMORY REQUESTED ON EACH PROCESSOR=     2000000 WORDS.
 TIMLIM=      525600.00 MINUTES, OR     365.0 DAYS.
 PARALL= F  BALTYP=  DLB     KDIAG=    0  COREFL= F
 MXSEQ2=     300 MXSEQ3=     150  mem10=         0

 READING $EFRAG GROUP
 COORD=CART      POSITION=OPTIMIZE  POLMETHD=FRGSCF   NBUFFMO=0
 READING COORDINATES OF FRAGMENT   1 NAMED   H4N   
 READING COORDINATES OF FRAGMENT   2 NAMED   NO3   
 FINISHED READING $EFRAG GROUP,   2 FRAGMENTS WILL BE USED.

 READING POTENTIAL PARAMETERS FOR FRAGMENT    1 FROM GROUP $H4N   
 READING POTENTIAL PARAMETERS FOR FRAGMENT    2 FROM GROUP $NO3   


     SUMMARY OF THE EFFECTIVE FRAGMENT POTENTIAL MODEL CHOSEN
     --------------------------------------------------------
 TOTAL NUMBER OF MULTIPOLE POINTS   =        16  (EFP1/EFP2 ELECTROSTATICS)
 TOTAL NUMBER OF POLARIZABLE POINTS =        16  (EFP1/EFP2 INDUCTION)
 TOTAL NUMBER OF L-J POINTS         =         0  (REPULSION AND DISPERSION)
 TOTAL NUMBER OF AO CENTERS         =         9  (EFP2 PAULI REPULSION)
 TOTAL NUMBER OF EFP MOS            =        16  (EFP2 PAULI REPULSION)
 TOTAL NO OF DYNAMIC POLARIZABLE PTS=         0  (EFP2 DISPERSION)
 TOTAL NUMBER OF EFP MOS            =       169  (EFP2 CHARGE TRANSFER)

 THIS IS A -EFP2- TYPE RUN, INCLUDING SEPARATE FORMULAE FOR
   PAULI REPULSION=T  DISPERSION=F  CHARGE TRANSFER=T

 OPTIONS FOR EFP SCREENING:
     ELECTROSTATIC EFP-EFP SCREENING CHOICE IS NO ELECTROSTATIC SCREENING
     POLARIZATION EFP-EFP SCREENING IS TANG-TOENNIS LIKE
     DISPERSION EFP-EFP SCREENING CHOICE IS USING TANG-TOENNIS FORMULA
     WITH DAMPING COEFFICIENT   1.50

     $EWALD OPTIONS
     -----------

     IFEWLD   =        F         TINFOIL        =        T
     BETA    =    0.200         ELECTRIC CONST =     1.00
     EPSILON =     1.00         CUT_OFF        = 0.10E+04
     CUTLIST =  1000.00         LEVEL          =    1
     KMAX    =       10         EWLDPL         =        F

            MULTIPOLE COORDINATES, ELECTRONIC AND NUCLEAR CHARGES

                  X              Y              Z           ELEC.   NUC.
 N1        -0.0894007557   1.1583948588   0.2723010511   -6.59882    7.0
 H2         1.2997195702   2.3079398431  -0.3151483455   -0.60376    1.0
 H3        -1.4740744061   2.1446960963   1.1127033364   -0.60395    1.0
 H4        -0.7700206117   0.0341126389  -1.1713664050   -0.59540    1.0
 H5         0.5831419057  -0.2725585008   1.4145032756   -0.59567    1.0
 BO21       0.6051594073   1.7331673510  -0.0214236472   -0.26120    0.0
 BO31      -0.7817375809   1.6515454775   0.6925021938   -0.25397    0.0
 BO41      -0.4297106837   0.5962537488  -0.4495326770   -0.23649    0.0
 BO51       0.2468705750   0.4429181790   0.8434021633   -0.25073    0.0
 N1        -0.1292340011  -4.5646292972  -0.4106422854   -5.58769    7.0
 O2        -0.1472928147  -6.7935182050  -0.6779617174   -8.69102    8.0
 O3         0.8308088457  -3.5783837299   1.5013897592   -8.78948    8.0
 O4        -1.0704475538  -3.1396033932  -2.0346369014   -8.79019    8.0
 BO21      -0.1382634079  -5.6790737511  -0.5443020014   -0.24567    0.0
 BO31       0.3507874223  -4.0715065135   0.5453737369   -0.03242    0.0
 BO41      -0.5998407775  -3.8521163452  -1.2226395934    0.13646    0.0

   CHARGE SCREENING PARAMETERS (COEF AND ZETA)
   ICHGP=   0 AI-FRAGMENT SCREENING= 0   FRAGMENT-FRAGMENT SCREENING= 0

             GAUSSIAN DAMPING    EXPONENTIAL DAMPING
 N1         0.00000   0.00000      0.00000   0.00000
 H2         0.00000   0.00000      0.00000   0.00000
 H3         0.00000   0.00000      0.00000   0.00000
 H4         0.00000   0.00000      0.00000   0.00000
 H5         0.00000   0.00000      0.00000   0.00000
 BO21       0.00000   0.00000      0.00000   0.00000
 BO31       0.00000   0.00000      0.00000   0.00000
 BO41       0.00000   0.00000      0.00000   0.00000
 BO51       0.00000   0.00000      0.00000   0.00000
 N1         0.00000   0.00000      0.00000   0.00000
 O2         0.00000   0.00000      0.00000   0.00000
 O3         0.00000   0.00000      0.00000   0.00000
 O4         0.00000   0.00000      0.00000   0.00000
 BO21       0.00000   0.00000      0.00000   0.00000
 BO31       0.00000   0.00000      0.00000   0.00000
 BO41       0.00000   0.00000      0.00000   0.00000

   SCREENING FOR POLARIZATION WITH EXPONENTIAL FORMULA  OFF

   SCREENING FOR POLARIZATION WITH TANG-TOENNIS FORMULA   ON

    WITH COEFFICIENTS 

     H4N     0.60

     NO3     0.60

                  DIPOLE MOMENTS AND THE SECOND MOMENT TENSOR

                  X        Y        Z           XX/XY    YY/XZ    ZZ/YZ
 N1            0.00038  0.02002  0.00264     -3.56294 -3.52440 -3.58635
                                              0.00193 -0.01661  0.00722
 H2            0.07152  0.06184 -0.02988     -0.31334 -0.31458 -0.31405
                                             -0.00017 -0.00057  0.00005
 H3           -0.07128  0.05341  0.04353     -0.31353 -0.31471 -0.31431
                                              0.00028 -0.00052 -0.00016
 H4           -0.02859 -0.06175 -0.06211     -0.31109 -0.31534 -0.30729
                                             -0.00032  0.00272 -0.00091
 H5            0.02811 -0.07456  0.04605     -0.31105 -0.31525 -0.30728
                                             -0.00037  0.00274 -0.00105
 BO21         -0.08268 -0.06841  0.03517     -0.07554 -0.08323 -0.09425
                                              0.01847 -0.00973 -0.00784
 BO31          0.08737 -0.05471 -0.05225     -0.05670 -0.06936 -0.07395
                                             -0.01291 -0.01521  0.00836
 BO41          0.05648  0.05278  0.11609     -0.04367 -0.03803 -0.02395
                                              0.00601  0.01258  0.01306
 BO51         -0.05161  0.08660 -0.09030     -0.07599 -0.06641 -0.06863
                                             -0.01143  0.00729 -0.02058
 N1           -0.00035 -0.07076 -0.00805     -3.06361 -3.15227 -3.14874
                                              0.00691 -0.06321  0.00019
 O2            0.00257  0.31239  0.03746     -5.18743 -4.33276 -5.38232
                                              0.02569 -0.15505  0.12904
 O3           -0.10884 -0.10699 -0.21633     -5.21495 -5.44265 -4.78090
                                              0.22339  0.27971  0.41130
 O4            0.10666 -0.15649  0.18450     -5.22457 -5.20942 -5.00839
                                             -0.28414  0.21171 -0.52026
 BO21         -0.00229 -0.26611 -0.03211      0.44682  0.69343  0.57863
                                             -0.00955  0.09678  0.01320
 BO31          0.13574 -0.08032  0.24742      0.71697  1.06108  0.79973
                                             -0.02754  0.06318 -0.01217
 BO41         -0.05541  0.12791 -0.09090      1.05689  1.41270  1.20593
                                              0.09437  0.08930  0.21948

                  THE THIRD MOMENT TENSOR

               XXX/XYY  YYY/YYZ  ZZZ/XZZ  XXY/YZZ  XXZ/XYZ
 N1            0.00101  0.07792  0.02518 -0.02300 -0.00223
              -0.01487 -0.00751  0.01609  0.06845  0.06490
 H2            0.08216  0.07943 -0.03630  0.02167 -0.00890
               0.02500 -0.01020  0.02858  0.02679  0.00267
 H3           -0.08190  0.07035  0.05380  0.01910  0.01376
              -0.02627  0.01626 -0.02706  0.02246  0.00321
 H4           -0.02626 -0.07303 -0.05074 -0.02379 -0.01796
              -0.00718 -0.01633 -0.00408 -0.01916  0.00285
 H5            0.02564 -0.08158  0.03569 -0.02734  0.01197
               0.00551  0.00806  0.00534 -0.02362  0.00323
 BO21         -0.16817 -0.13247  0.07290 -0.04354  0.02392
              -0.05580  0.02410 -0.05621 -0.04421 -0.00036
 BO31          0.20220 -0.08486 -0.11554 -0.02619 -0.03895
               0.06817 -0.03895  0.06699 -0.02829 -0.00126
 BO41          0.15216  0.08926  0.30912  0.03296  0.10351
               0.05313  0.10598  0.05127  0.02736 -0.00429
 BO51         -0.12019  0.21576 -0.20865  0.07470 -0.06921
              -0.03914 -0.06875 -0.04036  0.07152 -0.00231
 N1           -0.00142 -0.16332 -0.04054 -0.08401 -0.01003
               0.00616  0.00939 -0.00662 -0.11457 -0.02420
 O2            0.00153  0.20846  0.01256  0.05849  0.00669
               0.00502  0.01694 -0.00391  0.03621 -0.01732
 O3           -0.04722  0.02362 -0.08400 -0.01586 -0.02739
              -0.00944 -0.01356 -0.00815 -0.03035 -0.01249
 O4            0.04630  0.00627  0.05869 -0.02205  0.02227
               0.01594  0.03402  0.00192 -0.03601 -0.01065
 BO21         -0.01310 -1.37799 -0.19625 -0.51787 -0.06269
               0.00176 -0.03463 -0.00930 -0.54080 -0.01924
 BO31          0.70515 -0.45471  1.24285 -0.16928  0.41538
               0.28973  0.53421  0.21118 -0.14327  0.00901
 BO41         -0.25824  0.72162 -0.49818  0.22728 -0.16411
              -0.10296 -0.16145 -0.14432  0.27251  0.03703

                  POLARIZABLE POINTS AND THE POLARIZABILITY TENSOR

              X       Y       Z       XX/YZ    YY/YX    ZZ/ZX    XY/ZY     XZ
 CT1       0.6855  1.7948 -0.0564   2.38838  1.99449  1.18360  1.16247 -0.63079
                                   -0.49077  1.18895 -0.62788 -0.47712
 CT2       0.2944  0.4087  0.9318   1.28966  2.53022  2.03108 -0.83013  0.66131
                                   -1.33514 -0.78350  0.66651 -1.42544
 CT3      -0.8618  1.7039  0.7408   2.37936  1.73882  1.44823 -0.98577 -0.88369
                                    0.62760 -1.01270 -0.88718  0.61373
 CT4      -0.4769  0.5841 -0.5433   1.29969  1.87744  2.68498  0.66016  0.84499
                                    1.29737  0.61395  0.84044  1.38788
 CT1       0.3382 -4.0585  0.6028   0.84845  0.98568  1.68375  0.28273  0.69901
                                    0.47233  0.28958  0.77835  0.53711
 CT2      -0.0416 -5.7426 -0.6041   0.47715  1.84866  0.59919  0.12744  0.11719
                                   -0.02683  0.32306  0.14144  0.07804
 CT3      -0.6526 -3.8298 -1.2404   0.68847  1.28491  1.55013 -0.37658  0.58824
                                   -0.67518 -0.30468  0.51883 -0.69727
 CT4       0.5320 -3.0453  1.5135   0.91567  2.14129  2.04672 -0.03420  0.43633
                                    0.96332 -0.43749 -0.02833  1.14146
 CT5       1.1782 -3.6454  1.0799   4.05783  1.75674  4.51728  1.51778  1.24291
                                    1.99492  1.85447  2.09242  2.23251
 CT6       0.2670 -7.0108 -0.2746   1.15029  2.34137  1.04086 -0.49718  0.37470
                                   -0.41811 -1.05698  0.36485 -0.24266
 CT7      -1.1925 -2.6474 -1.6932   1.30659  2.47752  1.32291 -0.93046  0.17382
                                   -0.01545 -1.08718  0.56940 -0.49443
 CT8      -1.4583 -3.5277 -2.3238   1.90763  1.28309  1.89068  0.10137  1.00118
                                   -0.30702 -0.33226  1.41940 -0.07233
 CT9      -0.2714 -6.8863 -1.2759   0.71578  2.01775  1.79790  0.05066  0.20898
                                    1.20388 -0.10499  0.12988  0.64379
 CT10     -0.5245 -6.4087 -0.4273   2.09881  7.34979  0.91405  0.41666 -0.85700
                                    0.36052  0.93554 -0.79246  0.63916
 CT11     -0.5364 -3.2491 -2.1098   2.65126  3.06455  4.61444 -1.25878  0.75448
                                   -3.28932 -0.72163  0.01270 -3.05687
 CT12      0.8139 -4.0519  1.9016   0.79735  1.26413  3.01790  0.02932  0.71511
                                    0.03496  0.07129  0.24830 -0.41052

                    AO EXPANSION POINTS                             LMO CENTROIDS

                X          Y          Z                         X          Y          Z

  N          -0.08940    1.15839    0.27230       CT1         0.68551    1.79477   -0.05640
  H           1.29972    2.30794   -0.31515       CT2         0.29436    0.40873    0.93177
  H          -1.47407    2.14470    1.11270       CT3        -0.86183    1.70386    0.74077
  H          -0.77002    0.03411   -1.17137       CT4        -0.47689    0.58414   -0.54331
  H           0.58314   -0.27256    1.41450       CT1         0.33820   -4.05847    0.60278
  N          -0.12923   -4.56463   -0.41064       CT2        -0.04157   -5.74259   -0.60411
  O          -0.14729   -6.79352   -0.67796       CT3        -0.65258   -3.82977   -1.24039
  O           0.83081   -3.57838    1.50139       CT4         0.53201   -3.04526    1.51352
  O          -1.07045   -3.13960   -2.03464       CT5         1.17824   -3.64540    1.07992
                                                  CT6         0.26701   -7.01084   -0.27457
                                                  CT7        -1.19251   -2.64739   -1.69324
                                                  CT8        -1.45832   -3.52771   -2.32381
                                                  CT9        -0.27136   -6.88631   -1.27590
                                                  CT10       -0.52448   -6.40873   -0.42732
                                                  CT11       -0.53645   -3.24909   -2.10980
                                                  CT12        0.81392   -4.05191    1.90161

          ----------------
          PROPERTIES INPUT
          ----------------

     MOMENTS            FIELD           POTENTIAL          DENSITY
 IEMOM =       1   IEFLD =       0   IEPOT =       0   IEDEN =       0
 WHERE =COMASS     WHERE =NUCLEI     WHERE =NUCLEI     WHERE =NUCLEI  
 OUTPUT=BOTH       OUTPUT=BOTH       OUTPUT=BOTH       OUTPUT=BOTH    
 IEMINT=       0   IEFINT=       0                     IEDINT=       0
                                                       MORB  =       0
          EXTRAPOLATION IN EFFECT
 ORBITAL PRINTING OPTION: NPREO=     1     0     2     1

     -------------------------------
     INTEGRAL TRANSFORMATION OPTIONS
     -------------------------------
     NWORD  =            0
     CUTOFF = 1.0E-09     MPTRAN =       0
     DIRTRF =       F     AOINTS =DUP     

          ----------------------
          INTEGRAL INPUT OPTIONS
          ----------------------
 NOPK  =       1 NORDER=       0 SCHWRZ=       F

 ..... DONE SETTING UP THE RUN .....
 STEP CPU TIME =     0.24 TOTAL CPU TIME =        0.2 (    0.0 MIN)
 TOTAL WALL CLOCK TIME=        0.3 SECONDS, CPU UTILIZATION IS  96.00%


          -----------------------------
          STATIONARY POINT LOCATION RUN
          -----------------------------

 OBTAINING INITIAL HESSIAN, HESS=GUESS   
 DIAGONAL GUESS HESSIAN FOR FRAGMENTS(TRANS)=  0.0300
 DIAGONAL GUESS HESSIAN FOR FRAGMENTS(ROT)  =  0.0100

          PARAMETERS CONTROLLING GEOMETRY SEARCH ARE
          METHOD =QA                  UPHESS =BFGS    
          NNEG   =         0          NFRZ   =         0
          NSTEP  =        50          IFOLOW =         1
          HESS   =GUESS               RESTAR =         F
          IHREP  =         0          HSSEND =         F
          NPRT   =         0          NPUN   =         0
          OPTTOL = 1.000E-04          RMIN   = 1.500E-03
          RMAX   = 1.000E-01          RLIM   = 7.000E-02
          DXMAX  = 3.000E-01          PURIFY =         F
          MOVIE  =         F          TRUPD  =         T
          TRMAX  = 5.000E-01          TRMIN  = 5.000E-02
          ITBMAT =         5          STPT   =         F
          STSTEP = 1.000E-02          PROJCT=          T

 BEGINNING GEOMETRY SEARCH POINT NSERCH=   0 ...

  
 COORDINATES OF FRAGMENT MULTIPOLE CENTERS (ANGS)
 MULTIPOLE NAME        X              Y              Z
 ------------------------------------------------------------
 FRAGNAME=H4N   
 N1               -0.0473088460   0.6129962049   0.1440955212
 H2                0.6877820270   1.2213092576  -0.1667693346
 H3               -0.7800466394   1.1349243807   0.5888172908
 H4               -0.4074773891   0.0180516324  -0.6198604521
 H5                0.3085854296  -0.1442317577   0.7485229524
 FRAGNAME=NO3   
 N1               -0.0683876932  -2.4154979753  -0.2173025550
 O2               -0.0779440065  -3.5949752764  -0.3587619167
 O3                0.4396451396  -1.8935992589   0.7945013028
 O4               -0.5664564920  -1.6614066873  -1.0766835587

                 --------------------------------------
                 FRAGMENT-FRAGMENT INTERACTION ENERGIES
                 --------------------------------------

                 CHARGE-CHARGE         =  -0.1871628221
                 CHARGE-DIPOLE         =  -0.0097080945
                 CHARGE-QUADRUPOLE     =  -0.0055546403
                 CHARGE-OCTUPOLE       =   0.0009953214
                 DIPOLE-DIPOLE         =  -0.0004650192
                 DIPOLE-QUADRUPOLE     =  -0.0001524301
                 QUADRUPOLE-QUADRUPOLE =   0.0000536533
                 OVERLAP PEN. ENERGY   =   0.0000000000
                                         --------------
                 ELECTROSTATIC ENERGY  =  -0.2019940315
                 REPULSION ENERGY      =   0.0546045496
                 POLARIZATION ENERGY   =  -0.0234957580
                 CHARGE TRANSFER ENRGY =  -0.0097041171
                 --------------------------------------
                 FINAL EFP ENERGY      =  -0.1805893570


          ----------------------------------------
          EFFECTIVE FRAGMENT ELECTROSTATIC MOMENTS
          ----------------------------------------

 FRAGMENT   1  H4N   
          X           Y           Z (BOHR)    CHARGE
    -0.089604    1.134958    0.269590        1.00 (A.U.)
         DX          DY          DZ         /D/  (DEBYE)
    -0.243830    1.653925    0.552491    1.760729

 FRAGMENT   2  NO3   
          X           Y           Z (BOHR)    CHARGE
    -0.129035   -4.517569   -0.405296       -1.00 (A.U.)
         DX          DY          DZ         /D/  (DEBYE)
     0.402467    8.797531    0.664285    8.831750

          ----------------------------
          SYSTEM ELECTROSTATIC MOMENTS
          ----------------------------

 CENTER              X           Y           Z (BOHR)    CHARGE
               -0.120149   -3.243675   -0.253199       -1.00 (A.U.)
         DX          DY          DZ         /D/  (DEBYE)
     0.158638   10.451456    1.216776   10.523243


                     -----------------------------
                     FRAGMENT GRADIENT INFORMATION
                     -----------------------------


      FRAGMENT NO.    1     E'X               E'Y               E'Z 
      TOTALS           0.003782090      -0.027599806      -0.005137633
      TORQUE           0.000434204      -0.000876479       0.005347278

      FRAGMENT NO.    2     E'X               E'Y               E'Z 
      TOTALS          -0.003782090       0.027599806       0.005137633
      TORQUE           0.009979672      -0.001878587       0.017119389

      TOTAL FORCE ON ALL FRAGMENTS
      FORCE            0.000000000       0.000000000       0.000000000

          NSERCH=  0     ENERGY=      -0.1805894
  EFP           TOTAL GRADIENT                           TORQUES
    1   0.0037821 -0.0275998 -0.0051376     0.0004342 -0.0008765  0.0053473
    2  -0.0037821  0.0275998  0.0051376     0.0099797 -0.0018786  0.0171194

          MAXIMUM GRADIENT = 0.0275998    RMS GRADIENT = 0.0130085

 NSERCH:   0  E=       -0.1805893570  GRAD. MAX=  0.0275998  R.M.S.=  0.0130085

          FORCE CONSTANT MATRIX NOT UPDATED --- TAKING FIRST STEP
          MIN SEARCH, CORRECT HESSIAN, TRYING PURE NR STEP
               NR STEP HAS LENGTH         =   2.103841
          TRIM/QA LAMBDA FOR NON-TS MODES =  -0.12315948
          TRIM/QA STEP HAS LENGTH         =   0.300000
          RADIUS OF STEP TAKEN=   0.30000  CURRENT TRUST RADIUS=   0.30000

 BEGINNING GEOMETRY SEARCH POINT NSERCH=   1 ...

  
 COORDINATES OF FRAGMENT MULTIPOLE CENTERS (ANGS)
 MULTIPOLE NAME        X              Y              Z
 ------------------------------------------------------------
 FRAGNAME=H4N   
 N1               -0.0615878780   0.7068756440   0.1624146395
 H2                0.6943901403   1.2856260588  -0.1547375534
 H3               -0.7707923330   1.2577608116   0.6103495902
 H4               -0.4493204515   0.1243851515  -0.5976362999
 H5                0.2687326981  -0.0620240617   0.7666240419
 FRAGNAME=NO3   
 N1               -0.0567907468  -2.5093139588  -0.2337959868
 O2               -0.2165491489  -3.6852835373  -0.2871024711
 O3                0.5311335251  -1.9836568474   0.7317361607
 O4               -0.4722666138  -1.7627729756  -1.1422662795

                 --------------------------------------
                 FRAGMENT-FRAGMENT INTERACTION ENERGIES
                 --------------------------------------

                 CHARGE-CHARGE         =  -0.1736414133
                 CHARGE-DIPOLE         =  -0.0078034379
                 CHARGE-QUADRUPOLE     =  -0.0037698611
                 CHARGE-OCTUPOLE       =   0.0006308374
                 DIPOLE-DIPOLE         =  -0.0002914803
                 DIPOLE-QUADRUPOLE     =   0.0000067112
                 QUADRUPOLE-QUADRUPOLE =   0.0000317301
                 OVERLAP PEN. ENERGY   =   0.0000000000
                                         --------------
                 ELECTROSTATIC ENERGY  =  -0.1848369139
                 REPULSION ENERGY      =   0.0237394864
                 POLARIZATION ENERGY   =  -0.0177354699
                 CHARGE TRANSFER ENRGY =  -0.0052066629
                 --------------------------------------
                 FINAL EFP ENERGY      =  -0.1840395603


          ----------------------------------------
          EFFECTIVE FRAGMENT ELECTROSTATIC MOMENTS
          ----------------------------------------

 FRAGMENT   1  H4N   
          X           Y           Z (BOHR)    CHARGE
    -0.117508    1.312383    0.304273        1.00 (A.U.)
         DX          DY          DZ         /D/  (DEBYE)
    -0.297657    2.262126    0.652292    2.373036

 FRAGMENT   2  NO3   
          X           Y           Z (BOHR)    CHARGE
    -0.101131   -4.694994   -0.439979       -1.00 (A.U.)
         DX          DY          DZ         /D/  (DEBYE)
     0.213647    9.531389    0.839743    9.570694

          ----------------------------
          SYSTEM ELECTROSTATIC MOMENTS
          ----------------------------

 CENTER              X           Y           Z (BOHR)    CHARGE
               -0.104822   -3.341128   -0.272249       -1.00 (A.U.)
         DX          DY          DZ         /D/  (DEBYE)
    -0.084010   11.793514    1.492035   11.887818


          NSERCH=  1     ENERGY=      -0.1840396
  EFP           TOTAL GRADIENT                           TORQUES
    1  -0.0005993  0.0116810  0.0020356    -0.0021663  0.0001422 -0.0030829
    2   0.0005993 -0.0116810 -0.0020356    -0.0013685  0.0002705 -0.0003259

          MAXIMUM GRADIENT = 0.0116810    RMS GRADIENT = 0.0049847

 NSERCH:   1  E=       -0.1840395603  GRAD. MAX=  0.0116810  R.M.S.=  0.0049847

          HESSIAN UPDATED USING THE BFGS FORMULA
             ACTUAL ENERGY CHANGE WAS  -0.0034502034
          PREDICTED ENERGY CHANGE WAS  -0.0122900196 RATIO=  0.281
          MIN SEARCH, CORRECT HESSIAN, TRYING PURE NR STEP
               NR STEP HAS LENGTH         =   0.415368
          TRIM/QA LAMBDA FOR NON-TS MODES =  -0.00495903
          TRIM/QA STEP HAS LENGTH         =   0.300000
          RADIUS OF STEP TAKEN=   0.30000  CURRENT TRUST RADIUS=   0.30000

 BEGINNING GEOMETRY SEARCH POINT NSERCH=   2 ...

  
 COORDINATES OF FRAGMENT MULTIPOLE CENTERS (ANGS)
 MULTIPOLE NAME        X              Y              Z
 ------------------------------------------------------------
 FRAGNAME=H4N   
 N1               -0.0736887253   0.6521183689   0.1547876228
 H2                0.6285943961   1.3206963286  -0.1037510575
 H3               -0.8228173505   1.0948033950   0.6547150351
 H4               -0.4175193665   0.1164988020  -0.6589699103
 H5                0.3247371804  -0.1418557819   0.6803818464
 FRAGNAME=NO3   
 N1               -0.0508600020  -2.4535081425  -0.2230636486
 O2               -0.4542109962  -3.5703147758  -0.1867360115
 O3                0.6528664651  -1.9940254202   0.6977334862
 O4               -0.3186158482  -1.7047608337  -1.1837645296

                 --------------------------------------
                 FRAGMENT-FRAGMENT INTERACTION ENERGIES
                 --------------------------------------

                 CHARGE-CHARGE         =  -0.1762623656
                 CHARGE-DIPOLE         =  -0.0074687772
                 CHARGE-QUADRUPOLE     =  -0.0047172007
                 CHARGE-OCTUPOLE       =   0.0005036193
                 DIPOLE-DIPOLE         =  -0.0003054687
                 DIPOLE-QUADRUPOLE     =  -0.0000742886
                 QUADRUPOLE-QUADRUPOLE =   0.0000244485
                 OVERLAP PEN. ENERGY   =   0.0000000000
                                         --------------
                 ELECTROSTATIC ENERGY  =  -0.1883000330
                 REPULSION ENERGY      =   0.0303855757
                 POLARIZATION ENERGY   =  -0.0198825618
                 CHARGE TRANSFER ENRGY =  -0.0064404595
                 --------------------------------------
                 FINAL EFP ENERGY      =  -0.1842374785


          ----------------------------------------
          EFFECTIVE FRAGMENT ELECTROSTATIC MOMENTS
          ----------------------------------------

 FRAGMENT   1  H4N   
          X           Y           Z (BOHR)    CHARGE
    -0.138433    1.209268    0.287567        1.00 (A.U.)
         DX          DY          DZ         /D/  (DEBYE)
    -0.259322    1.977919    0.515803    2.060453

 FRAGMENT   2  NO3   
          X           Y           Z (BOHR)    CHARGE
    -0.080206   -4.591879   -0.423273       -1.00 (A.U.)
         DX          DY          DZ         /D/  (DEBYE)
    -0.042316    9.214994    0.929989    9.261899

          ----------------------------
          SYSTEM ELECTROSTATIC MOMENTS
          ----------------------------

 CENTER              X           Y           Z (BOHR)    CHARGE
               -0.093328   -3.284491   -0.263073       -1.00 (A.U.)
         DX          DY          DZ         /D/  (DEBYE)
    -0.301638   11.192913    1.445792   11.289933


          NSERCH=  2     ENERGY=      -0.1842375
  EFP           TOTAL GRADIENT                           TORQUES
    1  -0.0038558  0.0033795 -0.0008166     0.0005838  0.0008056 -0.0046885
    2   0.0038558 -0.0033795  0.0008166     0.0065556  0.0019828 -0.0174827

          MAXIMUM GRADIENT = 0.0174827    RMS GRADIENT = 0.0059822

 NSERCH:   2  E=       -0.1842374785  GRAD. MAX=  0.0174827  R.M.S.=  0.0059822

          HESSIAN UPDATED USING THE BFGS FORMULA
             ACTUAL ENERGY CHANGE WAS  -0.0001979182
          PREDICTED ENERGY CHANGE WAS  -0.0015978906 RATIO=  0.124
          MIN SEARCH, CORRECT HESSIAN, TRYING PURE NR STEP
               NR STEP HAS LENGTH         =   0.784703
          TRIM/QA LAMBDA FOR NON-TS MODES =  -0.01379363
          TRIM/QA STEP HAS LENGTH         =   0.300000
          RADIUS OF STEP TAKEN=   0.30000  CURRENT TRUST RADIUS=   0.30000

 BEGINNING GEOMETRY SEARCH POINT NSERCH=   3 ...

  
 COORDINATES OF FRAGMENT MULTIPOLE CENTERS (ANGS)
 MULTIPOLE NAME        X              Y              Z
 ------------------------------------------------------------
 FRAGNAME=H4N   
 N1               -0.0536550414   0.6078650540   0.1632575935
 H2                0.5706719561   1.3649353522  -0.0467440352
 H3               -0.8498033544   0.9331623908   0.6803849021
 H4               -0.3318113557   0.0878874276  -0.6850121076
 H5                0.4286326391  -0.1673800570   0.6446940415
 FRAGNAME=NO3   
 N1               -0.0695308813  -2.4097226420  -0.2260984903
 O2               -0.3431052270  -3.5362528595   0.0334309382
 O3                0.5455874727  -1.6937019012   0.5882517939
 O4               -0.3890559197  -1.9071626520  -1.3218170284

                 --------------------------------------
                 FRAGMENT-FRAGMENT INTERACTION ENERGIES
                 --------------------------------------

                 CHARGE-CHARGE         =  -0.1882245317
                 CHARGE-DIPOLE         =  -0.0091376804
                 CHARGE-QUADRUPOLE     =  -0.0019696340
                 CHARGE-OCTUPOLE       =   0.0009815252
                 DIPOLE-DIPOLE         =  -0.0005829928
                 DIPOLE-QUADRUPOLE     =   0.0006612236
                 QUADRUPOLE-QUADRUPOLE =   0.0001025870
                 OVERLAP PEN. ENERGY   =   0.0000000000
                                         --------------
                 ELECTROSTATIC ENERGY  =  -0.1981695032
                 REPULSION ENERGY      =   0.0691383909
                 POLARIZATION ENERGY   =  -0.0301995394
                 CHARGE TRANSFER ENRGY =  -0.0088783374
                 --------------------------------------
                 FINAL EFP ENERGY      =  -0.1681089891


          ----------------------------------------
          EFFECTIVE FRAGMENT ELECTROSTATIC MOMENTS
          ----------------------------------------

 FRAGMENT   1  H4N   
          X           Y           Z (BOHR)    CHARGE
    -0.097981    1.126220    0.302207        1.00 (A.U.)
         DX          DY          DZ         /D/  (DEBYE)
     0.120126    1.522681    0.802342    1.725323

 FRAGMENT   2  NO3   
          X           Y           Z (BOHR)    CHARGE
    -0.120658   -4.508831   -0.437913       -1.00 (A.U.)
         DX          DY          DZ         /D/  (DEBYE)
    -0.196287    8.605952    0.585471    8.628078

          ----------------------------
          SYSTEM ELECTROSTATIC MOMENTS
          ----------------------------

 CENTER              X           Y           Z (BOHR)    CHARGE
               -0.115547   -3.238875   -0.271114       -1.00 (A.U.)
         DX          DY          DZ         /D/  (DEBYE)
    -0.076161   10.128633    1.387814   10.223553


          NSERCH=  3     ENERGY=      -0.1681090
  EFP           TOTAL GRADIENT                           TORQUES
    1   0.0143659 -0.0492416  0.0144990     0.0069218  0.0000518 -0.0019784
    2  -0.0143659  0.0492416 -0.0144990    -0.1250693 -0.0103555  0.0840475

          MAXIMUM GRADIENT = 0.1250693    RMS GRADIENT = 0.0487750

 NSERCH:   3  E=       -0.1681089891  GRAD. MAX=  0.1250693  R.M.S.=  0.0487750

          HESSIAN UPDATED USING THE BFGS FORMULA
             ACTUAL ENERGY CHANGE WAS   0.0161284894
          PREDICTED ENERGY CHANGE WAS  -0.0030407155 RATIO= -5.304
          MIN SEARCH, CORRECT HESSIAN, TRYING PURE NR STEP
               NR STEP HAS LENGTH         =   0.777057
          TRIM/QA LAMBDA FOR NON-TS MODES =  -0.45413437
          TRIM/QA STEP HAS LENGTH         =   0.150000
          RADIUS OF STEP TAKEN=   0.15000  CURRENT TRUST RADIUS=   0.15000

 BEGINNING GEOMETRY SEARCH POINT NSERCH=   4 ...

  
 COORDINATES OF FRAGMENT MULTIPOLE CENTERS (ANGS)
 MULTIPOLE NAME        X              Y              Z
 ------------------------------------------------------------
 FRAGNAME=H4N   
 N1               -0.0590025000   0.6321074038   0.1561693591
 H2                0.5609144145   1.3912018859  -0.0595130616
 H3               -0.8576167185   0.9568170744   0.6698522445
 H4               -0.3331666673   0.1034498825  -0.6880251608
 H5                0.4275205886  -0.1361801273   0.6444489882
 FRAGNAME=NO3   
 N1               -0.0657323432  -2.4340410877  -0.2218371030
 O2               -0.4092127171  -3.5637797887  -0.0915279391
 O3                0.5971499480  -1.8576749438   0.6628163954
 O4               -0.3574052108  -1.7882612133  -1.2480715794

                 --------------------------------------
                 FRAGMENT-FRAGMENT INTERACTION ENERGIES
                 --------------------------------------

                 CHARGE-CHARGE         =  -0.1805215418
                 CHARGE-DIPOLE         =  -0.0078678860
                 CHARGE-QUADRUPOLE     =  -0.0045465573
                 CHARGE-OCTUPOLE       =   0.0007456844
                 DIPOLE-DIPOLE         =  -0.0003881760
                 DIPOLE-QUADRUPOLE     =  -0.0000127341
                 QUADRUPOLE-QUADRUPOLE =   0.0000432543
                 OVERLAP PEN. ENERGY   =   0.0000000000
                                         --------------
                 ELECTROSTATIC ENERGY  =  -0.1925479566
                 REPULSION ENERGY      =   0.0392951499
                 POLARIZATION ENERGY   =  -0.0224605395
                 CHARGE TRANSFER ENRGY =  -0.0073193434
                 --------------------------------------
                 FINAL EFP ENERGY      =  -0.1830326896


          ----------------------------------------
          EFFECTIVE FRAGMENT ELECTROSTATIC MOMENTS
          ----------------------------------------

 FRAGMENT   1  H4N   
          X           Y           Z (BOHR)    CHARGE
    -0.107944    1.172001    0.289001        1.00 (A.U.)
         DX          DY          DZ         /D/  (DEBYE)
    -0.039024    1.821794    0.602948    1.919376

 FRAGMENT   2  NO3   
          X           Y           Z (BOHR)    CHARGE
    -0.110695   -4.554612   -0.424708       -1.00 (A.U.)
         DX          DY          DZ         /D/  (DEBYE)
    -0.086167    9.017300    0.798661    9.053010

          ----------------------------
          SYSTEM ELECTROSTATIC MOMENTS
          ----------------------------

 CENTER              X           Y           Z (BOHR)    CHARGE
               -0.110075   -3.264021   -0.263861       -1.00 (A.U.)
         DX          DY          DZ         /D/  (DEBYE)
    -0.125191   10.839094    1.401610   10.930057


          NSERCH=  4     ENERGY=      -0.1830327
  EFP           TOTAL GRADIENT                           TORQUES
    1   0.0035249 -0.0076795  0.0049966     0.0032715  0.0004390  0.0032471
    2  -0.0035249  0.0076795 -0.0049966    -0.0373658 -0.0029410  0.0169597

          MAXIMUM GRADIENT = 0.0373658    RMS GRADIENT = 0.0126051

 NSERCH:   4  E=       -0.1830326896  GRAD. MAX=  0.0373658  R.M.S.=  0.0126051

          HESSIAN UPDATED USING THE BFGS FORMULA
             ACTUAL ENERGY CHANGE WAS  -0.0149237005
          PREDICTED ENERGY CHANGE WAS  -0.0177221866 RATIO=  0.842
          MIN SEARCH, CORRECT HESSIAN, TRYING PURE NR STEP
               NR STEP HAS LENGTH         =   0.852089
          TRIM/QA LAMBDA FOR NON-TS MODES =  -0.03761999
          TRIM/QA STEP HAS LENGTH         =   0.212132
          RADIUS OF STEP TAKEN=   0.21213  CURRENT TRUST RADIUS=   0.21213

 BEGINNING GEOMETRY SEARCH POINT NSERCH=   5 ...

  
 COORDINATES OF FRAGMENT MULTIPOLE CENTERS (ANGS)
 MULTIPOLE NAME        X              Y              Z
 ------------------------------------------------------------
 FRAGNAME=H4N   
 N1               -0.0595596881   0.6247589391   0.1459198326
 H2                0.6398743347   1.3006633125  -0.1010328874
 H3               -0.8227873445   1.0600166522   0.6308171562
 H4               -0.3821455433   0.0836215745  -0.6728706605
 H5                0.3378875884  -0.1635917105   0.6806406552
 FRAGNAME=NO3   
 N1               -0.0617732916  -2.4271088275  -0.2157303093
 O2               -0.3040253788  -3.5895985225  -0.2503772885
 O3                0.5661618664  -1.9296091822   0.7394734472
 O4               -0.4280178725  -1.6669755239  -1.1340571444

                 --------------------------------------
                 FRAGMENT-FRAGMENT INTERACTION ENERGIES
                 --------------------------------------

                 CHARGE-CHARGE         =  -0.1834756355
                 CHARGE-DIPOLE         =  -0.0089807222
                 CHARGE-QUADRUPOLE     =  -0.0052329698
                 CHARGE-OCTUPOLE       =   0.0008286202
                 DIPOLE-DIPOLE         =  -0.0004168317
                 DIPOLE-QUADRUPOLE     =  -0.0001144328
                 QUADRUPOLE-QUADRUPOLE =   0.0000392502
                 OVERLAP PEN. ENERGY   =   0.0000000000
                                         --------------
                 ELECTROSTATIC ENERGY  =  -0.1973527215
                 REPULSION ENERGY      =   0.0446724582
                 POLARIZATION ENERGY   =  -0.0232792821
                 CHARGE TRANSFER ENRGY =  -0.0084408881
                 --------------------------------------
                 FINAL EFP ENERGY      =  -0.1844004336


          ----------------------------------------
          EFFECTIVE FRAGMENT ELECTROSTATIC MOMENTS
          ----------------------------------------

 FRAGMENT   1  H4N   
          X           Y           Z (BOHR)    CHARGE
    -0.111383    1.157567    0.270877        1.00 (A.U.)
         DX          DY          DZ         /D/  (DEBYE)
    -0.204721    1.749404    0.483002    1.826367

 FRAGMENT   2  NO3   
          X           Y           Z (BOHR)    CHARGE
    -0.107256   -4.540178   -0.406584       -1.00 (A.U.)
         DX          DY          DZ         /D/  (DEBYE)
     0.147866    8.883922    0.793020    8.920471

          ----------------------------
          SYSTEM ELECTROSTATIC MOMENTS
          ----------------------------

 CENTER              X           Y           Z (BOHR)    CHARGE
               -0.108186   -3.256093   -0.253906       -1.00 (A.U.)
         DX          DY          DZ         /D/  (DEBYE)
    -0.056855   10.633326    1.276022   10.709766


          NSERCH=  5     ENERGY=      -0.1844004
  EFP           TOTAL GRADIENT                           TORQUES
    1   0.0003614 -0.0128491 -0.0045069     0.0034069 -0.0002038  0.0009083
    2  -0.0003614  0.0128491  0.0045069     0.0135677 -0.0000224  0.0010979

          MAXIMUM GRADIENT = 0.0135677    RMS GRADIENT = 0.0068851

 NSERCH:   5  E=       -0.1844004336  GRAD. MAX=  0.0135677  R.M.S.=  0.0068851

          HESSIAN UPDATED USING THE BFGS FORMULA
             ACTUAL ENERGY CHANGE WAS  -0.0013677440
          PREDICTED ENERGY CHANGE WAS  -0.0031245403 RATIO=  0.438
          MIN SEARCH, CORRECT HESSIAN, TRYING PURE NR STEP
               NR STEP HAS LENGTH         =   0.329213
          TRIM/QA LAMBDA FOR NON-TS MODES =  -0.00705190
          TRIM/QA STEP HAS LENGTH         =   0.212132
          RADIUS OF STEP TAKEN=   0.21213  CURRENT TRUST RADIUS=   0.21213

 BEGINNING GEOMETRY SEARCH POINT NSERCH=   6 ...

  
 COORDINATES OF FRAGMENT MULTIPOLE CENTERS (ANGS)
 MULTIPOLE NAME        X              Y              Z
 ------------------------------------------------------------
 FRAGNAME=H4N   
 N1               -0.0719667406   0.6499931622   0.1636293727
 H2                0.7043766978   1.1949049398  -0.1640935902
 H3               -0.7723498717   1.2373930599   0.5777742469
 H4               -0.4641602437   0.0480489290  -0.5787698118
 H5                0.2278899592  -0.1025901972   0.8032321315
 FRAGNAME=NO3   
 N1               -0.0484532818  -2.4519910815  -0.2339712718
 O2               -0.3202471155  -3.6082935179  -0.2149563959
 O3                0.6111306178  -1.9315439563   0.6870643113
 O4               -0.4143992475  -1.7215140876  -1.1761755066

                 --------------------------------------
                 FRAGMENT-FRAGMENT INTERACTION ENERGIES
                 --------------------------------------

                 CHARGE-CHARGE         =  -0.1782898018
                 CHARGE-DIPOLE         =  -0.0077178536
                 CHARGE-QUADRUPOLE     =  -0.0046533395
                 CHARGE-OCTUPOLE       =   0.0005710236
                 DIPOLE-DIPOLE         =  -0.0002854561
                 DIPOLE-QUADRUPOLE     =  -0.0000759793
                 QUADRUPOLE-QUADRUPOLE =   0.0000339118
                 OVERLAP PEN. ENERGY   =   0.0000000000
                                         --------------
                 ELECTROSTATIC ENERGY  =  -0.1904174949
                 REPULSION ENERGY      =   0.0334484673
                 POLARIZATION ENERGY   =  -0.0205392746
                 CHARGE TRANSFER ENRGY =  -0.0068733776
                 --------------------------------------
                 FINAL EFP ENERGY      =  -0.1843816797


          ----------------------------------------
          EFFECTIVE FRAGMENT ELECTROSTATIC MOMENTS
          ----------------------------------------

 FRAGMENT   1  H4N   
          X           Y           Z (BOHR)    CHARGE
    -0.137727    1.204842    0.307485        1.00 (A.U.)
         DX          DY          DZ         /D/  (DEBYE)
    -0.342234    1.933050    0.652790    2.068802

 FRAGMENT   2  NO3   
          X           Y           Z (BOHR)    CHARGE
    -0.080912   -4.587453   -0.443192       -1.00 (A.U.)
         DX          DY          DZ         /D/  (DEBYE)
     0.098586    9.148312    0.878033    9.190880

          ----------------------------
          SYSTEM ELECTROSTATIC MOMENTS
          ----------------------------

 CENTER              X           Y           Z (BOHR)    CHARGE
               -0.093716   -3.282060   -0.274014       -1.00 (A.U.)
         DX          DY          DZ         /D/  (DEBYE)
    -0.243648   11.081362    1.530823   11.189252


          NSERCH=  6     ENERGY=      -0.1843817
  EFP           TOTAL GRADIENT                           TORQUES
    1  -0.0021226 -0.0007885  0.0022882    -0.0058307  0.0001558 -0.0082013
    2   0.0021226  0.0007885 -0.0022882    -0.0080152  0.0013076 -0.0041383

          MAXIMUM GRADIENT = 0.0082013    RMS GRADIENT = 0.0041341

 NSERCH:   6  E=       -0.1843816797  GRAD. MAX=  0.0082013  R.M.S.=  0.0041341

          HESSIAN UPDATED USING THE BFGS FORMULA
             ACTUAL ENERGY CHANGE WAS   0.0000187539
          PREDICTED ENERGY CHANGE WAS  -0.0015244276 RATIO= -0.012
          MIN SEARCH, CORRECT HESSIAN, TRYING PURE NR STEP
               NR STEP HAS LENGTH         =   0.327632
          TRIM/QA LAMBDA FOR NON-TS MODES =  -0.06942628
          TRIM/QA STEP HAS LENGTH         =   0.106066
          RADIUS OF STEP TAKEN=   0.10607  CURRENT TRUST RADIUS=   0.10607

 BEGINNING GEOMETRY SEARCH POINT NSERCH=   7 ...

  
 COORDINATES OF FRAGMENT MULTIPOLE CENTERS (ANGS)
 MULTIPOLE NAME        X              Y              Z
 ------------------------------------------------------------
 FRAGNAME=H4N   
 N1               -0.0625474115   0.6620747619   0.1600463886
 H2                0.6730331483   1.2744280560  -0.1415908164
 H3               -0.8025952861   1.1797072384   0.5976271349
 H4               -0.4114694769   0.0668794020  -0.6089172183
 H5                0.2902533849  -0.0946048204   0.7669689950
 FRAGNAME=NO3   
 N1               -0.0577014293  -2.4643166745  -0.2303686684
 O2               -0.2795058180  -3.6313802281  -0.2362212826
 O3                0.5669904409  -1.9335013775   0.7088958651
 O4               -0.4428274890  -1.7325719114  -1.1639046495

                 --------------------------------------
                 FRAGMENT-FRAGMENT INTERACTION ENERGIES
                 --------------------------------------

                 CHARGE-CHARGE         =  -0.1784398970
                 CHARGE-DIPOLE         =  -0.0081397931
                 CHARGE-QUADRUPOLE     =  -0.0044624192
                 CHARGE-OCTUPOLE       =   0.0006804977
                 DIPOLE-DIPOLE         =  -0.0003323602
                 DIPOLE-QUADRUPOLE     =  -0.0000507846
                 QUADRUPOLE-QUADRUPOLE =   0.0000371387
                 OVERLAP PEN. ENERGY   =   0.0000000000
                                         --------------
                 ELECTROSTATIC ENERGY  =  -0.1907076178
                 REPULSION ENERGY      =   0.0327179366
                 POLARIZATION ENERGY   =  -0.0204877756
                 CHARGE TRANSFER ENRGY =  -0.0067341556
                 --------------------------------------
                 FINAL EFP ENERGY      =  -0.1852116124


          ----------------------------------------
          EFFECTIVE FRAGMENT ELECTROSTATIC MOMENTS
          ----------------------------------------

 FRAGMENT   1  H4N   
          X           Y           Z (BOHR)    CHARGE
    -0.118260    1.227707    0.299688        1.00 (A.U.)
         DX          DY          DZ         /D/  (DEBYE)
    -0.256428    1.985523    0.626323    2.097698

 FRAGMENT   2  NO3   
          X           Y           Z (BOHR)    CHARGE
    -0.100379   -4.610318   -0.435394       -1.00 (A.U.)
         DX          DY          DZ         /D/  (DEBYE)
     0.148081    9.194421    0.835851    9.233523

          ----------------------------
          SYSTEM ELECTROSTATIC MOMENTS
          ----------------------------

 CENTER              X           Y           Z (BOHR)    CHARGE
               -0.104409   -3.294619   -0.269731       -1.00 (A.U.)
         DX          DY          DZ         /D/  (DEBYE)
    -0.108347   11.179944    1.462174   11.275674


          NSERCH=  7     ENERGY=      -0.1852116
  EFP           TOTAL GRADIENT                           TORQUES
    1  -0.0000446  0.0013261  0.0018271    -0.0028160 -0.0003377 -0.0022204
    2   0.0000446 -0.0013261 -0.0018271    -0.0068758  0.0003378  0.0019840

          MAXIMUM GRADIENT = 0.0068758    RMS GRADIENT = 0.0024916

 NSERCH:   7  E=       -0.1852116124  GRAD. MAX=  0.0068758  R.M.S.=  0.0024916

          HESSIAN UPDATED USING THE BFGS FORMULA
             ACTUAL ENERGY CHANGE WAS  -0.0008299327
          PREDICTED ENERGY CHANGE WAS  -0.0010585993 RATIO=  0.784
          MIN SEARCH, CORRECT HESSIAN, TRYING PURE NR STEP
               NR STEP HAS LENGTH         =   0.178791
          TRIM/QA LAMBDA FOR NON-TS MODES =  -0.00285559
          TRIM/QA STEP HAS LENGTH         =   0.150000
          RADIUS OF STEP TAKEN=   0.15000  CURRENT TRUST RADIUS=   0.15000

 BEGINNING GEOMETRY SEARCH POINT NSERCH=   8 ...

  
 COORDINATES OF FRAGMENT MULTIPOLE CENTERS (ANGS)
 MULTIPOLE NAME        X              Y              Z
 ------------------------------------------------------------
 FRAGNAME=H4N   
 N1               -0.0635327288   0.6521593268   0.1490859534
 H2                0.6406712897   1.3230796230  -0.0979018532
 H3               -0.8027666824   1.0848887785   0.6719334745
 H4               -0.4218382550   0.1443600085  -0.6761813701
 H5                0.3352394775  -0.1605351565   0.6449648164
 FRAGNAME=NO3   
 N1               -0.0580642289  -2.4544730414  -0.2180468098
 O2               -0.3275148671  -3.6113936916  -0.2321797657
 O3                0.5558933793  -1.9492093657   0.7421549135
 O4               -0.3808901262  -1.7081339407  -1.1635748607

                 --------------------------------------
                 FRAGMENT-FRAGMENT INTERACTION ENERGIES
                 --------------------------------------

                 CHARGE-CHARGE         =  -0.1792596853
                 CHARGE-DIPOLE         =  -0.0083009568
                 CHARGE-QUADRUPOLE     =  -0.0047551060
                 CHARGE-OCTUPOLE       =   0.0007450753
                 DIPOLE-DIPOLE         =  -0.0003529842
                 DIPOLE-QUADRUPOLE     =  -0.0001047356
                 QUADRUPOLE-QUADRUPOLE =   0.0000271521
                 OVERLAP PEN. ENERGY   =   0.0000000000
                                         --------------
                 ELECTROSTATIC ENERGY  =  -0.1920012405
                 REPULSION ENERGY      =   0.0349917957
                 POLARIZATION ENERGY   =  -0.0211090899
                 CHARGE TRANSFER ENRGY =  -0.0070264010
                 --------------------------------------
                 FINAL EFP ENERGY      =  -0.1851449357


          ----------------------------------------
          EFFECTIVE FRAGMENT ELECTROSTATIC MOMENTS
          ----------------------------------------

 FRAGMENT   1  H4N   
          X           Y           Z (BOHR)    CHARGE
    -0.119485    1.209503    0.276079        1.00 (A.U.)
         DX          DY          DZ         /D/  (DEBYE)
    -0.216791    1.932453    0.519693    2.012822

 FRAGMENT   2  NO3   
          X           Y           Z (BOHR)    CHARGE
    -0.099154   -4.592113   -0.411785       -1.00 (A.U.)
         DX          DY          DZ         /D/  (DEBYE)
     0.084791    9.130409    0.797803    9.165590

          ----------------------------
          SYSTEM ELECTROSTATIC MOMENTS
          ----------------------------

 CENTER              X           Y           Z (BOHR)    CHARGE
               -0.103736   -3.284620   -0.256763       -1.00 (A.U.)
         DX          DY          DZ         /D/  (DEBYE)
    -0.132000   11.062861    1.317496   11.141819


          NSERCH=  8     ENERGY=      -0.1851449
  EFP           TOTAL GRADIENT                           TORQUES
    1  -0.0005140 -0.0012081 -0.0016826     0.0046337  0.0015131 -0.0009454
    2   0.0005140  0.0012081  0.0016826     0.0042969 -0.0011254 -0.0020610

          MAXIMUM GRADIENT = 0.0046337    RMS GRADIENT = 0.0021936

 NSERCH:   8  E=       -0.1851449357  GRAD. MAX=  0.0046337  R.M.S.=  0.0021936

          HESSIAN UPDATED USING THE BFGS FORMULA
             ACTUAL ENERGY CHANGE WAS   0.0000666767
          PREDICTED ENERGY CHANGE WAS  -0.0003646486 RATIO= -0.183
          MIN SEARCH, CORRECT HESSIAN, TRYING PURE NR STEP
               NR STEP HAS LENGTH         =   0.143452
          TRIM/QA LAMBDA FOR NON-TS MODES =  -0.02484692
          TRIM/QA STEP HAS LENGTH         =   0.075000
          RADIUS OF STEP TAKEN=   0.07500  CURRENT TRUST RADIUS=   0.07500

 BEGINNING GEOMETRY SEARCH POINT NSERCH=   9 ...

  
 COORDINATES OF FRAGMENT MULTIPOLE CENTERS (ANGS)
 MULTIPOLE NAME        X              Y              Z
 ------------------------------------------------------------
 FRAGNAME=H4N   
 N1               -0.0611023657   0.6533381665   0.1540557107
 H2                0.6331364373   1.3249338385  -0.1180326168
 H3               -0.8224588111   1.0990312968   0.6323706107
 H4               -0.3876914260   0.0872819397  -0.6460874557
 H5                0.3443303346  -0.1174125438   0.7080910079
 FRAGNAME=NO3   
 N1               -0.0606838394  -2.4555393970  -0.2236746007
 O2               -0.3225979681  -3.6142400329  -0.2327632406
 O3                0.5684105903  -1.9462056227   0.7245036426
 O4               -0.4068117407  -1.7113471986  -1.1626289959

                 --------------------------------------
                 FRAGMENT-FRAGMENT INTERACTION ENERGIES
                 --------------------------------------

                 CHARGE-CHARGE         =  -0.1792678150
                 CHARGE-DIPOLE         =  -0.0083117033
                 CHARGE-QUADRUPOLE     =  -0.0046741924
                 CHARGE-OCTUPOLE       =   0.0007076142
                 DIPOLE-DIPOLE         =  -0.0003617521
                 DIPOLE-QUADRUPOLE     =  -0.0000646283
                 QUADRUPOLE-QUADRUPOLE =   0.0000364542
                 OVERLAP PEN. ENERGY   =   0.0000000000
                                         --------------
                 ELECTROSTATIC ENERGY  =  -0.1919360226
                 REPULSION ENERGY      =   0.0346272893
                 POLARIZATION ENERGY   =  -0.0210422444
                 CHARGE TRANSFER ENRGY =  -0.0070328729
                 --------------------------------------
                 FINAL EFP ENERGY      =  -0.1853838506


          ----------------------------------------
          EFFECTIVE FRAGMENT ELECTROSTATIC MOMENTS
          ----------------------------------------

 FRAGMENT   1  H4N   
          X           Y           Z (BOHR)    CHARGE
    -0.114228    1.211448    0.286911        1.00 (A.U.)
         DX          DY          DZ         /D/  (DEBYE)
    -0.206188    1.938726    0.551666    2.026205

 FRAGMENT   2  NO3   
          X           Y           Z (BOHR)    CHARGE
    -0.104410   -4.594059   -0.422618       -1.00 (A.U.)
         DX          DY          DZ         /D/  (DEBYE)
     0.110367    9.129119    0.837039    9.168077

          ----------------------------
          SYSTEM ELECTROSTATIC MOMENTS
          ----------------------------

 CENTER              X           Y           Z (BOHR)    CHARGE
               -0.106623   -3.285688   -0.262713       -1.00 (A.U.)
         DX          DY          DZ         /D/  (DEBYE)
    -0.095821   11.067845    1.388705   11.155038


          NSERCH=  9     ENERGY=      -0.1853839
  EFP           TOTAL GRADIENT                           TORQUES
    1  -0.0000351 -0.0004957 -0.0003612     0.0006887  0.0002795  0.0005679
    2   0.0000351  0.0004957  0.0003612     0.0010563 -0.0002510 -0.0007767

          MAXIMUM GRADIENT = 0.0010563    RMS GRADIENT = 0.0005332

 NSERCH:   9  E=       -0.1853838506  GRAD. MAX=  0.0010563  R.M.S.=  0.0005332

          HESSIAN UPDATED USING THE BFGS FORMULA
             ACTUAL ENERGY CHANGE WAS  -0.0002389149
          PREDICTED ENERGY CHANGE WAS  -0.0002823927 RATIO=  0.846
          MIN SEARCH, CORRECT HESSIAN, TRYING PURE NR STEP
               NR STEP HAS LENGTH         =   0.063186
          RADIUS OF STEP TAKEN=   0.06319  CURRENT TRUST RADIUS=   0.10607

 BEGINNING GEOMETRY SEARCH POINT NSERCH=  10 ...

  
 COORDINATES OF FRAGMENT MULTIPOLE CENTERS (ANGS)
 MULTIPOLE NAME        X              Y              Z
 ------------------------------------------------------------
 FRAGNAME=H4N   
 N1               -0.0618395320   0.6607643673   0.1553619037
 H2                0.6655598976   1.2975327588  -0.1138153719
 H3               -0.8090297052   1.1454259738   0.6178563568
 H4               -0.4023048932   0.1008762969  -0.6433356857
 H5                0.3008367990  -0.1210368230   0.7233761818
 FRAGNAME=NO3   
 N1               -0.0586628035  -2.4630812355  -0.2251642209
 O2               -0.2845209460  -3.6293294528  -0.2362083605
 O3                0.5693117788  -1.9388975798   0.7156344266
 O4               -0.4426870437  -1.7255826768  -1.1546173759

                 --------------------------------------
                 FRAGMENT-FRAGMENT INTERACTION ENERGIES
                 --------------------------------------

                 CHARGE-CHARGE         =  -0.1787654125
                 CHARGE-DIPOLE         =  -0.0082849194
                 CHARGE-QUADRUPOLE     =  -0.0045280548
                 CHARGE-OCTUPOLE       =   0.0007218509
                 DIPOLE-DIPOLE         =  -0.0003493224
                 DIPOLE-QUADRUPOLE     =  -0.0000573347
                 QUADRUPOLE-QUADRUPOLE =   0.0000357997
                 OVERLAP PEN. ENERGY   =   0.0000000000
                                         --------------
                 ELECTROSTATIC ENERGY  =  -0.1912273932
                 REPULSION ENERGY      =   0.0333783731
                 POLARIZATION ENERGY   =  -0.0206792792
                 CHARGE TRANSFER ENRGY =  -0.0068284102
                 --------------------------------------
                 FINAL EFP ENERGY      =  -0.1853567096


          ----------------------------------------
          EFFECTIVE FRAGMENT ELECTROSTATIC MOMENTS
          ----------------------------------------

 FRAGMENT   1  H4N   
          X           Y           Z (BOHR)    CHARGE
    -0.116604    1.225403    0.289645        1.00 (A.U.)
         DX          DY          DZ         /D/  (DEBYE)
    -0.237131    1.976675    0.583395    2.074567

 FRAGMENT   2  NO3   
          X           Y           Z (BOHR)    CHARGE
    -0.102035   -4.608014   -0.425352       -1.00 (A.U.)
         DX          DY          DZ         /D/  (DEBYE)
     0.138972    9.179190    0.816576    9.216487

          ----------------------------
          SYSTEM ELECTROSTATIC MOMENTS
          ----------------------------

 CENTER              X           Y           Z (BOHR)    CHARGE
               -0.105318   -3.293353   -0.264215       -1.00 (A.U.)
         DX          DY          DZ         /D/  (DEBYE)
    -0.098159   11.155866    1.399971   11.243793


          NSERCH= 10     ENERGY=      -0.1853567
  EFP           TOTAL GRADIENT                           TORQUES
    1  -0.0000274  0.0009107  0.0004769     0.0002533 -0.0005312 -0.0013798
    2   0.0000274 -0.0009107 -0.0004769    -0.0023840  0.0005438  0.0012331

          MAXIMUM GRADIENT = 0.0023840    RMS GRADIENT = 0.0009943

 NSERCH:  10  E=       -0.1853567096  GRAD. MAX=  0.0023840  R.M.S.=  0.0009943

          HESSIAN UPDATED USING THE BFGS FORMULA
             ACTUAL ENERGY CHANGE WAS   0.0000271410
          PREDICTED ENERGY CHANGE WAS  -0.0000377514 RATIO= -0.719
          MIN SEARCH, CORRECT HESSIAN, TRYING PURE NR STEP
               NR STEP HAS LENGTH         =   0.042938
          RADIUS OF STEP TAKEN=   0.04294  CURRENT TRUST RADIUS=   0.05000

 BEGINNING GEOMETRY SEARCH POINT NSERCH=  11 ...

  
 COORDINATES OF FRAGMENT MULTIPOLE CENTERS (ANGS)
 MULTIPOLE NAME        X              Y              Z
 ------------------------------------------------------------
 FRAGNAME=H4N   
 N1               -0.0608939751   0.6566045760   0.1555118300
 H2                0.6447518710   1.3086331490  -0.1342518666
 H3               -0.8114072012   1.1272126707   0.6270508694
 H4               -0.4018944138   0.0794355679  -0.6305567356
 H5                0.3323314617  -0.1093899466   0.7247337460
 FRAGNAME=NO3   
 N1               -0.0601804665  -2.4588475409  -0.2255941077
 O2               -0.2999126271  -3.6222311496  -0.2439202631
 O3                0.5545490357  -1.9442410421   0.7291364651
 O4               -0.4159377443  -1.7148648883  -1.1611091960

                 --------------------------------------
                 FRAGMENT-FRAGMENT INTERACTION ENERGIES
                 --------------------------------------

                 CHARGE-CHARGE         =  -0.1791583357
                 CHARGE-DIPOLE         =  -0.0083310025
                 CHARGE-QUADRUPOLE     =  -0.0046107348
                 CHARGE-OCTUPOLE       =   0.0007119952
                 DIPOLE-DIPOLE         =  -0.0003573498
                 DIPOLE-QUADRUPOLE     =  -0.0000605355
                 QUADRUPOLE-QUADRUPOLE =   0.0000373283
                 OVERLAP PEN. ENERGY   =   0.0000000000
                                         --------------
                 ELECTROSTATIC ENERGY  =  -0.1917686348
                 REPULSION ENERGY      =   0.0342531133
                 POLARIZATION ENERGY   =  -0.0209041598
                 CHARGE TRANSFER ENRGY =  -0.0069740542
                 --------------------------------------
                 FINAL EFP ENERGY      =  -0.1853937354


          ----------------------------------------
          EFFECTIVE FRAGMENT ELECTROSTATIC MOMENTS
          ----------------------------------------

 FRAGMENT   1  H4N   
          X           Y           Z (BOHR)    CHARGE
    -0.114296    1.217514    0.290171        1.00 (A.U.)
         DX          DY          DZ         /D/  (DEBYE)
    -0.223750    1.953333    0.573970    2.048173

 FRAGMENT   2  NO3   
          X           Y           Z (BOHR)    CHARGE
    -0.104343   -4.600125   -0.425877       -1.00 (A.U.)
         DX          DY          DZ         /D/  (DEBYE)
     0.135966    9.147640    0.828495    9.186087

          ----------------------------
          SYSTEM ELECTROSTATIC MOMENTS
          ----------------------------

 CENTER              X           Y           Z (BOHR)    CHARGE
               -0.106586   -3.289020   -0.264504       -1.00 (A.U.)
         DX          DY          DZ         /D/  (DEBYE)
    -0.087783   11.100972    1.402465   11.189558


          NSERCH= 11     ENERGY=      -0.1853937
  EFP           TOTAL GRADIENT                           TORQUES
    1   0.0000838 -0.0000976  0.0001113    -0.0003922  0.0004699  0.0000022
    2  -0.0000838  0.0000976 -0.0001113    -0.0003250 -0.0005310  0.0004845

          MAXIMUM GRADIENT = 0.0005310    RMS GRADIENT = 0.0002965

 NSERCH:  11  E=       -0.1853937354  GRAD. MAX=  0.0005310  R.M.S.=  0.0002965

          HESSIAN UPDATED USING THE BFGS FORMULA
             ACTUAL ENERGY CHANGE WAS  -0.0000370258
          PREDICTED ENERGY CHANGE WAS  -0.0000466687 RATIO=  0.793
          MIN SEARCH, CORRECT HESSIAN, TRYING PURE NR STEP
               NR STEP HAS LENGTH         =   0.055401
          RADIUS OF STEP TAKEN=   0.05540  CURRENT TRUST RADIUS=   0.06072

 BEGINNING GEOMETRY SEARCH POINT NSERCH=  12 ...

  
 COORDINATES OF FRAGMENT MULTIPOLE CENTERS (ANGS)
 MULTIPOLE NAME        X              Y              Z
 ------------------------------------------------------------
 FRAGNAME=H4N   
 N1               -0.0609374493   0.6525025187   0.1538974453
 H2                0.6371858426   1.3263378618  -0.1022472793
 H3               -0.8348534985   1.0958362807   0.6138977400
 H4               -0.3666833027   0.0848572222  -0.6533246080
 H5                0.3340170408  -0.1165205915   0.7178139720
 FRAGNAME=NO3   
 N1               -0.0609594733  -2.4547011149  -0.2234386843
 O2               -0.3238116818  -3.6132174804  -0.2276010685
 O3                0.5897824557  -1.9466249617   0.7107006203
 O4               -0.4277336982  -1.7094498539  -1.1536747481

                 --------------------------------------
                 FRAGMENT-FRAGMENT INTERACTION ENERGIES
                 --------------------------------------

                 CHARGE-CHARGE         =  -0.1793176999
                 CHARGE-DIPOLE         =  -0.0083094336
                 CHARGE-QUADRUPOLE     =  -0.0046898963
                 CHARGE-OCTUPOLE       =   0.0006999003
                 DIPOLE-DIPOLE         =  -0.0003608419
                 DIPOLE-QUADRUPOLE     =  -0.0000638518
                 QUADRUPOLE-QUADRUPOLE =   0.0000368579
                 OVERLAP PEN. ENERGY   =   0.0000000000
                                         --------------
                 ELECTROSTATIC ENERGY  =  -0.1920049653
                 REPULSION ENERGY      =   0.0347685851
                 POLARIZATION ENERGY   =  -0.0210730993
                 CHARGE TRANSFER ENRGY =  -0.0070522299
                 --------------------------------------
                 FINAL EFP ENERGY      =  -0.1853617094


          ----------------------------------------
          EFFECTIVE FRAGMENT ELECTROSTATIC MOMENTS
          ----------------------------------------

 FRAGMENT   1  H4N   
          X           Y           Z (BOHR)    CHARGE
    -0.113738    1.209871    0.286658        1.00 (A.U.)
         DX          DY          DZ         /D/  (DEBYE)
    -0.203809    1.935214    0.544579    2.020683

 FRAGMENT   2  NO3   
          X           Y           Z (BOHR)    CHARGE
    -0.104901   -4.592481   -0.422364       -1.00 (A.U.)
         DX          DY          DZ         /D/  (DEBYE)
     0.113447    9.122376    0.849335    9.162532

          ----------------------------
          SYSTEM ELECTROSTATIC MOMENTS
          ----------------------------

 CENTER              X           Y           Z (BOHR)    CHARGE
               -0.106892   -3.284822   -0.262574       -1.00 (A.U.)
         DX          DY          DZ         /D/  (DEBYE)
    -0.090362   11.057591    1.393914   11.145469


          NSERCH= 12     ENERGY=      -0.1853617
  EFP           TOTAL GRADIENT                           TORQUES
    1  -0.0000952 -0.0006790 -0.0005525     0.0005978 -0.0009385  0.0006677
    2   0.0000952  0.0006790  0.0005525     0.0021266  0.0010108 -0.0012260

          MAXIMUM GRADIENT = 0.0021266    RMS GRADIENT = 0.0009256

 NSERCH:  12  E=       -0.1853617094  GRAD. MAX=  0.0021266  R.M.S.=  0.0009256

          HESSIAN UPDATED USING THE BFGS FORMULA
             ACTUAL ENERGY CHANGE WAS   0.0000320260
          PREDICTED ENERGY CHANGE WAS  -0.0000213196 RATIO= -1.502
          MIN SEARCH, CORRECT HESSIAN, TRYING PURE NR STEP
               NR STEP HAS LENGTH         =   0.038439
          RADIUS OF STEP TAKEN=   0.03844  CURRENT TRUST RADIUS=   0.05000

 BEGINNING GEOMETRY SEARCH POINT NSERCH=  13 ...

  
 COORDINATES OF FRAGMENT MULTIPOLE CENTERS (ANGS)
 MULTIPOLE NAME        X              Y              Z
 ------------------------------------------------------------
 FRAGNAME=H4N   
 N1               -0.0611703763   0.6563760148   0.1550859727
 H2                0.6444399702   1.3138803311  -0.1221187046
 H3               -0.8178427043   1.1195696500   0.6241166661
 H4               -0.3926633572   0.0852504355  -0.6394183566
 H5                0.3299533330  -0.1133541105   0.7207052974
 FRAGNAME=NO3   
 N1               -0.0601291947  -2.4586081733  -0.2249169808
 O2               -0.3073869747  -3.6205017972  -0.2365606455
 O3                0.5667386382  -1.9443378722   0.7220705870
 O4               -0.4198890019  -1.7159011279  -1.1599148601

                 --------------------------------------
                 FRAGMENT-FRAGMENT INTERACTION ENERGIES
                 --------------------------------------

                 CHARGE-CHARGE         =  -0.1790731650
                 CHARGE-DIPOLE         =  -0.0083045271
                 CHARGE-QUADRUPOLE     =  -0.0046150732
                 CHARGE-OCTUPOLE       =   0.0007083603
                 DIPOLE-DIPOLE         =  -0.0003569460
                 DIPOLE-QUADRUPOLE     =  -0.0000604889
                 QUADRUPOLE-QUADRUPOLE =   0.0000368283
                 OVERLAP PEN. ENERGY   =   0.0000000000
                                         --------------
                 ELECTROSTATIC ENERGY  =  -0.1916650115
                 REPULSION ENERGY      =   0.0341147473
                 POLARIZATION ENERGY   =  -0.0208945788
                 CHARGE TRANSFER ENRGY =  -0.0069558461
                 --------------------------------------
                 FINAL EFP ENERGY      =  -0.1854006891


          ----------------------------------------
          EFFECTIVE FRAGMENT ELECTROSTATIC MOMENTS
          ----------------------------------------

 FRAGMENT   1  H4N   
          X           Y           Z (BOHR)    CHARGE
    -0.114690    1.217121    0.289156        1.00 (A.U.)
         DX          DY          DZ         /D/  (DEBYE)
    -0.218730    1.954006    0.567183    2.046382

 FRAGMENT   2  NO3   
          X           Y           Z (BOHR)    CHARGE
    -0.103948   -4.599732   -0.424863       -1.00 (A.U.)
         DX          DY          DZ         /D/  (DEBYE)
     0.125593    9.148436    0.833260    9.187164

          ----------------------------
          SYSTEM ELECTROSTATIC MOMENTS
          ----------------------------

 CENTER              X           Y           Z (BOHR)    CHARGE
               -0.106369   -3.288804   -0.263946       -1.00 (A.U.)
         DX          DY          DZ         /D/  (DEBYE)
    -0.093137   11.102442    1.400443   11.190806


          NSERCH= 13     ENERGY=      -0.1854007
  EFP           TOTAL GRADIENT                           TORQUES
    1  -0.0000054  0.0000968  0.0000465     0.0000480  0.0000144 -0.0000129
    2   0.0000054 -0.0000968 -0.0000465    -0.0002494 -0.0000110 -0.0000175

          MAXIMUM GRADIENT = 0.0002494    RMS GRADIENT = 0.0000859

 NSERCH:  13  E=       -0.1854006891  GRAD. MAX=  0.0002494  R.M.S.=  0.0000859

          HESSIAN UPDATED USING THE BFGS FORMULA
             ACTUAL ENERGY CHANGE WAS  -0.0000389797
          PREDICTED ENERGY CHANGE WAS  -0.0000395523 RATIO=  0.986
          MIN SEARCH, CORRECT HESSIAN, TRYING PURE NR STEP
               NR STEP HAS LENGTH         =   0.004221
          RADIUS OF STEP TAKEN=   0.00422  CURRENT TRUST RADIUS=   0.07688

 BEGINNING GEOMETRY SEARCH POINT NSERCH=  14 ...

  
 COORDINATES OF FRAGMENT MULTIPOLE CENTERS (ANGS)
 MULTIPOLE NAME        X              Y              Z
 ------------------------------------------------------------
 FRAGNAME=H4N   
 N1               -0.0610494486   0.6561403592   0.1550517098
 H2                0.6454906912   1.3120949985  -0.1234529798
 H3               -0.8172737436   1.1213898814   0.6227683383
 H4               -0.3930260470   0.0836001313  -0.6382315803
 H5                0.3289091881  -0.1127774481   0.7225771364
 FRAGNAME=NO3   
 N1               -0.0601751100  -2.4583793397  -0.2249609233
 O2               -0.3045986363  -3.6208466452  -0.2389495384
 O3                0.5656011193  -1.9445266106   0.7229748128
 O4               -0.4219096134  -1.7146337847  -1.1583700547

                 --------------------------------------
                 FRAGMENT-FRAGMENT INTERACTION ENERGIES
                 --------------------------------------

                 CHARGE-CHARGE         =  -0.1791479013
                 CHARGE-DIPOLE         =  -0.0083235930
                 CHARGE-QUADRUPOLE     =  -0.0046205144
                 CHARGE-OCTUPOLE       =   0.0007103243
                 DIPOLE-DIPOLE         =  -0.0003578111
                 DIPOLE-QUADRUPOLE     =  -0.0000607485
                 QUADRUPOLE-QUADRUPOLE =   0.0000370561
                 OVERLAP PEN. ENERGY   =   0.0000000000
                                         --------------
                 ELECTROSTATIC ENERGY  =  -0.1917631878
                 REPULSION ENERGY      =   0.0342612581
                 POLARIZATION ENERGY   =  -0.0209219522
                 CHARGE TRANSFER ENRGY =  -0.0069768809
                 --------------------------------------
                 FINAL EFP ENERGY      =  -0.1854007629


          ----------------------------------------
          EFFECTIVE FRAGMENT ELECTROSTATIC MOMENTS
          ----------------------------------------

 FRAGMENT   1  H4N   
          X           Y           Z (BOHR)    CHARGE
    -0.114490    1.216666    0.289146        1.00 (A.U.)
         DX          DY          DZ         /D/  (DEBYE)
    -0.220464    1.951868    0.567088    2.044501

 FRAGMENT   2  NO3   
          X           Y           Z (BOHR)    CHARGE
    -0.104148   -4.599276   -0.424852       -1.00 (A.U.)
         DX          DY          DZ         /D/  (DEBYE)
     0.130275    9.145156    0.832635    9.183906

          ----------------------------
          SYSTEM ELECTROSTATIC MOMENTS
          ----------------------------

 CENTER              X           Y           Z (BOHR)    CHARGE
               -0.106479   -3.288554   -0.263940       -1.00 (A.U.)
         DX          DY          DZ         /D/  (DEBYE)
    -0.090190   11.097024    1.399724   11.185317


          NSERCH= 14     ENERGY=      -0.1854008
  EFP           TOTAL GRADIENT                           TORQUES
    1   0.0000111 -0.0000771 -0.0000271    -0.0000336 -0.0000118 -0.0000022
    2  -0.0000111  0.0000771  0.0000271     0.0001363  0.0000042  0.0000658

          MAXIMUM GRADIENT = 0.0001363    RMS GRADIENT = 0.0000561

 NSERCH:  14  E=       -0.1854007629  GRAD. MAX=  0.0001363  R.M.S.=  0.0000561

          HESSIAN UPDATED USING THE BFGS FORMULA
             ACTUAL ENERGY CHANGE WAS  -0.0000000738
          PREDICTED ENERGY CHANGE WAS  -0.0000003738 RATIO=  0.197
          MIN SEARCH, CORRECT HESSIAN, TRYING PURE NR STEP
               NR STEP HAS LENGTH         =   0.002091
          RADIUS OF STEP TAKEN=   0.00209  CURRENT TRUST RADIUS=   0.05000

 BEGINNING GEOMETRY SEARCH POINT NSERCH=  15 ...

  
 COORDINATES OF FRAGMENT MULTIPOLE CENTERS (ANGS)
 MULTIPOLE NAME        X              Y              Z
 ------------------------------------------------------------
 FRAGNAME=H4N   
 N1               -0.0611061670   0.6562110160   0.1550651497
 H2                0.6448680798   1.3130149194  -0.1228724613
 H3               -0.8176326793   1.1203770150   0.6233692265
 H4               -0.3927427496   0.0842175114  -0.6387545784
 H5                0.3295511924  -0.1129750436   0.7217459025
 FRAGNAME=NO3   
 N1               -0.0601602289  -2.4584459005  -0.2249392278
 O2               -0.3061128534  -3.6206029618  -0.2378639888
 O3                0.5662125924  -1.9445331165   0.7225698303
 O4               -0.4208370407  -1.7150960939  -1.1590726287

                 --------------------------------------
                 FRAGMENT-FRAGMENT INTERACTION ENERGIES
                 --------------------------------------

                 CHARGE-CHARGE         =  -0.1791151524
                 CHARGE-DIPOLE         =  -0.0083148217
                 CHARGE-QUADRUPOLE     =  -0.0046188751
                 CHARGE-OCTUPOLE       =   0.0007091738
                 DIPOLE-DIPOLE         =  -0.0003574473
                 DIPOLE-QUADRUPOLE     =  -0.0000606719
                 QUADRUPOLE-QUADRUPOLE =   0.0000369562
                 OVERLAP PEN. ENERGY   =   0.0000000000
                                         --------------
                 ELECTROSTATIC ENERGY  =  -0.1917208384
                 REPULSION ENERGY      =   0.0341990963
                 POLARIZATION ENERGY   =  -0.0209110031
                 CHARGE TRANSFER ENRGY =  -0.0069681552
                 --------------------------------------
                 FINAL EFP ENERGY      =  -0.1854009005


          ----------------------------------------
          EFFECTIVE FRAGMENT ELECTROSTATIC MOMENTS
          ----------------------------------------

 FRAGMENT   1  H4N   
          X           Y           Z (BOHR)    CHARGE
    -0.114580    1.216804    0.289147        1.00 (A.U.)
         DX          DY          DZ         /D/  (DEBYE)
    -0.219594    1.952672    0.566938    2.045133

 FRAGMENT   2  NO3   
          X           Y           Z (BOHR)    CHARGE
    -0.104059   -4.599415   -0.424854       -1.00 (A.U.)
         DX          DY          DZ         /D/  (DEBYE)
     0.128016    9.146407    0.833169    9.185168

          ----------------------------
          SYSTEM ELECTROSTATIC MOMENTS
          ----------------------------

 CENTER              X           Y           Z (BOHR)    CHARGE
               -0.106430   -3.288630   -0.263941       -1.00 (A.U.)
         DX          DY          DZ         /D/  (DEBYE)
    -0.091578   11.099079    1.400108   11.187414


          NSERCH= 15     ENERGY=      -0.1854009
  EFP           TOTAL GRADIENT                           TORQUES
    1   0.0000004 -0.0000028  0.0000003     0.0000002  0.0000007  0.0000000
    2  -0.0000004  0.0000028 -0.0000003    -0.0000041 -0.0000010  0.0000024

          MAXIMUM GRADIENT = 0.0000041    RMS GRADIENT = 0.0000018

 NSERCH:  15  E=       -0.1854009005  GRAD. MAX=  0.0000041  R.M.S.=  0.0000018


      ***** EQUILIBRIUM GEOMETRY LOCATED *****
  
 COORDINATES OF FRAGMENT MULTIPOLE CENTERS (ANGS)
 MULTIPOLE NAME        X              Y              Z
 ------------------------------------------------------------
 FRAGNAME=H4N   
 N1               -0.0611061670   0.6562110160   0.1550651497
 H2                0.6448680798   1.3130149194  -0.1228724613
 H3               -0.8176326793   1.1203770150   0.6233692265
 H4               -0.3927427496   0.0842175114  -0.6387545784
 H5                0.3295511924  -0.1129750436   0.7217459025
 FRAGNAME=NO3   
 N1               -0.0601602289  -2.4584459005  -0.2249392278
 O2               -0.3061128534  -3.6206029618  -0.2378639888
 O3                0.5662125924  -1.9445331165   0.7225698303
 O4               -0.4208370407  -1.7150960939  -1.1590726287

     EFFECTIVE FRAGMENT CALCULATION'S TOTAL ENERGY=  -0.1854009005
  $VIB   
          IVIB=   0 IATOM=   0 ICOORD=   0 E=       -0.1854009005
 4.262357242E-07-2.808742392E-06 3.215754385E-07
 2.057672788E-07 6.809950604E-07 2.669054203E-08
-4.262357242E-07 2.808742392E-06-3.215754385E-07
-4.081564949E-06-9.887108571E-07 2.422840515E-06
  0.000000000E+00 0.000000000E+00 0.000000000E+00
 ......END OF GEOMETRY SEARCH......
 STEP CPU TIME =     6.02 TOTAL CPU TIME =        6.3 (    0.1 MIN)
 TOTAL WALL CLOCK TIME=        6.3 SECONDS, CPU UTILIZATION IS  99.52%
              1011212  WORDS OF DYNAMIC MEMORY USED
 EXECUTION OF GAMESS TERMINATED NORMALLY Fri Jun  2 04:52:19 2017
 DDI: 263640 bytes (0.3 MB / 0 MWords) used by master data server.

 ----------------------------------------
 CPU timing information for all processes
 ========================================
 0: 6.260 + 0.19 = 6.280
 ----------------------------------------
 ddikick.x: exited gracefully.
unset echo
----- accounting info -----
Files used on the master node compute-0-8.local were:
-rw-rw-r-- 1 sarom sarom 312948 Jun  2 04:52 /scratch/efp2-1nh4-1no3.F05
-rw-rw-r-- 1 sarom sarom      0 Jun  2 04:52 /scratch/efp2-1nh4-1no3.F08
-rw-rw-r-- 1 sarom sarom 458080 Jun  2 04:52 /scratch/efp2-1nh4-1no3.F10
-rw-rw-r-- 1 sarom sarom      0 Jun  2 04:52 /scratch/efp2-1nh4-1no3.F25
rm: cannot remove `/scratch/sarom': Is a directory
rm: cannot remove `/scratch/tmp': Is a directory
ls: No match.
ls: No match.
ls: No match.
Fri Jun  2 04:52:22 CDT 2017
0.265u 0.290s 0:09.95 5.5%	0+0k 616+976io 0pf+0w
Deleting shmid=2785280.
Deleting shmid=2818049.
/opt/gridengine/default/spool/compute-0-8/active_jobs/23987.1/pe_hostfile compute-0-8.local
