----- GAMESS execution script 'rungms' -----
This job is running on host compute-3-0
under operating system Linux at Mon Nov 28 18:37:25 CST 2016
Available scratch disk space (Kbyte units) at beginning of the job is
Filesystem            1K-blocks       Used  Available Use% Mounted on
bolt.local:/export/home/sarom
                     9590469632 1552138240 7551163392  18% /home/sarom
Copying input file ormasS2.inp to your run's scratch directory...
cp ormasS2.inp .//ormasS2.F05
unset echo
/home/sarom/gamessGH/ddikick.x /home/sarom/gamessGH/gamess.00.x ormasS2 -ddi 1 1 localhost -scr ./

 Distributed Data Interface kickoff program.
 Initiating 1 compute processes on 1 nodes to run the following command:
 /home/sarom/gamessGH/gamess.00.x ormasS2 

          ******************************************************
          *         GAMESS VERSION = 18 AUG 2016 (R1)          *
          *             FROM IOWA STATE UNIVERSITY             *
          * M.W.SCHMIDT, K.K.BALDRIDGE, J.A.BOATZ, S.T.ELBERT, *
          *   M.S.GORDON, J.H.JENSEN, S.KOSEKI, N.MATSUNAGA,   *
          *          K.A.NGUYEN, S.J.SU, T.L.WINDUS,           *
          *       TOGETHER WITH M.DUPUIS, J.A.MONTGOMERY       *
          *         J.COMPUT.CHEM.  14, 1347-1363(1993)        *
          **************** 64 BIT LINUX VERSION ****************

  SINCE 1993, STUDENTS AND POSTDOCS WORKING AT IOWA STATE UNIVERSITY
  AND ALSO IN THEIR VARIOUS JOBS AFTER LEAVING ISU HAVE MADE IMPORTANT
  CONTRIBUTIONS TO THE CODE:
     IVANA ADAMOVIC, CHRISTINE AIKENS, YURI ALEXEEV, POOJA ARORA,
     ANDREY ASADCHEV, ROB BELL, PRADIPTA BANDYOPADHYAY, JONATHAN BENTZ,
     BRETT BODE, KURT BRORSEN, CALEB CARLIN, GALINA CHABAN, WEI CHEN,
     CHEOL HO CHOI, PAUL DAY, ALBERT DEFUSCO, NUWAN DESILVA, TIM DUDLEY,
     DMITRI FEDOROV, GRAHAM FLETCHER, MARK FREITAG, KURT GLAESEMANN,
     DAN KEMP, GRANT MERRILL, NORIYUKI MINEZAWA, JONATHAN MULLIN,
     TAKESHI NAGATA, SEAN NEDD, HEATHER NETZLOFF, BOSILJKA NJEGIC, RYAN OLSON,
     MIKE PAK, SPENCER PRUITT, LUKE ROSKOP, JIM SHOEMAKER, LYUDMILA SLIPCHENKO,
     TONY SMITH, SAROM SOK LEANG, JIE SONG, TETSUYA TAKETSUGU, SIMON WEBB,
     PENG XU, SOOHAENG YOO, FEDERICO ZAHARIEV

  ADDITIONAL CODE HAS BEEN PROVIDED BY COLLABORATORS IN OTHER GROUPS:
     IOWA STATE UNIVERSITY:
          JOE IVANIC, AARON WEST, LAIMUTIS BYTAUTAS, KLAUS RUEDENBERG
     UNIVERSITY OF TOKYO: KIMIHIKO HIRAO, TAKAHITO NAKAJIMA,
          TAKAO TSUNEDA, MUNEAKI KAMIYA, SUSUMU YANAGISAWA,
          KIYOSHI YAGI, MAHITO CHIBA, SEIKEN TOKURA, NAOAKI KAWAKAMI
     UNIVERSITY OF AARHUS: FRANK JENSEN
     UNIVERSITY OF IOWA: VISVALDAS KAIRYS, HUI LI
     NATIONAL INST. OF STANDARDS AND TECHNOLOGY: WALT STEVENS, DAVID GARMER
     UNIVERSITY OF PISA: BENEDETTA MENNUCCI, JACOPO TOMASI
     UNIVERSITY OF MEMPHIS: HENRY KURTZ, PRAKASHAN KORAMBATH
     UNIVERSITY OF ALBERTA: TOBY ZENG, MARIUSZ KLOBUKOWSKI
     UNIVERSITY OF NEW ENGLAND: MARK SPACKMAN
     MIE UNIVERSITY: HIROAKI UMEDA
     NAT. INST. OF ADVANCED INDUSTRIAL SCIENCE AND TECHNOLOGY: KAZUO KITAURA
     MICHIGAN STATE UNIVERSITY:
          KAROL KOWALSKI, MARTA WLOCH, JEFFREY GOUR, JESSE LUTZ,
          WEI LI, PIOTR PIECUCH
     UNIVERSITY OF SILESIA: MONIKA MUSIAL, STANISLAW KUCHARSKI
     FACULTES UNIVERSITAIRES NOTRE-DAME DE LA PAIX:
          OLIVIER QUINET, BENOIT CHAMPAGNE
     UNIVERSITY OF CALIFORNIA - SANTA BARBARA: BERNARD KIRTMAN
     INSTITUTE FOR MOLECULAR SCIENCE:
          KAZUYA ISHIMURA, MICHIO KATOUDA, AND SHIGERU NAGASE
     UNIVERSITY OF NOTRE DAME: ANNA POMOGAEVA, DAN CHIPMAN
     KYUSHU UNIVERSITY:
          HARUYUKI NAKANO,
          FENG LONG GU, JACEK KORCHOWIEC, MARCIN MAKOWSKI, AND YURIKO AOKI,
          HIROTOSHI MORI AND EISAKU MIYOSHI
     PENNSYLVANIA STATE UNIVERSITY:
          TZVETELIN IORDANOV, CHET SWALINA, JONATHAN SKONE,
          SHARON HAMMES-SCHIFFER
     WASEDA UNIVERSITY:
          MASATO KOBAYASHI, TOMOKO AKAMA, TSUGUKI TOUMA,
          TAKESHI YOSHIKAWA, YASUHIRO IKABATA, JUNJI SEINO,
          YUYA NAKAJIMA, HIROMI NAKAI
     NANJING UNIVERSITY: SHUHUA LI
     UNIVERSITY OF NEBRASKA:
          PEIFENG SU, DEJUN SI, NANDUN THELLAMUREGE, YALI WANG, HUI LI
     UNIVERSITY OF ZURICH: ROBERTO PEVERATI, KIM BALDRIDGE
     N. COPERNICUS UNIVERSITY AND JACKSON STATE UNIVERSITY:
          MARIA BARYSZ
     UNIVERSITY OF COPENHAGEN: Jimmy Kromann, CASPER STEINMANN
     TOKYO INSTITUTE OF TECHNOLOGY: HIROYA NAKATA
     NAGOYA UNIVERSITY: YOSHIO NISHIMOTO, STEPHAN IRLE
     MOSCOW STATE UNIVERSITY: VLADIMIR MIRONOV

 EXECUTION OF GAMESS BEGUN Mon Nov 28 18:37:26 2016

            ECHO OF THE FIRST FEW INPUT CARDS -
 INPUT CARD>!   Uracil plus 150 EFP1 waters...QM/EFP energy analysis for MCSCF              
 INPUT CARD>!   test from Albert, August 2011.                                              
 INPUT CARD>!                                                                               
 INPUT CARD> $contrl scftyp=none cityp=ormas ispher=1 pmtd1=.f. $end                        
 INPUT CARD> $system mwords=10 memddi=5 $end                                                
 INPUT CARD> $basis  gbasis=n31 ngauss=6 $end                                               
 INPUT CARD> $GUESS  GUESS=MOREAD NORB=80 $end                                              
 INPUT CARD> $trans  dirtrf=.t. $end                                                        
 INPUT CARD> $cidet  ncore=22 nact=10 nels=14 nstate=5                                      
 INPUT CARD>         iroot=2 nflgdm(1)=0,1 fstate(1)=0,1                                    
 INPUT CARD> $end                                                                           
 INPUT CARD> $ormas  nspace=2                                                               
 INPUT CARD>         mstart(1)  = 23, 28                                                    
 INPUT CARD>         mine(1)    =  0,  0                                                    
 INPUT CARD>         maxe(1)    = 10, 10                                                    
 INPUT CARD> $end                                                                           
 INPUT CARD>                                                                                
 INPUT CARD> $DATA                                                                          
 INPUT CARD>../../md/production/uracil_1.trj 0.00 fs                                        
 INPUT CARD>C1                                                                              
 INPUT CARD>N      7.0     -1.1384975075    0.6700691176    0.1165341379                    
 INPUT CARD>H      1.0     -1.1848562310    1.4007436882   -0.6008212242                    
 INPUT CARD>C      6.0     -0.9188440563   -0.6927729975   -0.1438987924                    
 INPUT CARD>H      1.0     -0.9613638638   -0.9871683130   -1.2049307767                    
 INPUT CARD>C      6.0     -0.6747183217   -1.6207349358    0.7886910196                    
 INPUT CARD>H      1.0     -0.5733966616   -2.6495954508    0.5545772170                    
 INPUT CARD>C      6.0     -0.5398565163   -1.1748793123    2.1282863725                    
 INPUT CARD>O      8.0     -0.3599389441   -1.9324955263    3.0400691954                    
 INPUT CARD>N      7.0     -0.8078814157    0.2068351143    2.3708960473                    
 INPUT CARD>H      1.0     -0.6993173788    0.6437819692    3.2697444495                    
 INPUT CARD>C      6.0     -1.0141408936    1.1465348307    1.3914631491                    
 INPUT CARD>O      8.0     -1.0703328640    2.3723806825    1.5694272134                    
 INPUT CARD> $END                                                                           
 INPUT CARD> $EFRAG                                                                         
 INPUT CARD>COORD=CART                                                                      
 INPUT CARD>FRAGNAME=H2ODFT                                                                 
 INPUT CARD>O1    -6.3211185187    3.1630586034    8.2743475171                             
 INPUT CARD>H2    -6.0274990148    2.7162881511    9.0522049616                             
 INPUT CARD>H3    -5.5491198184    3.4942399300    7.8439809412                             
 INPUT CARD>FRAGNAME=H2ODFT                                                                 
 INPUT CARD>O1     4.6122876890    2.3501851168    4.1688323254                             
 INPUT CARD>H2     4.5279095675    1.4321487766    4.3712380190                             
 INPUT CARD>H3     3.7970333969    2.7580009496    4.4136284442                             
 INPUT CARD>FRAGNAME=H2ODFT                                                                 
 INPUT CARD>O1     4.1828815808   -5.6531153400    0.2089722872                             
 INPUT CARD>H2     3.3786713986   -5.2003179024    0.4067067490                             
 INPUT CARD>H3     4.2682498363   -6.3449014033    0.8453862701                             
 INPUT CARD>FRAGNAME=H2ODFT                                                                 
 INPUT CARD>O1     0.9044329318   -2.6111906760   -9.9325813528                             
 INPUT CARD>H2     1.6904821465   -2.6577708322   -9.4121628912                             
   10000000 WORDS OF MEMORY AVAILABLE

     BASIS OPTIONS
     -------------
     GBASIS=N31          IGAUSS=       6      POLAR=NONE    
     NDFUNC=       0     NFFUNC=       0     DIFFSP=       F
     NPFUNC=       0      DIFFS=       F     BASNAM=        


     RUN TITLE
     ---------
 ../../md/production/uracil_1.trj 0.00 fs                                        

 THE POINT GROUP OF THE MOLECULE IS C1      
 THE ORDER OF THE PRINCIPAL AXIS IS     0

 ATOM      ATOMIC                      COORDINATES (BOHR)
           CHARGE         X                   Y                   Z
 N           7.0    -2.1514483269        1.2662470251        0.2202175888
 H           1.0    -2.2390536114        2.6470217497       -1.1353874813
 C           6.0    -1.7363634919       -1.3091511370       -0.2719292876
 H           1.0    -1.8167142771       -1.8654776153       -2.2769890021
 C           6.0    -1.2750327469       -3.0627449274        1.4904099160
 H           1.0    -1.0835625727       -5.0070093803        1.0479989792
 C           6.0    -1.0201808885       -2.2201999689        4.0218780674
 O           8.0    -0.6801859767       -3.6518870172        5.7448977630
 N           7.0    -1.5266745062        0.3908616907        4.4803438748
 H           1.0    -1.3215182244        1.2165715176        6.1789210594
 C           6.0    -1.9164484018        2.1666366654        2.6294840738
 O           8.0    -2.0226358286        4.4831494285        2.9657873910

          INTERNUCLEAR DISTANCES (ANGS.)
          ------------------------------

                1 N          2 H          3 C          4 H          5 C     

   1 N       0.0000000    1.0250040 *  1.4047817 *  2.1269889 *  2.4320093 *
   2 H       1.0250040 *  0.0000000    2.1592482 *  2.4732612 *  3.3645680  
   3 C       1.4047817 *  2.1592482 *  0.0000000    1.1019371 *  1.3380712 *
   4 H       2.1269889 *  2.4732612 *  1.1019371 *  0.0000000    2.1114214 *
   5 C       2.4320093 *  3.3645680    1.3380712 *  2.1114214 *  0.0000000  
   6 H       3.3957906    4.2560634    2.1062661 *  2.4515405 *  1.0600138 *
   7 C       2.7945219 *  3.8076091    2.3534833 *  3.3650023    1.4182703 *
   8 O       3.9908086    5.0047033    3.4622159    4.3903736    2.2945554 *
   9 N       2.3250893 *  3.2246909    2.6731630 *  3.7730278    2.4209745 *
  10 H       3.1837565    3.9736655    3.6725375    4.7698413    3.3592065  
  11 C       1.3667217 *  2.0156793 *  2.3978055 *  3.3610617    2.8524242 *
  12 O       2.2390644 *  2.3805824 *  3.5147691    4.3583834    4.0879129  

                6 H          7 C          8 O          9 N         10 H     

   1 N       3.3957906    2.7945219 *  3.9908086    2.3250893 *  3.1837565  
   2 H       4.2560634    3.8076091    5.0047033    3.2246909    3.9736655  
   3 C       2.1062661 *  2.3534833 *  3.4622159    2.6731630 *  3.6725375  
   4 H       2.4515405 *  3.3650023    4.3903736    3.7730278    4.7698413  
   5 C       1.0600138 *  1.4182703 *  2.2945554 *  2.4209745 *  3.3592065  
   6 H       0.0000000    2.1569592 *  2.5956631 *  3.3931096    4.2701667  
   7 C       2.1569592 *  0.0000000    1.1990415 *  1.4282267 *  2.1531101 *
   8 O       2.5956631 *  1.1990415 *  0.0000000    2.2858654 *  2.6086652 *
   9 N       3.3931096    1.4282267 *  2.2858654 *  0.0000000    1.0053045 *
  10 H       4.2701667    2.1531101 *  2.6086652 *  1.0053045 *  0.0000000  
  11 C       3.9121910    2.4812936 *  3.5533519    1.3729047 *  1.9697246 *
  12 O       5.1475344    3.6299838    4.6042813    2.3239666 *  2.4529135 *

               11 C         12 O     

   1 N       1.3667217 *  2.2390644 *
   2 H       2.0156793 *  2.3805824 *
   3 C       2.3978055 *  3.5147691  
   4 H       3.3610617    4.3583834  
   5 C       2.8524242 *  4.0879129  
   6 H       3.9121910    5.1475344  
   7 C       2.4812936 *  3.6299838  
   8 O       3.5533519    4.6042813  
   9 N       1.3729047 *  2.3239666 *
  10 H       1.9697246 *  2.4529135 *
  11 C       0.0000000    1.2399705 *
  12 O       1.2399705 *  0.0000000  

  * ... LESS THAN  3.000


     ATOMIC BASIS SET
     ----------------
 THE CONTRACTED PRIMITIVE FUNCTIONS HAVE BEEN UNNORMALIZED
 THE CONTRACTED BASIS FUNCTIONS ARE NOW NORMALIZED TO UNITY

  SHELL TYPE  PRIMITIVE        EXPONENT          CONTRACTION COEFFICIENT(S)

 N         

      1   S       1          4173.5114600    0.001834772160
      1   S       2           627.4579110    0.013994627002
      1   S       3           142.9020930    0.068586551812
      1   S       4            40.2343293    0.232240873040
      1   S       5            12.8202129    0.469069948082
      1   S       6             4.3904370    0.360455199063

      2   L       7            11.6263619   -0.114961181702    0.067579743878
      2   L       8             2.7162798   -0.169117478561    0.323907295893
      2   L       9             0.7722184    1.145851947027    0.740895139755

      3   L      10             0.2120315    1.000000000000    1.000000000000

 H         

      4   S      11            18.7311370    0.033494604338
      4   S      12             2.8253944    0.234726953484
      4   S      13             0.6401217    0.813757326146

      5   S      14             0.1612778    1.000000000000

 C         

      6   S      15          3047.5248800    0.001834737132
      6   S      16           457.3695180    0.014037322813
      6   S      17           103.9486850    0.068842622264
      6   S      18            29.2101553    0.232184443216
      6   S      19             9.2866630    0.467941348435
      6   S      20             3.1639270    0.362311985337

      7   L      21             7.8682723   -0.119332419775    0.068999066591
      7   L      22             1.8812885   -0.160854151696    0.316423960957
      7   L      23             0.5442493    1.143456437840    0.744308290898

      8   L      24             0.1687145    1.000000000000    1.000000000000

 H         

      9   S      25            18.7311370    0.033494604338
      9   S      26             2.8253944    0.234726953484
      9   S      27             0.6401217    0.813757326146

     10   S      28             0.1612778    1.000000000000

 C         

     11   S      29          3047.5248800    0.001834737132
     11   S      30           457.3695180    0.014037322813
     11   S      31           103.9486850    0.068842622264
     11   S      32            29.2101553    0.232184443216
     11   S      33             9.2866630    0.467941348435
     11   S      34             3.1639270    0.362311985337

     12   L      35             7.8682723   -0.119332419775    0.068999066591
     12   L      36             1.8812885   -0.160854151696    0.316423960957
     12   L      37             0.5442493    1.143456437840    0.744308290898

     13   L      38             0.1687145    1.000000000000    1.000000000000

 H         

     14   S      39            18.7311370    0.033494604338
     14   S      40             2.8253944    0.234726953484
     14   S      41             0.6401217    0.813757326146

     15   S      42             0.1612778    1.000000000000

 C         

     16   S      43          3047.5248800    0.001834737132
     16   S      44           457.3695180    0.014037322813
     16   S      45           103.9486850    0.068842622264
     16   S      46            29.2101553    0.232184443216
     16   S      47             9.2866630    0.467941348435
     16   S      48             3.1639270    0.362311985337

     17   L      49             7.8682723   -0.119332419775    0.068999066591
     17   L      50             1.8812885   -0.160854151696    0.316423960957
     17   L      51             0.5442493    1.143456437840    0.744308290898

     18   L      52             0.1687145    1.000000000000    1.000000000000

 O         

     19   S      53          5484.6716600    0.001831074430
     19   S      54           825.2349460    0.013950172200
     19   S      55           188.0469580    0.068445078098
     19   S      56            52.9645000    0.232714335992
     19   S      57            16.8975704    0.470192897984
     19   S      58             5.7996353    0.358520852987

     20   L      59            15.5396162   -0.110777549525    0.070874268231
     20   L      60             3.5999336   -0.148026262701    0.339752839147
     20   L      61             1.0137618    1.130767015354    0.727158577316

     21   L      62             0.2700058    1.000000000000    1.000000000000

 N         

     22   S      63          4173.5114600    0.001834772160
     22   S      64           627.4579110    0.013994627002
     22   S      65           142.9020930    0.068586551812
     22   S      66            40.2343293    0.232240873040
     22   S      67            12.8202129    0.469069948082
     22   S      68             4.3904370    0.360455199063

     23   L      69            11.6263619   -0.114961181702    0.067579743878
     23   L      70             2.7162798   -0.169117478561    0.323907295893
     23   L      71             0.7722184    1.145851947027    0.740895139755

     24   L      72             0.2120315    1.000000000000    1.000000000000

 H         

     25   S      73            18.7311370    0.033494604338
     25   S      74             2.8253944    0.234726953484
     25   S      75             0.6401217    0.813757326146

     26   S      76             0.1612778    1.000000000000

 C         

     27   S      77          3047.5248800    0.001834737132
     27   S      78           457.3695180    0.014037322813
     27   S      79           103.9486850    0.068842622264
     27   S      80            29.2101553    0.232184443216
     27   S      81             9.2866630    0.467941348435
     27   S      82             3.1639270    0.362311985337

     28   L      83             7.8682723   -0.119332419775    0.068999066591
     28   L      84             1.8812885   -0.160854151696    0.316423960957
     28   L      85             0.5442493    1.143456437840    0.744308290898

     29   L      86             0.1687145    1.000000000000    1.000000000000

 O         

     30   S      87          5484.6716600    0.001831074430
     30   S      88           825.2349460    0.013950172200
     30   S      89           188.0469580    0.068445078098
     30   S      90            52.9645000    0.232714335992
     30   S      91            16.8975704    0.470192897984
     30   S      92             5.7996353    0.358520852987

     31   L      93            15.5396162   -0.110777549525    0.070874268231
     31   L      94             3.5999336   -0.148026262701    0.339752839147
     31   L      95             1.0137618    1.130767015354    0.727158577316

     32   L      96             0.2700058    1.000000000000    1.000000000000

 TOTAL NUMBER OF BASIS SET SHELLS             =   32
 NUMBER OF CARTESIAN GAUSSIAN BASIS FUNCTIONS =   80
 NOTE: THIS RUN WILL RESTRICT THE MO VARIATION SPACE TO SPHERICAL HARMONICS.
 THE NUMBER OF ORBITALS KEPT IN THE VARIATIONAL SPACE WILL BE PRINTED LATER.
 NUMBER OF ELECTRONS                          =   58
 CHARGE OF MOLECULE                           =    0
 SPIN MULTIPLICITY                            =    1
 NUMBER OF OCCUPIED ORBITALS (ALPHA)          =   29
 NUMBER OF OCCUPIED ORBITALS (BETA )          =   29
 TOTAL NUMBER OF ATOMS                        =   12
 THE NUCLEAR REPULSION ENERGY IS      357.6097089539

     $CONTRL OPTIONS
     ---------------
 SCFTYP=NONE         RUNTYP=ENERGY       EXETYP=RUN     
 MPLEVL=       0     CITYP =ORMAS        CCTYP =NONE         VBTYP =NONE    
 DFTTYP=NONE         TDDFT =NONE    
 MULT  =       1     ICHARG=       0     NZVAR =       0     COORD =UNIQUE  
 PP    =NONE         RELWFN=NONE         LOCAL =NONE         NUMGRD=       F
 ISPHER=       1     NOSYM =       0     MAXIT =      30     UNITS =ANGS    
 PLTORB=       F     MOLPLT=       F     AIMPAC=       F     FRIEND=        
 NPRINT=       7     IREST =       0     GEOM  =INPUT   
 NORMF =       0     NORMP =       0     ITOL  =      20     ICUT  =       9
 INTTYP=BEST         GRDTYP=BEST         QMTTOL= 1.0E-06

     $SYSTEM OPTIONS
     ---------------
  REPLICATED MEMORY=    10000000 WORDS (ON EVERY NODE).
 DISTRIBUTED MEMDDI=           5 MILLION WORDS IN AGGREGATE,
 MEMDDI DISTRIBUTED OVER   1 PROCESSORS IS     5000000 WORDS/PROCESSOR.
 TOTAL MEMORY REQUESTED ON EACH PROCESSOR=    15000000 WORDS.
 TIMLIM=      525600.00 MINUTES, OR     365.0 DAYS.
 PARALL= F  BALTYP=  DLB     KDIAG=    0  COREFL= F
 MXSEQ2=     300 MXSEQ3=     150  mem10=         0

 READING $EFRAG GROUP
 COORD=CART      POSITION=OPTIMIZE  POLMETHD=FRGSCF   NBUFFMO=0
 READING COORDINATES OF FRAGMENT   1 NAMED   H2ODFT
 READING COORDINATES OF FRAGMENT   2 NAMED   H2ODFT
 READING COORDINATES OF FRAGMENT   3 NAMED   H2ODFT
 READING COORDINATES OF FRAGMENT   4 NAMED   H2ODFT
 READING COORDINATES OF FRAGMENT   5 NAMED   H2ODFT
 READING COORDINATES OF FRAGMENT   6 NAMED   H2ODFT
 READING COORDINATES OF FRAGMENT   7 NAMED   H2ODFT
 READING COORDINATES OF FRAGMENT   8 NAMED   H2ODFT
 READING COORDINATES OF FRAGMENT   9 NAMED   H2ODFT
 READING COORDINATES OF FRAGMENT  10 NAMED   H2ODFT
 READING COORDINATES OF FRAGMENT  11 NAMED   H2ODFT
 READING COORDINATES OF FRAGMENT  12 NAMED   H2ODFT
 READING COORDINATES OF FRAGMENT  13 NAMED   H2ODFT
 READING COORDINATES OF FRAGMENT  14 NAMED   H2ODFT
 READING COORDINATES OF FRAGMENT  15 NAMED   H2ODFT
 READING COORDINATES OF FRAGMENT  16 NAMED   H2ODFT
 READING COORDINATES OF FRAGMENT  17 NAMED   H2ODFT
 READING COORDINATES OF FRAGMENT  18 NAMED   H2ODFT
 READING COORDINATES OF FRAGMENT  19 NAMED   H2ODFT
 READING COORDINATES OF FRAGMENT  20 NAMED   H2ODFT
 READING COORDINATES OF FRAGMENT  21 NAMED   H2ODFT
 READING COORDINATES OF FRAGMENT  22 NAMED   H2ODFT
 READING COORDINATES OF FRAGMENT  23 NAMED   H2ODFT
 READING COORDINATES OF FRAGMENT  24 NAMED   H2ODFT
 READING COORDINATES OF FRAGMENT  25 NAMED   H2ODFT
 READING COORDINATES OF FRAGMENT  26 NAMED   H2ODFT
 READING COORDINATES OF FRAGMENT  27 NAMED   H2ODFT
 READING COORDINATES OF FRAGMENT  28 NAMED   H2ODFT
 READING COORDINATES OF FRAGMENT  29 NAMED   H2ODFT
 READING COORDINATES OF FRAGMENT  30 NAMED   H2ODFT
 READING COORDINATES OF FRAGMENT  31 NAMED   H2ODFT
 READING COORDINATES OF FRAGMENT  32 NAMED   H2ODFT
 READING COORDINATES OF FRAGMENT  33 NAMED   H2ODFT
 READING COORDINATES OF FRAGMENT  34 NAMED   H2ODFT
 READING COORDINATES OF FRAGMENT  35 NAMED   H2ODFT
 READING COORDINATES OF FRAGMENT  36 NAMED   H2ODFT
 READING COORDINATES OF FRAGMENT  37 NAMED   H2ODFT
 READING COORDINATES OF FRAGMENT  38 NAMED   H2ODFT
 READING COORDINATES OF FRAGMENT  39 NAMED   H2ODFT
 READING COORDINATES OF FRAGMENT  40 NAMED   H2ODFT
 READING COORDINATES OF FRAGMENT  41 NAMED   H2ODFT
 READING COORDINATES OF FRAGMENT  42 NAMED   H2ODFT
 READING COORDINATES OF FRAGMENT  43 NAMED   H2ODFT
 READING COORDINATES OF FRAGMENT  44 NAMED   H2ODFT
 READING COORDINATES OF FRAGMENT  45 NAMED   H2ODFT
 READING COORDINATES OF FRAGMENT  46 NAMED   H2ODFT
 READING COORDINATES OF FRAGMENT  47 NAMED   H2ODFT
 READING COORDINATES OF FRAGMENT  48 NAMED   H2ODFT
 READING COORDINATES OF FRAGMENT  49 NAMED   H2ODFT
 READING COORDINATES OF FRAGMENT  50 NAMED   H2ODFT
 READING COORDINATES OF FRAGMENT  51 NAMED   H2ODFT
 READING COORDINATES OF FRAGMENT  52 NAMED   H2ODFT
 READING COORDINATES OF FRAGMENT  53 NAMED   H2ODFT
 READING COORDINATES OF FRAGMENT  54 NAMED   H2ODFT
 READING COORDINATES OF FRAGMENT  55 NAMED   H2ODFT
 READING COORDINATES OF FRAGMENT  56 NAMED   H2ODFT
 READING COORDINATES OF FRAGMENT  57 NAMED   H2ODFT
 READING COORDINATES OF FRAGMENT  58 NAMED   H2ODFT
 READING COORDINATES OF FRAGMENT  59 NAMED   H2ODFT
 READING COORDINATES OF FRAGMENT  60 NAMED   H2ODFT
 READING COORDINATES OF FRAGMENT  61 NAMED   H2ODFT
 READING COORDINATES OF FRAGMENT  62 NAMED   H2ODFT
 READING COORDINATES OF FRAGMENT  63 NAMED   H2ODFT
 READING COORDINATES OF FRAGMENT  64 NAMED   H2ODFT
 READING COORDINATES OF FRAGMENT  65 NAMED   H2ODFT
 READING COORDINATES OF FRAGMENT  66 NAMED   H2ODFT
 READING COORDINATES OF FRAGMENT  67 NAMED   H2ODFT
 READING COORDINATES OF FRAGMENT  68 NAMED   H2ODFT
 READING COORDINATES OF FRAGMENT  69 NAMED   H2ODFT
 READING COORDINATES OF FRAGMENT  70 NAMED   H2ODFT
 READING COORDINATES OF FRAGMENT  71 NAMED   H2ODFT
 READING COORDINATES OF FRAGMENT  72 NAMED   H2ODFT
 READING COORDINATES OF FRAGMENT  73 NAMED   H2ODFT
 READING COORDINATES OF FRAGMENT  74 NAMED   H2ODFT
 READING COORDINATES OF FRAGMENT  75 NAMED   H2ODFT
 READING COORDINATES OF FRAGMENT  76 NAMED   H2ODFT
 READING COORDINATES OF FRAGMENT  77 NAMED   H2ODFT
 READING COORDINATES OF FRAGMENT  78 NAMED   H2ODFT
 READING COORDINATES OF FRAGMENT  79 NAMED   H2ODFT
 READING COORDINATES OF FRAGMENT  80 NAMED   H2ODFT
 READING COORDINATES OF FRAGMENT  81 NAMED   H2ODFT
 READING COORDINATES OF FRAGMENT  82 NAMED   H2ODFT
 READING COORDINATES OF FRAGMENT  83 NAMED   H2ODFT
 READING COORDINATES OF FRAGMENT  84 NAMED   H2ODFT
 READING COORDINATES OF FRAGMENT  85 NAMED   H2ODFT
 READING COORDINATES OF FRAGMENT  86 NAMED   H2ODFT
 READING COORDINATES OF FRAGMENT  87 NAMED   H2ODFT
 READING COORDINATES OF FRAGMENT  88 NAMED   H2ODFT
 READING COORDINATES OF FRAGMENT  89 NAMED   H2ODFT
 READING COORDINATES OF FRAGMENT  90 NAMED   H2ODFT
 READING COORDINATES OF FRAGMENT  91 NAMED   H2ODFT
 READING COORDINATES OF FRAGMENT  92 NAMED   H2ODFT
 READING COORDINATES OF FRAGMENT  93 NAMED   H2ODFT
 READING COORDINATES OF FRAGMENT  94 NAMED   H2ODFT
 READING COORDINATES OF FRAGMENT  95 NAMED   H2ODFT
 READING COORDINATES OF FRAGMENT  96 NAMED   H2ODFT
 READING COORDINATES OF FRAGMENT  97 NAMED   H2ODFT
 READING COORDINATES OF FRAGMENT  98 NAMED   H2ODFT
 READING COORDINATES OF FRAGMENT  99 NAMED   H2ODFT
 READING COORDINATES OF FRAGMENT 100 NAMED   H2ODFT
 READING COORDINATES OF FRAGMENT 101 NAMED   H2ODFT
 READING COORDINATES OF FRAGMENT 102 NAMED   H2ODFT
 READING COORDINATES OF FRAGMENT 103 NAMED   H2ODFT
 READING COORDINATES OF FRAGMENT 104 NAMED   H2ODFT
 READING COORDINATES OF FRAGMENT 105 NAMED   H2ODFT
 READING COORDINATES OF FRAGMENT 106 NAMED   H2ODFT
 READING COORDINATES OF FRAGMENT 107 NAMED   H2ODFT
 READING COORDINATES OF FRAGMENT 108 NAMED   H2ODFT
 READING COORDINATES OF FRAGMENT 109 NAMED   H2ODFT
 READING COORDINATES OF FRAGMENT 110 NAMED   H2ODFT
 READING COORDINATES OF FRAGMENT 111 NAMED   H2ODFT
 READING COORDINATES OF FRAGMENT 112 NAMED   H2ODFT
 READING COORDINATES OF FRAGMENT 113 NAMED   H2ODFT
 READING COORDINATES OF FRAGMENT 114 NAMED   H2ODFT
 READING COORDINATES OF FRAGMENT 115 NAMED   H2ODFT
 READING COORDINATES OF FRAGMENT 116 NAMED   H2ODFT
 READING COORDINATES OF FRAGMENT 117 NAMED   H2ODFT
 READING COORDINATES OF FRAGMENT 118 NAMED   H2ODFT
 READING COORDINATES OF FRAGMENT 119 NAMED   H2ODFT
 READING COORDINATES OF FRAGMENT 120 NAMED   H2ODFT
 READING COORDINATES OF FRAGMENT 121 NAMED   H2ODFT
 READING COORDINATES OF FRAGMENT 122 NAMED   H2ODFT
 READING COORDINATES OF FRAGMENT 123 NAMED   H2ODFT
 READING COORDINATES OF FRAGMENT 124 NAMED   H2ODFT
 READING COORDINATES OF FRAGMENT 125 NAMED   H2ODFT
 READING COORDINATES OF FRAGMENT 126 NAMED   H2ODFT
 READING COORDINATES OF FRAGMENT 127 NAMED   H2ODFT
 READING COORDINATES OF FRAGMENT 128 NAMED   H2ODFT
 READING COORDINATES OF FRAGMENT 129 NAMED   H2ODFT
 READING COORDINATES OF FRAGMENT 130 NAMED   H2ODFT
 READING COORDINATES OF FRAGMENT 131 NAMED   H2ODFT
 READING COORDINATES OF FRAGMENT 132 NAMED   H2ODFT
 READING COORDINATES OF FRAGMENT 133 NAMED   H2ODFT
 READING COORDINATES OF FRAGMENT 134 NAMED   H2ODFT
 READING COORDINATES OF FRAGMENT 135 NAMED   H2ODFT
 READING COORDINATES OF FRAGMENT 136 NAMED   H2ODFT
 READING COORDINATES OF FRAGMENT 137 NAMED   H2ODFT
 READING COORDINATES OF FRAGMENT 138 NAMED   H2ODFT
 READING COORDINATES OF FRAGMENT 139 NAMED   H2ODFT
 READING COORDINATES OF FRAGMENT 140 NAMED   H2ODFT
 READING COORDINATES OF FRAGMENT 141 NAMED   H2ODFT
 READING COORDINATES OF FRAGMENT 142 NAMED   H2ODFT
 READING COORDINATES OF FRAGMENT 143 NAMED   H2ODFT
 READING COORDINATES OF FRAGMENT 144 NAMED   H2ODFT
 READING COORDINATES OF FRAGMENT 145 NAMED   H2ODFT
 READING COORDINATES OF FRAGMENT 146 NAMED   H2ODFT
 READING COORDINATES OF FRAGMENT 147 NAMED   H2ODFT
 READING COORDINATES OF FRAGMENT 148 NAMED   H2ODFT
 READING COORDINATES OF FRAGMENT 149 NAMED   H2ODFT
 READING COORDINATES OF FRAGMENT 150 NAMED   H2ODFT
 FINISHED READING $EFRAG GROUP, 150 FRAGMENTS WILL BE USED.



     SUMMARY OF THE EFFECTIVE FRAGMENT POTENTIAL MODEL CHOSEN
     --------------------------------------------------------
 TOTAL NUMBER OF MULTIPOLE POINTS   =       750  (EFP1/EFP2 ELECTROSTATICS)
 TOTAL NUMBER OF POLARIZABLE POINTS =       750  (EFP1/EFP2 INDUCTION)
 TOTAL NUMBER OF L-J POINTS         =         0  (REPULSION AND DISPERSION)
 TOTAL NUMBER OF REPULSIVE POINTS   =       450  (EFP1 REPULSION/ETC.)

 THIS IS A -EFP1- TYPE RUN, WITH PAULI REPULSION, CHARGE TRANSFER, AND
 HIGHER ORDER EFFECTS COLLECTED IN A FITTED REPULSIVE POTENTIAL.

 OPTIONS FOR EFP SCREENING:
     ELECTROSTATIC AB INITIO-EFP GAUSSIAN SCREENING IS ON
     ELECTROSTATIC EFP-EFP SCREENING CHOICE IS EXPONENTIAL, FOR CHARGE/CHARGE
     POLARIZATION EFP-EFP SCREENING IS OFF

     $EWALD OPTIONS
     -----------

     IFEWLD   =        F         TINFOIL        =        T
     BETA    =    0.200         ELECTRIC CONST =     1.00
     EPSILON =     1.00         CUT_OFF        = 0.10E+04
     CUTLIST =  1000.00         LEVEL          =    1
     KMAX    =       10         EWLDPL         =        F

            MULTIPOLE COORDINATES, ELECTRONIC AND NUCLEAR CHARGES

                  X              Y              Z           ELEC.   NUC.
 O1       -11.9451819363   5.9773140435  15.6362495345   -8.22458    8.0
 H2       -11.3903215292   5.1330403093  17.1061869621   -0.57906    1.0
 H3       -10.4863159299   6.6031560031  14.8229746316   -0.57906    1.0
 B12      -11.6677522056   5.5551772277  16.3712180941   -0.30866    0.0
 B13      -11.2157494059   6.2902350746  15.2296119289   -0.30866    0.0
 O1         8.7159599088   4.4412058912   7.8779507838   -8.22458    8.0
 H2         8.5565083798   2.7063687615   8.2604420830   -0.57906    1.0
 H3         7.1753526864   5.2118660686   8.3405483712   -0.57906    1.0
 B12        8.6362345435   3.5737875527   8.0691962349   -0.30866    0.0
 B13        7.9456566968   4.8265362063   8.1092493790   -0.30866    0.0
 O1         7.9045000268 -10.6828389696   0.3949003618   -8.22458    8.0
 H2         6.3847631459  -9.8271758846   0.7685643130   -0.57906    1.0
 H3         8.0658226376 -11.9901250713   1.5975484043   -0.57906    1.0
 B12        7.1446319053 -10.2550073210   0.5817319673   -0.30866    0.0
 B13        7.9851616512 -11.3364819144   0.9962240129   -0.30866    0.0
 O1         1.7091304154  -4.9344348793 -18.7698571075   -8.22458    8.0
 H2         3.1945480440  -5.0224586110 -17.7864088162   -0.57906    1.0
 H3         1.1128246190  -3.2577806910 -18.6488844640   -0.57906    1.0
 B12        2.4518390209  -4.9784471182 -18.2781332212   -0.30866    0.0
 B13        1.4109773084  -4.0961081582 -18.7093710451   -0.30866    0.0
 O1        -0.0933723664  16.6010517522   2.3795105990   -8.22458    8.0
 H2        -1.3666974909  17.2219360290   3.4632679947   -0.57906    1.0
 H3         1.4684835568  16.9890459150   3.1485690203   -0.57906    1.0
 B12       -0.7300349964  16.9114936537   2.9213888617   -0.30866    0.0
 B13        0.6875555275  16.7950485967   2.7640393746   -0.30866    0.0
 O1        -1.2086984326  -7.5135808707  -7.1946100532   -8.22458    8.0
 H2        -1.9450411827  -9.0590050820  -7.6954569482   -0.57906    1.0
 H3        -0.8332732290  -7.6637898863  -5.4574061449   -0.57906    1.0
 B12       -1.5768697229  -8.2862925782  -7.4450337910   -0.30866    0.0
 B13       -1.0209857460  -7.5886849804  -6.3260083894   -0.30866    0.0
 O1         0.6323755849  -5.2024146540 -10.8611075738   -8.22458    8.0
 H2         2.4134739896  -5.1072421068 -10.8649688944   -0.57906    1.0
 H3         0.1504069372  -5.7238531427  -9.2248947588   -0.57906    1.0
 B12        1.5229244822  -5.1548282803 -10.8630386174   -0.30866    0.0
 B13        0.3913909560  -5.4631337982 -10.0430015496   -0.30866    0.0
 O1         4.2149474909  -6.9810759635   2.0344441567   -8.22458    8.0
 H2         2.7392419810  -7.8404650849   2.5493498151   -0.57906    1.0
 H3         4.7536237413  -6.0070309609   3.4281616607   -0.57906    1.0
 B12        3.4770949560  -7.4107705511   2.2918965377   -0.30866    0.0
 B13        4.4842858361  -6.4940534891   2.7313024606   -0.30866    0.0
 O1         3.2415660433  -5.1846675976  -2.5618052612   -8.22458    8.0
 H2         3.8392550999  -3.6346957625  -3.2112198843   -0.57906    1.0
 H3         3.6558562748  -5.2075375147  -0.8270935210   -0.57906    1.0
 B12        3.5404103339  -4.4096820386  -2.8865128276   -0.30866    0.0
 B13        3.4487109214  -5.1961029147  -1.6944496459   -0.30866    0.0
 O1        -2.9190996713   8.0258587056  13.2518544070   -8.22458    8.0
 H2        -4.5979389121   7.5513892756  13.6230171937   -0.57906    1.0
 H3        -2.8153446004   8.1996174696  11.4797294035   -0.57906    1.0
 B12       -3.7585189218   7.7886240612  13.4374361293   -0.30866    0.0
 B13       -2.8672217660   8.1127381582  12.3657922342   -0.30866    0.0
 O1        -4.2114885031 -14.5808975777  -1.6656542269   -8.22458    8.0
 H2        -4.5316042506 -15.3494286067  -3.2430794126   -0.57906    1.0
 H3        -2.5974759583 -13.8302673702  -1.7792414062   -0.57906    1.0
 B12       -4.3715466807 -14.9651630880  -2.4543664227   -0.30866    0.0
 B13       -3.4044825345 -14.2055824697  -1.7224474195   -0.30866    0.0
 O1       -10.7189527396  -5.7083572989  -8.7246507784   -8.22458    8.0
 H2        -9.8485274985  -6.9225221041  -7.7502032550   -0.57906    1.0
 H3        -9.6367756742  -5.2586067464 -10.0692702377   -0.57906    1.0
 B12      -10.2837405776  -6.3154395220  -8.2374269298   -0.30866    0.0
 B13      -10.1778646654  -5.4834818431  -9.3969604211   -0.30866    0.0
 O1        -7.7442999598   0.1300345638 -17.8856667999   -8.22458    8.0
 H2        -6.9836911963  -1.4826789180 -17.9305420183   -0.57906    1.0
 H3        -8.3690896585   0.3562856688 -16.2304228540   -0.57906    1.0
 B12       -7.3639956099  -0.6763218515 -17.9081047872   -0.30866    0.0
 B13       -8.0566948410   0.2431604419 -17.0580452051   -0.30866    0.0
 O1         7.9971753430  13.7023087102   8.6778772557   -8.22458    8.0
 H2         9.4777527803  14.1994435051   9.5393479159   -0.57906    1.0
 H3         6.8665416401  13.0890086051   9.9135611399   -0.57906    1.0
 B12        8.7374639795  13.9508761349   9.1086120933   -0.30866    0.0
 B13        7.4318584094  13.3956586849   9.2957187053   -0.30866    0.0
 O1       -12.2205783259 -11.0636137442  -2.0389383089   -8.22458    8.0
 H2       -12.0988679080 -11.6446006916  -0.3569677409   -0.57906    1.0
 H3       -13.8318846433 -11.5459582933  -2.6325879851   -0.57906    1.0
 B12      -12.1597227672 -11.3541069682  -1.1979532805   -0.30866    0.0
 B13      -13.0262311348 -11.3047857690  -2.3357634026   -0.30866    0.0
 O1        -8.1051042165  -9.8031524075  -5.0563741227   -8.22458    8.0
 H2        -9.5966746819 -10.2416295749  -4.1821089621   -0.57906    1.0
 H3        -7.3876729315 -11.3272729269  -5.6426618034   -0.57906    1.0
 B12       -8.8508892674 -10.0223905304  -4.6192416100   -0.30866    0.0
 B13       -7.7463883922 -10.5652122064  -5.3495180307   -0.30866    0.0
 O1        -0.6695280381  -8.1057357675  -2.4287671449   -8.22458    8.0
 H2        -2.3503696959  -8.0372987936  -1.8359164448   -0.57906    1.0
 H3         0.0984145292  -6.5620198342  -1.9720510611   -0.57906    1.0
 B12       -1.5099486527  -8.0715176591  -2.1323420413   -0.30866    0.0
 B13       -0.2855565401  -7.3338781794  -2.2004093495   -0.30866    0.0
 O1         7.3283607422 -13.9823939431   4.3880025055   -8.22458    8.0
 H2         8.3533369419 -15.2420117542   5.1256819825   -0.57906    1.0
 H3         6.9167610132 -12.8309456215   5.6865157616   -0.57906    1.0
 B12        7.8408486980 -14.6122028232   4.7568417658   -0.30866    0.0
 B13        7.1225607337 -13.4066697569   5.0372586554   -0.30866    0.0
 O1        -4.1253810910 -11.6054818185  -8.8580412114   -8.22458    8.0
 H2        -3.8027013963 -13.3580989643  -8.7832401050   -0.57906    1.0
 H3        -3.7110015310 -11.0780045568 -10.5107485567   -0.57906    1.0
 B12       -3.9640414167 -12.4817901037  -8.8206402877   -0.30866    0.0
 B13       -3.9181914841 -11.3417429000  -9.6843945136   -0.30866    0.0
 O1         5.8139403418  -4.2706787099   5.8372448234   -8.22458    8.0
 H2         4.6418554768  -3.0442690001   6.3881718093   -0.57906    1.0
 H3         6.4152414715  -5.0980194840   7.2985211305   -0.57906    1.0
 B12        5.2278980433  -3.6574739487   6.1127078438   -0.30866    0.0
 B13        6.1145910407  -4.6843491907   6.5678825045   -0.30866    0.0
 O1         4.9583687705   0.0649377689 -14.2058000401   -8.22458    8.0
 H2         5.6566805346  -1.5051346636 -14.6839396513   -0.57906    1.0
 H3         3.5939217681   0.3771322162 -15.3113330588   -0.57906    1.0
 B12        5.3075248090  -0.7200981520 -14.4448694739   -0.30866    0.0
 B13        4.2761454257   0.2210352879 -14.7585661776   -0.30866    0.0
 O1         6.1550076691   6.8321436925 -16.1588086655   -8.22458    8.0
 H2         7.5672961954   7.1821216134 -15.1271397147   -0.57906    1.0
 H3         6.3813643443   5.1812407024 -16.7949424750   -0.57906    1.0
 B12        6.8611515475   7.0071329584 -15.6429742830   -0.30866    0.0
 B13        6.2681856219   6.0066925029 -16.4768756631   -0.30866    0.0
 O1         9.3853753589  -9.9788395313  -4.1715170105   -8.22458    8.0
 H2         9.4647214029 -10.2388027550  -2.4087046047   -0.57906    1.0
 H3        10.0433914877 -11.4495073914  -4.9367196441   -0.57906    1.0
 B12        9.4250482077 -10.1088207368  -3.2901110419   -0.30866    0.0
 B13        9.7143832502 -10.7141730550  -4.5541185616   -0.30866    0.0
 O1        -1.3405414918  -9.3388301065 -12.8679072611   -8.22458    8.0
 H2        -0.5728961832  -7.7599864694 -12.5526966961   -0.57906    1.0
 H3        -1.6887269126  -9.3996478374 -14.6161785121   -0.57906    1.0
 B12       -0.9567189360  -8.5494086444 -12.7103016421   -0.30866    0.0
 B13       -1.5146343007  -9.3692393284 -13.7420425501   -0.30866    0.0
 O1        -1.6415747675  -8.5512498814 -17.9663490380   -8.22458    8.0
 H2        -0.4192407321  -7.4499015956 -18.6550548605   -0.57906    1.0
 H3        -2.6044820458  -9.1686218129 -19.3349416444   -0.57906    1.0
 B12       -1.0304078107  -8.0005758522 -18.3107014662   -0.30866    0.0
 B13       -2.1230284676  -8.8599359608 -18.6506448581   -0.30866    0.0
 O1        -4.5383734513  -4.5636028323 -15.9867027629   -8.22458    8.0
 H2        -3.5836267351  -3.1883128498 -15.3715439031   -0.57906    1.0
 H3        -3.3697528570  -5.7927571516 -16.5388710493   -0.57906    1.0
 B12       -4.0610005918  -3.8759578754 -15.6791233478   -0.30866    0.0
 B13       -3.9540636528  -5.1781800263 -16.2627869209   -0.30866    0.0
 O1        -5.8687575072 -10.5958920446  12.6566396747   -8.22458    8.0
 H2        -7.3125322301 -11.6203119987  12.4387806433   -0.57906    1.0
 H3        -4.5177366951 -11.4358469295  11.8500401414   -0.57906    1.0
 B12       -6.5906448469 -11.1081015839  12.5477103996   -0.30866    0.0
 B13       -5.1932470793 -11.0158690493  12.2533401486   -0.30866    0.0
 O1        -7.5232491711  -4.1862695356 -12.0012235799   -8.22458    8.0
 H2        -6.5644644577  -4.8418583221 -13.3548555339   -0.57906    1.0
 H3        -7.8723481102  -2.4827305939 -12.3980475404   -0.57906    1.0
 B12       -7.0438569576  -4.5140641749 -12.6780391458   -0.30866    0.0
 B13       -7.6977987838  -3.3345003108 -12.1996351491   -0.30866    0.0
 O1       -11.2235773500 -12.9651229821   2.4070261530   -8.22458    8.0
 H2        -9.5961047971 -13.6782321311   2.2514861845   -0.57906    1.0
 H3       -11.4375332727 -12.5464563853   4.1275857697   -0.57906    1.0
 B12      -10.4098414055 -13.3216774874   2.3292558013   -0.30866    0.0
 B13      -11.3305556432 -12.7557896145   3.2673055939   -0.30866    0.0
 O1       -15.3479936323   1.4493655459   1.4414168018   -8.22458    8.0
 H2       -15.7938052382   0.1589875181   0.2935662853   -0.57906    1.0
 H3       -14.3206011405   2.5998124861   0.5456932083   -0.57906    1.0
 B12      -15.5708995718   0.8041765649   0.8674920234   -0.30866    0.0
 B13      -14.8342975230   2.0245890488   0.9935554849   -0.30866    0.0
 O1        -3.8595843582   3.0970487619 -11.6956424188   -8.22458    8.0
 H2        -2.7737082847   3.2759684971 -10.2919882121   -0.57906    1.0
 H3        -3.5662725703   4.5030801824 -12.7532000251   -0.57906    1.0
 B12       -3.3166466453   3.1865082573 -10.9938153968   -0.30866    0.0
 B13       -3.7129287881   3.8000641000 -12.2244213032   -0.30866    0.0
 O1        -5.2291332964  -7.7422207213  -1.3715623263   -8.22458    8.0
 H2        -6.1608932615  -8.3924030023  -2.7465061868   -0.57906    1.0
 H3        -5.8744853307  -6.1128778481  -1.0396786058   -0.57906    1.0
 B12       -5.6950129086  -8.0673120917  -2.0590340116   -0.30866    0.0
 B13       -5.5518089432  -6.9275495146  -1.2056202211   -0.30866    0.0
 O1         3.2165173124   0.2115173450   2.2252236992   -8.22458    8.0
 H2         2.9731976865   1.3848544369   0.9040651625   -0.57906    1.0
 H3         4.6933719954  -0.7070319883   1.8295576554   -0.57906    1.0
 B12        3.0948572098   0.7981858311   1.5646448340   -0.30866    0.0
 B13        3.9549443642  -0.2477573815   2.0273910804   -0.30866    0.0
 O1         2.4488875976 -14.7650655069   2.5289574915   -8.22458    8.0
 H2         2.2990805227 -14.3572176810   0.7990435509   -0.57906    1.0
 H3         4.1942120571 -14.8331731955   2.8903272808   -0.57906    1.0
 B12        2.3739836855 -14.5611416738   1.6640008426   -0.30866    0.0
 B13        3.3215494527 -14.7991194310   2.7096427075   -0.30866    0.0
 O1         3.0348242342  -1.4533553170  -5.4914617238   -8.22458    8.0
 H2         4.2589181161  -1.3468077825  -6.7843755036   -0.57906    1.0
 H3         1.5249090490  -0.7772015972  -6.1580624524   -0.57906    1.0
 B12        3.6468712423  -1.4000817335  -6.1379181536   -0.30866    0.0
 B13        2.2798667088  -1.1152786409  -5.8247616280   -0.30866    0.0
 O1        -2.2982492317   4.0578541401 -17.9433556685   -8.22458    8.0
 H2        -2.7110819264   5.4093715157 -16.8550752817   -0.57906    1.0
 H3        -3.7795822032   3.6628579129 -18.8549558323   -0.57906    1.0
 B12       -2.5046651343   4.7336126033 -17.3992155166   -0.30866    0.0
 B13       -3.0389152727   3.8603558019 -18.3991557919   -0.30866    0.0
 O1         5.1003918135  -8.0056922407  -6.4346589361   -8.22458    8.0
 H2         6.4603425476  -8.8247176076  -5.6215687197   -0.57906    1.0
 H3         4.2902869053  -7.0071956905  -5.1984878607   -0.57906    1.0
 B12        5.7803670514  -8.4152049663  -6.0281143091   -0.30866    0.0
 B13        4.6953392303  -7.5064440077  -5.8165738796   -0.30866    0.0
 O1         7.4944301434  -1.2593327027  -8.0875053490   -8.22458    8.0
 H2         7.5995095987  -0.0731612071  -9.4154133811   -0.57906    1.0
 H3         8.9614015621  -1.0490089413  -7.0949616357   -0.57906    1.0
 B12        7.5469695019  -0.6662472828  -8.7514592863   -0.30866    0.0
 B13        8.2279154836  -1.1541711499  -7.5912334136   -0.30866    0.0
 O1         0.7126023992   0.3000506906 -16.5146933483   -8.22458    8.0
 H2        -0.1068578535   1.8164583227 -16.9733621160   -0.57906    1.0
 H3        -0.4132744704  -0.5913754741 -15.4567968892   -0.57906    1.0
 B12        0.3028727296   1.0582543599 -16.7440278729   -0.30866    0.0
 B13        0.1496644212  -0.1456625385 -15.9857452595   -0.30866    0.0
 O1         6.0057013272  -4.9247016625 -15.3877005733   -8.22458    8.0
 H2         6.1508317725  -5.2389172856 -13.6379606078   -0.57906    1.0
 H3         7.3665747873  -5.7675192077 -16.1745082129   -0.57906    1.0
 B12        6.0782661962  -5.0818092024 -14.5128308167   -0.30866    0.0
 B13        6.6861377036  -5.3461101634 -15.7811046192   -0.30866    0.0
 O1        13.0000901709   2.3670049415  -8.6156515747   -8.22458    8.0
 H2        12.5993747654   4.0702526670  -8.2695900194   -0.57906    1.0
 H3        11.8629888344   1.8186514618  -9.8756885830   -0.57906    1.0
 B12       12.7997328292   3.2186285331  -8.4426205824   -0.30866    0.0
 B13       12.4315398637   2.0928279305  -9.2456698642   -0.30866    0.0
 O1         2.0786453317   6.6281502779 -13.0384657033   -8.22458    8.0
 H2         2.2687196226   5.0455318847 -12.2381063865   -0.57906    1.0
 H3         3.2637013918   6.6744986012 -14.3707112580   -0.57906    1.0
 B12        2.1736821543   5.8368414420 -12.6382859200   -0.30866    0.0
 B13        2.6711730389   6.6513248003 -13.7045883558   -0.30866    0.0
 O1        -7.8603824949  -3.7011123339  -0.1805759901   -8.22458    8.0
 H2        -7.9267659423  -2.7940696332   1.3537808875   -0.57906    1.0
 H3        -7.8210302057  -2.4908943951  -1.4902355597   -0.57906    1.0
 B12       -7.8935742122  -3.2475914807   0.5866023959   -0.30866    0.0
 B13       -7.8407063440  -3.0960038617  -0.8354058277   -0.30866    0.0
 O1       -12.4283345035  -1.9866281633  -5.7741108972   -8.22458    8.0
 H2       -14.0115860836  -2.0765399071  -4.9576462236   -0.57906    1.0
 H3       -12.1724967223  -3.5615333813  -6.5713591863   -0.57906    1.0
 B12      -13.2199599818  -2.0315836443  -5.3658785649   -0.30866    0.0
 B13      -12.3004153012  -2.7740803814  -6.1727350463   -0.30866    0.0
 O1        -0.9551606382  -1.7060780485  13.8881233431   -8.22458    8.0
 H2        -1.6391217431  -0.4228126028  12.8552577887   -0.57906    1.0
 H3         0.1017636840  -2.6945401168  12.8454163049   -0.57906    1.0
 B12       -1.2971412782  -1.0644453949  13.3716910533   -0.30866    0.0
 B13       -0.4266985647  -2.2003091519  13.3667703114   -0.30866    0.0
 O1        -8.3702496458 -15.3127295401   7.2753170742   -8.22458    8.0
 H2        -7.7554574931 -16.5431542494   8.4108653535   -0.57906    1.0
 H3        -7.7198943977 -15.7285906914   5.6673737280   -0.57906    1.0
 B12       -8.0628538665 -15.9279415082   7.8430913248   -0.30866    0.0
 B13       -8.0450723188 -15.5206597292   6.4713455120   -0.30866    0.0
 O1       -10.5850750404   0.2671733889   9.6595982723   -8.22458    8.0
 H2       -11.5962786080  -0.1865668285   8.2621107372   -0.57906    1.0
 H3       -10.3077022788  -1.2244073420  10.5974871384   -0.57906    1.0
 B12      -11.0906766519   0.0403037370   8.9608546127   -0.30866    0.0
 B13      -10.4463884873  -0.4786165197  10.1285428133   -0.30866    0.0
 O1        -2.6230711573   7.5426708828 -14.3250924995   -8.22458    8.0
 H2        -2.9928263236   9.2075820530 -14.8473339791   -0.57906    1.0
 H3        -0.8707110874   7.4854105473 -13.9974651353   -0.57906    1.0
 B12       -2.8079490651   8.3751260904 -14.5862131936   -0.30866    0.0
 B13       -1.7468914470   7.5140403375 -14.1612787717   -0.30866    0.0
 O1         0.7733261719 -13.0339247084  -1.9448755743   -8.22458    8.0
 H2         0.7414552938 -11.2507592680  -1.9711340933   -0.57906    1.0
 H3         1.6853697779 -13.5516528470  -3.3876223594   -0.57906    1.0
 B12        0.7573905262 -12.1423422853  -1.9580044889   -0.30866    0.0
 B13        1.2293477682 -13.2927890748  -2.6662486219   -0.30866    0.0
 O1       -16.0649977969  -9.8436624129   6.9689737106   -8.22458    8.0
 H2       -14.5856599561 -10.4676703253   7.7458636183   -0.57906    1.0
 H3       -17.2188500980  -9.4815134401   8.2800256697   -0.57906    1.0
 B12      -15.3253289529 -10.1556663076   7.3574181741   -0.30866    0.0
 B13      -16.6419240239  -9.6625878650   7.6244991998   -0.30866    0.0
 O1        -7.7003194129   2.5512340454   0.8065791513   -8.22458    8.0
 H2        -6.7564665887   2.4515661634  -0.7035838896   -0.57906    1.0
 H3        -7.1624656852   1.1987067756   1.8374853560   -0.57906    1.0
 B12       -7.2283933487   2.5014004454   0.0514977434   -0.30866    0.0
 B13       -7.4313928970   1.8749707515   1.3220323662   -0.30866    0.0
 O1        -7.6793883920  -1.2254256035  -4.6946490961   -8.22458    8.0
 H2        -6.7960910564  -2.1957472444  -5.9028071904   -0.57906    1.0
 H3        -9.3837348417  -1.1819847226  -5.2187677084   -0.57906    1.0
 B12       -7.2377395314  -1.7105862063  -5.2987277365   -0.30866    0.0
 B13       -8.5315614240  -1.2037049454  -4.9567079955   -0.30866    0.0
 O1         2.1251293683 -15.2283453942  -6.6300037143   -8.22458    8.0
 H2         2.9344090906 -14.2335913020  -7.8697274246   -0.57906    1.0
 H3         2.9820164715 -16.7921069774  -6.5878319924   -0.57906    1.0
 B12        2.5297688382 -14.7309682145  -7.2498652882   -0.30866    0.0
 B13        2.5535725287 -16.0102260522  -6.6089175722   -0.30866    0.0
 O1         1.9177367896  -3.8041813638  10.4560591249   -8.22458    8.0
 H2         1.4554314739  -2.7100351989   9.1254569246   -0.57906    1.0
 H3         1.5321015419  -5.4597403923   9.9158795162   -0.57906    1.0
 B12        1.6865843309  -3.2571081495   9.7907584640   -0.30866    0.0
 B13        1.7249193649  -4.6319607462  10.1859697598   -0.30866    0.0
 O1         3.1317076928 -11.3672752386  -9.5553281439   -8.22458    8.0
 H2         3.4679002637 -10.0315052635  -8.4221567626   -0.57906    1.0
 H3         1.8762554779 -10.7823974448 -10.6792240258   -0.57906    1.0
 B12        3.2998041941 -10.6993907020  -8.9887424554   -0.30866    0.0
 B13        2.5039818012 -11.0748367927 -10.1172760871   -0.30866    0.0
 O1         0.6360872917 -10.0655407252   3.4899099822   -8.22458    8.0
 H2         1.4147568543 -11.6653303366   3.6153339123   -0.57906    1.0
 H3        -1.0783191331 -10.3593871539   3.0951326555   -0.57906    1.0
 B12        1.0254222927 -10.8654350863   3.5526220105   -0.30866    0.0
 B13       -0.2211157010 -10.2124634949   3.2925213821   -0.30866    0.0
 O1        -4.9847004793   2.8322974632  -4.0114326375   -8.22458    8.0
 H2        -5.4341493440   4.3942117025  -4.7461461038   -0.57906    1.0
 H3        -5.8411138537   1.5673238754  -4.9321835294   -0.57906    1.0
 B12       -5.2094246050   3.6132545131  -4.3787889819   -0.30866    0.0
 B13       -5.4129068598   2.1998105996  -4.4718076947   -0.30866    0.0
 O1        -1.8546829708  -1.4912373205 -13.0809488984   -8.22458    8.0
 H2        -0.8899534840  -2.0883121137 -11.7046557032   -0.57906    1.0
 H3        -2.7486638659  -0.0618885528 -12.4985877474   -0.57906    1.0
 B12       -1.3723182440  -1.7897749125 -12.3928027607   -0.30866    0.0
 B13       -2.3016734350  -0.7765631321 -12.7897687828   -0.30866    0.0
 O1        12.1887979645  -4.5687183120   7.5312702557   -8.22458    8.0
 H2        11.9630897150  -2.8006933348   7.5985585655   -0.57906    1.0
 H3        12.6225894392  -4.9664337360   5.8475150334   -0.57906    1.0
 B12       12.0759437909  -3.6847061452   7.5649147902   -0.30866    0.0
 B13       12.4056936530  -4.7675763458   6.6893930241   -0.30866    0.0
 O1         8.1925357166   2.3805648826 -11.8845589513   -8.22458    8.0
 H2         8.2308942194   4.1572962596 -11.7324455400   -0.57906    1.0
 H3         6.6941418815   1.9734209325 -12.7623026324   -0.57906    1.0
 B12        8.2117153108   3.2689302495 -11.8085020753   -0.30866    0.0
 B13        7.4433391419   2.1769925859 -12.3234306215   -0.30866    0.0
 O1         3.5878783639   2.5679239105  -2.2574287638   -8.22458    8.0
 H2         3.7087385425   1.0480727073  -3.1830795555   -0.57906    1.0
 H3         5.2575924067   3.1061746961  -1.9353645503   -0.57906    1.0
 B12        3.6483080328   1.8079985394  -2.7202540179   -0.30866    0.0
 B13        4.4227349648   2.8370495338  -2.0963965154   -0.30866    0.0
 O1         5.5971006959  -5.2575747977 -10.5556157275   -8.22458    8.0
 H2         5.5890925881  -6.4912738075  -9.2674748679   -0.57906    1.0
 H3         6.1944566317  -3.7483021425  -9.8162604752   -0.57906    1.0
 B12        5.5930965036  -5.8744243673  -9.9115457738   -0.30866    0.0
 B13        5.8957785254  -4.5029385348 -10.1859385774   -0.30866    0.0
 O1         4.7917423178   5.8596765954  -7.9913768437   -8.22458    8.0
 H2         4.2697257689   4.1628733777  -8.1638349939   -0.57906    1.0
 H3         4.6187527040   6.2763909091  -6.2657441989   -0.57906    1.0
 B12        4.5307342066   5.0112752871  -8.0776062835   -0.30866    0.0
 B13        4.7052476741   6.0680340528  -7.1285608860   -0.30866    0.0
 O1        12.0378522728   7.6285460473  -7.6851811455   -8.22458    8.0
 H2        11.1846123751   7.8561431172  -6.1354826260   -0.57906    1.0
 H3        13.5826147793   8.5105581844  -7.5542321503   -0.57906    1.0
 B12       11.6112321616   7.7423443217  -6.9103322804   -0.30866    0.0
 B13       12.8102333637   8.0695518553  -7.6197070425   -0.30866    0.0
 O1       -15.9924284112  -2.9201571464  -1.3965669725   -8.22458    8.0
 H2       -17.4519767508  -3.8704940173  -1.0119077379   -0.57906    1.0
 H3       -14.5991161214  -3.8496354446  -0.7832683446   -0.57906    1.0
 B12      -16.7222025654  -3.3953251405  -1.2042375895   -0.30866    0.0
 B13      -15.2957722507  -3.3848958541  -1.0899178929   -0.30866    0.0
 O1       -14.2164637958   5.1660561865   5.8628982836   -8.22458    8.0
 H2       -14.4708168191   5.1376075183   7.6280836743   -0.57906    1.0
 H3       -15.5315694593   4.2021611903   5.1398576342   -0.57906    1.0
 B12      -14.3436399390   5.1518320854   6.7454907343   -0.30866    0.0
 B13      -14.8740162590   4.6841089214   5.5013777142   -0.30866    0.0
 O1        -8.4121083159   0.6519209737 -12.7905098132   -8.22458    8.0
 H2        -6.9050109332   1.4961965501 -12.3463921701   -0.57906    1.0
 H3        -9.6967915825   1.3114405709 -11.7436062570   -0.57906    1.0
 B12       -7.6585596767   1.0740584088 -12.5684513417   -0.30866    0.0
 B13       -9.0544500014   0.9816804192 -12.2670583852   -0.30866    0.0
 O1         2.8759332159 -13.4636725759  11.1013615231   -8.22458    8.0
 H2         1.1227787417 -13.3210405455  10.8055748699   -0.57906    1.0
 H3         3.1520907728 -12.9713155340  12.7933147723   -0.57906    1.0
 B12        1.9993563256 -13.3923567098  10.9534678686   -0.30866    0.0
 B13        3.0140123412 -13.2174942041  11.9473378199   -0.30866    0.0
 O1         7.0568476747  12.0029934983  -7.5977184478   -8.22458    8.0
 H2         8.7550976890  12.0459337765  -8.1413058577   -0.57906    1.0
 H3         6.7145076738  13.5903078225  -6.8597341589   -0.57906    1.0
 B12        7.9059723634  12.0244632546  -7.8695121984   -0.30866    0.0
 B13        6.8856773559  12.7966502776  -7.2287263490   -0.30866    0.0
 O1        -6.4154003721 -14.8704504816   2.6356127585   -8.22458    8.0
 H2        -6.2299167132 -15.4420657654   0.9562569206   -0.57906    1.0
 H3        -5.6310286929 -13.2708767459   2.7222683032   -0.57906    1.0
 B12       -6.3226587704 -15.1562583649   1.7959352135   -0.30866    0.0
 B13       -6.0232147602 -14.0706638551   2.6789409049   -0.30866    0.0
 O1        -4.6550792069 -10.0514169319   2.8335004824   -8.22458    8.0
 H2        -5.0658920017  -8.9623562339   4.1850047904   -0.57906    1.0
 H3        -5.1027984921  -9.1976217653   1.3328454568   -0.57906    1.0
 B12       -4.8604854027  -9.5068870391   3.5092526714   -0.30866    0.0
 B13       -4.8789386479  -9.6245198048   2.0831730046   -0.30866    0.0
 O1        -9.5290978793   6.0535700779   3.7496435485   -8.22458    8.0
 H2        -9.1829090719   4.6527633164   2.7011789677   -0.57906    1.0
 H3       -11.2087493546   5.8648319488   4.3193216074   -0.57906    1.0
 B12       -9.3560031625   5.3531670704   3.2254113705   -0.30866    0.0
 B13      -10.3689233038   5.9592013866   4.0344826904   -0.30866    0.0
 O1        -1.3360726453   0.3299941556  -7.6650295471   -8.22458    8.0
 H2        -2.6715262859  -0.8455608105  -7.7915931517   -0.57906    1.0
 H3        -1.9496471289   1.7013457455  -6.7036215065   -0.57906    1.0
 B12       -2.0037990079  -0.2577833735  -7.7283115454   -0.30866    0.0
 B13       -1.6428594294   1.0156699045  -7.1843257229   -0.30866    0.0
 O1        -4.9893620818 -18.2780043985   9.5290324772   -8.22458    8.0
 H2        -3.6710790975 -17.6396385231   8.5111900370   -0.57906    1.0
 H3        -4.3019743036 -19.6274206389  10.4713477658   -0.57906    1.0
 B12       -4.3302210606 -17.9588212938   9.0201112748   -0.30866    0.0
 B13       -4.6456686636 -18.9527123517  10.0001901393   -0.30866    0.0
 O1       -11.6120415893   6.0753587824  -6.0080181751   -8.22458    8.0
 H2       -12.2377922919   5.0383524885  -7.3173837679   -0.57906    1.0
 H3        -9.8473010895   6.1871832594  -6.2416214827   -0.57906    1.0
 B12      -11.9249172081   5.5568558527  -6.6627006092   -0.30866    0.0
 B13      -10.7296716069   6.1312712382  -6.1248194666   -0.30866    0.0
 O1         2.7237836770   1.9689950522 -10.5127057854   -8.22458    8.0
 H2         1.3054182737   1.2733234920  -9.6846569259   -0.57906    1.0
 H3         3.4570668583   0.6525155380 -11.4669393601   -0.57906    1.0
 B12        2.0146011362   1.6211597446 -10.0986813260   -0.30866    0.0
 B13        3.0904254285   1.3107557676 -10.9898225432   -0.30866    0.0
 O1        -3.5844247674  12.4058231907 -14.9938625576   -8.22458    8.0
 H2        -2.2094816540  13.4014926546 -14.4465436339   -0.57906    1.0
 H3        -4.5947384631  13.4508609262 -16.0275678435   -0.57906    1.0
 B12       -2.8969532963  12.9036574435 -14.7202029815   -0.30866    0.0
 B13       -4.0895817009  12.9283415793 -15.5107150863   -0.30866    0.0
 O1        -5.0778922683   7.9814397612   4.7548986515   -8.22458    8.0
 H2        -6.6824566737   7.2707844236   4.4359530276   -0.57906    1.0
 H3        -4.0218122896   7.4898229323   3.4041980101   -0.57906    1.0
 B12       -5.8801743422   7.6261123747   4.5954262316   -0.30866    0.0
 B13       -4.5498521502   7.7356316291   4.0795487228   -0.30866    0.0
 O1        -6.6182133783   7.1573489900  -5.7658653005   -8.22458    8.0
 H2        -6.7783071412   8.5047717347  -4.6081925553   -0.57906    1.0
 H3        -6.2106647149   7.8826893076  -7.3435755912   -0.57906    1.0
 B12       -6.6982603179   7.8310598757  -5.1870288293   -0.30866    0.0
 B13       -6.4144391047   7.5200186621  -6.5547203472   -0.30866    0.0
 O1         8.1667094990  -6.8650095958   9.0674042096   -8.22458    8.0
 H2         9.8347936032  -6.3379127973   8.7194837636   -0.57906    1.0
 H3         7.8479186512  -6.4632764585  10.7757271102   -0.57906    1.0
 B12        9.0007512343  -6.6014614146   8.8934436672   -0.30866    0.0
 B13        8.0073137582  -6.6641432453   9.9215653405   -0.30866    0.0
 O1        -6.9419099216  12.4648204827   4.8337019539   -8.22458    8.0
 H2        -5.9176177838  11.0926500565   4.3343441778   -0.57906    1.0
 H3        -8.2161424416  12.6302056471   3.5966233456   -0.57906    1.0
 B12       -6.4297637940  11.7787355530   4.5840234736   -0.30866    0.0
 B13       -7.5790261229  12.5475133483   4.2151630575   -0.30866    0.0
 O1         9.0511289056   3.3920043501  -1.8871110936   -8.22458    8.0
 H2         9.2029684887   5.0283869821  -2.5803504991   -0.57906    1.0
 H3         9.5055100994   3.5197504251  -0.1670521057   -0.57906    1.0
 B12        9.1270485548   4.2101952519  -2.2337310375   -0.30866    0.0
 B13        9.2783193602   3.4558769734  -1.0270818407   -0.30866    0.0
 O1       -17.6491634096  -9.5029733113   1.7957904121   -8.22458    8.0
 H2       -18.9937499481 -10.3660286006   1.0029431008   -0.57906    1.0
 H3       -17.4107915442 -10.2754551780   3.3857070358   -0.57906    1.0
 B12      -18.3214564191  -9.9345005719   1.3993665693   -0.30866    0.0
 B13      -17.5299772172  -9.8892138606   2.5907485368   -0.30866    0.0
 O1         7.7451082445  -1.8058810283   1.5754886112   -8.22458    8.0
 H2         8.7372283582  -2.2774121500   0.1702340678   -0.57906    1.0
 H3         7.5828014717  -3.2577612025   2.5987601891   -0.57906    1.0
 B12        8.2411681065  -2.0416461375   0.8728614292   -0.30866    0.0
 B13        7.6639546632  -2.5318206637   2.0871244898   -0.30866    0.0
 O1        -4.6154714331  -3.2211228743  -8.1530488828   -8.22458    8.0
 H2        -5.5371931087  -3.7948156646  -9.5682131791   -0.57906    1.0
 H3        -3.2903889496  -4.3873472912  -7.8971948772   -0.57906    1.0
 B12       -5.0763323656  -3.5079688609  -8.8606307587   -0.30866    0.0
 B13       -3.9529302861  -3.8042346742  -8.0251216078   -0.30866    0.0
 O1         8.3679526562   7.5915838749 -10.9609381196   -8.22458    8.0
 H2         9.6983286586   7.7579565677  -9.7845861016   -0.57906    1.0
 H3         6.8578669069   7.4944666450 -10.0166958181   -0.57906    1.0
 B12        9.0331406996   7.6747702050 -10.3727626085   -0.30866    0.0
 B13        7.6129098237   7.5430252437 -10.4888174668   -0.30866    0.0
 O1       -12.4821741976  -6.0925813697  -0.3177141573   -8.22458    8.0
 H2       -12.3179025294  -7.6910082601  -1.0919431583   -0.57906    1.0
 H3       -10.8398021636  -5.4059367688  -0.2058323235   -0.57906    1.0
 B12      -12.4000387877  -6.8917946008  -0.7048285023   -0.30866    0.0
 B13      -11.6609886048  -5.7492588551  -0.2617730849   -0.30866    0.0
 O1         1.4776788220  11.5379960546  -5.3235331707   -8.22458    8.0
 H2        -0.2246956624  11.8195434870  -4.8718292755   -0.57906    1.0
 H3         1.4738275023  10.9904537836  -7.0210510291   -0.57906    1.0
 B12        0.6264919805  11.6787698332  -5.0976809306   -0.30866    0.0
 B13        1.4757535628  11.2642249815  -6.1722918073   -0.30866    0.0
 O1       -11.4725143001 -11.4816403268   7.4076097544   -8.22458    8.0
 H2       -10.6073316242  -9.9254387630   7.3023487417   -0.57906    1.0
 H3       -10.2315677984 -12.7445334077   7.6233343404   -0.57906    1.0
 B12      -11.0399234567 -10.7035396138   7.3549792221   -0.30866    0.0
 B13      -10.8520415438 -12.1130869361   7.5154720215   -0.30866    0.0
 O1       -12.7094244253  -1.2086602363   5.2077325857   -8.22458    8.0
 H2       -13.8098905503  -0.3079046445   4.1311649277   -0.57906    1.0
 H3       -13.1739597095  -2.9270030482   5.0942019678   -0.57906    1.0
 B12      -13.2596571203  -0.7582822484   4.6694490362   -0.30866    0.0
 B13      -12.9416916999  -2.0678314502   5.1509675563   -0.30866    0.0
 O1         6.9158447393  -3.0868935455  11.8674919192   -8.22458    8.0
 H2         6.9173922790  -1.8849223782  13.1853110148   -0.57906    1.0
 H3         5.2200682318  -3.2756386878  11.3477789612   -0.57906    1.0
 B12        6.9166189070  -2.4859081997  12.5264012796   -0.30866    0.0
 B13        6.0679568834  -3.1812663546  11.6076352528   -0.30866    0.0
 O1        -7.9325658173   7.4394311930  12.3437349226   -8.22458    8.0
 H2        -7.6310332591   6.1017512556  11.2030882849   -0.57906    1.0
 H3        -7.8965598179   8.9454384341  11.3887323004   -0.57906    1.0
 B12       -7.7817996174   6.7705911847  11.7734120958   -0.30866    0.0
 B13       -7.9145628969   8.1924347740  11.8662341036   -0.30866    0.0
 O1        -8.1814515280  11.7432606330  10.0227774766   -8.22458    8.0
 H2        -9.6489924421  12.6395006543  10.4965514107   -0.57906    1.0
 H3        -8.1613356457  11.6984806786   8.2398096256   -0.57906    1.0
 B12       -8.9152216452  12.1913804437  10.2596647510   -0.30866    0.0
 B13       -8.1713932470  11.7208704559   9.1312938585   -0.30866    0.0
 O1        -1.8823372746 -15.5255825350   5.5699551187   -8.22458    8.0
 H2        -0.4388969747 -15.7273038833   4.5417660072   -0.57906    1.0
 H3        -3.2858590864 -16.0178552093   4.5854865369   -0.57906    1.0
 B12       -1.1606171340 -15.6264430461   5.0558610355   -0.30866    0.0
 B13       -2.5840981898 -15.7717187092   5.0777213004   -0.30866    0.0
 O1         1.5675194720   1.5930053749  16.9991933297   -8.22458    8.0
 H2         0.6820917394   0.3392242528  16.0906588619   -0.57906    1.0
 H3         1.2935089490   1.2614612748  18.7301991049   -0.57906    1.0
 B12        1.1248058779   0.9661151861  16.5449259027   -0.30866    0.0
 B13        1.4305144827   1.4272336971  17.8646960241   -0.30866    0.0
 O1        -4.8089923406  -7.7520538844   7.6676294537   -8.22458    8.0
 H2        -6.4589682404  -7.1146027310   7.4382393764   -0.57906    1.0
 H3        -4.8830814533  -8.8824875425   9.0453140325   -0.57906    1.0
 B12       -5.6339798857  -7.4333281919   7.5529341454   -0.30866    0.0
 B13       -4.8460364921  -8.3172705977   8.3564714735   -0.30866    0.0
 O1        -9.6259821115  -7.0140967261   7.5725873931   -8.22458    8.0
 H2       -10.6760580921  -6.4434732304   6.2485354636   -0.57906    1.0
 H3        -9.9028899422  -5.9204418778   8.9541174785   -0.57906    1.0
 B12      -10.1510197902  -6.7287853690   6.9105614149   -0.30866    0.0
 B13       -9.7644357152  -6.4672696927   8.2633524223   -0.30866    0.0
 O1        -0.6663623635  17.2922371962  -2.9523870630   -8.22458    8.0
 H2        -0.4653931641  17.6861115649  -1.2244233443   -0.57906    1.0
 H3        -1.3513280277  18.7426308217  -3.7324925819   -0.57906    1.0
 B12       -0.5658776501  17.4891739475  -2.0884054262   -0.30866    0.0
 B13       -1.0088450819  18.0174335759  -3.3424400450   -0.30866    0.0
 O1       -14.0095176422   8.9253469742  -2.6441811157   -8.22458    8.0
 H2       -14.2205820364   7.4019497798  -1.7408002102   -0.57906    1.0
 H3       -13.1026432163   8.5212266670  -4.1259536366   -0.57906    1.0
 B12      -14.1150500027   8.1636488296  -2.1924905271   -0.30866    0.0
 B13      -13.5560805927   8.7232872732  -3.3850672403   -0.30866    0.0
 O1        -3.3880309157  13.2613818286  -4.4719198255   -8.22458    8.0
 H2        -2.7813769935  14.7198368352  -3.6435091404   -0.57906    1.0
 H3        -4.7467926934  12.6446129876  -3.4948083280   -0.57906    1.0
 B12       -3.0847037780  13.9906091343  -4.0577149069   -0.30866    0.0
 B13       -4.0674116279  12.9529972105  -3.9833645007   -0.30866    0.0
 O1         5.2479754575 -10.4000806864   7.3141904947   -8.22458    8.0
 H2         6.4890145794  -9.3157120052   7.9963566855   -0.57906    1.0
 H3         4.4114266738 -11.1555225407   8.6965355992   -0.57906    1.0
 B12        5.8684949235  -9.8578964230   7.6552731053   -0.30866    0.0
 B13        4.8297009707 -10.7778016908   8.0053625622   -0.30866    0.0
 O1        -7.8827761613  -0.9027461239   4.1981700162   -8.22458    8.0
 H2        -9.5878720600  -0.7493316744   4.6986660038   -0.57906    1.0
 H3        -6.9353394663  -1.1795464025   5.6838111456   -0.57906    1.0
 B12       -8.7353239327  -0.8260388701   4.4484175436   -0.30866    0.0
 B13       -7.4090576359  -1.0411462342   4.9409901145   -0.30866    0.0
 O1         0.1739447082  -8.1616297968   8.1343849700   -8.22458    8.0
 H2         1.1351172284  -8.5680632051   6.6878914437   -0.57906    1.0
 H3        -1.2005467671  -7.1719912084   7.5751239403   -0.57906    1.0
 B12        0.6545310654  -8.3648466379   7.4111386779   -0.30866    0.0
 B13       -0.5133009324  -7.6668106395   7.8547549262   -0.30866    0.0
 O1       -13.7041644217   4.0353524398  10.9481843536   -8.22458    8.0
 H2       -13.9113687528   4.3467802199  12.6921635259   -0.57906    1.0
 H3       -12.5030623590   2.7250285884  10.8005717174   -0.57906    1.0
 B12      -13.8077668207   4.1910665644  11.8201735649   -0.30866    0.0
 B13      -13.1036136237   3.3801907487  10.8743776606   -0.30866    0.0
 O1        -3.8364321397   9.9582918230  -9.0970352539   -8.22458    8.0
 H2        -4.0814068556  10.3472561868 -10.8204267831   -0.57906    1.0
 H3        -3.5925198996  11.5094790452  -8.2510392307   -0.57906    1.0
 B12       -3.9589194974  10.1527735493  -9.9587308125   -0.30866    0.0
 B13       -3.7144760194  10.7338849785  -8.6740370363   -0.30866    0.0
 O1        -1.8645356232   8.6678842424   8.6735095517   -8.22458    8.0
 H2        -2.9237262415   8.2263678160   7.3080196286   -0.57906    1.0
 H3        -1.0449690929  10.1848615867   8.2169192651   -0.57906    1.0
 B12       -2.3941308761   8.4471257766   7.9907650180   -0.30866    0.0
 B13       -1.4547523018   9.4263726620   8.4452148362   -0.30866    0.0
 O1         5.4836720342  13.7190443898   0.0642880561   -8.22458    8.0
 H2         5.4134174825  14.1475506333  -1.6656919865   -0.57906    1.0
 H3         6.8925021408  12.6445788066   0.2694847716   -0.57906    1.0
 B12        5.4485444441  13.9332976632  -0.8007016072   -0.30866    0.0
 B13        6.1880867732  13.1818117499   0.1668867719   -0.30866    0.0
 O1         4.4179453490  15.1802148836  -4.7502415575   -8.22458    8.0
 H2         3.2848168339  13.8739576031  -5.1873867689   -0.57906    1.0
 H3         3.5189651399  16.7126878917  -4.9075479896   -0.57906    1.0
 B12        3.8513815686  14.5270861903  -4.9688140236   -0.30866    0.0
 B13        3.9684557216  15.9464513346  -4.8288946340   -0.30866    0.0
 O1        -0.5153937895   5.3615404558  -2.5895671115   -8.22458    8.0
 H2        -1.0162115990   5.4929548054  -4.2964051358   -0.57906    1.0
 H3         1.1485277136   4.7190876701  -2.5915420362   -0.57906    1.0
 B12       -0.7658029674   5.4272477506  -3.4429857224   -0.30866    0.0
 B13        0.3165666889   5.0403141830  -2.5905541726   -0.30866    0.0
 O1         0.3839681386  14.3067427760 -13.0061863748   -8.22458    8.0
 H2         1.4755756069  12.9529616036 -12.6098860805   -0.57906    1.0
 H3         1.4165803484  15.7358542393 -13.2758837987   -0.57906    1.0
 B12        0.9297713740  13.6298521721 -12.8080362574   -0.30866    0.0
 B13        0.9002737447  15.0212984900 -13.1410351164   -0.30866    0.0
 O1        -1.8444312710 -12.4852677325   9.7306301894   -8.22458    8.0
 H2        -2.4729041930 -13.6829489269   8.5678895504   -0.57906    1.0
 H3        -1.3074998914 -11.0772125100   8.7764449690   -0.57906    1.0
 B12       -2.1586677105 -13.0841083791   9.1492603670   -0.30866    0.0
 B13       -1.5759655597 -11.7812401707   9.2535380763   -0.30866    0.0
 O1        11.3335155909  -0.1466630212  -4.5786647517   -8.22458    8.0
 H2        10.5062241098   1.2082118948  -3.7654691922   -0.57906    1.0
 H3        12.5030555619   0.5750055430  -5.7156585909   -0.57906    1.0
 B12       10.9198697700   0.5307739492  -4.1720668959   -0.30866    0.0
 B13       11.9182854960   0.2141707733  -5.1471615953   -0.30866    0.0
 O1         1.7513255988   8.1088616579   4.1533772126   -8.22458    8.0
 H2         0.1914001672   7.2529148632   4.2773610140   -0.57906    1.0
 H3         1.3995550720   9.7196516439   3.4729381130   -0.57906    1.0
 B12        0.9713633319   7.6808880833   4.2153692440   -0.30866    0.0
 B13        1.5754407843   8.9142564736   3.8131577934   -0.30866    0.0
 O1        -6.4441382966  10.3764785907  -2.0009983272   -8.22458    8.0
 H2        -7.9264668480  10.6450963804  -1.0460476481   -0.57906    1.0
 H3        -5.2299389905   9.6996842780  -0.8833875925   -0.57906    1.0
 B12       -7.1853025093  10.5107875814  -1.5235234743   -0.30866    0.0
 B13       -5.8370385806  10.0380815302  -1.4421934465   -0.30866    0.0
 O1        -3.8415614702  16.7309231053   5.9021790377   -8.22458    8.0
 H2        -4.9731023145  15.5802948829   5.1425381605   -0.57906    1.0
 H3        -4.0227765898  16.5392050760   7.6662055478   -0.57906    1.0
 B12       -4.4073315841  16.1556093093   5.5223583633   -0.30866    0.0
 B13       -3.9321687217  16.6350644058   6.7841920569   -0.30866    0.0
 O1         8.4456026001   3.1923154962   2.9419909934   -8.22458    8.0
 H2         8.2167323371   1.4264979356   3.0463509278   -0.57906    1.0
 H3         9.1036683061   3.7177690434   4.5143244018   -0.57906    1.0
 B12        8.3311673678   2.3094070072   2.9941705669   -0.30866    0.0
 B13        8.7746353523   3.4550425611   3.7281573039   -0.30866    0.0
 O1         2.4435004038  10.7172252138 -10.1845481952   -8.22458    8.0
 H2         4.1794564610  10.7251459417  -9.7749409683   -0.57906    1.0
 H3         2.1719681425   9.3043345291 -11.2387751133   -0.57906    1.0
 B12        3.3114780885  10.7211859076  -9.9797444304   -0.30866    0.0
 B13        2.3077339293  10.0107802013 -10.7116615029   -0.30866    0.0
 O1        -8.3901440738  -3.9185649711  11.3319686113   -8.22458    8.0
 H2        -7.6506880087  -4.4518808085  12.8649928107   -0.57906    1.0
 H3        -7.0553809084  -3.3768425380  10.2801471680   -0.57906    1.0
 B12       -8.0204165283  -4.1852228918  12.0984805980   -0.30866    0.0
 B13       -7.7227629782  -3.6477037566  10.8060577767   -0.30866    0.0
 O1        -6.9617433879   3.7881056232   8.8263688039   -8.22458    8.0
 H2        -7.5175571630   4.6345118378   7.3580187714   -0.57906    1.0
 H3        -8.0677788286   2.4108569944   9.0738684382   -0.57906    1.0
 B12       -7.2396498852   4.2113088551   8.0921940743   -0.30866    0.0
 B13       -7.5147607180   3.0994814334   8.9501189077   -0.30866    0.0
 O1        -5.5028592397  -4.5936745801  15.5305750419   -8.22458    8.0
 H2        -5.2183376549  -6.3154053871  15.8994581492   -0.57906    1.0
 H3        -3.9145640084  -3.8847990342  15.1353561539   -0.57906    1.0
 B12       -5.3605988870  -5.4545397457  15.7150166017   -0.30866    0.0
 B13       -4.7087120638  -4.2392365693  15.3329656041   -0.30866    0.0
 O1         5.9259553346   1.3090774184  14.4648171912   -8.22458    8.0
 H2         6.7777651984   2.8754719828  14.4177823611   -0.57906    1.0
 H3         4.7442592190   1.4079477348  15.7971847087   -0.57906    1.0
 B12        6.3518603440   2.0922743095  14.4412994743   -0.30866    0.0
 B13        5.3351073543   1.3585121856  15.1310006481   -0.30866    0.0
 O1         0.8044246281   6.8492952683  16.0265292041   -8.22458    8.0
 H2        -0.5516786506   6.7500614366  14.8721805588   -0.57906    1.0
 H3         1.4235308571   5.1894642548  16.2340207330   -0.57906    1.0
 B12        0.1263731618   6.7996787655  15.4493551038   -0.30866    0.0
 B13        1.1139779157   6.0193801746  16.1302751909   -0.30866    0.0
 O1        -0.2873797360  13.1021300416   8.3704765323   -8.22458    8.0
 H2        -1.6010465241  13.7780625193   9.3698658991   -0.57906    1.0
 H3        -0.2102545401  14.0910336344   6.8880779223   -0.57906    1.0
 B12       -0.9442128397  13.4400958895   8.8701713291   -0.30866    0.0
 B13       -0.2488168477  13.5965814471   7.6292773407   -0.30866    0.0
 O1       -12.1441206730   1.8014728507  -9.0840984963   -8.22458    8.0
 H2       -13.7942256246   1.7354573017  -9.7580271622   -0.57906    1.0
 H3       -12.0426194818   0.5176249757  -7.8500740262   -0.57906    1.0
 B12      -12.9691727852   1.7684653932  -9.4210629608   -0.30866    0.0
 B13      -12.0933697138   1.1595492302  -8.4670863928   -0.30866    0.0
 O1         4.8454745138   7.7879027888   8.4722353254   -8.22458    8.0
 H2         4.4406574880   9.2110100740   9.4683643737   -0.57906    1.0
 H3         3.8895062750   7.9232107713   6.9725017734   -0.57906    1.0
 B12        4.6430663204   8.4994560654   8.9702999678   -0.30866    0.0
 B13        4.3674907139   7.8555564141   7.7223686677   -0.30866    0.0
 O1       -12.0988193865   4.3524470098  -0.7979875407   -8.22458    8.0
 H2       -12.0599577345   4.4736851926  -2.5770815027   -0.57906    1.0
 H3       -10.6887876257   3.3701617912  -0.3201691299   -0.57906    1.0
 B12      -12.0793889007   4.4130663034  -1.6875342161   -0.30866    0.0
 B13      -11.3938038463   3.8613046027  -0.5590780297   -0.30866    0.0
 O1        -2.4579619705   8.7277278642   0.4834079023   -8.22458    8.0
 H2        -1.8786921543   7.3110949208  -0.4325516133   -0.57906    1.0
 H3        -1.1537459476   9.9431265304   0.4267431127   -0.57906    1.0
 B12       -2.1683275047   8.0194114397   0.0254283729   -0.30866    0.0
 B13       -1.8058544013   9.3354272446   0.4550757359   -0.30866    0.0
 O1         5.1977884464   6.3526779897   1.1782002913   -8.22458    8.0
 H2         6.1678838880   4.9704717633   1.7524868335   -0.57906    1.0
 H3         3.8956496200   6.5965276370   2.3725017930   -0.57906    1.0
 B12        5.6828362452   5.6615751438   1.4653431471   -0.30866    0.0
 B13        4.5467191112   6.4746030807   1.7753506268   -0.30866    0.0
 O1         9.1815851641  -0.3403799615   8.4162232675   -8.22458    8.0
 H2         8.4492234568  -1.0576664197   6.9565895062   -0.57906    1.0
 H3         8.7280607095  -1.3893197559   9.7856848871   -0.57906    1.0
 B12        8.8154045889  -0.6990227759   7.6864064080   -0.30866    0.0
 B13        8.9548232153  -0.8648494439   9.1009540985   -0.30866    0.0
 O1         8.4031976348   5.9261321391  13.8489839225   -8.22458    8.0
 H2         7.6246047078   7.4451409515  14.3664677702   -0.57906    1.0
 H3         9.5173167307   6.3475160070  12.5213700756   -0.57906    1.0
 B12        8.0139010925   6.6856360897  14.1077260366   -0.30866    0.0
 B13        8.9602571040   6.1368236174  13.1851771893   -0.30866    0.0
 O1         9.2818817206   8.1781453525  -3.5814260474   -8.22458    8.0
 H2         7.6161491997   8.4979314272  -4.1332016230   -0.57906    1.0
 H3         9.5416165348   9.1791879469  -2.1282103713   -0.57906    1.0
 B12        8.4490157903   8.3380380797  -3.8573140468   -0.30866    0.0
 B13        9.4117494579   8.6786663395  -2.8548184210   -0.30866    0.0
 O1       -10.1080096019  10.4015308992   1.2219759085   -8.22458    8.0
 H2       -11.6835229648  10.5028365454   0.3919885232   -0.57906    1.0
 H3        -9.9359471814   8.7201431782   1.7918128203   -0.57906    1.0
 B12      -10.8957659538  10.4521840933   0.8069822769   -0.30866    0.0
 B13      -10.0219780621   9.5608374097   1.5068944255   -0.30866    0.0
 O1        10.3212547802  -4.4314284578  -2.3956853488   -8.22458    8.0
 H2        10.0915472811  -5.9335311052  -3.3296587704   -0.57906    1.0
 H3        10.7951309591  -3.1691355190  -3.5633506067   -0.57906    1.0
 B12       10.2064009733  -5.1824797252  -2.8626715661   -0.30866    0.0
 B13       10.5581928123  -3.8002819321  -2.9795174842   -0.30866    0.0
 O1       -13.8807232126  -6.0278460695   4.5973467470   -8.22458    8.0
 H2       -14.9148345582  -7.2684372258   5.3542691727   -0.57906    1.0
 H3       -13.9951871538  -6.2711973074   2.8340933813   -0.57906    1.0
 B12      -14.3977786157  -6.6481412992   4.9758081962   -0.30866    0.0
[...]
    7  N  1  X   -0.112720   0.263591   0.154463  -0.199875  -0.345498
    8  N  1  Y   -0.002068   0.015549   0.015453  -0.045626  -0.037166
    9  N  1  Z    0.006728  -0.022870  -0.032142   0.003133   0.039401
   10  H  2  S   -0.000225   0.001558   0.004016  -0.001676  -0.012684
   11  H  2  S    0.003043  -0.003904  -0.004434   0.003938   0.009726
   12  C  3  S    0.000808  -0.002223  -0.000156   0.001138  -0.000296
   13  C  3  S   -0.002445   0.010436   0.000907  -0.002258   0.004957
   14  C  3  X   -0.037213   0.264964  -0.002607  -0.171157   0.472889
   15  C  3  Y   -0.005792   0.051863   0.004423  -0.041793   0.082439
   16  C  3  Z    0.003368  -0.022908  -0.001803   0.020468  -0.038117
   17  C  3  S    0.001143  -0.010966   0.001279  -0.004678   0.016011
   18  C  3  X   -0.013951   0.132625  -0.016947  -0.187809   0.491971
   19  C  3  Y    0.006932   0.007530  -0.013982  -0.053214   0.098789
   20  C  3  Z    0.000362  -0.017033  -0.000320   0.019321  -0.051738
   21  H  4  S   -0.001465  -0.000280   0.002628  -0.008600  -0.000557
   22  H  4  S   -0.000251  -0.006100   0.003414  -0.015591  -0.005395
   23  C  5  S   -0.001727   0.000560  -0.001298   0.000979  -0.002260
   24  C  5  S    0.002802   0.004366  -0.002225   0.005396   0.004742
   25  C  5  X    0.014119   0.285522  -0.090208   0.354471   0.052569
   26  C  5  Y    0.004279   0.038311  -0.011869   0.048687   0.010902
   27  C  5  Z    0.002258  -0.035334   0.019909  -0.058953  -0.007135
   28  C  5  S    0.023945  -0.008927   0.035554  -0.020893   0.024299
   29  C  5  X   -0.012375   0.222550  -0.083339   0.381386  -0.070528
   30  C  5  Y    0.008662   0.024117  -0.008705   0.047393  -0.018818
   31  C  5  Z    0.005948  -0.023612   0.043313  -0.056086   0.020271
   32  H  6  S   -0.000144   0.001639  -0.001853  -0.000879   0.003998
   33  H  6  S    0.002327   0.001164  -0.001393  -0.002727   0.000493
   34  C  7  S   -0.003896  -0.002130   0.004491  -0.003045   0.005372
   35  C  7  S    0.014428   0.009760  -0.016137   0.017518  -0.021753
   36  C  7  X    0.200842   0.077712  -0.041205   0.178813  -0.260183
   37  C  7  Y    0.027173   0.006675  -0.029213   0.025320  -0.038331
   38  C  7  Z   -0.022070  -0.015077   0.001303  -0.027296   0.039985
   39  C  7  S   -0.007436  -0.008403   0.010514  -0.009879  -0.006032
   40  C  7  X    0.118995   0.063281   0.005994   0.139456  -0.268222
   41  C  7  Y    0.012345   0.009954   0.035258   0.001691  -0.005967
   42  C  7  Z    0.001509  -0.004922   0.038189  -0.012550   0.043722
   43  O  8  S   -0.002679   0.001604  -0.000838   0.001472  -0.001692
   44  O  8  S    0.009449  -0.005323   0.005991  -0.005359   0.006569
   45  O  8  X    0.389514  -0.099107   0.213393  -0.219312   0.139605
   46  O  8  Y    0.058113  -0.008810   0.035294  -0.029791   0.020516
   47  O  8  Z   -0.024456   0.007556  -0.008983   0.014008  -0.016701
   48  O  8  S   -0.004345  -0.000611  -0.015061  -0.002716   0.002467
   49  O  8  X    0.292705  -0.098877   0.185954  -0.221579   0.158895
   50  O  8  Y    0.041609  -0.009743   0.018472  -0.027804   0.016225
   51  O  8  Z   -0.017720   0.007337  -0.010052   0.017693  -0.023217
   52  N  9  S   -0.002233  -0.001925  -0.004106  -0.003345   0.000819
   53  N  9  S    0.003945   0.002254   0.009959   0.002239   0.002242
   54  N  9  X   -0.185895  -0.186757  -0.359777  -0.132888   0.121919
   55  N  9  Y   -0.028795  -0.031646  -0.050605  -0.020397   0.016306
   56  N  9  Z    0.021608   0.023871   0.044273   0.009580  -0.016995
   57  N  9  S    0.002065   0.005458  -0.018335   0.047043  -0.033202
   58  N  9  X   -0.151437  -0.156265  -0.349796  -0.150034   0.160085
   59  N  9  Y   -0.036293  -0.037962  -0.026588  -0.033369   0.045708
   60  N  9  Z    0.018373   0.026099   0.050496   0.010645  -0.029308
   61  H 10  S   -0.005430  -0.006930  -0.008137  -0.010339   0.005688
   62  H 10  S    0.002023   0.000723   0.004085   0.000162   0.002228
   63  C 11  S    0.000833  -0.001462  -0.000288   0.001619   0.001886
   64  C 11  S   -0.007312   0.002543  -0.005362  -0.005067  -0.006537
   65  C 11  X   -0.280360  -0.102882   0.129398   0.010830  -0.086035
   66  C 11  Y   -0.014220  -0.008823   0.009727   0.004888  -0.002351
   67  C 11  Z    0.040295   0.004820  -0.028859   0.004122   0.028442
   68  C 11  S    0.009152   0.010987   0.022321   0.011757  -0.018419
   69  C 11  X   -0.147736  -0.077286   0.078257   0.041229  -0.080102
   70  C 11  Y   -0.029304  -0.012731  -0.024537   0.011527  -0.004888
   71  C 11  Z    0.031682   0.019066  -0.036472  -0.022926   0.007447
   72  O 12  S   -0.001211  -0.000374  -0.000319  -0.000356  -0.000166
   73  O 12  S    0.002012   0.000834  -0.001678   0.001920  -0.000125
   74  O 12  X   -0.147042  -0.157639   0.380985   0.273581   0.209305
   75  O 12  Y   -0.013342  -0.011525   0.023036   0.012751   0.012585
   76  O 12  Z    0.027446   0.033988  -0.059927  -0.051496  -0.043998
   77  O 12  S    0.012419   0.002902   0.017949  -0.005103   0.004781
   78  O 12  X   -0.082984  -0.118246   0.282939   0.199794   0.174314
   79  O 12  Y   -0.010405  -0.009430   0.013369   0.011376   0.009748
   80  O 12  Z    0.013431   0.023258  -0.039317  -0.033509  -0.034138

                     31         32
                    0.1360     0.0610
                     A          A   
    1  N  1  S   -0.003310  -0.003887
    2  N  1  S    0.008290   0.005825
    3  N  1  X   -0.193361  -0.313874
    4  N  1  Y   -0.021608  -0.033604
    5  N  1  Z    0.012400   0.019591
    6  N  1  S    0.017037   0.048935
    7  N  1  X   -0.174922  -0.191566
    8  N  1  Y   -0.047966  -0.028019
    9  N  1  Z    0.012139   0.045646
   10  H  2  S   -0.004358  -0.011689
   11  H  2  S    0.002976   0.003739
   12  C  3  S    0.002359   0.001087
   13  C  3  S   -0.004864   0.002475
   14  C  3  X   -0.087791   0.354160
   15  C  3  Y   -0.028494   0.057119
   16  C  3  Z    0.007328  -0.033563
   17  C  3  S   -0.007470  -0.082416
   18  C  3  X   -0.058000   0.233262
   19  C  3  Y   -0.043647   0.057133
   20  C  3  Z   -0.007281  -0.062175
   21  H  4  S   -0.001006   0.002813
   22  H  4  S   -0.008524  -0.003536
   23  C  5  S   -0.002090   0.000332
   24  C  5  S    0.004949  -0.010687
   25  C  5  X    0.268439  -0.374592
   26  C  5  Y    0.039268  -0.052437
   27  C  5  Z   -0.029920   0.046106
   28  C  5  S    0.018358   0.086529
   29  C  5  X    0.242794  -0.336116
   30  C  5  Y    0.033259   0.038617
   31  C  5  Z    0.005684   0.019611
   32  H  6  S   -0.002642   0.004378
   33  H  6  S   -0.002234   0.027459
   34  C  7  S    0.007568  -0.002503
   35  C  7  S   -0.033449   0.032428
   36  C  7  X   -0.289517   0.416168
   37  C  7  Y   -0.071536   0.061271
   38  C  7  Z    0.024878  -0.043265
   39  C  7  S   -0.006186  -0.069546
   40  C  7  X   -0.271823   0.407465
   41  C  7  Y   -0.004569  -0.040669
   42  C  7  Z    0.062478  -0.003214
   43  O  8  S   -0.001700   0.002736
   44  O  8  S    0.009031  -0.006042
   45  O  8  X    0.250815  -0.285401
   46  O  8  Y    0.045839  -0.044397
   47  O  8  Z   -0.018259   0.025302
   48  O  8  S   -0.009697  -0.038281
   49  O  8  X    0.147293  -0.119262
   50  O  8  Y    0.018005  -0.013617
   51  O  8  Z   -0.015247   0.026965
   52  N  9  S   -0.003747  -0.004162
   53  N  9  S    0.008142  -0.003851
   54  N  9  X   -0.148311  -0.278770
   55  N  9  Y   -0.024321  -0.031971
   56  N  9  Z    0.014535   0.032199
   57  N  9  S    0.008363   0.123886
   58  N  9  X   -0.146593  -0.269878
   59  N  9  Y    0.011819  -0.084591
   60  N  9  Z    0.004550  -0.000672
   61  H 10  S   -0.002875  -0.007362
   62  H 10  S    0.006102   0.007208
   63  C 11  S    0.001192   0.002903
   64  C 11  S    0.000813  -0.005662
   65  C 11  X    0.457951   0.302971
   66  C 11  Y    0.033321   0.028233
   67  C 11  Z   -0.061955  -0.041033
   68  C 11  S   -0.015614  -0.042166
   69  C 11  X    0.433107   0.291318
   70  C 11  Y    0.055366   0.058867
   71  C 11  Z   -0.094822  -0.024985
   72  O 12  S   -0.000240  -0.000458
   73  O 12  S    0.001229   0.002486
   74  O 12  X   -0.433082  -0.227471
   75  O 12  Y   -0.031917  -0.020372
   76  O 12  Z    0.068600   0.035843
   77  O 12  S   -0.008049  -0.012947
   78  O 12  X   -0.166089  -0.031435
   79  O 12  Y   -0.013313  -0.003622
   80  O 12  Z    0.026353   0.001237
 ..... DONE WITH ONE PARTICLE DENSITY MATRIX .....
 STEP CPU TIME =     0.02 TOTAL CPU TIME =       32.6 (    0.5 MIN)
 TOTAL WALL CLOCK TIME=       37.0 SECONDS, CPU UTILIZATION IS  87.96%

     --------------------------------------------------------
     ORMAS CI PROPERTIES...FOR THE WAVEFUNCTION OF STATE    2
               USING THE EXPECTATION VALUE DENSITY
     --------------------------------------------------------

          -----------------
          ENERGY COMPONENTS
          -----------------

         WAVEFUNCTION NORMALIZATION =       1.0000000000

                ONE ELECTRON ENERGY =   -1269.3106971583
                TWO ELECTRON ENERGY =     501.1890847829
           NUCLEAR REPULSION ENERGY =     357.6097089539
          EFFECTIVE FRAGMENT ENERGY =      -5.1359858244
                                      ------------------
                       TOTAL ENERGY =    -415.6478892459

 ELECTRON-ELECTRON POTENTIAL ENERGY =     501.1890847829
  NUCLEUS-ELECTRON POTENTIAL ENERGY =   -1683.7122320986
   NUCLEUS-NUCLEUS POTENTIAL ENERGY =     357.6097089539
 ELECTRON-FRAGMENT MULTIPOLE ENERGY =       1.4955396896
 ELECTRON-FRAGMENT REMAINDER ENERGY =       0.0213070165
        STATIC INTERFRAGMENT ENERGY =      -2.4287122789
            FRAGMENT-NUCLEAR ENERGY =      -1.6281201993
    TOTAL FRAGMENT INDUCTION ENERGY =      -1.0242604823
 ELECTRON-FRAGMENT EXCHANGE REPULSION =      0.0000000000
                                      ------------------
             TOTAL POTENTIAL ENERGY =    -828.4776846163
                                      ------------------
            SOLUTE POTENTIAL ENERGY =    -824.9134383618
              SOLUTE KINETIC ENERGY =     412.8297953704
                 VIRIAL RATIO (V/T) =       1.9981925908

          ---------------------------------------
          MULLIKEN AND LOWDIN POPULATION ANALYSES
          ---------------------------------------

               ----- POPULATIONS IN EACH AO -----
                             MULLIKEN      LOWDIN
              1  N  1  S      1.99792     1.99156
              2  N  1  S      0.75616     0.69277
              3  N  1  X      0.76307     0.74096
              4  N  1  Y      0.82398     0.78196
              5  N  1  Z      0.83009     0.79442
              6  N  1  S      0.99687     0.50682
              7  N  1  X      0.60408     0.59342
              8  N  1  Y      0.52873     0.48057
              9  N  1  Z      0.48495     0.47514
             10  H  2  S      0.44811     0.43229
             11  H  2  S     -0.05231     0.18839
             12  C  3  S      1.99750     1.98825
             13  C  3  S      0.70034     0.54831
             14  C  3  X      0.62568     0.60238
             15  C  3  Y      0.65855     0.61639
             16  C  3  Z      0.76975     0.70177
             17  C  3  S      0.38644     0.38961
             18  C  3  X      0.40241     0.46962
             19  C  3  Y      0.02133     0.33056
             20  C  3  Z      0.31027     0.42491
             21  H  4  S      0.52622     0.50688
             22  H  4  S      0.24777     0.35723
             23  C  5  S      1.99770     1.98909
             24  C  5  S      0.68898     0.54883
             25  C  5  X      0.60587     0.57972
             26  C  5  Y      0.74395     0.68485
             27  C  5  Z      0.73639     0.69564
             28  C  5  S      0.50406     0.39766
             29  C  5  X      0.50119     0.50919
             30  C  5  Y      0.41955     0.43097
             31  C  5  Z      0.14903     0.36101
             32  H  6  S      0.53880     0.51075
             33  H  6  S      0.19881     0.33610
             34  C  7  S      1.99755     1.98557
             35  C  7  S      0.72758     0.53702
             36  C  7  X      0.63718     0.58098
             37  C  7  Y      0.65253     0.59786
             38  C  7  Z      0.78287     0.71921
             39  C  7  S      0.14068     0.33519
             40  C  7  X      0.34429     0.41864
             41  C  7  Y     -0.07855     0.32301
             42  C  7  Z      0.02357     0.33492
             43  O  8  S      1.99800     1.99472
             44  O  8  S      0.88772     0.86359
             45  O  8  X      0.92395     0.89979
             46  O  8  Y      1.02155     0.99364
             47  O  8  Z      1.00203     0.97463
             48  O  8  S      1.07294     0.73801
             49  O  8  X      0.66396     0.69480
             50  O  8  Y      0.64318     0.70585
             51  O  8  Z      0.58647     0.67480
             52  N  9  S      1.99789     1.99135
             53  N  9  S      0.73619     0.68752
             54  N  9  X      0.92127     0.90314
             55  N  9  Y      0.78863     0.75824
             56  N  9  Z      0.82424     0.79272
             57  N  9  S      1.02744     0.51190
             58  N  9  X      0.72126     0.70332
             59  N  9  Y      0.48375     0.47249
             60  N  9  Z      0.60783     0.50545
             61  H 10  S      0.45619     0.43935
             62  H 10  S     -0.08089     0.18066
             63  C 11  S      1.99736     1.98479
             64  C 11  S      0.73356     0.53755
             65  C 11  X      0.58129     0.52450
             66  C 11  Y      0.74207     0.68218
             67  C 11  Z      0.69030     0.63808
             68  C 11  S      0.03440     0.31589
             69  C 11  X      0.32583     0.40656
             70  C 11  Y     -0.11963     0.31635
             71  C 11  Z      0.08661     0.33122
             72  O 12  S      1.99805     1.99484
             73  O 12  S      0.90434     0.88364
             74  O 12  X      0.79488     0.76592
             75  O 12  Y      0.88121     0.84595
             76  O 12  Z      1.13077     1.10019
             77  O 12  S      1.07324     0.75080
             78  O 12  X      0.55098     0.58766
             79  O 12  Y      0.47842     0.59660
             80  O 12  Z      0.69275     0.76088

          ----- MULLIKEN ATOMIC OVERLAP POPULATIONS -----
          (OFF-DIAGONAL ELEMENTS NEED TO BE MULTIPLIED BY 2)

             1           2           3           4           5

    1    7.6360258
    2    0.2547938   0.1496393
    3    0.1229430  -0.0017472   5.2695247
    4   -0.0406227  -0.0007568   0.3857197   0.4438318
    5   -0.0286158   0.0003150   0.2469740  -0.0178526   5.4979865
    6    0.0021759  -0.0000066  -0.0276688  -0.0000493   0.3761206
    7    0.0095028  -0.0000251  -0.1085267   0.0020581   0.5091132
    8    0.0000474   0.0000007   0.0071066  -0.0000730  -0.0989241
    9   -0.1892325   0.0001215   0.0376268  -0.0000292  -0.1535181
   10   -0.0006340   0.0000045   0.0000269   0.0000012   0.0000576
   11    0.1438549  -0.0066240  -0.0613466   0.0018184   0.0153063
   12   -0.1243722   0.0000839   0.0016386  -0.0000561  -0.0002270

             6           7           8           9          10

    6    0.3903072
    7   -0.0048180   4.4313117
    8   -0.0012188   0.4157900   8.5768450
    9    0.0027404  -0.0126092  -0.0988693   8.2084500
   10    0.0000041  -0.0042021  -0.0013878   0.2436901   0.1381826
   11    0.0000245  -0.0090013   0.0004922   0.1676726  -0.0019723
   12    0.0000010  -0.0008900  -0.0000127  -0.0975436   0.0015364

            11          12

   11    4.2855445
   12    0.5360148   8.1884622

          TOTAL MULLIKEN AND LOWDIN ATOMIC POPULATIONS
       ATOM         MULL.POP.    CHARGE          LOW.POP.     CHARGE
    1 N             7.785866   -0.785866         7.057605   -0.057605
    2 H             0.395799    0.604201         0.620688    0.379312
    3 C             5.872271    0.127729         6.071791   -0.071791
    4 H             0.773990    0.226010         0.864116    0.135884
    5 C             6.346736   -0.346736         6.196958   -0.196958
    6 H             0.737612    0.262388         0.846848    0.153152
    7 C             5.227704    0.772296         5.832418    0.167582
    8 O             8.799796   -0.799796         8.539842   -0.539842
    9 N             8.108500   -1.108500         7.326134   -0.326134
   10 H             0.375307    0.624693         0.620011    0.379989
   11 C             5.071784    0.928216         5.737106    0.262894
   12 O             8.504635   -0.504635         8.286483   -0.286483

          MULLIKEN SPHERICAL HARMONIC POPULATIONS
       ATOM           S       P       D      F      G      H      I    TOTAL
    1 N             3.75    4.03    0.00   0.00   0.00   0.00   0.00    7.79
    2 H             0.40    0.00    0.00   0.00   0.00   0.00   0.00    0.40
    3 C             3.08    2.79    0.00   0.00   0.00   0.00   0.00    5.87
    4 H             0.77    0.00    0.00   0.00   0.00   0.00   0.00    0.77
    5 C             3.19    3.16    0.00   0.00   0.00   0.00   0.00    6.35
    6 H             0.74    0.00    0.00   0.00   0.00   0.00   0.00    0.74
    7 C             2.87    2.36    0.00   0.00   0.00   0.00   0.00    5.23
    8 O             3.96    4.84    0.00   0.00   0.00   0.00   0.00    8.80
    9 N             3.76    4.35    0.00   0.00   0.00   0.00   0.00    8.11
   10 H             0.38    0.00    0.00   0.00   0.00   0.00   0.00    0.38
   11 C             2.77    2.31    0.00   0.00   0.00   0.00   0.00    5.07
   12 O             3.98    4.53    0.00   0.00   0.00   0.00   0.00    8.50

          ----------------------------
          SOLUTE ELECTROSTATIC MOMENTS
          ----------------------------

 POINT   1           X           Y           Z (BOHR)    CHARGE
                -1.540912   -0.175291    2.708550        0.00 (A.U.)
         DX          DY          DZ         /D/  (DEBYE)
    -0.746710    5.057667   -7.342613    8.947153

          ----------------------------------------
          EFFECTIVE FRAGMENT ELECTROSTATIC MOMENTS
          ----------------------------------------

 FRAGMENT DIPOLES HAVE BEEN PUNCHED


          ----------------------------
          SYSTEM ELECTROSTATIC MOMENTS
          ----------------------------

 POINT   1           X           Y           Z (BOHR)    CHARGE
                -1.540912   -0.175291    2.708550        0.00 (A.U.)
         DX          DY          DZ         /D/  (DEBYE)
     2.406948   -1.315679   -5.992476    6.590461
 ...... END OF PROPERTY EVALUATION ......
 STEP CPU TIME =     0.01 TOTAL CPU TIME =       32.6 (    0.5 MIN)
 TOTAL WALL CLOCK TIME=       37.1 SECONDS, CPU UTILIZATION IS  87.96%
              2729574  WORDS OF DYNAMIC MEMORY USED
 EXECUTION OF GAMESS TERMINATED NORMALLY Mon Nov 28 18:38:03 2016
 DDI: 263640 bytes (0.3 MB / 0 MWords) used by master data server.

 ----------------------------------------
 CPU timing information for all processes
 ========================================
 0: 31.317 + 1.287 = 32.605
 ----------------------------------------
 ddikick.x: exited gracefully.
unset echo
----- accounting info -----
Files used on the master node compute-3-0 were:
-rw-rw-r-- 1 sarom sarom    56125 Nov 29  2016 .//ormasS2.dat
-rw-rw-r-- 1 sarom sarom   131026 Nov 29  2016 .//ormasS2.F05
-rw-rw-r-- 1 sarom sarom   180464 Nov 29  2016 .//ormasS2.F09
-rw-rw-r-- 1 sarom sarom  2290400 Nov 29  2016 .//ormasS2.F10
-rw-rw-r-- 1 sarom sarom   576064 Nov 29  2016 .//ormasS2.F12
-rw-rw-r-- 1 sarom sarom 58338000 Nov 29  2016 .//ormasS2.F25
-rw-rw-r-- 1 sarom sarom   131026 Nov 28 17:27 .//ormasS2.inp
-rw-rw-r-- 1 sarom sarom   589897 Nov 29  2016 .//ormasS2.log
Mon Nov 28 18:38:06 CST 2016
0.195u 0.240s 0:40.63 1.0%	0+0k 0+392io 0pf+0w
