----- GAMESS execution script 'rungms' -----
This job is running on host compute-3-0
under operating system Linux at Tue Nov 29 02:42:29 CST 2016
Available scratch disk space (Kbyte units) at beginning of the job is
Filesystem            1K-blocks       Used  Available Use% Mounted on
bolt.local:/export/home/sarom
                     9590469632 1553548288 7549753344  18% /home/sarom
Copying input file exam36.inp to your run's scratch directory...
cp exam36.inp .//exam36.F05
unset echo
/home/sarom/gamessGH/ddikick.x /home/sarom/gamessGH/gamess.00.x exam36 -ddi 1 1 localhost -scr ./

 Distributed Data Interface kickoff program.
 Initiating 1 compute processes on 1 nodes to run the following command:
 /home/sarom/gamessGH/gamess.00.x exam36 

          ******************************************************
          *         GAMESS VERSION = 18 AUG 2016 (R1)          *
          *             FROM IOWA STATE UNIVERSITY             *
          * M.W.SCHMIDT, K.K.BALDRIDGE, J.A.BOATZ, S.T.ELBERT, *
          *   M.S.GORDON, J.H.JENSEN, S.KOSEKI, N.MATSUNAGA,   *
          *          K.A.NGUYEN, S.J.SU, T.L.WINDUS,           *
          *       TOGETHER WITH M.DUPUIS, J.A.MONTGOMERY       *
          *         J.COMPUT.CHEM.  14, 1347-1363(1993)        *
          **************** 64 BIT LINUX VERSION ****************

  SINCE 1993, STUDENTS AND POSTDOCS WORKING AT IOWA STATE UNIVERSITY
  AND ALSO IN THEIR VARIOUS JOBS AFTER LEAVING ISU HAVE MADE IMPORTANT
  CONTRIBUTIONS TO THE CODE:
     IVANA ADAMOVIC, CHRISTINE AIKENS, YURI ALEXEEV, POOJA ARORA,
     ANDREY ASADCHEV, ROB BELL, PRADIPTA BANDYOPADHYAY, JONATHAN BENTZ,
     BRETT BODE, KURT BRORSEN, CALEB CARLIN, GALINA CHABAN, WEI CHEN,
     CHEOL HO CHOI, PAUL DAY, ALBERT DEFUSCO, NUWAN DESILVA, TIM DUDLEY,
     DMITRI FEDOROV, GRAHAM FLETCHER, MARK FREITAG, KURT GLAESEMANN,
     DAN KEMP, GRANT MERRILL, NORIYUKI MINEZAWA, JONATHAN MULLIN,
     TAKESHI NAGATA, SEAN NEDD, HEATHER NETZLOFF, BOSILJKA NJEGIC, RYAN OLSON,
     MIKE PAK, SPENCER PRUITT, LUKE ROSKOP, JIM SHOEMAKER, LYUDMILA SLIPCHENKO,
     TONY SMITH, SAROM SOK LEANG, JIE SONG, TETSUYA TAKETSUGU, SIMON WEBB,
     PENG XU, SOOHAENG YOO, FEDERICO ZAHARIEV

  ADDITIONAL CODE HAS BEEN PROVIDED BY COLLABORATORS IN OTHER GROUPS:
     IOWA STATE UNIVERSITY:
          JOE IVANIC, AARON WEST, LAIMUTIS BYTAUTAS, KLAUS RUEDENBERG
     UNIVERSITY OF TOKYO: KIMIHIKO HIRAO, TAKAHITO NAKAJIMA,
          TAKAO TSUNEDA, MUNEAKI KAMIYA, SUSUMU YANAGISAWA,
          KIYOSHI YAGI, MAHITO CHIBA, SEIKEN TOKURA, NAOAKI KAWAKAMI
     UNIVERSITY OF AARHUS: FRANK JENSEN
     UNIVERSITY OF IOWA: VISVALDAS KAIRYS, HUI LI
     NATIONAL INST. OF STANDARDS AND TECHNOLOGY: WALT STEVENS, DAVID GARMER
     UNIVERSITY OF PISA: BENEDETTA MENNUCCI, JACOPO TOMASI
     UNIVERSITY OF MEMPHIS: HENRY KURTZ, PRAKASHAN KORAMBATH
     UNIVERSITY OF ALBERTA: TOBY ZENG, MARIUSZ KLOBUKOWSKI
     UNIVERSITY OF NEW ENGLAND: MARK SPACKMAN
     MIE UNIVERSITY: HIROAKI UMEDA
     NAT. INST. OF ADVANCED INDUSTRIAL SCIENCE AND TECHNOLOGY: KAZUO KITAURA
     MICHIGAN STATE UNIVERSITY:
          KAROL KOWALSKI, MARTA WLOCH, JEFFREY GOUR, JESSE LUTZ,
          WEI LI, PIOTR PIECUCH
     UNIVERSITY OF SILESIA: MONIKA MUSIAL, STANISLAW KUCHARSKI
     FACULTES UNIVERSITAIRES NOTRE-DAME DE LA PAIX:
          OLIVIER QUINET, BENOIT CHAMPAGNE
     UNIVERSITY OF CALIFORNIA - SANTA BARBARA: BERNARD KIRTMAN
     INSTITUTE FOR MOLECULAR SCIENCE:
          KAZUYA ISHIMURA, MICHIO KATOUDA, AND SHIGERU NAGASE
     UNIVERSITY OF NOTRE DAME: ANNA POMOGAEVA, DAN CHIPMAN
     KYUSHU UNIVERSITY:
          HARUYUKI NAKANO,
          FENG LONG GU, JACEK KORCHOWIEC, MARCIN MAKOWSKI, AND YURIKO AOKI,
          HIROTOSHI MORI AND EISAKU MIYOSHI
     PENNSYLVANIA STATE UNIVERSITY:
          TZVETELIN IORDANOV, CHET SWALINA, JONATHAN SKONE,
          SHARON HAMMES-SCHIFFER
     WASEDA UNIVERSITY:
          MASATO KOBAYASHI, TOMOKO AKAMA, TSUGUKI TOUMA,
          TAKESHI YOSHIKAWA, YASUHIRO IKABATA, JUNJI SEINO,
          YUYA NAKAJIMA, HIROMI NAKAI
     NANJING UNIVERSITY: SHUHUA LI
     UNIVERSITY OF NEBRASKA:
          PEIFENG SU, DEJUN SI, NANDUN THELLAMUREGE, YALI WANG, HUI LI
     UNIVERSITY OF ZURICH: ROBERTO PEVERATI, KIM BALDRIDGE
     N. COPERNICUS UNIVERSITY AND JACKSON STATE UNIVERSITY:
          MARIA BARYSZ
     UNIVERSITY OF COPENHAGEN: Jimmy Kromann, CASPER STEINMANN
     TOKYO INSTITUTE OF TECHNOLOGY: HIROYA NAKATA
     NAGOYA UNIVERSITY: YOSHIO NISHIMOTO, STEPHAN IRLE
     MOSCOW STATE UNIVERSITY: VLADIMIR MIRONOV

 EXECUTION OF GAMESS BEGUN Tue Nov 29 02:42:29 2016

            ECHO OF THE FIRST FEW INPUT CARDS -
 INPUT CARD>! EXAM36                                                                        
 INPUT CARD>!   analytic hessian for determinant MCSCF, at the                              
 INPUT CARD>!   transition state for C=C rotation in ethylene                               
 INPUT CARD>!                                                                               
 INPUT CARD>!   There are 38 AOs and 36 MOs using spherical harmonics.                      
 INPUT CARD>!   The 4e-, 4 orbital active space (CC sigma, pi, pi*, and                     
 INPUT CARD>!   sigma* orbitals) generates a total of 36 determinants.                      
 INPUT CARD>!                                                                               
 INPUT CARD>!   FINAL E= -77.9753563843 after 14 iterations                                 
 INPUT CARD>!   imaginary FREQ= 1847.32i                                                    
 INPUT CARD>!   true FREQ= 319.87(2), 1005.72(2), 1082.80, 1578.13                          
 INPUT CARD>!   true FREQ= 1605.72, 3311.13, 3315.17, 3405.91(2)                            
 INPUT CARD>!   the lowest true vibration is the most intense, 1.09748                      
 INPUT CARD>!                                                                               
 INPUT CARD> $contrl scftyp=mcscf runtyp=hessian ispher=1 $end                              
 INPUT CARD> $system timlim=2 memddi=5 $end                                                 
 INPUT CARD> $basis  gbasis=n31 ngauss=6 ndfunc=1 $end                                      
 INPUT CARD> $guess  guess=moread norb=36 norder=1                                          
 INPUT CARD>         iorder(3)=4,5,6,7,  3,8,9,10 $end                                      
 INPUT CARD> $det    ncore=6 nact=4 nels=4 $end                                             
 INPUT CARD> $data                                                                          
 INPUT CARD>C2H4 at rotational saddle point...sigma,pi,pi*,sigma* active                    
 INPUT CARD>Dnd 2                                                                           
 INPUT CARD>                                                                                
 INPUT CARD>C           6.0   0.0000000000   0.0000000000   0.7486926908                    
 INPUT CARD>H           1.0   0.6500976762   0.6500976762   1.3062796706                    
 INPUT CARD> $end                                                                           
 INPUT CARD>                                                                                
 INPUT CARD>How to prepare the starting orbitals, also take note                            
 INPUT CARD>of the orbital reordering to select the CC sigma:                               
 INPUT CARD>                                                                                
 INPUT CARD>--- $contrl scftyp=rohf mult=3 runtyp=energy $end                               
 INPUT CARD>--- $scf    mvoq=2 $end                                                         
 INPUT CARD>--- $guess  guess=huckel norder=0 $end                                          
 INPUT CARD>                                                                                
 INPUT CARD>--- OPEN SHELL ORBITALS --- GENERATED AT Tue Apr  6 10:00:30 2004               
 INPUT CARD>C2H4 at rotational saddle point...sigma,pi,pi*,sigma* active                    
 INPUT CARD>E(ROHF)=      -77.9570103652, E(NUC)=   31.4762283844,    8 ITERS               
 INPUT CARD> $VEC                                                                           
 INPUT CARD> 1  1 7.04639833E-01 1.62388693E-02 0.00000000E+00 0.00000000E+00-2.95466256E-04
 INPUT CARD> 1  2-7.86144506E-03 0.00000000E+00 0.00000000E+00 8.39601074E-04 1.26945053E-04
 INPUT CARD> 1  3 1.26945053E-04-2.53890106E-04-2.43763819E-04 0.00000000E+00 0.00000000E+00
 INPUT CARD> 1  4 7.04639833E-01 1.62388693E-02 0.00000000E+00 0.00000000E+00 2.95466256E-04
 INPUT CARD> 1  5-7.86144506E-03 0.00000000E+00 0.00000000E+00-8.39601074E-04 1.26945053E-04
 INPUT CARD> 1  6 1.26945053E-04-2.53890106E-04 2.43763819E-04 0.00000000E+00 0.00000000E+00
 INPUT CARD> 1  7-5.70436532E-04 2.21739052E-03-5.70436532E-04 2.21739052E-03-5.70436532E-04
 INPUT CARD> 1  8 2.21739052E-03-5.70436532E-04 2.21739052E-03                              
 INPUT CARD> 2  1 7.04626928E-01 1.68971751E-02 0.00000000E+00 0.00000000E+00 6.24621988E-04
 INPUT CARD> 2  2-1.13094235E-02 0.00000000E+00 0.00000000E+00-1.50118272E-03-2.58737554E-04
 INPUT CARD> 2  3-2.58737554E-04 5.17475107E-04-1.25727334E-04 0.00000000E+00 0.00000000E+00
    1000000 WORDS OF MEMORY AVAILABLE

     BASIS OPTIONS
     -------------
     GBASIS=N31          IGAUSS=       6      POLAR=POPN31  
     NDFUNC=       1     NFFUNC=       0     DIFFSP=       F
     NPFUNC=       0      DIFFS=       F     BASNAM=        


     RUN TITLE
     ---------
 C2H4 at rotational saddle point...sigma,pi,pi*,sigma* active                    

 THE POINT GROUP OF THE MOLECULE IS DND     
 THE ORDER OF THE PRINCIPAL AXIS IS     2

 ATOM      ATOMIC                      COORDINATES (BOHR)
           CHARGE         X                   Y                   Z
 C           6.0     0.0000000000        0.0000000000       -1.4148240346
 C           6.0     0.0000000000        0.0000000000        1.4148240346
 H           1.0    -1.2285064733       -1.2285064733        2.4685106408
 H           1.0     1.2285064733       -1.2285064733       -2.4685106408
 H           1.0    -1.2285064733        1.2285064733       -2.4685106408
 H           1.0     1.2285064733        1.2285064733        2.4685106408

          INTERNUCLEAR DISTANCES (ANGS.)
          ------------------------------

                1 C          2 C          3 H          4 H          5 H     

   1 C       0.0000000    1.4973854 *  2.2512586 *  1.0752475 *  1.0752475 *
   2 C       1.4973854 *  0.0000000    1.0752475 *  2.2512586 *  2.2512586 *
   3 H       2.2512586 *  1.0752475 *  0.0000000    2.9182142 *  2.9182142 *
   4 H       1.0752475 *  2.2512586 *  2.9182142 *  0.0000000    1.8387539 *
   5 H       1.0752475 *  2.2512586 *  2.9182142 *  1.8387539 *  0.0000000  
   6 H       2.2512586 *  1.0752475 *  1.8387539 *  2.9182142 *  2.9182142 *

                6 H     

   1 C       2.2512586 *
   2 C       1.0752475 *
   3 H       1.8387539 *
   4 H       2.9182142 *
   5 H       2.9182142 *
   6 H       0.0000000  

  * ... LESS THAN  3.000


     ATOMIC BASIS SET
     ----------------
 THE CONTRACTED PRIMITIVE FUNCTIONS HAVE BEEN UNNORMALIZED
 THE CONTRACTED BASIS FUNCTIONS ARE NOW NORMALIZED TO UNITY

  SHELL TYPE  PRIMITIVE        EXPONENT          CONTRACTION COEFFICIENT(S)

 C         

      5   S       1          3047.5248800    0.001834737132
      5   S       2           457.3695180    0.014037322813
      5   S       3           103.9486850    0.068842622264
      5   S       4            29.2101553    0.232184443216
      5   S       5             9.2866630    0.467941348435
      5   S       6             3.1639270    0.362311985337

      6   L       7             7.8682723   -0.119332419775    0.068999066591
      6   L       8             1.8812885   -0.160854151696    0.316423960957
      6   L       9             0.5442493    1.143456437840    0.744308290898

      7   L      10             0.1687145    1.000000000000    1.000000000000

      8   D      11             0.8000000    1.000000000000

 H         

     15   S      12            18.7311370    0.033494604338
     15   S      13             2.8253944    0.234726953484
     15   S      14             0.6401217    0.813757326146

     16   S      15             0.1612778    1.000000000000

 TOTAL NUMBER OF BASIS SET SHELLS             =   16
 NUMBER OF CARTESIAN GAUSSIAN BASIS FUNCTIONS =   38
 NOTE: THIS RUN WILL RESTRICT THE MO VARIATION SPACE TO SPHERICAL HARMONICS.
 THE NUMBER OF ORBITALS KEPT IN THE VARIATIONAL SPACE WILL BE PRINTED LATER.
 NUMBER OF ELECTRONS                          =   16
 CHARGE OF MOLECULE                           =    0
 SPIN MULTIPLICITY                            =    1
 NUMBER OF OCCUPIED ORBITALS (ALPHA)          =    8
 NUMBER OF OCCUPIED ORBITALS (BETA )          =    8
 TOTAL NUMBER OF ATOMS                        =    6
 THE NUCLEAR REPULSION ENERGY IS       31.4762283844

     $CONTRL OPTIONS
     ---------------
 SCFTYP=MCSCF        RUNTYP=HESSIAN      EXETYP=RUN     
 MPLEVL=       0     CITYP =NONE         CCTYP =NONE         VBTYP =NONE    
 DFTTYP=NONE         TDDFT =NONE    
 MULT  =       1     ICHARG=       0     NZVAR =       0     COORD =UNIQUE  
 PP    =NONE         RELWFN=NONE         LOCAL =NONE         NUMGRD=       F
 ISPHER=       1     NOSYM =       0     MAXIT =      30     UNITS =ANGS    
 PLTORB=       F     MOLPLT=       F     AIMPAC=       F     FRIEND=        
 NPRINT=       7     IREST =       0     GEOM  =INPUT   
 NORMF =       0     NORMP =       0     ITOL  =      20     ICUT  =       9
 INTTYP=BEST         GRDTYP=BEST         QMTTOL= 1.0E-06

     $SYSTEM OPTIONS
     ---------------
  REPLICATED MEMORY=     1000000 WORDS (ON EVERY NODE).
 DISTRIBUTED MEMDDI=           5 MILLION WORDS IN AGGREGATE,
 MEMDDI DISTRIBUTED OVER   1 PROCESSORS IS     5000000 WORDS/PROCESSOR.
 TOTAL MEMORY REQUESTED ON EACH PROCESSOR=     6000000 WORDS.
 TIMLIM=           2.00 MINUTES, OR       0.0 DAYS.
 PARALL= F  BALTYP=  DLB     KDIAG=    0  COREFL= F
 MXSEQ2=     300 MXSEQ3=     150  mem10=         0

          ----------------
          PROPERTIES INPUT
          ----------------

     MOMENTS            FIELD           POTENTIAL          DENSITY
 IEMOM =       1   IEFLD =       0   IEPOT =       0   IEDEN =       0
 WHERE =COMASS     WHERE =NUCLEI     WHERE =NUCLEI     WHERE =NUCLEI  
 OUTPUT=BOTH       OUTPUT=BOTH       OUTPUT=BOTH       OUTPUT=BOTH    
 IEMINT=       0   IEFINT=       0                     IEDINT=       0
                                                       MORB  =       0

     -------------------------------
     INTEGRAL TRANSFORMATION OPTIONS
     -------------------------------
     NWORD  =            0
     CUTOFF = 1.0E-09     MPTRAN =       0
     DIRTRF =       F     AOINTS =DUP     

          ----------------------
          MCSCF INPUT PARAMETERS
          ----------------------
 CONVERGER SELECTION: FOCAS = F  SOSCF = T  FULLNR = F  QUD = F  JACOBI = F
 SECULAR EQUATION METHOD CISTEP = ALDET   
 --- GENERAL INPUT OPTIONS:
 MAXIT =      60  MICIT =       5  ACURCY= 1.000E-05
 DAMP  =   0.000  CANONC=       T  ENGTOL= 1.000E-10
 EKT   =       F  NPUNCH=       2  NWORD =         0
 REGENERATE CI AFTER CONVERGENCE = NONE    
 DIABATIZATION AFTER CONVERGENCE =        F
 --- INPUT FOR SOSCF CONVERGER:
 FORS  =       T  NOFO  =       1

          ----------------------
          INTEGRAL INPUT OPTIONS
          ----------------------
 NOPK  =       1 NORDER=       0 SCHWRZ=       T

     ------------------------------------------
     THE POINT GROUP IS DND, NAXIS= 2, ORDER= 8
     ------------------------------------------

 -- VARIATIONAL SPACE WILL BE RESTRICTED TO PURE SPHERICAL HARMONICS ONLY --
 AFTER EXCLUDING CONTAMINANT COMBINATIONS FROM THE CARTESIAN GAUSSIAN BASIS
 SET, THE NUMBER OF SPHERICAL HARMONICS KEPT IN THE VARIATION SPACE IS   36

     DIMENSIONS OF THE SYMMETRY SUBSPACES ARE
 A1  =    9     B2  =    9     B1  =    1     A2  =    1     E   =    8

 ..... DONE SETTING UP THE RUN .....
 STEP CPU TIME =     0.05 TOTAL CPU TIME =        0.0 (    0.0 MIN)
 TOTAL WALL CLOCK TIME=        0.1 SECONDS, CPU UTILIZATION IS  83.33%

     ---------------------------------
     HESSIAN MATRIX CONTROL PARAMETERS
     ---------------------------------
     METHOD=ANALYTIC   NVIB  =       2   VIBSIZ= 0.01000
     RDHESS=       F   PURIFY=       F   PRTIFC=       F
     VIBANL=       T   DECOMP=       F   PROJCT=       F
     SCLFAC= 1.00000   PRTSCN=       F   NPRT  =       0
     PULCOR=       F   NPUN  =       0   REDOVB=       T
     HSSTYP=GENERAL 
     THERMOCHEMISTRY WILL BE PRINTED FOR    1 TEMPERATURES:
      298.15000
 Old integral subroutine is used

     ------------------------------
     CPHF RESPONSE SOLUTION OPTIONS
     ------------------------------
     POLAR  =       F     NWORD  =       0
     CPHF   =MO      

          ********************
          1 ELECTRON INTEGRALS
          ********************
 TIME TO DO   DIPOLE INTEGRALS=      0.01
 ...... END OF ONE-ELECTRON INTEGRALS ......
 STEP CPU TIME =     0.01 TOTAL CPU TIME =        0.1 (    0.0 MIN)
 TOTAL WALL CLOCK TIME=        0.1 SECONDS, CPU UTILIZATION IS  85.71%

          -------------
          GUESS OPTIONS
          -------------
          GUESS =MOREAD            NORB  =      36          NORDER=       1
          MIX   =       F          PRTMO =       F          PUNMO =       F
          TOLZ  = 1.0E-08          TOLE  = 1.0E-05
          SYMDEN=       F          PURIFY=       F

 INITIAL GUESS ORBITALS GENERATED BY MOREAD   ROUTINE.

 STATISTICS FOR GENERATION OF SYMMETRY ORBITAL -Q- MATRIX
 NUMBER OF CARTESIAN ATOMIC ORBITALS=         38
 NUMBER OF SPHERICAL CONTAMINANTS DROPPED=     2
 NUMBER OF LINEARLY DEPENDENT MOS DROPPED=     0
 TOTAL NUMBER OF MOS IN VARIATION SPACE=      36

 SYMMETRIES FOR INITIAL GUESS ORBITALS FOLLOW.   BOTH SET(S).
     8 ORBITALS ARE OCCUPIED (    2 CORE ORBITALS).
     1=A1       2=B2       3=B2       4=E        5=E        6=A1       7=A1  
     8=E        9=E       10=B2      11=A1      12=B2      13=E       14=E   
    15=A1      16=E       17=E       18=B2      19=E       20=E       21=A1  
    22=E       23=E       24=B2      25=B2      26=A1      27=B1      28=A2  
    29=E       30=E       31=A1      32=B2      33=A1      34=E       35=E   
    36=B2  
 ...... END OF INITIAL ORBITAL SELECTION ......
 STEP CPU TIME =     0.00 TOTAL CPU TIME =        0.1 (    0.0 MIN)
 TOTAL WALL CLOCK TIME=        0.1 SECONDS, CPU UTILIZATION IS  85.71%

                    ----------------------
                    AO INTEGRAL TECHNOLOGY
                    ----------------------
     S,P,L SHELL ROTATED AXIS INTEGRALS, REPROGRAMMED BY
        KAZUYA ISHIMURA (IMS) AND JOSE SIERRA (SYNSTAR).
     S,P,D,L SHELL ROTATED AXIS INTEGRALS PROGRAMMED BY
        KAZUYA ISHIMURA (INSTITUTE FOR MOLECULAR SCIENCE).
     S,P,D,F,G SHELL TO TOTAL QUARTET ANGULAR MOMENTUM SUM 5,
        ERIC PROGRAM BY GRAHAM FLETCHER (ELORET AND NASA ADVANCED
        SUPERCOMPUTING DIVISION, AMES RESEARCH CENTER).
     S,P,D,F,G,L SHELL GENERAL RYS QUADRATURE PROGRAMMED BY
        MICHEL DUPUIS (PACIFIC NORTHWEST NATIONAL LABORATORY).

          --------------------
          2 ELECTRON INTEGRALS
          --------------------

 THE -PK- OPTION IS OFF, THE INTEGRALS ARE NOT IN SUPERMATRIX FORM.
 STORING   15000 INTEGRALS/RECORD ON DISK, USING 12 BYTES/INTEGRAL.
 TWO ELECTRON INTEGRAL EVALUATION REQUIRES   90532 WORDS OF MEMORY.
 SCHWARZ INEQUALITY OVERHEAD:       741 INTEGRALS, T=        0.00
 II,JST,KST,LST =  1  1  1  1 NREC =         1 INTLOC =    1
 II,JST,KST,LST =  2  1  1  1 NREC =         1 INTLOC =    2
 II,JST,KST,LST =  3  1  1  1 NREC =         1 INTLOC =   34
 II,JST,KST,LST =  4  1  1  1 NREC =         1 INTLOC =  214
 II,JST,KST,LST =  5  1  1  1 NREC =         1 INTLOC = 1189
 II,JST,KST,LST =  6  1  1  1 NREC =         1 INTLOC = 1864
 II,JST,KST,LST =  7  1  1  1 NREC =         1 INTLOC = 5594
 II,JST,KST,LST =  8  1  1  1 NREC =         1 INTLOC =12128
 II,JST,KST,LST =  9  1  1  1 NREC =         2 INTLOC =13693
 II,JST,KST,LST = 10  1  1  1 NREC =         3 INTLOC =13590
 II,JST,KST,LST = 11  1  1  1 NREC =         4 INTLOC =14986
 II,JST,KST,LST = 12  1  1  1 NREC =         6 INTLOC = 2803
 II,JST,KST,LST = 13  1  1  1 NREC =         7 INTLOC = 7292
 II,JST,KST,LST = 14  1  1  1 NREC =         8 INTLOC =13358
 II,JST,KST,LST = 15  1  1  1 NREC =        10 INTLOC = 6240
 II,JST,KST,LST = 16  1  1  1 NREC =        12 INTLOC = 1034
 SCHWARZ INEQUALITY TEST SKIPPED          35 INTEGRAL BLOCKS.
 TOTAL NUMBER OF NONZERO TWO-ELECTRON INTEGRALS =              192848
         13 INTEGRAL RECORDS WERE STORED ON DISK FILE  8.
  ...... END OF TWO-ELECTRON INTEGRALS .....
 STEP CPU TIME =     0.05 TOTAL CPU TIME =        0.1 (    0.0 MIN)
 TOTAL WALL CLOCK TIME=        0.1 SECONDS, CPU UTILIZATION IS  78.57%

          -----------------
          MCSCF CALCULATION
          -----------------

 ----- NUCLEAR ENERGY ----- =        31.4762283844

     --------------------------------------------------
          AMES LABORATORY DETERMINANTAL FULL CI
     PROGRAM WRITTEN BY JOE IVANIC AND KLAUS RUEDENBERG
     --------------------------------------------------

 THE POINT GROUP                  =   C1      
 THE STATE SYMMETRY               =   A       
 NUMBER OF CORE ORBITALS          =    6
 NUMBER OF ACTIVE ORBITALS        =    4
 NUMBER OF ALPHA ELECTRONS        =    8 (   2 ACTIVE)
 NUMBER OF BETA ELECTRONS         =    8 (   2 ACTIVE)
 NUMBER OF OCCUPIED ORBITALS      =   10
 NUMBER OF CI STATES REQUESTED    =    1
 NUMBER OF CI STARTING VECTORS    =    1
 MAX. NO. OF CI EXPANSION VECTORS =   10
 SIZE OF INITIAL CI GUESS MATRIX  =  300
 MAX. NO. OF CI ITERS/STATE       =  100
 CI DIAGONALIZATION CRITERION     = 1.00E-06
 PURE SPIN STATE AVERAGED 1E- AND 2E- DENSITY MATRIX OPTION=.T.
 STATE=   1 DM2 WEIGHT=   1.00000

 CORRELATION ENERGY ANALYSIS      =    F

 SYMMETRIES FOR THE   6 CORE,   4 ACTIVE ARE

     CORE= A     A     A     A     A     A   

   ACTIVE= A     A     A     A   
 OPENING FILE DAFL30 WITH      81 LOGICAL RECORDS OF    1444 WORDS
 WITH A MAXIMUM OF          81 PHYSICAL RECORDS OF    2048 WORDS

          ------------------------------
          CASSCF INTEGRAL TRANSFORMATION
          ------------------------------
 AO INTEGRALS WILL BE READ IN FROM DISK...

 NUMBER OF CORE MOLECULAR ORBITALS     =     6
 NUMBER OF OCCUPIED MOLECULAR ORBITALS =    10
 TOTAL NUMBER OF MOLECULAR ORBITALS    =    36
 TOTAL NUMBER OF ATOMIC ORBITALS       =    36

 ----- CHOOSING THREE STEPS TRANSFORMATION -----
 NUMBER OF WORDS USED      =     183748
 NUMBER OF WORDS AVAILABLE =    1000000
 NUMBER OF PASSES          =          1

 ----- NUCLEAR REPULSION ENERGY =     31.47622838
 ----- FROZEN CORE ENERGY       =   -104.40396781

 ... SYMMETRY ...           CPU =    0.00
 ... (PQ|RS) -> (PQ|KL) ... CPU =    0.02
 ... (PQ|KL) -> (IJ|KL) ... CPU =    0.00

 NUMBER OF (PQ|KL) INTEGRALS WRITTEN       4988
 NUMBER OF (IJ|KL) INTEGRALS WRITTEN         19
 ..... END OF CAS INTEGRAL TRANSFORMATION .....
 STEP CPU TIME =     0.02 TOTAL CPU TIME =        0.1 (    0.0 MIN)
 TOTAL WALL CLOCK TIME=        0.2 SECONDS, CPU UTILIZATION IS  68.42%

     --------------------------------------------------
          AMES LABORATORY DETERMINANTAL FULL CI
     PROGRAM WRITTEN BY JOE IVANIC AND KLAUS RUEDENBERG
     --------------------------------------------------

 THE NUMBER OF DETERMINANTS HAVING SPACE SYMMETRY A  
 IN POINT GROUP C1   WITH SZ=  0.0 IS             36
 WHICH INCLUDES             20 CSFS WITH S=  0.0
 WHICH INCLUDES             15 CSFS WITH S=  1.0
 WHICH INCLUDES              1 CSFS WITH S=  2.0
 THE DETERMINANT FULL CI REQUIRES          172011 WORDS
 SMALL CI MATRIX, JUST USING INCORE DIAGONALIZATION...

 CI EIGENVECTORS WILL BE LABELED IN GROUP=C1      
 PRINTING CI COEFFICIENTS LARGER THAN 5.000E-02

 STATE   1  ENERGY=       -77.9636577065  S=  0.00  SZ=  0.00  SPACE SYM=A   

ALPHA |BETA  | CI COEFFICIENT
------|------|---------------
 1100 | 1100 |   0.7045211192
 1010 | 1010 |  -0.7045211192
 ..... DONE WITH DETERMINANT CI COMPUTATION .....
 STEP CPU TIME =     0.00 TOTAL CPU TIME =        0.1 (    0.0 MIN)
 TOTAL WALL CLOCK TIME=        0.2 SECONDS, CPU UTILIZATION IS  65.00%

     --------------------------------------------------
      ONE AND TWO PARTICLE DENSITY MATRIX COMPUTATION
     PROGRAM WRITTEN BY JOE IVANIC AND KLAUS RUEDENBERG
     --------------------------------------------------

      30500 WORDS WILL BE USED TO FORM THE DENSITIES
 THE DENSITIES ARE STATE AVERAGED OVER   1 ROOT(S)
 STATE=   1   ENERGY=      -77.9636577065   WEIGHT= 1.00000   S=  0.00
 SIEVING THE A    SYMMETRY NONZERO DENSITY ELEMENTS IN GROUP C1      
         18 NONZERO DM2 ELEMENTS WRITTEN IN       1 RECORDS TO FILE 15
 ..... DONE WITH 1 AND 2 PARTICLE DENSITY MATRIX .....
 STEP CPU TIME =     0.00 TOTAL CPU TIME =        0.1 (    0.0 MIN)
 TOTAL WALL CLOCK TIME=        0.2 SECONDS, CPU UTILIZATION IS  65.00%

          --------------------------------------
          APPROXIMATE SECOND-ORDER MCSCF PROGRAM
          --------------------------------------
          PROGRAM WRITTEN BY G.CHABAN, A.MARQUEZ, AND M.DUPUIS

  NUMBER OF WORDS NEEDED     =      46768
  NUMBER AVAILABLE           =    1000000

 ----- GAMMA(IJKL)*(PQ|KL) PRODUCTS ----- CPU TIME =      0.000
 ----- ORBITAL SYMMETRY             ----- CPU TIME =      0.010
 ----- FOCK OPERATORS CONSTRUCTION  ----- CPU TIME =      0.000
     MICIT =   1 ASYMM =    0.009379 ROTMAX =    0.120020
 ----- EFFECTIVE FOCK + ROTATE ORBS ----- CPU TIME =      0.000
 ..... DONE WITH CASSCF ORBITAL UPDATE .....
 STEP CPU TIME =     0.01 TOTAL CPU TIME =        0.1 (    0.0 MIN)
 TOTAL WALL CLOCK TIME=        0.2 SECONDS, CPU UTILIZATION IS  66.67%

 ITER     TOTAL ENERGY      DEL(E)  LAGRANGIAN ASYMMETRY   SQCDF  MICIT   DAMP
   1      -77.963657707 -0.963657707  0.009379    7    6 1.200E-01  1   0.0000
       ----------START APPROXIMATE SECOND ORDER MCSCF----------
   2      -77.965326199 -0.001668492  0.006555   34    8 2.142E-01  1   0.0000
   3      -77.971010558 -0.005684359  0.006357   31    7 1.506E-01  1   0.0000
   4      -77.972878306 -0.001867748  0.004445   24   10 9.438E-02  1   0.0000
   5      -77.974608119 -0.001729814  0.007654   15    7 3.312E-02  1   0.0000
   6      -77.975119700 -0.000511581  0.003863   33    7 9.927E-03  1   0.0000
   7      -77.975253049 -0.000133349  0.001566    7    6 5.739E-03  1   0.0000
   8      -77.975309289 -0.000056240  0.000923   15    7 1.396E-03  1   0.0000
   9      -77.975353839 -0.000044550  0.000585   15    7 7.917E-05  1   0.0000
  10      -77.975355986 -0.000002147  0.000181   15    7 1.288E-05  1   0.0000
  11      -77.975356330 -0.000000344  0.000089   15    7 9.008E-07  1   0.0000
  12      -77.975356374 -0.000000044  0.000035   11    7 1.400E-07  1   0.0000
  13      -77.975356384 -0.000000010  0.000010   11    7 1.608E-08  1   0.0000
  14      -77.975356384 -0.000000001  0.000005   15    7 2.199E-09  1   0.0000

          --------------------
          LAGRANGIAN CONVERGED
          --------------------

 FINAL MCSCF ENERGY IS      -77.9753563843 AFTER  14 ITERATIONS

 -MCCI- BASED ON OPTIMIZED ORBITALS
 ----------------------------------

 PLEASE NOTE: IF THE ACTIVE ORBITALS ARE CANONICALIZED BELOW,
 THE FOLLOWING CI EXPANSION COEFFICIENTS AND THE DENSITY DO NOT
 CORRESPOND TO THE PRINTED ORBITALS.  THE PRINTED EXPANSIONS MATCH
 THE ORBITALS USED DURING THE LAST ITERATION.  IF YOU WISH TO SEE
 CI EXPANSIONS BASED ON THE CANONICAL (OR NATURAL) ORBITALS, YOU
 MUST RUN A CI CALCULATION WITH THAT ORBITAL CHOICE READ IN $VEC.

 CI EIGENVECTORS WILL BE LABELED IN GROUP=C1      
 PRINTING CI COEFFICIENTS LARGER THAN 5.000E-02

 STATE   1  ENERGY=       -77.9753563843  S=  0.00  SZ=  0.00  SPACE SYM=A   

ALPHA |BETA  | CI COEFFICIENT
------|------|---------------
 1010 | 1010 |   0.7014967926
 1100 | 1100 |  -0.7014967926
 0101 | 0101 |   0.0590975106
 0011 | 0011 |  -0.0590975106
 0110 | 1001 |  -0.0542201327
 1001 | 0110 |  -0.0542201327

 DENSITY MATRIX OVER ACTIVE MO-S

             1           2           3           4

    1    1.9772105
    2    0.0000000   1.0000000
    3   -0.0000000  -0.0000000   1.0000000
    4   -0.0000000  -0.0000000   0.0000000   0.0227895

 FORMING THE "STANDARD FOCK OPERATOR" USING INTEGRALS FROM DISK...
     6 FILLED,    4 ACTIVE, AND   26 VIRTUAL ORBITALS  WILL BE CANONICALIZED

          ----------------------
          MCSCF NATURAL ORBITALS
          ----------------------

                      1          2          3          4          5
                  -11.2165   -11.2160    -0.7989    -0.7919    -0.5765
                     B2         A1         B2         A1         E   
    1  C  1  S    0.704434   0.705495  -0.124389   0.105511  -0.000000
    2  C  1  S    0.017299   0.014451   0.243071  -0.202802  -0.000000
    3  C  1  X    0.000000   0.000000   0.000000   0.000000  -0.193351
    4  C  1  Y    0.000000   0.000000   0.000000   0.000000   0.246096
    5  C  1  Z    0.000301  -0.003845  -0.151856   0.207913  -0.000000
    6  C  1  S   -0.011018  -0.009379   0.258235  -0.176637  -0.000000
    7  C  1  X    0.000000   0.000000   0.000000   0.000000  -0.106957
    8  C  1  Y    0.000000   0.000000   0.000000   0.000000   0.106907
    9  C  1  Z   -0.001604  -0.000537  -0.051891   0.108865  -0.000000
   10  C  1 XX   -0.000256   0.000233   0.003280  -0.001070  -0.000000
   11  C  1 YY   -0.000256   0.000233   0.003280  -0.001070  -0.000000
   12  C  1 ZZ    0.000511  -0.000467  -0.006561   0.002140  -0.000000
   13  C  1 XY   -0.000161  -0.000289  -0.019171   0.018283  -0.000000
   14  C  1 XZ    0.000000   0.000000   0.000000   0.000000   0.020672
   15  C  1 YZ    0.000000   0.000000   0.000000   0.000000  -0.011570
   16  C  2  S   -0.704434   0.705495   0.124389   0.105511  -0.000000
   17  C  2  S   -0.017299   0.014451  -0.243071  -0.202802  -0.000000
   18  C  2  X    0.000000   0.000000   0.000000   0.000000   0.193351
   19  C  2  Y    0.000000   0.000000   0.000000   0.000000   0.246096
   20  C  2  Z    0.000301   0.003845  -0.151856  -0.207913  -0.000000
   21  C  2  S    0.011018  -0.009379  -0.258235  -0.176637  -0.000000
   22  C  2  X    0.000000   0.000000   0.000000   0.000000   0.106957
   23  C  2  Y    0.000000   0.000000   0.000000   0.000000   0.106907
   24  C  2  Z   -0.001604   0.000537  -0.051891  -0.108865  -0.000000
   25  C  2 XX    0.000256   0.000233  -0.003280  -0.001070  -0.000000
   26  C  2 YY    0.000256   0.000233  -0.003280  -0.001070  -0.000000
   27  C  2 ZZ   -0.000511  -0.000467   0.006561   0.002140  -0.000000
   28  C  2 XY   -0.000161   0.000289  -0.019171  -0.018283  -0.000000
   29  C  2 XZ    0.000000   0.000000   0.000000   0.000000   0.020672
   30  C  2 YZ    0.000000   0.000000   0.000000   0.000000   0.011570
   31  H  3  S    0.000100  -0.000123  -0.143488  -0.148649  -0.170376
   32  H  3  S   -0.001600   0.002891  -0.065549  -0.080675  -0.130324
   33  H  4  S   -0.000100  -0.000123   0.143488  -0.148649  -0.170376
   34  H  4  S    0.001600   0.002891   0.065549  -0.080675  -0.130324
   35  H  5  S   -0.000100  -0.000123   0.143488  -0.148649   0.170376
   36  H  5  S    0.001600   0.002891   0.065549  -0.080675   0.130324
   37  H  6  S    0.000100  -0.000123  -0.143488  -0.148649   0.170376
   38  H  6  S   -0.001600   0.002891  -0.065549  -0.080675   0.130324

                      6          7          8          9         10
                   -0.5765     1.9772     1.0000     1.0000     0.0228
                     E          A1         E          E          B2  
    1  C  1  S   -0.000000  -0.101129  -0.000000  -0.000000  -0.121388
    2  C  1  S   -0.000000   0.221553  -0.000000  -0.000000   0.506253
    3  C  1  X    0.246096  -0.000000   0.282565   0.320592  -0.000000
    4  C  1  Y   -0.193351  -0.000000   0.320592   0.282565  -0.000000
    5  C  1  Z   -0.000000   0.348565  -0.000000  -0.000000   0.673132
    6  C  1  S   -0.000000   0.177224  -0.000000  -0.000000   0.555312
    7  C  1  X    0.106907  -0.000000   0.244392   0.296324  -0.000000
    8  C  1  Y   -0.106957  -0.000000   0.296324   0.244392  -0.000000
    9  C  1  Z   -0.000000   0.134081  -0.000000  -0.000000   0.249013
   10  C  1 XX   -0.000000  -0.011098  -0.000000  -0.000000  -0.020992
   11  C  1 YY   -0.000000  -0.011098  -0.000000  -0.000000  -0.020992
   12  C  1 ZZ   -0.000000   0.022196  -0.000000  -0.000000   0.041985
   13  C  1 XY   -0.000000   0.003073  -0.000000  -0.000000   0.085107
   14  C  1 XZ   -0.011570  -0.000000   0.014904  -0.013030  -0.000000
   15  C  1 YZ    0.020672  -0.000000  -0.013030   0.014904  -0.000000
   16  C  2  S   -0.000000  -0.101129  -0.000000  -0.000000   0.121388
   17  C  2  S   -0.000000   0.221553  -0.000000  -0.000000  -0.506253
   18  C  2  X    0.246096  -0.000000   0.282565  -0.320592  -0.000000
   19  C  2  Y    0.193351  -0.000000  -0.320592   0.282565  -0.000000
   20  C  2  Z   -0.000000  -0.348565  -0.000000  -0.000000   0.673132
   21  C  2  S   -0.000000   0.177224  -0.000000  -0.000000  -0.555312
   22  C  2  X    0.106907  -0.000000   0.244392  -0.296324  -0.000000
   23  C  2  Y    0.106957  -0.000000  -0.296324   0.244392  -0.000000
   24  C  2  Z   -0.000000  -0.134081  -0.000000  -0.000000   0.249013
   25  C  2 XX   -0.000000  -0.011098  -0.000000  -0.000000   0.020992
   26  C  2 YY   -0.000000  -0.011098  -0.000000  -0.000000   0.020992
   27  C  2 ZZ   -0.000000   0.022196  -0.000000  -0.000000  -0.041985
   28  C  2 XY   -0.000000  -0.003073  -0.000000  -0.000000   0.085107
   29  C  2 XZ    0.011570  -0.000000  -0.014904  -0.013030  -0.000000
   30  C  2 YZ    0.020672  -0.000000  -0.013030  -0.014904  -0.000000
   31  H  3  S   -0.170376  -0.029506   0.049298   0.049298   0.059553
   32  H  3  S   -0.130324  -0.059683   0.071244   0.071244   0.104478
   33  H  4  S    0.170376  -0.029506  -0.049298   0.049298  -0.059553
   34  H  4  S    0.130324  -0.059683  -0.071244   0.071244  -0.104478
   35  H  5  S   -0.170376  -0.029506   0.049298  -0.049298  -0.059553
   36  H  5  S   -0.130324  -0.059683   0.071244  -0.071244  -0.104478
   37  H  6  S    0.170376  -0.029506  -0.049298  -0.049298   0.059553
   38  H  6  S    0.130324  -0.059683  -0.071244  -0.071244   0.104478

          ------------------------
          MCSCF OPTIMIZED ORBITALS
          ------------------------

                      1          2          3          4          5
                  -11.2165   -11.2160    -0.7989    -0.7919    -0.5765
                     B2         A1         B2         A1         E   
    1  C  1  S    0.704434   0.705495  -0.124389   0.105511  -0.000000
    2  C  1  S    0.017299   0.014451   0.243071  -0.202802  -0.000000
    3  C  1  X    0.000000   0.000000   0.000000   0.000000  -0.193351
    4  C  1  Y    0.000000   0.000000   0.000000   0.000000   0.246096
    5  C  1  Z    0.000301  -0.003845  -0.151856   0.207913  -0.000000
    6  C  1  S   -0.011018  -0.009379   0.258235  -0.176637  -0.000000
    7  C  1  X    0.000000   0.000000   0.000000   0.000000  -0.106957
    8  C  1  Y    0.000000   0.000000   0.000000   0.000000   0.106907
    9  C  1  Z   -0.001604  -0.000537  -0.051891   0.108865  -0.000000
   10  C  1 XX   -0.000256   0.000233   0.003280  -0.001070  -0.000000
   11  C  1 YY   -0.000256   0.000233   0.003280  -0.001070  -0.000000
   12  C  1 ZZ    0.000511  -0.000467  -0.006561   0.002140  -0.000000
   13  C  1 XY   -0.000161  -0.000289  -0.019171   0.018283  -0.000000
   14  C  1 XZ    0.000000   0.000000   0.000000   0.000000   0.020672
   15  C  1 YZ    0.000000   0.000000   0.000000   0.000000  -0.011570
   16  C  2  S   -0.704434   0.705495   0.124389   0.105511  -0.000000
   17  C  2  S   -0.017299   0.014451  -0.243071  -0.202802  -0.000000
   18  C  2  X    0.000000   0.000000   0.000000   0.000000   0.193351
   19  C  2  Y    0.000000   0.000000   0.000000   0.000000   0.246096
   20  C  2  Z    0.000301   0.003845  -0.151856  -0.207913  -0.000000
   21  C  2  S    0.011018  -0.009379  -0.258235  -0.176637  -0.000000
   22  C  2  X    0.000000   0.000000   0.000000   0.000000   0.106957
   23  C  2  Y    0.000000   0.000000   0.000000   0.000000   0.106907
   24  C  2  Z   -0.001604   0.000537  -0.051891  -0.108865  -0.000000
   25  C  2 XX    0.000256   0.000233  -0.003280  -0.001070  -0.000000
   26  C  2 YY    0.000256   0.000233  -0.003280  -0.001070  -0.000000
   27  C  2 ZZ   -0.000511  -0.000467   0.006561   0.002140  -0.000000
   28  C  2 XY   -0.000161   0.000289  -0.019171  -0.018283  -0.000000
   29  C  2 XZ    0.000000   0.000000   0.000000   0.000000   0.020672
   30  C  2 YZ    0.000000   0.000000   0.000000   0.000000   0.011570
   31  H  3  S    0.000100  -0.000123  -0.143488  -0.148649  -0.170376
   32  H  3  S   -0.001600   0.002891  -0.065549  -0.080675  -0.130324
   33  H  4  S   -0.000100  -0.000123   0.143488  -0.148649  -0.170376
   34  H  4  S    0.001600   0.002891   0.065549  -0.080675  -0.130324
   35  H  5  S   -0.000100  -0.000123   0.143488  -0.148649   0.170376
   36  H  5  S    0.001600   0.002891   0.065549  -0.080675   0.130324
   37  H  6  S    0.000100  -0.000123  -0.143488  -0.148649   0.170376
   38  H  6  S   -0.001600   0.002891  -0.065549  -0.080675   0.130324

                      6          7          8          9         10
                   -0.5765    -0.7254    -0.0900    -0.0900     0.6940
                     E          A1         E          E          B2  
    1  C  1  S   -0.000000  -0.101129  -0.000000  -0.000000  -0.121388
    2  C  1  S   -0.000000   0.221553  -0.000000  -0.000000   0.506253
    3  C  1  X    0.246096   0.000000   0.282565   0.320592   0.000000
    4  C  1  Y   -0.193351   0.000000   0.320592   0.282565   0.000000
    5  C  1  Z   -0.000000   0.348565  -0.000000  -0.000000   0.673132
    6  C  1  S   -0.000000   0.177224  -0.000000  -0.000000   0.555312
    7  C  1  X    0.106907   0.000000   0.244392   0.296324   0.000000
    8  C  1  Y   -0.106957   0.000000   0.296324   0.244392   0.000000
    9  C  1  Z   -0.000000   0.134081  -0.000000  -0.000000   0.249013
   10  C  1 XX   -0.000000  -0.011098  -0.000000  -0.000000  -0.020992
   11  C  1 YY   -0.000000  -0.011098  -0.000000  -0.000000  -0.020992
   12  C  1 ZZ   -0.000000   0.022196  -0.000000  -0.000000   0.041985
   13  C  1 XY   -0.000000   0.003073  -0.000000  -0.000000   0.085107
   14  C  1 XZ   -0.011570   0.000000   0.014904  -0.013030   0.000000
   15  C  1 YZ    0.020672   0.000000  -0.013030   0.014904   0.000000
   16  C  2  S   -0.000000  -0.101129  -0.000000  -0.000000   0.121388
   17  C  2  S   -0.000000   0.221553  -0.000000  -0.000000  -0.506253
   18  C  2  X    0.246096   0.000000   0.282565  -0.320592   0.000000
   19  C  2  Y    0.193351   0.000000  -0.320592   0.282565   0.000000
   20  C  2  Z   -0.000000  -0.348565  -0.000000  -0.000000   0.673132
   21  C  2  S   -0.000000   0.177224  -0.000000  -0.000000  -0.555312
   22  C  2  X    0.106907   0.000000   0.244392  -0.296324   0.000000
   23  C  2  Y    0.106957   0.000000  -0.296324   0.244392   0.000000
   24  C  2  Z   -0.000000  -0.134081  -0.000000  -0.000000   0.249013
   25  C  2 XX   -0.000000  -0.011098  -0.000000  -0.000000   0.020992
   26  C  2 YY   -0.000000  -0.011098  -0.000000  -0.000000   0.020992
   27  C  2 ZZ   -0.000000   0.022196  -0.000000  -0.000000  -0.041985
   28  C  2 XY   -0.000000  -0.003073  -0.000000  -0.000000   0.085107
   29  C  2 XZ    0.011570   0.000000  -0.014904  -0.013030   0.000000
   30  C  2 YZ    0.020672   0.000000  -0.013030  -0.014904   0.000000
   31  H  3  S   -0.170376  -0.029506   0.049298   0.049298   0.059553
   32  H  3  S   -0.130324  -0.059683   0.071244   0.071244   0.104478
   33  H  4  S    0.170376  -0.029506  -0.049298   0.049298  -0.059553
   34  H  4  S    0.130324  -0.059683  -0.071244   0.071244  -0.104478
   35  H  5  S   -0.170376  -0.029506   0.049298  -0.049298  -0.059553
   36  H  5  S   -0.130324  -0.059683   0.071244  -0.071244  -0.104478
   37  H  6  S    0.170376  -0.029506  -0.049298  -0.049298   0.059553
   38  H  6  S    0.130324  -0.059683  -0.071244  -0.071244   0.104478

                     11         12         13         14         15
                    0.2930     0.3163     0.3514     0.3514     0.6515
                     A1         B2         E          E          B2  
    1  C  1  S   -0.082059  -0.057675  -0.000000  -0.000000  -0.037004
    2  C  1  S    0.107572   0.010099  -0.000000  -0.000000  -0.072587
    3  C  1  X    0.000000  -0.000000   0.180212  -0.184540  -0.000000
    4  C  1  Y    0.000000  -0.000000  -0.184540   0.180212  -0.000000
    5  C  1  Z   -0.143978  -0.213106  -0.000000  -0.000000  -0.404354
    6  C  1  S    1.512792   0.881265  -0.000000  -0.000000   1.964929
    7  C  1  X    0.000000  -0.000000   0.631393  -1.079080  -0.000000
    8  C  1  Y    0.000000  -0.000000  -1.079080   0.631393  -0.000000
    9  C  1  Z   -0.621722  -1.059461  -0.000000  -0.000000   2.306092
   10  C  1 XX   -0.004419  -0.004941  -0.000000  -0.000000  -0.023519
   11  C  1 YY   -0.004419  -0.004941  -0.000000  -0.000000  -0.023519
   12  C  1 ZZ    0.008837   0.009882  -0.000000  -0.000000   0.047038
   13  C  1 XY   -0.005613   0.004107  -0.000000  -0.000000  -0.063460
   14  C  1 XZ    0.000000  -0.000000   0.009240   0.008595  -0.000000
   15  C  1 YZ    0.000000  -0.000000   0.008595   0.009240  -0.000000
   16  C  2  S   -0.082059   0.057675  -0.000000  -0.000000   0.037004
   17  C  2  S    0.107572  -0.010099  -0.000000  -0.000000   0.072587
   18  C  2  X    0.000000  -0.000000   0.180212   0.184540  -0.000000
   19  C  2  Y    0.000000  -0.000000   0.184540   0.180212  -0.000000
   20  C  2  Z    0.143978  -0.213106  -0.000000  -0.000000  -0.404354
   21  C  2  S    1.512792  -0.881265  -0.000000  -0.000000  -1.964929
   22  C  2  X    0.000000  -0.000000   0.631393   1.079080  -0.000000
   23  C  2  Y    0.000000  -0.000000   1.079080   0.631393  -0.000000
   24  C  2  Z    0.621722  -1.059461  -0.000000  -0.000000   2.306092
   25  C  2 XX   -0.004419   0.004941  -0.000000  -0.000000   0.023519
   26  C  2 YY   -0.004419   0.004941  -0.000000  -0.000000   0.023519
   27  C  2 ZZ    0.008837  -0.009882  -0.000000  -0.000000  -0.047038
   28  C  2 XY    0.005613   0.004107  -0.000000  -0.000000  -0.063460
   29  C  2 XZ    0.000000  -0.000000  -0.009240   0.008595  -0.000000
   30  C  2 YZ    0.000000  -0.000000   0.008595  -0.009240  -0.000000
   31  H  3  S   -0.000725   0.025352  -0.006995  -0.006995  -0.211679
   32  H  3  S   -1.089772   1.122752   1.299463   1.299463  -0.140589
   33  H  4  S   -0.000725  -0.025352   0.006995  -0.006995   0.211679
   34  H  4  S   -1.089772  -1.122752  -1.299463   1.299463   0.140589
   35  H  5  S   -0.000725  -0.025352  -0.006995   0.006995   0.211679
   36  H  5  S   -1.089772  -1.122752   1.299463  -1.299463   0.140589
   37  H  6  S   -0.000725   0.025352   0.006995   0.006995  -0.211679
   38  H  6  S   -1.089772   1.122752  -1.299463  -1.299463  -0.140589

                     16         17         18         19         20
                    0.7294     0.8100     0.8100     0.8975     0.9079
                     A1         E          E          A1         E   
    1  C  1  S   -0.008165  -0.000000  -0.000000  -0.031753  -0.000000
    2  C  1  S   -0.181475  -0.000000  -0.000000  -0.812203  -0.000000
    3  C  1  X    0.000000  -0.407969  -0.598110  -0.000000   0.160513
    4  C  1  Y    0.000000  -0.598110  -0.407969  -0.000000  -0.503094
    5  C  1  Z   -0.599263  -0.000000  -0.000000  -0.133619  -0.000000
    6  C  1  S   -0.335830  -0.000000  -0.000000   1.453089  -0.000000
    7  C  1  X    0.000000   0.197055   0.723825  -0.000000  -0.572626
    8  C  1  Y    0.000000   0.723825   0.197055  -0.000000   1.600737
    9  C  1  Z    0.999895  -0.000000  -0.000000  -0.319685  -0.000000
   10  C  1 XX    0.049088  -0.000000  -0.000000   0.021237  -0.000000
   11  C  1 YY    0.049088  -0.000000  -0.000000   0.021237  -0.000000
   12  C  1 ZZ   -0.098175  -0.000000  -0.000000  -0.042474  -0.000000
   13  C  1 XY   -0.023661  -0.000000  -0.000000   0.099156  -0.000000
   14  C  1 XZ    0.000000  -0.002400   0.006670  -0.000000  -0.119409
   15  C  1 YZ    0.000000   0.006670  -0.002400  -0.000000   0.023603
   16  C  2  S   -0.008165  -0.000000  -0.000000  -0.031753  -0.000000
   17  C  2  S   -0.181475  -0.000000  -0.000000  -0.812203  -0.000000
   18  C  2  X    0.000000   0.407969  -0.598110  -0.000000   0.160513
   19  C  2  Y    0.000000  -0.598110   0.407969  -0.000000   0.503094
   20  C  2  Z    0.599263  -0.000000  -0.000000   0.133619  -0.000000
   21  C  2  S   -0.335830  -0.000000  -0.000000   1.453089  -0.000000
   22  C  2  X    0.000000  -0.197055   0.723825  -0.000000  -0.572626
   23  C  2  Y    0.000000   0.723825  -0.197055  -0.000000  -1.600737
   24  C  2  Z   -0.999895  -0.000000  -0.000000   0.319685  -0.000000
   25  C  2 XX    0.049088  -0.000000  -0.000000   0.021237  -0.000000
   26  C  2 YY    0.049088  -0.000000  -0.000000   0.021237  -0.000000
   27  C  2 ZZ   -0.098175  -0.000000  -0.000000  -0.042474  -0.000000
   28  C  2 XY    0.023661  -0.000000  -0.000000  -0.099156  -0.000000
   29  C  2 XZ    0.000000  -0.002400  -0.006670  -0.000000   0.119409
   30  C  2 YZ    0.000000  -0.006670  -0.002400  -0.000000   0.023603
   31  H  3  S    0.129222   0.134196   0.134196  -0.442449  -0.320045
   32  H  3  S    0.110793   0.180525   0.180525  -0.240207  -0.429245
   33  H  4  S    0.129222   0.134196  -0.134196  -0.442449   0.320045
   34  H  4  S    0.110793   0.180525  -0.180525  -0.240207   0.429245
   35  H  5  S    0.129222  -0.134196   0.134196  -0.442449  -0.320045
   36  H  5  S    0.110793  -0.180525   0.180525  -0.240207  -0.429245
   37  H  6  S    0.129222  -0.134196  -0.134196  -0.442449   0.320045
   38  H  6  S    0.110793  -0.180525  -0.180525  -0.240207   0.429245

                     21         22         23         24         25
                    0.9079     1.1788     1.1856     1.1856     1.2157
                     E          B2         E          E          B2  
    1  C  1  S   -0.000000  -0.068261  -0.000000  -0.000000   0.010088
    2  C  1  S   -0.000000  -0.944478  -0.000000  -0.000000  -1.232926
    3  C  1  X   -0.503094   0.000000   0.505780  -0.484056  -0.000000
    4  C  1  Y    0.160513   0.000000  -0.484056   0.505780  -0.000000
    5  C  1  Z   -0.000000  -0.265342  -0.000000  -0.000000   0.430408
    6  C  1  S   -0.000000   3.375318  -0.000000  -0.000000   2.869874
    7  C  1  X    1.600737   0.000000  -0.882529   0.701081  -0.000000
    8  C  1  Y   -0.572626   0.000000   0.701081  -0.882529  -0.000000
    9  C  1  Z   -0.000000   1.701666  -0.000000  -0.000000   0.001575
   10  C  1 XX   -0.000000  -0.018534  -0.000000  -0.000000   0.014052
   11  C  1 YY   -0.000000  -0.018534  -0.000000  -0.000000   0.014052
   12  C  1 ZZ   -0.000000   0.037067  -0.000000  -0.000000  -0.028103
   13  C  1 XY   -0.000000   0.155305  -0.000000  -0.000000  -0.056725
   14  C  1 XZ    0.023603   0.000000   0.048817  -0.172134  -0.000000
   15  C  1 YZ   -0.119409   0.000000  -0.172134   0.048817  -0.000000
   16  C  2  S   -0.000000   0.068261  -0.000000  -0.000000  -0.010088
   17  C  2  S   -0.000000   0.944478  -0.000000  -0.000000   1.232926
   18  C  2  X    0.503094   0.000000  -0.505780  -0.484056  -0.000000
   19  C  2  Y    0.160513   0.000000  -0.484056  -0.505780  -0.000000
   20  C  2  Z   -0.000000  -0.265342  -0.000000  -0.000000   0.430408
   21  C  2  S   -0.000000  -3.375318  -0.000000  -0.000000  -2.869874
   22  C  2  X   -1.600737   0.000000   0.882529   0.701081  -0.000000
   23  C  2  Y   -0.572626   0.000000   0.701081   0.882529  -0.000000
   24  C  2  Z   -0.000000   1.701666  -0.000000  -0.000000   0.001575
   25  C  2 XX   -0.000000   0.018534  -0.000000  -0.000000  -0.014052
   26  C  2 YY   -0.000000   0.018534  -0.000000  -0.000000  -0.014052
   27  C  2 ZZ   -0.000000  -0.037067  -0.000000  -0.000000   0.028103
   28  C  2 XY   -0.000000   0.155305  -0.000000  -0.000000  -0.056725
   29  C  2 XZ    0.023603   0.000000   0.048817   0.172134  -0.000000
   30  C  2 YZ    0.119409   0.000000   0.172134   0.048817  -0.000000
   31  H  3  S   -0.320045   0.455817  -0.452104  -0.452104  -0.330180
   32  H  3  S   -0.429245  -0.196992   1.015493   1.015493   0.875254
   33  H  4  S   -0.320045  -0.455817  -0.452104   0.452104   0.330180
   34  H  4  S   -0.429245   0.196992   1.015493  -1.015493  -0.875254
   35  H  5  S    0.320045  -0.455817   0.452104  -0.452104   0.330180
   36  H  5  S    0.429245   0.196992  -1.015493   1.015493  -0.875254
   37  H  6  S    0.320045   0.455817   0.452104   0.452104  -0.330180
   38  H  6  S    0.429245  -0.196992  -1.015493  -1.015493   0.875254

                     26         27         28         29         30
                    1.2446     1.8748     2.0682     2.0919     2.0919
                     A1         B1         A2         E          E   
    1  C  1  S    0.027945   0.000000  -0.000000  -0.000000  -0.000000
    2  C  1  S   -1.151084   0.000000  -0.000000  -0.000000  -0.000000
    3  C  1  X   -0.000000   0.000000  -0.000000  -0.111830   0.002356
    4  C  1  Y   -0.000000   0.000000  -0.000000   0.002356  -0.111830
    5  C  1  Z    0.347401   0.000000  -0.000000  -0.000000  -0.000000
    6  C  1  S    2.044549   0.000000  -0.000000  -0.000000  -0.000000
    7  C  1  X   -0.000000   0.000000  -0.000000  -0.308553   0.711262
    8  C  1  Y   -0.000000   0.000000  -0.000000   0.711262  -0.308553
    9  C  1  Z   -0.594838   0.000000  -0.000000  -0.000000  -0.000000
   10  C  1 XX    0.036348   0.600293   0.625212  -0.000000  -0.000000
   11  C  1 YY    0.036348  -0.600293  -0.625212  -0.000000  -0.000000
   12  C  1 ZZ   -0.072695   0.000000  -0.000000  -0.000000  -0.000000
   13  C  1 XY   -0.093668   0.000000  -0.000000  -0.000000  -0.000000
   14  C  1 XZ   -0.000000   0.000000  -0.000000   0.633704   0.255375
   15  C  1 YZ   -0.000000   0.000000  -0.000000   0.255375   0.633704
   16  C  2  S    0.027945   0.000000  -0.000000  -0.000000  -0.000000
   17  C  2  S   -1.151084   0.000000  -0.000000  -0.000000  -0.000000
   18  C  2  X   -0.000000   0.000000  -0.000000  -0.111830  -0.002356
   19  C  2  Y   -0.000000   0.000000  -0.000000  -0.002356  -0.111830
   20  C  2  Z   -0.347401   0.000000  -0.000000  -0.000000  -0.000000
   21  C  2  S    2.044549   0.000000  -0.000000  -0.000000  -0.000000
   22  C  2  X   -0.000000   0.000000  -0.000000  -0.308553  -0.711262
   23  C  2  Y   -0.000000   0.000000  -0.000000  -0.711262  -0.308553
   24  C  2  Z    0.594838   0.000000  -0.000000  -0.000000  -0.000000
   25  C  2 XX    0.036348   0.600293  -0.625212  -0.000000  -0.000000
   26  C  2 YY    0.036348  -0.600293   0.625212  -0.000000  -0.000000
   27  C  2 ZZ   -0.072695   0.000000  -0.000000  -0.000000  -0.000000
   28  C  2 XY    0.093668   0.000000  -0.000000  -0.000000  -0.000000
   29  C  2 XZ   -0.000000   0.000000  -0.000000  -0.633704   0.255375
   30  C  2 YZ   -0.000000   0.000000  -0.000000   0.255375  -0.633704
   31  H  3  S    0.392470   0.000000  -0.000000  -0.358602  -0.358602
   32  H  3  S   -0.986257   0.000000  -0.000000  -0.203425  -0.203425
   33  H  4  S    0.392470   0.000000  -0.000000   0.358602  -0.358602
   34  H  4  S   -0.986257   0.000000  -0.000000   0.203425  -0.203425
   35  H  5  S    0.392470   0.000000  -0.000000  -0.358602   0.358602
   36  H  5  S   -0.986257   0.000000  -0.000000  -0.203425   0.203425
   37  H  6  S    0.392470   0.000000  -0.000000   0.358602   0.358602
   38  H  6  S   -0.986257   0.000000  -0.000000   0.203425   0.203425

                     31         32         33         34         35
                    2.1897     2.3019     2.5174     2.7537     2.7537
                     A1         B2         A1         E          E   
    1  C  1  S    0.007105  -0.049355   0.027085   0.000000   0.000000
    2  C  1  S   -0.461901  -0.232231  -0.043068   0.000000   0.000000
    3  C  1  X   -0.000000  -0.000000  -0.000000   0.109789  -0.028259
    4  C  1  Y   -0.000000  -0.000000  -0.000000  -0.028259   0.109789
    5  C  1  Z   -0.311010  -0.017888  -0.006652   0.000000   0.000000
    6  C  1  S    0.295244   1.070088  -0.357567   0.000000   0.000000
    7  C  1  X   -0.000000  -0.000000  -0.000000   0.089809  -0.059683
    8  C  1  Y   -0.000000  -0.000000  -0.000000  -0.059683   0.089809
    9  C  1  Z    0.289510   0.008726   0.288381   0.000000   0.000000
   10  C  1 XX   -0.323672   0.026109  -0.065588   0.000000   0.000000
   11  C  1 YY   -0.323672   0.026109  -0.065588   0.000000   0.000000
   12  C  1 ZZ    0.647345  -0.052219   0.131177   0.000000   0.000000
   13  C  1 XY   -0.133059  -0.738727   0.772627   0.000000   0.000000
   14  C  1 XZ   -0.000000  -0.000000  -0.000000  -0.260519   0.818536
   15  C  1 YZ   -0.000000  -0.000000  -0.000000   0.818536  -0.260519
   16  C  2  S    0.007105   0.049355   0.027085   0.000000   0.000000
   17  C  2  S   -0.461901   0.232231  -0.043068   0.000000   0.000000
   18  C  2  X   -0.000000  -0.000000  -0.000000   0.109789   0.028259
   19  C  2  Y   -0.000000  -0.000000  -0.000000   0.028259   0.109789
   20  C  2  Z    0.311010  -0.017888   0.006652   0.000000   0.000000
   21  C  2  S    0.295244  -1.070088  -0.357567   0.000000   0.000000
   22  C  2  X   -0.000000  -0.000000  -0.000000   0.089809   0.059683
   23  C  2  Y   -0.000000  -0.000000  -0.000000   0.059683   0.089809
   24  C  2  Z   -0.289510   0.008726  -0.288381   0.000000   0.000000
   25  C  2 XX   -0.323672  -0.026109  -0.065588   0.000000   0.000000
   26  C  2 YY   -0.323672  -0.026109  -0.065588   0.000000   0.000000
   27  C  2 ZZ    0.647345   0.052219   0.131177   0.000000   0.000000
   28  C  2 XY    0.133059  -0.738727  -0.772627   0.000000   0.000000
   29  C  2 XZ   -0.000000  -0.000000  -0.000000   0.260519   0.818536
   30  C  2 YZ   -0.000000  -0.000000  -0.000000   0.818536   0.260519
   31  H  3  S    0.012206   0.443898   0.414689   0.394558   0.394558
   32  H  3  S   -0.050575   0.094339   0.014221  -0.109783  -0.109783
   33  H  4  S    0.012206  -0.443898   0.414689  -0.394558   0.394558
   34  H  4  S   -0.050575  -0.094339   0.014221   0.109783  -0.109783
   35  H  5  S    0.012206  -0.443898   0.414689   0.394558  -0.394558
   36  H  5  S   -0.050575  -0.094339   0.014221  -0.109783   0.109783
   37  H  6  S    0.012206   0.443898   0.414689  -0.394558  -0.394558
   38  H  6  S   -0.050575   0.094339   0.014221   0.109783   0.109783

                     36
                    2.9019
                     B2  
    1  C  1  S   -0.061818
    2  C  1  S   -0.161616
    3  C  1  X   -0.000000
    4  C  1  Y   -0.000000
    5  C  1  Z    0.348852
    6  C  1  S    1.839476
    7  C  1  X   -0.000000
    8  C  1  Y   -0.000000
    9  C  1  Z    1.124805
   10  C  1 XX   -0.507306
   11  C  1 YY   -0.507306
   12  C  1 ZZ    1.014613
   13  C  1 XY   -0.036109
   14  C  1 XZ   -0.000000
   15  C  1 YZ   -0.000000
   16  C  2  S    0.061818
   17  C  2  S    0.161616
   18  C  2  X   -0.000000
   19  C  2  Y   -0.000000
   20  C  2  Z    0.348852
   21  C  2  S   -1.839476
   22  C  2  X   -0.000000
   23  C  2  Y   -0.000000
   24  C  2  Z    1.124805
   25  C  2 XX    0.507306
   26  C  2 YY    0.507306
   27  C  2 ZZ   -1.014613
   28  C  2 XY   -0.036109
   29  C  2 XZ   -0.000000
   30  C  2 YZ   -0.000000
   31  H  3  S   -0.004355
   32  H  3  S   -0.032782
   33  H  4  S    0.004355
   34  H  4  S    0.032782
   35  H  5  S    0.004355
   36  H  5  S    0.032782
   37  H  6  S   -0.004355
   38  H  6  S   -0.032782

 THIS RUN IS GOING TO SOLVE THE CP-MC-HF RESPONSE EQUATIONS,
 USING CANONICAL ACTIVE ORBITALS TO IMPROVE THEIR CONVERGENCE.
 ROTATION OF THE ACTIVE ORBITALS REQUIRES REGENERATION OF THE CI STATES,
 THE 1 PARTICLE DENSITY, AND THE 2 PARTICLE DENSITY OVER THE NEW ACTIVE
 ORBITALS.  AWAY WE GO...

          ------------------------------
          CASSCF INTEGRAL TRANSFORMATION
          ------------------------------
 AO INTEGRALS WILL BE READ IN FROM DISK...

 NUMBER OF CORE MOLECULAR ORBITALS     =     6
 NUMBER OF OCCUPIED MOLECULAR ORBITALS =    10
 TOTAL NUMBER OF MOLECULAR ORBITALS    =    36
 TOTAL NUMBER OF ATOMIC ORBITALS       =    36

 ----- CHOOSING THREE STEPS TRANSFORMATION -----
 NUMBER OF WORDS USED      =     183748
 NUMBER OF WORDS AVAILABLE =     960139
 NUMBER OF PASSES          =          1

 ----- NUCLEAR REPULSION ENERGY =     31.47622838
 ----- FROZEN CORE ENERGY       =   -104.43629226

 ... SYMMETRY ...           CPU =    0.00
 ... (PQ|RS) -> (PQ|KL) ... CPU =    0.01
 ... (PQ|KL) -> (IJ|KL) ... CPU =    0.00

 NUMBER OF (PQ|KL) INTEGRALS WRITTEN       4988
 NUMBER OF (IJ|KL) INTEGRALS WRITTEN         19
 ..... END OF CAS INTEGRAL TRANSFORMATION .....
 STEP CPU TIME =     0.27 TOTAL CPU TIME =        0.4 (    0.0 MIN)
 TOTAL WALL CLOCK TIME=        0.7 SECONDS, CPU UTILIZATION IS  58.57%

     --------------------------------------------------
          AMES LABORATORY DETERMINANTAL FULL CI
     PROGRAM WRITTEN BY JOE IVANIC AND KLAUS RUEDENBERG
     --------------------------------------------------

 THE NUMBER OF DETERMINANTS HAVING SPACE SYMMETRY A  
 IN POINT GROUP C1   WITH SZ=  0.0 IS             36
 WHICH INCLUDES             20 CSFS WITH S=  0.0
 WHICH INCLUDES             15 CSFS WITH S=  1.0
 WHICH INCLUDES              1 CSFS WITH S=  2.0
 THE DETERMINANT FULL CI REQUIRES          172011 WORDS
 SMALL CI MATRIX, JUST USING INCORE DIAGONALIZATION...

 CI EIGENVECTORS WILL BE LABELED IN GROUP=C1      
 PRINTING CI COEFFICIENTS LARGER THAN 5.000E-02

 STATE   1  ENERGY=       -77.9753563844  S=  0.00  SZ=  0.00  SPACE SYM=A   

ALPHA |BETA  | CI COEFFICIENT
------|------|---------------
 1010 | 1010 |   0.7014969258
 1100 | 1100 |  -0.7014969258
 0011 | 0011 |  -0.0590971317
 0101 | 0101 |   0.0590971317
 0110 | 1001 |  -0.0542192591
 1001 | 0110 |  -0.0542192591
 ..... DONE WITH DETERMINANT CI COMPUTATION .....
 STEP CPU TIME =     0.00 TOTAL CPU TIME =        0.4 (    0.0 MIN)
 TOTAL WALL CLOCK TIME=        0.7 SECONDS, CPU UTILIZATION IS  57.75%

     --------------------------------------------------
      ONE AND TWO PARTICLE DENSITY MATRIX COMPUTATION
     PROGRAM WRITTEN BY JOE IVANIC AND KLAUS RUEDENBERG
     --------------------------------------------------

      30500 WORDS WILL BE USED TO FORM THE DENSITIES
 THE DENSITIES ARE STATE AVERAGED OVER   1 ROOT(S)
 STATE=   1   ENERGY=      -77.9753563844   WEIGHT= 1.00000   S=  0.00
 SIEVING THE A    SYMMETRY NONZERO DENSITY ELEMENTS IN GROUP C1      
         18 NONZERO DM2 ELEMENTS WRITTEN IN       1 RECORDS TO FILE 15
 ..... DONE WITH 1 AND 2 PARTICLE DENSITY MATRIX .....
 STEP CPU TIME =     0.00 TOTAL CPU TIME =        0.4 (    0.0 MIN)
 TOTAL WALL CLOCK TIME=        0.7 SECONDS, CPU UTILIZATION IS  57.75%
 .....DONE WITH MCSCF ITERATIONS.....
 STEP CPU TIME =     0.00 TOTAL CPU TIME =        0.4 (    0.0 MIN)
 TOTAL WALL CLOCK TIME=        0.7 SECONDS, CPU UTILIZATION IS  57.75%

     ----------------------------------------------------------------
     PROPERTY VALUES FOR THE MCSCF SELF-CONSISTENT FIELD WAVEFUNCTION
     ----------------------------------------------------------------

          -----------------
          ENERGY COMPONENTS
          -----------------

         WAVEFUNCTION NORMALIZATION =       1.0000000000

                ONE ELECTRON ENERGY =    -166.3028122140
                TWO ELECTRON ENERGY =      56.8512274453
           NUCLEAR REPULSION ENERGY =      31.4762283844
                                      ------------------
                       TOTAL ENERGY =     -77.9753563843

 ELECTRON-ELECTRON POTENTIAL ENERGY =      56.8512274453
  NUCLEUS-ELECTRON POTENTIAL ENERGY =    -244.3653926714
   NUCLEUS-NUCLEUS POTENTIAL ENERGY =      31.4762283844
                                      ------------------
             TOTAL POTENTIAL ENERGY =    -156.0379368417
               TOTAL KINETIC ENERGY =      78.0625804574
                 VIRIAL RATIO (V/T) =       1.9988826391

          ---------------------------------------
          MULLIKEN AND LOWDIN POPULATION ANALYSES
          ---------------------------------------

     ATOMIC MULLIKEN POPULATION IN EACH MOLECULAR ORBITAL

                      1          2          3          4          5

                  2.000000   2.000000   2.000000   2.000000   2.000000

    1             0.999608   0.999115   0.646853   0.590402   0.554506
    2             0.999608   0.999115   0.646853   0.590402   0.554506
    3             0.000196   0.000443   0.176574   0.204799   0.222747
    4             0.000196   0.000443   0.176574   0.204799   0.222747
    5             0.000196   0.000443   0.176574   0.204799   0.222747
    6             0.000196   0.000443   0.176574   0.204799   0.222747

                      6          7          8          9         10

                  2.000000   1.977210   1.000000   1.000000   0.022790

    1             0.554506   1.022305   0.488483   0.488483   0.011013
    2             0.554506   1.022305   0.488483   0.488483   0.011013
    3             0.222747  -0.016850   0.005758   0.005758   0.000191
    4             0.222747  -0.016850   0.005758   0.005758   0.000191
    5             0.222747  -0.016850   0.005758   0.005758   0.000191
    6             0.222747  -0.016850   0.005758   0.005758   0.000191
 WARNING! MCSCF POPULATIONS SHOWN ABOVE ARE FOR THE NATURAL ORBITALS.
 IGNORE THE ABOVE DATA FOR MCSCF FUNCTIONS WHICH ARE NOT OF -FORS- TYPE.
 THE FOLLOWING POPULATIONS ARE CORRECT FOR ANY MCSCF WAVEFUNCTION.

               ----- POPULATIONS IN EACH AO -----
                             MULLIKEN      LOWDIN
              1  C  1  S      1.99744     1.98195
              2  C  1  S      0.66830     0.36430
              3  C  1  X      0.63109     0.58830
              4  C  1  Y      0.63109     0.58830
              5  C  1  Z      0.69534     0.62162
              6  C  1  S      0.63713     0.35815
              7  C  1  X      0.40219     0.46471
              8  C  1  Y      0.40219     0.46471
              9  C  1  Z      0.25613     0.40073
             10  C  1 XX      0.00785     0.13767
             11  C  1 YY      0.00000     0.13767
             12  C  1 ZZ      0.00710     0.17295
             13  C  1 XY      0.00970     0.00931
             14  C  1 XZ      0.00970     0.01803
             15  C  1 YZ      0.00000     0.01803
             16  C  2  S      1.99744     1.98195
             17  C  2  S      0.66830     0.36430
             18  C  2  X      0.63109     0.58830
             19  C  2  Y      0.63109     0.58830
             20  C  2  Z      0.69534     0.62162
             21  C  2  S      0.63713     0.35815
             22  C  2  X      0.40219     0.46471
             23  C  2  Y      0.40219     0.46471
             24  C  2  Z      0.25613     0.40073
             25  C  2 XX      0.00785     0.13767
             26  C  2 YY      0.00000     0.13767
             27  C  2 ZZ      0.00710     0.17295
             28  C  2 XY      0.00970     0.00931
             29  C  2 XZ      0.00970     0.01803
             30  C  2 YZ      0.00000     0.01803
             31  H  3  S      0.52488     0.48072
             32  H  3  S      0.29749     0.35606
             33  H  4  S      0.52488     0.48072
             34  H  4  S      0.29749     0.35606
             35  H  5  S      0.52488     0.48072
             36  H  5  S      0.29749     0.35606
             37  H  6  S      0.52488     0.48072
             38  H  6  S      0.29749     0.35606

          ----- MULLIKEN ATOMIC OVERLAP POPULATIONS -----
          (OFF-DIAGONAL ELEMENTS NEED TO BE MULTIPLIED BY 2)

             1           2           3           4           5

    1    5.3456187
    2    0.3097308   5.3456187
    3   -0.0398335   0.3897953   0.5024523
    4    0.3897953  -0.0398335   0.0011769   0.5024523
    5    0.3897953  -0.0398335   0.0011769  -0.0324044   0.5024523
    6   -0.0398335   0.3897953  -0.0324044   0.0011769   0.0011769

             6

    6    0.5024523

          TOTAL MULLIKEN AND LOWDIN ATOMIC POPULATIONS
       ATOM         MULL.POP.    CHARGE          LOW.POP.     CHARGE
    1 C             6.355273   -0.355273         6.326426   -0.326426
    2 C             6.355273   -0.355273         6.326426   -0.326426
    3 H             0.822364    0.177636         0.836787    0.163213
    4 H             0.822364    0.177636         0.836787    0.163213
    5 H             0.822364    0.177636         0.836787    0.163213
    6 H             0.822364    0.177636         0.836787    0.163213

          MULLIKEN SPHERICAL HARMONIC POPULATIONS
       ATOM           S       P       D      F      G      H      I    TOTAL
    1 C             3.30    3.02    0.03   0.00   0.00   0.00   0.00    6.36
    2 C             3.30    3.02    0.03   0.00   0.00   0.00   0.00    6.36
    3 H             0.82    0.00    0.00   0.00   0.00   0.00   0.00    0.82
    4 H             0.82    0.00    0.00   0.00   0.00   0.00   0.00    0.82
    5 H             0.82    0.00    0.00   0.00   0.00   0.00   0.00    0.82
    6 H             0.82    0.00    0.00   0.00   0.00   0.00   0.00    0.82

          ---------------------
          ELECTROSTATIC MOMENTS
          ---------------------

 POINT   1           X           Y           Z (BOHR)    CHARGE
                 0.000000    0.000000    0.000000       -0.00 (A.U.)
         DX          DY          DZ         /D/  (DEBYE)
     0.000000    0.000000    0.000000    0.000000
 ...... END OF PROPERTY EVALUATION ......
 STEP CPU TIME =     0.01 TOTAL CPU TIME =        0.4 (    0.0 MIN)
 TOTAL WALL CLOCK TIME=        0.7 SECONDS, CPU UTILIZATION IS  57.53%
 DDI: Creating Array [0] - 1444 x 55 = 79420 words.
 DDI: Creating Array [1] - 26 x 550 = 14300 words.
 DDI: Creating Array [2] - 55 x 55 = 3025 words.
 DDI: Creating Array [3] - 741 x 55 = 40755 words.

     --------------------------------------------
     PARTIAL TWO ELECTRON INTEGRAL TRANSFORMATION
     --------------------------------------------

 NUMBER OF CORE MOLECULAR ORBITALS     =    0
 NUMBER OF OCCUPIED MOLECULAR ORBITALS =   10
 TOTAL NUMBER OF MOLECULAR ORBITALS    =   36
 TOTAL NUMBER OF ATOMIC ORBITALS       =   38
 THRESHOLD FOR KEEPING TRANSFORMED 2E- INTEGRALS = 1.000E-09

 -------------------------------     ------------------------------
 DISTRIBUTED DATA TRANSFORMATION     PROGRAM WRITTEN BY G. FLETCHER
 -------------------------------     ------------------------------

 THE DISTRIBUTED MEMORY REQUIRED FOR THIS STEP IS MEMDDI=         1 MWORDS
 CREATING DISTRIBUTED STORAGE FOR [VIR OCC|VIR OCC] INTEGRALS
 CREATING DISTRIBUTED STORAGE FOR [VIR OCC|OCC OCC] INTEGRALS
 CREATING DISTRIBUTED STORAGE FOR [OCC OCC|OCC OCC] INTEGRALS
 CREATING DISTRIBUTED STORAGE FOR [VIR VIR|OCC OCC] INTEGRALS
 FOR    1 PROCESSORS, THE REPLICATED MEMORY NEEDED IS       92980 WORDS.
 SCHWARZ INEQUALITY OVERHEAD:       741 INTEGRALS, T=        0.00

      DIRECT 4-INDEX TRANSFORMATION 
      SCHWARZ INEQUALITY TEST SKIPPED         65 INTEGRAL BLOCKS
 ... END OF INTEGRAL TRANSFORMATION ...
 CPU     0: STEP CPU TIME=     0.10 TOTAL CPU TIME=        0.5 (    0.0 MIN)
 TOTAL WALL CLOCK TIME=        0.8 SECONDS, CPU UTILIZATION IS  61.18%

     ---------------------------------------------
     1ST AND 2ND INTEGRAL DERIVATIVE CONTRIBUTIONS
     ---------------------------------------------
 ...... END OF 1-ELECTRON GRAD+HESS+FOCKDER ......
 CPU     0: STEP CPU TIME=     0.02 TOTAL CPU TIME=        0.5 (    0.0 MIN)
 TOTAL WALL CLOCK TIME=        0.9 SECONDS, CPU UTILIZATION IS  58.06%

     ----------------------------------------------
     TWO ELECTRON INTEGRAL DERIVATIVE CONTRIBUTIONS
     ----------------------------------------------

     137339 WORDS REQUIRED,   1000000 WORDS AVAILABLE
 THE COARSE/FINE SCHWARZ SCREENINGS SKIPPED          0/         9 BLOCKS.
 THE NUMBER OF DERIVATIVE INTEGRAL BLOCKS COMPUTED WAS      9173
 CPU     0: STEP CPU TIME=     1.38 TOTAL CPU TIME=        1.9 (    0.0 MIN)
 TOTAL WALL CLOCK TIME=        2.3 SECONDS, CPU UTILIZATION IS  81.70%
 ...... END OF 2-ELECTRON GRAD+HESS+LAGDER ......
 CPU     0: STEP CPU TIME=     0.00 TOTAL CPU TIME=        1.9 (    0.0 MIN)
 TOTAL WALL CLOCK TIME=        2.3 SECONDS, CPU UTILIZATION IS  81.70%
 DDI: Creating Array [4] - 1 x 1 = 1 words.
 DDI: Creating Array [5] - 1 x 1 = 1 words.
 DDI: Creating Array [6] - 1 x 1 = 1 words.
 DDI: Creating Array [7] - 1 x 1 = 1 words.

     -------------------------------------------------
     COUPLED-PERTURBED MULTICONFIGURATION HARTREE-FOCK
     -------------------------------------------------

 SETTING UP RIGHT-HAND SIDE OF CPMCHF EQUATIONS.
 # OF WORDS REQUIRED  =     118262
 # OF WORDS AVAILABLE =    1000000
 NOTE THAT THE CP-MCHF DISTRIBUTED MEMORY REQUIREMENTS ARE JUST THE
 MEMORY NEEDED TO STORE TRANSFORMED INTEGRAL CLASSES (ALLOCATED ABOVE).
 COMPUTING HESSIAN OF STATE WITH E=      -77.9753563844 S=  0.0

 MASTER NODE HAS FINISHED WITH (OO|OO) INTEGRALS, T=    0.0
 MASTER NODE HAS FINISHED WITH (VO|OO) INTEGRALS, T=    0.0
 MASTER NODE HAS FINISHED WITH (VV|OO) INTEGRALS, T=    0.0
 MASTER NODE HAS FINISHED WITH (VO|VO) INTEGRALS, T=    0.0

 FINISHED SETTING UP RIGHT-HAND SIDE.
 CPU     0: STEP CPU TIME=     0.02 TOTAL CPU TIME=        1.9 (    0.0 MIN)
 TOTAL WALL CLOCK TIME=        2.4 SECONDS, CPU UTILIZATION IS  80.50%

 CALCULATING MCSCF ELECTRONIC HESSIAN ON THE FLY.
 # OF ORBITAL ROTATIONS   =        284
 LENGTH OF DET. EXPANSION =         36

 SOLVING CPMCHF EQUATIONS - ESSENTIAL MEMORY.
 # OF WORDS REQUIRED  =      88672
 # OF WORDS AVAILABLE =    1000000

 SOLVING FOR    6 NUCLEAR RESPONSES AND 0 ELECTRIC FIELD RESPONSES

 SOLVING CPMCHF EQUATIONS - EXTRA SOLVER MEMORY.
 # OF WORDS REQUIRED  =       1932
 # OF WORDS AVAILABLE =     911328

 PRECONDITIONED CONJUGATE GRADIENT SOLVER    CONV. TOLERANCE=1.00E-07
 ITER   RESPONSE ERROR    IMPROVED     ORB-ORB     CI-ORB
   1      1.05671E+00         6            0.0        0.0
 DUE TO LARGE RES. NORM, GUESS SET TO 0 VECTOR.
   1      1.66667E-01         6            0.0        0.0
   2      1.66645E-01         6            0.0        0.0
   3      7.86507E-01         6            0.0        0.0
   4      1.81127E-01         6            0.0        0.0
   5      1.39690E-01         6            0.0        0.0
   6      8.15279E-02         6            0.0        0.0
   7      2.59896E-02         6            0.0        0.0
   8      1.22180E-02         6            0.0        0.0
   9      2.47571E-03         6            0.0        0.0
  10      9.47403E-04         6            0.0        0.0
  11      4.10591E-04         6            0.0        0.0
  12      1.17524E-04         6            0.0        0.0
  13      3.13049E-05         6            0.0        0.0
  14      1.12928E-05         6            0.0        0.0
  15      5.35532E-06         4            0.0        0.0
  16      2.15724E-06         3            0.0        0.0
  17      8.66878E-07         3            0.0        0.0
  18      5.03688E-07         3            0.0        0.0
  19      2.07776E-07         1            0.0        0.0
  20      2.48398E-07         1            0.0        0.0
  21      3.76957E-07         1            0.0        0.0
  22      2.66943E-07         1            0.0        0.0
  23      1.32214E-07         1            0.0        0.0
  24      4.13912E-08         0            0.0        0.0
 RESET PDIRX AND RESIDUAL.
  25      9.23744E-08         0            0.0        0.0
 THE CPMCHF HAS CONVERGED AFTER  25 ITERATIONS.
 FREEING DISTRIBUTED STORAGE FOR [VIR VIR|OCC OCC] INTEGRALS
 FREEING DISTRIBUTED STORAGE FOR [OCC OCC|OCC OCC] INTEGRALS
 FREEING DISTRIBUTED STORAGE FOR [VIR OCC|OCC OCC] INTEGRALS
 FREEING DISTRIBUTED STORAGE FOR [VIR OCC|VIR OCC] INTEGRALS

 TOTAL REPLICATED MEMORY USED FOR MCSCF RESPONSES=       120194 WORDS.

 ...... DONE WITH CPMCHF EQUATIONS ......
 CPU     0: STEP CPU TIME=     0.19 TOTAL CPU TIME=        2.1 (    0.0 MIN)
 TOTAL WALL CLOCK TIME=        2.6 SECONDS, CPU UTILIZATION IS  81.92%

          ---------------
          ENERGY GRADIENT
          ---------------

 UNITS ARE HARTREE/BOHR    E'X               E'Y               E'Z 
    1 C               -0.000000000       0.000000000       0.000015921
    2 C               -0.000000000      -0.000000000      -0.000015921
    3 H                0.000000629       0.000000629       0.000000680
    4 H               -0.000000629       0.000000629      -0.000000680
    5 H                0.000000629      -0.000000629      -0.000000680
    6 H               -0.000000629      -0.000000629       0.000000680

          -------------------------------
          CARTESIAN FORCE CONSTANT MATRIX
          -------------------------------

                                   1                          2
                               C                          C         
                          X        Y        Z        X        Y        Z
  1   C            X 0.339198-0.297661 0.000000-0.047678 0.000000 0.000000
                   Y-0.297661 0.339198 0.000000 0.000000-0.047678 0.000000
                   Z 0.000000 0.000000 0.569641 0.000000 0.000000-0.252421
  2   C            X-0.047678 0.000000 0.000000 0.339198 0.297661 0.000000
                   Y 0.000000-0.047678 0.000000 0.297661 0.339198 0.000000
                   Z 0.000000 0.000000-0.252421 0.000000 0.000000 0.569641
  3   H            X 0.004590 0.002631-0.000941-0.150350-0.146200 0.095807
                   Y 0.002631 0.004590-0.000941-0.146200-0.150350 0.095807
                   Z 0.014267 0.014267-0.012870 0.102814 0.102814-0.145740
  4   H            X-0.150350 0.146200 0.095807 0.004590-0.002631-0.000941
                   Y 0.146200-0.150350-0.095807-0.002631 0.004590 0.000941
                   Z 0.102814-0.102814-0.145740 0.014267-0.014267-0.012870
  5   H            X-0.150350 0.146200-0.095807 0.004590-0.002631 0.000941
                   Y 0.146200-0.150350 0.095807-0.002631 0.004590-0.000941
                   Z-0.102814 0.102814-0.145740-0.014267 0.014267-0.012870
  6   H            X 0.004590 0.002631 0.000941-0.150350-0.146200-0.095807
                   Y 0.002631 0.004590 0.000941-0.146200-0.150350-0.095807
                   Z-0.014267-0.014267-0.012870-0.102814-0.102814-0.145740

                                   3                          4
                               H                          H         
                          X        Y        Z        X        Y        Z
  3   H            X 0.138795 0.169820-0.106190 0.016056 0.016064 0.000217
                   Y 0.169820 0.138795-0.106190-0.016064-0.016893-0.000146
                   Z-0.106190-0.106190 0.148750 0.000217 0.000146-0.002077
  4   H            X 0.016056-0.016064 0.000217 0.138795-0.169820-0.106190
                   Y 0.016064-0.016893 0.000146-0.169820 0.138795 0.106190
                   Z 0.000217-0.000146-0.002077-0.106190 0.106190 0.148750
  5   H            X-0.016893 0.016064 0.000146 0.007802 0.026251-0.011254
                   Y-0.016064 0.016056 0.000217 0.026251 0.007802 0.011254
                   Z-0.000146 0.000217-0.002077 0.011254-0.011254 0.014013
  6   H            X 0.007802-0.026251-0.011254-0.016893-0.016064 0.000146
                   Y-0.026251 0.007802-0.011254 0.016064 0.016056-0.000217
                   Z 0.011254 0.011254 0.014013-0.000146-0.000217-0.002077

                                   5                          6
                               H                          H         
                          X        Y        Z        X        Y        Z
  5   H            X 0.138795-0.169820 0.106190 0.016056-0.016064-0.000217
                   Y-0.169820 0.138795-0.106190 0.016064-0.016893-0.000146
                   Z 0.106190-0.106190 0.148750-0.000217 0.000146-0.002077
  6   H            X 0.016056 0.016064-0.000217 0.138795 0.169820 0.106190
                   Y-0.016064-0.016893 0.000146 0.169820 0.138795 0.106190
                   Z-0.000217-0.000146-0.002077 0.106190 0.106190 0.148750

          ------------------------          ----------------
          DIPOLE DERIVATIVE TENSOR          (DEBYE/ANGSTROM)
          ------------------------          ----------------

        ATOM                 MU-X           MU-Y           MU-Z
     C          D/DX    -0.278089220   -1.506149472    0.000000000
                D/DY    -1.506149218   -0.278089091    0.000000000
                D/DZ     0.000000000    0.000000000    0.626376877
     C          D/DX    -0.278089220    1.506149472    0.000000000
                D/DY     1.506149218   -0.278089091    0.000000000
                D/DZ     0.000000000    0.000000000    0.626376877
     H          D/DX     0.139044407   -0.518104929    0.207343496
                D/DY    -0.518104868    0.139044351    0.207343507
                D/DZ     0.173760344    0.173760292   -0.313188532
     H          D/DX     0.139044407    0.518104929    0.207343496
                D/DY     0.518104868    0.139044351   -0.207343507
                D/DZ     0.173760344   -0.173760292   -0.313188532
     H          D/DX     0.139044407    0.518104929   -0.207343496
                D/DY     0.518104868    0.139044351    0.207343507
                D/DZ    -0.173760344    0.173760292   -0.313188532
     H          D/DX     0.139044407   -0.518104929   -0.207343496
                D/DY    -0.518104868    0.139044351   -0.207343507
                D/DZ    -0.173760344   -0.173760292   -0.313188532

          --------------------------------------------------------
          NORMAL COORDINATE ANALYSIS IN THE HARMONIC APPROXIMATION
          --------------------------------------------------------

          ATOMIC WEIGHTS (AMU)

    1     C                12.00000
    2     C                12.00000
    3     H                 1.00782
    4     H                 1.00782
    5     H                 1.00782
    6     H                 1.00782

 MODE(S)     1 TO     1 TREATED AS IMAGINARY.

 MODES    2 TO    7 ARE TAKEN AS ROTATIONS AND TRANSLATIONS.

 ANALYZING SYMMETRY OF NORMAL MODES...
 WATCH OUT!! THE COUNTING OF DEGENERATE MODES COUNTS INDIVIDUAL MODES,
 E.G. 2*E MEANS ONE (1) SET OF DEGENERATE E MODES

 --- SYMMETRY FOR NORMAL MODES ---
 INCLUDING TRANSLATION AND ROTATION
    3*A1     3*B2     1*B1     1*A2    10*E   
 EXCLUDING TRANSLATION AND ROTATION (SAYVETZ < 0.01)
    3*A1     2*B2     1*B1     0*A2     6*E   

     FREQUENCIES IN CM**-1, IR INTENSITIES IN DEBYE**2/AMU-ANGSTROM**2,
     REDUCED MASSES IN AMU.

                            1           2           3           4           5
       FREQUENCY:      1847.32 I      4.50        4.50        2.18        0.03  
        SYMMETRY:         B1          E           E           A2          B2  
    REDUCED MASS:      1.00782     2.28709     2.28709     1.00782     4.67188
    IR INTENSITY:      0.00000     0.00000     0.00000     0.00000     0.00000

  1   C            X  0.00000000  0.15440307  0.04002990 -0.00000000 -0.00000001
                   Y -0.00000000  0.04070692 -0.15422597  0.00000000 -0.00000001
                   Z -0.00000000  0.00000000 -0.00000000 -0.00000000  0.18887670
  2   C            X -0.00000000 -0.15422597 -0.04070692 -0.00000000 -0.00000001
                   Y -0.00000000 -0.04002990  0.15440307 -0.00000000 -0.00000001
                   Z  0.00000000  0.00000000 -0.00000000 -0.00000000  0.18887670
  3   H            X -0.35217818 -0.26909278 -0.07067142 -0.35217818 -0.00000000
                   Y  0.35217818 -0.07015248  0.26922853  0.35217818 -0.00000000
                   Z -0.00000000 -0.16904455  0.09894021 -0.00000000  0.18887670
  4   H            X  0.35217818  0.26922853  0.07015248 -0.35217818 -0.00000000
                   Y  0.35217818  0.07067142 -0.26909278 -0.35217818 -0.00000001
                   Z -0.00000000  0.09894021  0.16904455 -0.00000000  0.18887670
  5   H            X -0.35217818  0.26922853  0.07015248  0.35217818 -0.00000001
                   Y -0.35217818  0.07067142 -0.26909278  0.35217818 -0.00000000
                   Z -0.00000000 -0.09894021 -0.16904455 -0.00000000  0.18887670
  6   H            X  0.35217818 -0.26909278 -0.07067142  0.35217818 -0.00000001
                   Y -0.35217818 -0.07015248  0.26922853 -0.35217818 -0.00000001
                   Z -0.00000000  0.16904455 -0.09894021 -0.00000000  0.18887670

 TRANS. SAYVETZ    X  0.00000000  0.00239892 -0.00917023 -0.00000000 -0.00000014
                   Y -0.00000000  0.00917023  0.00239892  0.00000000 -0.00000016
                   Z -0.00000000  0.00000000 -0.00000000 -0.00000000  5.29445937
               TOTAL  0.00000000  0.00947882  0.00947882  0.00000000  5.29445937

   ROT. SAYVETZ    X -0.00000000  2.24502664 -8.58196409  0.00000000  0.00000000
                   Y -0.00000000 -8.58196409 -2.24502664 -0.00000000 -0.00000000
                   Z  0.00000000  0.00000000 -0.00000000 -3.48830946 -0.00000000
               TOTAL  0.00000000  8.87075263  8.87075263  3.48830946  0.00000000

                            6           7           8           9          10
       FREQUENCY:         0.09        0.09      319.86      319.86     1005.72  
        SYMMETRY:         E           E           E           E           E   
    REDUCED MASS:      4.67187     4.67187     1.23043     1.23043     1.27473
    IR INTENSITY:      0.00000     0.00000     1.09748     1.09748     0.03816

  1   C            X  0.17745600 -0.06468188 -0.09041439  0.00738706 -0.09448361
                   Y  0.06414504  0.17765076 -0.09029410 -0.00873528  0.05869208
                   Z  0.00000001  0.00000000 -0.00000000 -0.00000000  0.00000000
  2   C            X  0.17765076 -0.06414504  0.00873528 -0.09029410  0.07797026
                   Y  0.06468188  0.17745600  0.00738706  0.09041439 -0.02443296
                   Z  0.00000001  0.00000000  0.00000000 -0.00000000 -0.00000000
  3   H            X  0.17772322 -0.06394505  0.04911639  0.43793583 -0.06424419
                   Y  0.06488182  0.17738338  0.05564525 -0.43715423 -0.04731932
                   Z  0.00031760  0.00014851  0.09864929  0.00073600 -0.18820912
  4   H            X  0.17738338 -0.06488182  0.43715423  0.05564525  0.16255502
                   Y  0.06394505  0.17772322  0.43793583 -0.04911639 -0.15663952
                   Z  0.00014851 -0.00031759 -0.00073600  0.09864929  0.53848547
  5   H            X  0.17738338 -0.06488182  0.43715423  0.05564525  0.16255502
                   Y  0.06394505  0.17772322  0.43793583 -0.04911639 -0.15663952
                   Z -0.00014850  0.00031760  0.00073600 -0.09864929 -0.53848547
  6   H            X  0.17772322 -0.06394505  0.04911639  0.43793583 -0.06424419
                   Y  0.06488182  0.17738338  0.05564525 -0.43715423 -0.04731932
                   Z -0.00031759 -0.00014850 -0.09864929 -0.00073600  0.18820912

 TRANS. SAYVETZ    X  4.97705177 -1.80559293  0.00000211  0.00000214  0.00000007
                   Y  1.80559293  4.97705177  0.00000214 -0.00000211 -0.00000015
                   Z  0.00000019  0.00000010  0.00000000 -0.00000000 -0.00000000
               TOTAL  5.29445088  5.29445088  0.00000300  0.00000300  0.00000016

   ROT. SAYVETZ    X -0.01492949  0.00541617  0.00126893  0.00128801 -0.00001985
                   Y  0.00541617  0.01492949 -0.00128801  0.00126893 -0.00004119
                   Z -0.00000000  0.00000000  0.00000000  0.00000000  0.00000000
               TOTAL  0.01588158  0.01588158  0.00180808  0.00180808  0.00004573

                           11          12          13          14          15
       FREQUENCY:      1005.72     1082.29     1578.13     1605.68     3311.13  
        SYMMETRY:         E           A1          B2          A1          B2  
    REDUCED MASS:      1.27473     3.96821     1.11354     1.15690     1.04633
    IR INTENSITY:      0.03816     0.00000     0.06954     0.00000     0.72642

  1   C            X -0.02443296  0.00000000 -0.00000000 -0.00000000 -0.00000000
                   Y -0.07797026 -0.00000000  0.00000000 -0.00000000  0.00000000
                   Z -0.00000000  0.18421285 -0.06571536  0.07655853  0.04091150
  2   C            X  0.05869208 -0.00000000 -0.00000000  0.00000000  0.00000000
                   Y  0.09448361  0.00000000 -0.00000000  0.00000000  0.00000000
                   Z  0.00000000 -0.18421285 -0.06571536 -0.07655853  0.04091150
  3   H            X -0.15663952 -0.00897217  0.18612835  0.18930402  0.29897443
                   Y -0.16255502 -0.00897217  0.18612835  0.18930402  0.29897443
                   Z -0.53848547 -0.21417878  0.39123080  0.37615517 -0.24356311
  4   H            X -0.04731932  0.00897217  0.18612835 -0.18930402  0.29897443
                   Y  0.06424419 -0.00897217 -0.18612835  0.18930402 -0.29897443
                   Z -0.18820912  0.21417878  0.39123080 -0.37615517 -0.24356311
  5   H            X -0.04731932 -0.00897217 -0.18612835  0.18930402 -0.29897443
                   Y  0.06424419  0.00897217  0.18612835 -0.18930402  0.29897443
                   Z  0.18820912  0.21417878  0.39123080 -0.37615517 -0.24356311
  6   H            X -0.15663952  0.00897217 -0.18612835 -0.18930402 -0.29897443
                   Y -0.16255502  0.00897217 -0.18612835 -0.18930402 -0.29897443
                   Z  0.53848547 -0.21417878  0.39123080  0.37615517 -0.24356311

 TRANS. SAYVETZ    X -0.00000015 -0.00000000 -0.00000000 -0.00000000 -0.00000000
                   Y -0.00000007  0.00000000  0.00000000  0.00000000 -0.00000000
                   Z  0.00000000  0.00000000 -0.00000001 -0.00000000 -0.00000000
               TOTAL  0.00000016  0.00000000  0.00000001  0.00000000  0.00000000

   ROT. SAYVETZ    X  0.00004119  0.00000000  0.00000000 -0.00000000 -0.00000000
                   Y -0.00001985 -0.00000000 -0.00000000  0.00000000  0.00000000
                   Z -0.00000000 -0.00000000 -0.00000000  0.00000000  0.00000000
               TOTAL  0.00004573  0.00000000  0.00000000  0.00000000  0.00000000

                           16          17          18
       FREQUENCY:      3315.27     3405.91     3405.91  
        SYMMETRY:         A1          E           E   
    REDUCED MASS:      1.05106     1.11746     1.11746
    IR INTENSITY:      0.00000     0.51729     0.51729

  1   C            X  0.00000000  0.06130565  0.02654085
                   Y -0.00000000 -0.06115012 -0.02689726
                   Z  0.04325604  0.00000000  0.00000000
  2   C            X -0.00000000  0.02689726 -0.06115012
                   Y -0.00000000  0.02654085 -0.06130565
                   Z -0.04325604 -0.00000000  0.00000000
  3   H            X -0.29683827 -0.15883679  0.36734915
                   Y -0.29683827 -0.16130582  0.36627170
                   Z  0.24636087  0.14006170 -0.32095755
  4   H            X  0.29683827 -0.36627170 -0.16130582
                   Y -0.29683827  0.36734915  0.15883679
                   Z -0.24636087  0.32095755  0.14006170
  5   H            X -0.29683827 -0.36627170 -0.16130582
                   Y  0.29683827  0.36734915  0.15883679
                   Z -0.24636087 -0.32095755 -0.14006170
  6   H            X  0.29683827 -0.15883679  0.36734915
                   Y  0.29683827 -0.16130582  0.36627170
                   Z  0.24636087 -0.14006170  0.32095755

 TRANS. SAYVETZ    X -0.00000000  0.00000002 -0.00000001
                   Y -0.00000000 -0.00000001 -0.00000002
                   Z  0.00000000 -0.00000000 -0.00000000
               TOTAL  0.00000000  0.00000002  0.00000002

   ROT. SAYVETZ    X  0.00000000  0.00000243 -0.00000095
                   Y  0.00000000  0.00000095  0.00000243
                   Z  0.00000000  0.00000000  0.00000000
               TOTAL  0.00000000  0.00000261  0.00000261

 REFERENCE ON SAYVETZ CONDITIONS - A. SAYVETZ, J.CHEM.PHYS., 7, 383-389(1939).

 NOTE - THE MODES J,K ARE ORTHONORMALIZED ACCORDING TO
 SUM ON I   M(I) * (X(I,J)*X(I,K) + Y(I,J)*Y(I,K) + Z(I,J)*Z(I,K)) = DELTA(J,K)

  MODE FREQ(CM**-1)  SYMMETRY  RED. MASS  IR INTENS.
     1    1847.320    B1       1.007825    0.000000
     2       4.502    E        2.287087    0.000000
     3       4.502    E        2.287087    0.000000
     4       2.179    A2       1.007825    0.000000
     5       0.033    B2       4.671883    0.000000
     6       0.093    E        4.671870    0.000000
     7       0.093    E        4.671870    0.000000
     8     319.865    E        1.230430    1.097481
     9     319.865    E        1.230430    1.097481
    10    1005.716    E        1.274730    0.038158
    11    1005.716    E        1.274730    0.038158
    12    1082.294    A1       3.968208    0.000000
    13    1578.131    B2       1.113544    0.069538
    14    1605.682    A1       1.156897    0.000000
    15    3311.134    B2       1.046326    0.726415
    16    3315.267    A1       1.051060    0.000000
    17    3405.910    E        1.117461    0.517291
    18    3405.910    E        1.117461    0.517291

     -------------------------------
     THERMOCHEMISTRY AT T=  298.15 K
     -------------------------------

 USING IDEAL GAS, RIGID ROTOR, HARMONIC NORMAL MODE APPROXIMATIONS.
 P=  1.01325E+05 PASCAL.
 ALL FREQUENCIES ARE SCALED BY   1.00000
 THE MOMENTS OF INERTIA ARE (IN AMU*BOHR**2)
     12.16830    78.69051    78.69051
 THE ROTATIONAL SYMMETRY NUMBER IS  4.0
 THE ROTATIONAL CONSTANTS ARE (IN GHZ)
    148.17911    22.91367    22.91367
   1 IMAGINARY FREQUENCY VIBRATION(S) IS(ARE) EXCLUDED
     FROM THE FOLLOWING THERMOCHEMICAL ANALYSIS.
      8 -     18 VIBRATIONAL MODES ARE USED IN THERMOCHEMISTRY.
 THE HARMONIC ZERO POINT ENERGY IS (SCALED BY   1.000)
        0.046373 HARTREE/MOLECULE    10177.744681 CM**-1/MOLECULE 
       29.099661 KCAL/MOL              121.752984 KJ/MOL

               Q               LN Q
 ELEC.     1.00000E+00       0.000000
 TRANS.    5.83336E+06      15.579103
 ROT.      7.76817E+02       6.655205
 VIB.      1.65304E+00       0.502618
 TOT.      7.49068E+09      22.736926

              E         H         G         CV        CP        S
           KJ/MOL    KJ/MOL    KJ/MOL   J/MOL-K   J/MOL-K   J/MOL-K
 ELEC.      0.000     0.000     0.000     0.000     0.000     0.000
 TRANS.     3.718     6.197   -38.620    12.472    20.786   150.317
 ROT.       3.718     3.718   -16.498    12.472    12.472    67.806
 VIB.     124.109   124.109   120.507    18.481    18.481    12.081
 TOTAL    131.546   134.025    65.389    43.424    51.739   230.203
 VIB. THERMAL CORRECTION E(T)-E(0) = H(T)-H(0) =  2355.872 J/MOL

              E         H         G         CV        CP        S
         KCAL/MOL  KCAL/MOL  KCAL/MOL CAL/MOL-K CAL/MOL-K CAL/MOL-K
 ELEC.      0.000     0.000     0.000     0.000     0.000     0.000
 TRANS.     0.889     1.481    -9.230     2.981     4.968    35.927
 ROT.       0.889     0.889    -3.943     2.981     2.981    16.206
 VIB.      29.663    29.663    28.802     4.417     4.417     2.887
 TOTAL     31.440    32.033    15.628    10.379    12.366    55.020
 VIB. THERMAL CORRECTION E(T)-E(0) = H(T)-H(0) =   563.067 CAL/MOL
 ......END OF NORMAL COORDINATE ANALYSIS......
 CPU     0: STEP CPU TIME=     0.00 TOTAL CPU TIME=        2.1 (    0.0 MIN)
 TOTAL WALL CLOCK TIME=        2.6 SECONDS, CPU UTILIZATION IS  81.92%
               580000  WORDS OF DYNAMIC MEMORY USED
 EXECUTION OF GAMESS TERMINATED NORMALLY Tue Nov 29 02:42:31 2016
 DDI: 1363672 bytes (1.3 MB / 0 MWords) used by master data server.

 ----------------------------------------
 CPU timing information for all processes
 ========================================
 0: 2.55 + 0.82 = 2.138
 ----------------------------------------
 ddikick.x: exited gracefully.
unset echo
----- accounting info -----
Files used on the master node compute-3-0 were:
-rw-rw-r-- 1 sarom sarom   43012 Nov 29  2016 .//exam36.dat
-rw-rw-r-- 1 sarom sarom   23681 Nov 29  2016 .//exam36.F05
-rw-rw-r-- 1 sarom sarom 2340208 Nov 29  2016 .//exam36.F08
-rw-rw-r-- 1 sarom sarom    5336 Nov 29  2016 .//exam36.F09
-rw-rw-r-- 1 sarom sarom 2421280 Nov 29  2016 .//exam36.F10
-rw-rw-r-- 1 sarom sarom     320 Nov 29  2016 .//exam36.F12
-rw-rw-r-- 1 sarom sarom   50256 Nov 29  2016 .//exam36.F13
-rw-rw-r-- 1 sarom sarom  180464 Nov 29  2016 .//exam36.F15
-rw-rw-r-- 1 sarom sarom  208080 Nov 29  2016 .//exam36.F18
-rw-rw-r-- 1 sarom sarom    5328 Nov 29  2016 .//exam36.F19
-rw-rw-r-- 1 sarom sarom   82080 Nov 29  2016 .//exam36.F23
-rw-rw-r-- 1 sarom sarom   23681 Nov 28 17:27 .//exam36.inp
-rw-rw-r-- 1 sarom sarom   92576 Nov 29  2016 .//exam36.log
Tue Nov 29 02:42:34 CST 2016
0.198u 0.081s 0:06.01 4.4%	0+0k 0+176io 0pf+0w
