-catch_rsh /opt/gridengine/default/spool/compute-1-7/active_jobs/36162.1/pe_hostfile
compute-1-7
The primary node assigned by SGE to this run is compute-1-7
Warning: no access to tty (Bad file descriptor).
Thus no job control in this shell.
source /home/sarom/dir.git.branch.saromleang-travis-ci/install.info
setenv GMS_PATH /home/sarom/dir.git.branch.saromleang-travis-ci
setenv GMS_BUILD_DIR /home/sarom/dir.git.branch.saromleang-travis-ci
setenv GMS_TARGET linux64
setenv GMS_FORTRAN gfortran
setenv GMS_GFORTRAN_VERNO 4.4
setenv GMS_MATHLIB mkl-so
setenv GMS_MATHLIB none
setenv GMS_MATHLIB_PATH /share/apps/intel/compilers_and_libraries_2017.1.132/linux/mkl/lib/intel64
setenv GMS_MKL_VERNO 12
setenv GMS_DDI_COMM sockets
setenv GMS_LIBCCHEM false
setenv GMS_EIGEN_PATH
setenv GMS_PHI false
setenv GMS_SHMTYPE sysv
setenv GMS_OPENMP false
unset echo
4h2o-4
/home/sarom/dir.git.branch.saromleang-travis-ci/tests/exrep
----- GAMESS execution script 'rungms' -----
This job is running on host compute-1-7.local
under operating system Linux at Wed Aug 9 22:08:56 CDT 2017
Available scratch disk space (Kbyte units) at beginning of the job is
Filesystem           1K-blocks      Used Available Use% Mounted on
/dev/sda1             16126920   8505684   6802036  56% /
GAMESS temporary binary files will be written to /scratch
GAMESS supplementary output files will be written to /home/sarom/restart
Copying input file 4h2o-4.inp to your run's scratch directory...
cp /home/sarom/dir.git.branch.saromleang-travis-ci/tests/exrep/4h2o-4.inp /scratch/4h2o-4.F05
unset echo
The generated host list is
compute-1-7.local
/home/sarom/dir.git.branch.saromleang-travis-ci/ddikick.x /home/sarom/dir.git.branch.saromleang-travis-ci/gamess.00.x 4h2o-4 -ddi 1 1 compute-1-7.local -scr /scratch

 Distributed Data Interface kickoff program.
 Initiating 1 compute processes on 1 nodes to run the following command:
 /home/sarom/dir.git.branch.saromleang-travis-ci/gamess.00.x 4h2o-4 

          ******************************************************
          *         GAMESS VERSION = 20 APR 2017 (R1)          *
          *             FROM IOWA STATE UNIVERSITY             *
          * M.W.SCHMIDT, K.K.BALDRIDGE, J.A.BOATZ, S.T.ELBERT, *
          *   M.S.GORDON, J.H.JENSEN, S.KOSEKI, N.MATSUNAGA,   *
          *          K.A.NGUYEN, S.J.SU, T.L.WINDUS,           *
          *       TOGETHER WITH M.DUPUIS, J.A.MONTGOMERY       *
          *         J.COMPUT.CHEM.  14, 1347-1363(1993)        *
          **************** 64 BIT LINUX VERSION ****************

  SINCE 1993, STUDENTS AND POSTDOCS WORKING AT IOWA STATE UNIVERSITY
  AND ALSO IN THEIR VARIOUS JOBS AFTER LEAVING ISU HAVE MADE IMPORTANT
  CONTRIBUTIONS TO THE CODE:
     IVANA ADAMOVIC, CHRISTINE AIKENS, YURI ALEXEEV, POOJA ARORA,
     ANDREY ASADCHEV, ROB BELL, PRADIPTA BANDYOPADHYAY, JONATHAN BENTZ,
     BRETT BODE, KURT BRORSEN, CALEB CARLIN, GALINA CHABAN, WEI CHEN,
     CHEOL HO CHOI, PAUL DAY, ALBERT DEFUSCO, NUWAN DESILVA, TIM DUDLEY,
     DMITRI FEDOROV, GRAHAM FLETCHER, MARK FREITAG, KURT GLAESEMANN,
     DAN KEMP, GRANT MERRILL, NORIYUKI MINEZAWA, JONATHAN MULLIN,
     TAKESHI NAGATA, SEAN NEDD, HEATHER NETZLOFF, BOSILJKA NJEGIC, RYAN OLSON,
     MIKE PAK, SPENCER PRUITT, LUKE ROSKOP, JIM SHOEMAKER, LYUDMILA SLIPCHENKO,
     TONY SMITH, SAROM SOK LEANG, JIE SONG, TETSUYA TAKETSUGU, SIMON WEBB,
     PENG XU, SOOHAENG YOO, FEDERICO ZAHARIEV

  ADDITIONAL CODE HAS BEEN PROVIDED BY COLLABORATORS IN OTHER GROUPS:
     IOWA STATE UNIVERSITY:
          JOE IVANIC, AARON WEST, LAIMUTIS BYTAUTAS, KLAUS RUEDENBERG
     UNIVERSITY OF TOKYO: KIMIHIKO HIRAO, TAKAHITO NAKAJIMA,
          TAKAO TSUNEDA, MUNEAKI KAMIYA, SUSUMU YANAGISAWA,
          KIYOSHI YAGI, MAHITO CHIBA, SEIKEN TOKURA, NAOAKI KAWAKAMI
     UNIVERSITY OF AARHUS: FRANK JENSEN
     UNIVERSITY OF IOWA: VISVALDAS KAIRYS, HUI LI
     NATIONAL INST. OF STANDARDS AND TECHNOLOGY: WALT STEVENS, DAVID GARMER
     UNIVERSITY OF PISA: BENEDETTA MENNUCCI, JACOPO TOMASI
     UNIVERSITY OF MEMPHIS: HENRY KURTZ, PRAKASHAN KORAMBATH
     UNIVERSITY OF ALBERTA: TOBY ZENG, MARIUSZ KLOBUKOWSKI
     UNIVERSITY OF NEW ENGLAND: MARK SPACKMAN
     MIE UNIVERSITY: HIROAKI UMEDA
     NAT. INST. OF ADVANCED INDUSTRIAL SCIENCE AND TECHNOLOGY: KAZUO KITAURA
     MICHIGAN STATE UNIVERSITY:
          KAROL KOWALSKI, MARTA WLOCH, JEFFREY GOUR, JESSE LUTZ,
          WEI LI, PIOTR PIECUCH
     UNIVERSITY OF SILESIA: MONIKA MUSIAL, STANISLAW KUCHARSKI
     FACULTES UNIVERSITAIRES NOTRE-DAME DE LA PAIX:
          OLIVIER QUINET, BENOIT CHAMPAGNE
     UNIVERSITY OF CALIFORNIA - SANTA BARBARA: BERNARD KIRTMAN
     INSTITUTE FOR MOLECULAR SCIENCE:
          KAZUYA ISHIMURA, MICHIO KATOUDA, AND SHIGERU NAGASE
     UNIVERSITY OF NOTRE DAME: ANNA POMOGAEVA, DAN CHIPMAN
     KYUSHU UNIVERSITY:
          HARUYUKI NAKANO,
          FENG LONG GU, JACEK KORCHOWIEC, MARCIN MAKOWSKI, AND YURIKO AOKI,
          HIROTOSHI MORI AND EISAKU MIYOSHI
     PENNSYLVANIA STATE UNIVERSITY:
          TZVETELIN IORDANOV, CHET SWALINA, JONATHAN SKONE,
          SHARON HAMMES-SCHIFFER
     WASEDA UNIVERSITY:
          MASATO KOBAYASHI, TOMOKO AKAMA, TSUGUKI TOUMA,
          TAKESHI YOSHIKAWA, YASUHIRO IKABATA, JUNJI SEINO,
          YUYA NAKAJIMA, HIROMI NAKAI
     NANJING UNIVERSITY: SHUHUA LI
     UNIVERSITY OF NEBRASKA:
          PEIFENG SU, DEJUN SI, NANDUN THELLAMUREGE, YALI WANG, HUI LI
     UNIVERSITY OF ZURICH: ROBERTO PEVERATI, KIM BALDRIDGE
     N. COPERNICUS UNIVERSITY AND JACKSON STATE UNIVERSITY:
          MARIA BARYSZ
     UNIVERSITY OF COPENHAGEN: Jimmy Kromann, CASPER STEINMANN
     TOKYO INSTITUTE OF TECHNOLOGY: HIROYA NAKATA
     NAGOYA UNIVERSITY: YOSHIO NISHIMOTO, STEPHAN IRLE
     MOSCOW STATE UNIVERSITY: VLADIMIR MIRONOV

 EXECUTION OF GAMESS BEGUN Wed Aug  9 22:08:56 2017

            ECHO OF THE FIRST FEW INPUT CARDS -
 INPUT CARD>!4H2O cluster                                                                   
 INPUT CARD>!#4 water is Ab initio, #1,2,3 water are EFP                                    
 INPUT CARD>!                                                                               
 INPUT CARD>!EFP-EFP EXCHANGE REPULSION ENERGY =        0.0206505396                        
 INPUT CARD>!EFP-AI  EXCHANGE REPULSION ENERGY =        0.0240668746                        
 INPUT CARD>!RVS calculation: EXCHANGE REPULSION =      0.046721                            
 INPUT CARD>!The sum of EFP-EFP and EFP-AI is close to RVS value                            
 INPUT CARD>                                                                                
 INPUT CARD> $CONTRL SCFTYP=RHF RUNTYP=energy MAXIT=30 MULT=1 $END                          
 INPUT CARD> $SYSTEM TIMLIM=525600 MWORDS=10 $END                                           
 INPUT CARD> $BASIS GBASIS=N311 NGAUSS=6 NDFUNC=3 NPFUNC=2 NFFUNC=1                         
 INPUT CARD>        DIFFSP=.T. DIFFS=.T. $END                                               
 INPUT CARD> $INTGRL SCHWRZ=.F. $END                                                        
 INPUT CARD> $SCF DIRSCF=.F. $END                                                           
 INPUT CARD> $DATA                                                                          
 INPUT CARD>title                                                                           
 INPUT CARD> C1                                                                             
 INPUT CARD> O     8.0        -1.9787317968   0.8006120356  -1.2095045972                   
 INPUT CARD> H     1.0        -2.0906607668   1.5864286612  -1.7183258526                   
 INPUT CARD> H     1.0        -1.4530859362   0.1969807907  -1.7283555735                   
 INPUT CARD> $END                                                                           
 INPUT CARD> $EFRAG                                                                         
 INPUT CARD> ISCRELEC=0 ISCRPOL=1 ISCRDISP=1 COORD=CART QMDISP=1                            
 INPUT CARD> FRAGNAME=H2O                                                                   
 INPUT CARD> A01O              1.3716067336  -1.0571166528   0.0714131826                   
 INPUT CARD> A02H              2.2330811197  -0.7151139265   0.2439709135                   
 INPUT CARD> A03H              0.7597649442  -0.5824339722   0.6283356839                   
 INPUT CARD> FRAGNAME=H2O                                                                   
 INPUT CARD> A01O             -0.6796980342   0.4952715355   1.3189788094                   
 INPUT CARD> A02H             -1.2060675765   0.7084305776   0.5525884869                   
 INPUT CARD> A03H             -1.2722862390   0.2617594214   2.0139842230                   
 INPUT CARD> FRAGNAME=H2O                                                                   
 INPUT CARD> A01O             -0.0953782312  -1.0033984165  -2.3826118851                   
 INPUT CARD> A02H              0.5099302902  -1.0963459010  -1.6512875472                   
 INPUT CARD> A03H             -0.2440045070  -1.8639941530  -2.7377858438                   
 INPUT CARD> $END                                                                           
 INPUT CARD>                                                                                
 INPUT CARD>          RUNTYP=MAKEFP EFFECTIVE FRAGMENT POTENTIAL DATA FOLLOWS...            
 INPUT CARD>          H2O     EFP GENERATED AT Tue Jun 25 15:12:40 2013                     
 INPUT CARD> $H2O                                                                           
 INPUT CARD>EFP DATA FOR H2O      SCFTYP=RHF     ... GENERATED WITH BASIS SET=XXX           
 INPUT CARD> COORDINATES (BOHR)                                                             
 INPUT CARD>A01O      -0.9321262407   0.6657504655  -0.0153445750  15.9949100  8.0          
 INPUT CARD>A02H       0.2794526791   1.9608363766  -0.2521272413   1.0078250  1.0          
 INPUT CARD>A03H      -0.2306788513  -0.8273976265  -0.7079480468   1.0078250  1.0          
 INPUT CARD>BO21      -0.3263367808   1.3132934211  -0.1337359082   0.0000000  0.0          
 INPUT CARD>BO31      -0.5814025460  -0.0808235805  -0.3616463109   0.0000000  0.0          
 INPUT CARD> STOP                                                                           
 INPUT CARD> MONOPOLES                                                                      
 INPUT CARD>A01O      -8.1254763329   8.00000                                               
   10000000 WORDS OF MEMORY AVAILABLE

     BASIS OPTIONS
     -------------
     GBASIS=N311         IGAUSS=       6      POLAR=POPN311 
     NDFUNC=       3     NFFUNC=       1     DIFFSP=       T
     NPFUNC=       2      DIFFS=       T     BASNAM=        
     SPLIT2=     2.00000000     0.50000000
     SPLIT3=     4.00000000     1.00000000     0.25000000


     RUN TITLE
     ---------
 title                                                                           

 THE POINT GROUP OF THE MOLECULE IS C1      
 THE ORDER OF THE PRINCIPAL AXIS IS     0

 ATOM      ATOMIC                      COORDINATES (BOHR)
           CHARGE         X                   Y                   Z
 O           8.0    -3.7392608991        1.5129373698       -2.2856322696
 H           1.0    -3.9507759825        2.9979154687       -3.2471650190
 H           1.0    -2.7459342560        0.3722397193       -3.2661184433

          INTERNUCLEAR DISTANCES (ANGS.)
          ------------------------------

                1 O          2 H          3 H     

   1 O       0.0000000    0.9428335 *  0.9538766 *
   2 H       0.9428335 *  0.0000000    1.5287798 *
   3 H       0.9538766 *  1.5287798 *  0.0000000  

  * ... LESS THAN  3.000


     ATOMIC BASIS SET
     ----------------
 THE CONTRACTED PRIMITIVE FUNCTIONS HAVE BEEN UNNORMALIZED
 THE CONTRACTED BASIS FUNCTIONS ARE NOW NORMALIZED TO UNITY

  SHELL TYPE  PRIMITIVE        EXPONENT          CONTRACTION COEFFICIENT(S)

 O         

      1   S       1          8588.5000000    0.001895150083
      1   S       2          1297.2300000    0.014385900631
      1   S       3           299.2960000    0.070732003103
      1   S       4            87.3771000    0.240001010530
      1   S       5            25.6789000    0.594797026097
      1   S       6             3.7400400    0.280802012320

      2   L       7            42.1175000    0.113889012440    0.036511397380
      2   L       8             9.6283700    0.920811100576    0.237152982984
      2   L       9             2.8533200   -0.003274470358    0.819701941186

      3   L      10             0.9056610    1.000000000000    1.000000000000

      4   L      11             0.2556110    1.000000000000    1.000000000000

      5   L      12             0.0845000    1.000000000000    1.000000000000

      6   D      13             5.1680000    1.000000000000

      7   D      14             1.2920000    1.000000000000

      8   D      15             0.3230000    1.000000000000

      9   F      16             1.4000000    1.000000000000

 H         

     10   S      17            33.8650000    0.025493814541
     10   S      18             5.0947900    0.190373108582
     10   S      19             1.1587900    0.852161486043

     11   S      20             0.3258400    1.000000000000

     12   S      21             0.1027410    1.000000000000

     13   S      22             0.0360000    1.000000000000

     14   P      23             1.5000000    1.000000000000

     15   P      24             0.3750000    1.000000000000

 H         

     16   S      25            33.8650000    0.025493814541
     16   S      26             5.0947900    0.190373108582
     16   S      27             1.1587900    0.852161486043

     17   S      28             0.3258400    1.000000000000

     18   S      29             0.1027410    1.000000000000

     19   S      30             0.0360000    1.000000000000

     20   P      31             1.5000000    1.000000000000

     21   P      32             0.3750000    1.000000000000

 TOTAL NUMBER OF BASIS SET SHELLS             =   21
 NUMBER OF CARTESIAN GAUSSIAN BASIS FUNCTIONS =   65
 NUMBER OF ELECTRONS                          =   10
 CHARGE OF MOLECULE                           =    0
 SPIN MULTIPLICITY                            =    1
 NUMBER OF OCCUPIED ORBITALS (ALPHA)          =    5
 NUMBER OF OCCUPIED ORBITALS (BETA )          =    5
 TOTAL NUMBER OF ATOMS                        =    3
 THE NUCLEAR REPULSION ENERGY IS        9.2743641990

     $CONTRL OPTIONS
     ---------------
 SCFTYP=RHF          RUNTYP=ENERGY       EXETYP=RUN     
 MPLEVL=       0     CITYP =NONE         CCTYP =NONE         VBTYP =NONE    
 DFTTYP=NONE         TDDFT =NONE    
 MULT  =       1     ICHARG=       0     NZVAR =       0     COORD =UNIQUE  
 PP    =NONE         RELWFN=NONE         LOCAL =NONE         NUMGRD=       F
 ISPHER=      -1     NOSYM =       0     MAXIT =      30     UNITS =ANGS    
 PLTORB=       F     MOLPLT=       F     AIMPAC=       F     FRIEND=        
 NPRINT=       7     IREST =       0     GEOM  =INPUT   
 NORMF =       0     NORMP =       0     ITOL  =      20     ICUT  =       9
 INTTYP=BEST         GRDTYP=BEST         QMTTOL= 1.0E-06

     $SYSTEM OPTIONS
     ---------------
  REPLICATED MEMORY=    10000000 WORDS (ON EVERY NODE).
 DISTRIBUTED MEMDDI=           0 MILLION WORDS IN AGGREGATE,
 MEMDDI DISTRIBUTED OVER   1 PROCESSORS IS           0 WORDS/PROCESSOR.
 TOTAL MEMORY REQUESTED ON EACH PROCESSOR=    10000000 WORDS.
 TIMLIM=      525600.00 MINUTES, OR     365.0 DAYS.
 PARALL= F  BALTYP=  DLB     KDIAG=    0  COREFL= F
 MXSEQ2=     300 MXSEQ3=     150  mem10=         0

 READING $EFRAG GROUP
 COORD=CART      POSITION=OPTIMIZE  POLMETHD=FRGSCF   NBUFFMO=0
 READING COORDINATES OF FRAGMENT   1 NAMED   H2O   
 READING COORDINATES OF FRAGMENT   2 NAMED   H2O   
 READING COORDINATES OF FRAGMENT   3 NAMED   H2O   
 FINISHED READING $EFRAG GROUP,   3 FRAGMENTS WILL BE USED.

 READING POTENTIAL PARAMETERS FOR FRAGMENT    1 FROM GROUP $H2O   
 READING POTENTIAL PARAMETERS FOR FRAGMENT    2 FROM GROUP $H2O   
 READING POTENTIAL PARAMETERS FOR FRAGMENT    3 FROM GROUP $H2O   


     SUMMARY OF THE EFFECTIVE FRAGMENT POTENTIAL MODEL CHOSEN
     --------------------------------------------------------
 TOTAL NUMBER OF MULTIPOLE POINTS   =        15  (EFP1/EFP2 ELECTROSTATICS)
 TOTAL NUMBER OF POLARIZABLE POINTS =        12  (EFP1/EFP2 INDUCTION)
 TOTAL NUMBER OF L-J POINTS         =         0  (REPULSION AND DISPERSION)
 TOTAL NUMBER OF AO CENTERS         =         9  (EFP2 PAULI REPULSION)
 TOTAL NUMBER OF EFP MOS            =        12  (EFP2 PAULI REPULSION)
 TOTAL NO OF DYNAMIC POLARIZABLE PTS=       144  (EFP2 DISPERSION)
 TOTAL NUMBER OF EFP MOS            =        21  (EFP2 CHARGE TRANSFER)

 THIS IS A -EFP2- TYPE RUN, INCLUDING SEPARATE FORMULAE FOR
   PAULI REPULSION=T  DISPERSION=T  CHARGE TRANSFER=T

 OPTIONS FOR EFP SCREENING:
     ELECTROSTATIC AB INITIO-EFP GAUSSIAN SCREENING IS ON
     ELECTROSTATIC EFP-EFP SCREENING CHOICE IS EXPONENTIAL, TO HIGHER ORDER
     POLARIZATION EFP-EFP SCREENING IS TANG-TOENNIS LIKE
     DISPERSION EFP-EFP SCREENING CHOICE IS USING OVERLAP

     $EWALD OPTIONS
     -----------

     IFEWLD   =        F         TINFOIL        =        T
     BETA    =    0.200         ELECTRIC CONST =     1.00
     EPSILON =     1.00         CUT_OFF        = 0.10E+04
     CUTLIST =  1000.00         LEVEL          =    1
     KMAX    =       10         EWLDPL         =        F

            MULTIPOLE COORDINATES, ELECTRONIC AND NUCLEAR CHARGES

                  X              Y              Z           ELEC.   NUC.
 A01O       2.5919608894  -1.9976608108   0.1349513470   -8.12548    8.0
 A02H       4.2268175473  -1.3486276612   0.4624215072   -0.64268    1.0
 A03H       1.4604708766  -1.0959378421   1.1874936370   -0.64268    1.0
 BO21       3.4093892184  -1.6731442361   0.2986864272   -0.28344    0.0
 BO31       2.0262158830  -1.5467993265   0.6612224920   -0.30572    0.0
 A01O      -1.2844430390   0.9359274916   2.4925085334   -8.12548    8.0
 A02H      -2.2717754268   1.3357584262   1.0549595753   -0.64268    1.0
 A03H      -2.4285781704   0.4967214111   3.7960698299   -0.64268    1.0
 BO21      -1.7781092329   1.1358429590   1.7737340543   -0.28344    0.0
 BO31      -1.8565106047   0.7163244514   3.1442891817   -0.30572    0.0
 A01O      -0.1802387222  -1.8961480637  -4.5024835979   -8.12548    8.0
 A02H       0.9551519760  -2.0704917341  -3.1307222213   -0.64268    1.0
 A03H      -0.4477938589  -3.5383574978  -5.1603450250   -0.64268    1.0
 BO21       0.3874566270  -1.9833198989  -3.8166029096   -0.28344    0.0
 BO31      -0.3140162906  -2.7172527808  -4.8314143114   -0.30572    0.0

   CHARGE SCREENING PARAMETERS (COEF AND ZETA)
   ICHGP=   7 AI-FRAGMENT SCREENING= 1   FRAGMENT-FRAGMENT SCREENING= 3

             GAUSSIAN DAMPING    EXPONENTIAL DAMPING
 A01O       1.00000   1.06136      1.00000   1.99330
 A02H       1.00000   4.09743      1.00000   2.50724
 A03H       1.00000  10.00000      1.00000   3.05985
 BO21       1.00000   0.50829      1.00000   1.92505
 BO31       1.00000   0.49052      1.00000   1.69612
 A01O       1.00000   1.06136      1.00000   1.99330
 A02H       1.00000   4.09743      1.00000   2.50724
 A03H       1.00000  10.00000      1.00000   3.05985
 BO21       1.00000   0.50829      1.00000   1.92505
 BO31       1.00000   0.49052      1.00000   1.69612
 A01O       1.00000   1.06136      1.00000   1.99330
 A02H       1.00000   4.09743      1.00000   2.50724
 A03H       1.00000  10.00000      1.00000   3.05985
 BO21       1.00000   0.50829      1.00000   1.92505
 BO31       1.00000   0.49052      1.00000   1.69612

   SCREENING FOR POLARIZATION WITH EXPONENTIAL FORMULA  OFF

   SCREENING FOR POLARIZATION WITH TANG-TOENNIS FORMULA   ON

    WITH COEFFICIENTS 

     H2O     0.60

                  DIPOLE MOMENTS AND THE SECOND MOMENT TENSOR

                  X        Y        Z           XX/XY    YY/XZ    ZZ/YZ
 A01O          0.19296  0.59446  0.52901     -3.60597 -4.30093 -4.32493
                                              0.04048 -0.16108  0.41008
 A02H          0.10176  0.02782  0.00847     -0.36888 -0.37437 -0.37701
                                              0.00691  0.00435  0.00541
 A03H         -0.07836  0.04427  0.05568     -0.37571 -0.37245 -0.37210
                                             -0.00330 -0.00412  0.00902
 BO21         -0.30307 -0.18914 -0.12588      0.15215 -0.00565 -0.02875
                                              0.07456  0.03522  0.02826
 BO31          0.14844 -0.23835 -0.25176      0.02692  0.00227  0.02169
                                             -0.07085 -0.08327  0.07638
 A01O         -0.81707 -0.01509 -0.05136     -3.92287 -4.64096 -3.66801
                                              0.03380 -0.00999 -0.32666
 A02H         -0.04444  0.02640 -0.09235     -0.36727 -0.38068 -0.37232
                                             -0.00178  0.00761 -0.00246
 A03H         -0.05465 -0.02823  0.08612     -0.36563 -0.38052 -0.37412
                                              0.00262 -0.00667 -0.00245
 BO21          0.27614 -0.06584  0.25077      0.04499 -0.03672  0.10948
                                             -0.02572  0.09627 -0.04465
 BO31          0.31251  0.07206 -0.19845      0.04591 -0.05142  0.05640
                                              0.03663 -0.10677 -0.04099
 A01O          0.33267 -0.69635  0.27366     -4.32602 -3.84252 -4.06329
                                              0.01049  0.51677  0.19169
 A02H          0.06584  0.00556  0.08267     -0.37379 -0.37477 -0.37171
                                             -0.00451  0.00849 -0.00428
 A03H         -0.02550 -0.09001 -0.04948     -0.37977 -0.36169 -0.37882
                                             -0.00139  0.00171  0.00219
 BO21         -0.23688  0.12213 -0.26915      0.04735 -0.02091  0.09131
                                             -0.01790  0.11619 -0.01653
 BO31         -0.01095  0.37211  0.06040     -0.05769  0.14141 -0.03283
                                              0.02570  0.01447  0.07292

                  THE THIRD MOMENT TENSOR

               XXX/XYY  YYY/YYZ  ZZZ/XZZ  XXY/YZZ  XXZ/XYZ
 A01O          0.53195  1.43925  1.28328  0.54549  0.47540
               0.15328  0.46708  0.12662  0.51642 -0.01109
 A02H          0.14231  0.02859  0.00082  0.00386 -0.00291
               0.04896 -0.00091  0.05097  0.00930 -0.00219
 A03H         -0.12365  0.05278  0.07112  0.01547  0.02126
              -0.03965  0.02105 -0.03867  0.01408  0.00377
 BO21         -0.86622 -0.56063 -0.38811 -0.21544 -0.14353
              -0.27594 -0.13069 -0.26707 -0.18476 -0.00898
 BO31          0.36949 -0.69202 -0.72484 -0.24790 -0.25888
               0.13254 -0.25075  0.13882 -0.24493  0.01954
 A01O         -2.05070 -0.03555 -0.14068 -0.01861 -0.03640
              -0.64149 -0.03902 -0.74557 -0.00936  0.03508
 A02H         -0.04542  0.04208 -0.13550  0.01242 -0.04219
              -0.01685 -0.04775 -0.01042  0.01128 -0.00187
 A03H         -0.05936 -0.04424  0.13043 -0.01241  0.03913
              -0.02202  0.04516 -0.01649 -0.01229 -0.00217
 BO21          0.82072 -0.16317  0.69125 -0.06254  0.24078
               0.27111  0.21543  0.30219 -0.07067 -0.00905
 BO31          0.92327  0.18468 -0.52888  0.07160 -0.19507
               0.30198 -0.16838  0.33470  0.07356 -0.01237
 A01O          0.81773 -1.79441  0.70299 -0.55972  0.26562
               0.26305  0.18280  0.31891 -0.57573 -0.02638
 A02H          0.09159  0.02520  0.11602  0.00985  0.03522
               0.03111  0.04028  0.02466  0.01012  0.00177
 A03H         -0.04786 -0.10851 -0.08358 -0.04186 -0.02789
              -0.01470 -0.02292 -0.01535 -0.04017  0.00095
 BO21         -0.66532  0.39508 -0.75822  0.13912 -0.26946
              -0.21494 -0.24139 -0.25242  0.13985  0.00467
 BO31         -0.07217  1.11023  0.11863  0.34455  0.03798
              -0.01131  0.07051 -0.02359  0.35504  0.00501

                  POLARIZABLE POINTS AND THE POLARIZABILITY TENSOR

              X       Y       Z       XX/YZ    YY/YX    ZZ/ZX    XY/ZY     XZ
 CT1       2.0109 -1.4886  0.7190   2.07853  1.49563  1.74144 -0.88796 -1.06691
                                    0.80444 -0.78826 -0.97233  0.82194
 CT2       3.4605 -1.6210  0.3390   3.21039  1.17723  0.92818  0.90331  0.43047
                                    0.22340  0.80363  0.33632  0.20577
 CT3       2.5912 -2.5327  0.3183   1.43429  3.29272  1.29884  0.02154 -0.08339
                                   -0.46529  0.04600 -0.09180 -0.55912
 CT4       2.4654 -1.8549 -0.3975   1.55936  1.21364  3.25294 -0.09880  0.43569
                                   -0.38614 -0.12317  0.44474 -0.29252
 CT1      -1.9342  0.7048  3.1725   1.93350  0.97126  2.41082  0.39383 -1.15475
                                   -0.53529  0.43409 -1.28721 -0.54014
 CT2      -1.8520  1.1445  1.7360   1.66192  0.94445  2.70943 -0.29520  1.07863
                                   -0.54218 -0.33527  1.21084 -0.53702
 CT3      -1.0327  1.4160  2.6539   1.78627  2.63939  1.60019  0.91876  0.30023
                                    0.42067  1.01171  0.32866  0.41556
 CT4      -0.9970  0.4658  2.3650   1.93697  2.56534  1.52363 -0.99013 -0.27545
                                    0.27819 -1.08275 -0.30429  0.28373
 CT1      -0.3000 -2.7995 -4.8304   0.92519  3.10773  1.28268  0.43868  0.25193
                                    0.89682  0.35229  0.23465  1.00373
 CT2       0.4352 -2.0303 -3.7668   1.91475  0.94069  2.46036 -0.16545  1.35761
                                   -0.06870 -0.07942  1.37462 -0.17557
 CT3       0.0937 -1.6048 -4.9025   1.61140  1.98938  2.42507  0.65017 -0.57891
                                   -0.78889  0.58129 -0.52932 -0.83652
 CT4      -0.6736 -1.7280 -4.2831   2.92846  1.54722  1.55026 -0.69129 -0.51912
                                    0.36333 -0.62297 -0.56907  0.41107

                  DYNAMIC POLARIZABLE POINTS AND DYNAMIC TENSOR

              X       Y       Z       XX/YZ    YY/YX    ZZ/ZX    XY/ZY     XZ
 CT        2.0109 -1.4886  0.7190   2.07846  1.49558  1.74126 -0.88798 -1.06669
                                    0.80438 -0.78819 -0.97221  0.82190
 CT        3.4605 -1.6210  0.3390   3.21012  1.17713  0.92809  0.90330  0.43073
                                    0.22331  0.80352  0.33625  0.20579
 CT        2.5912 -2.5327  0.3183   1.43445  3.29278  1.29884  0.02139 -0.08326
                                   -0.46531  0.04598 -0.09182 -0.55911
 CT        2.4654 -1.8549 -0.3975   1.55962  1.21358  3.25287 -0.09866  0.43612
                                   -0.38633 -0.12325  0.44469 -0.29253
 CT        2.0109 -1.4886  0.7190   2.07762  1.49492  1.74040 -0.88735 -1.06597
                                    0.80373 -0.78745 -0.97138  0.82128
 CT        3.4605 -1.6210  0.3390   3.20834  1.17673  0.92791  0.90263  0.43039
                                    0.22319  0.80273  0.33579  0.20564
 CT        2.5912 -2.5327  0.3183   1.43397  3.28986  1.29841  0.02145 -0.08320
                                   -0.46495  0.04585 -0.09170 -0.55802
 CT        2.4654 -1.8549 -0.3975   1.55898  1.21326  3.25000 -0.09861  0.43558
                                   -0.38546 -0.12301  0.44408 -0.29239
 CT        2.0109 -1.4886  0.7190   2.07271  1.49107  1.73542 -0.88371 -1.06178
                                    0.79999 -0.78312 -0.96654  0.81765
 CT        3.4605 -1.6210  0.3390   3.19790  1.17443  0.92689  0.89871  0.42838
                                    0.22248  0.79812  0.33314  0.20481
 CT        2.5912 -2.5327  0.3183   1.43111  3.27291  1.29590  0.02182 -0.08289
                                   -0.46286  0.04512 -0.09101 -0.55175
 CT        2.4654 -1.8549 -0.3975   1.55522  1.21141  3.23330 -0.09829  0.43244
                                   -0.38044 -0.12159  0.44056 -0.29156
 CT        2.0109 -1.4886  0.7190   2.05559  1.47777  1.71823 -0.87108 -1.04724
                                    0.78709 -0.76830 -0.94992  0.80514
 CT        3.4605 -1.6210  0.3390   3.16180  1.16648  0.92335  0.88515  0.42146
                                    0.22001  0.78237  0.32414  0.20196
 CT        2.5912 -2.5327  0.3183   1.42117  3.21543  1.28715  0.02299 -0.08182
                                   -0.45565  0.04270 -0.08869 -0.53086
 CT        2.4654 -1.8549 -0.3975   1.54221  1.20487  3.17667 -0.09716  0.42182
                                   -0.36379 -0.11688  0.42869 -0.28858
 CT        2.0109 -1.4886  0.7190   2.00813  1.44195  1.67191 -0.83658 -1.00740
                                    0.75257 -0.72912 -0.90566  0.77144
 CT        3.4605 -1.6210  0.3390   3.06352  1.14496  0.91355  0.84837  0.40273
                                    0.21319  0.74091  0.30098  0.19432
 CT        2.5912 -2.5327  0.3183   1.39365  3.06727  1.26288  0.02544 -0.07892
                                   -0.43607  0.03691 -0.08291 -0.47980
 CT        2.4654 -1.8549 -0.3975   1.50689  1.18617  3.03074 -0.09395  0.39473
                                   -0.32349 -0.10542  0.39872 -0.27975
 CT        2.0109 -1.4886  0.7190   1.89329  1.36017  1.56635 -0.75606 -0.91383
                                    0.67549 -0.64412 -0.80783  0.69514
 CT        3.4605 -1.6210  0.3390   2.83527  1.09509  0.88948  0.76387  0.35996
                                    0.19688  0.65193  0.25397  0.17722
 CT        2.5912 -2.5327  0.3183   1.32703  2.76080  1.20410  0.02830 -0.07222
                                   -0.39103  0.02699 -0.07177 -0.38602
 CT        2.4654 -1.8549 -0.3975   1.42470  1.13839  2.72884 -0.08588  0.34019
                                   -0.25120 -0.08457  0.33973 -0.25621
 CT        2.0109 -1.4886  0.7190   1.65155  1.20105  1.36309 -0.59949 -0.72982
                                    0.53524 -0.49773 -0.63347  0.55311
 CT        3.4605 -1.6210  0.3390   2.38821  0.99376  0.83375  0.60335  0.27978
                                    0.16345  0.50159  0.18343  0.14558
 CT        2.5912 -2.5327  0.3183   1.18500  2.25958  1.07899  0.02819 -0.05910
                                   -0.30577  0.01683 -0.05514 -0.26244
 CT        2.4654 -1.8549 -0.3975   1.25901  1.03016  2.23439 -0.06869  0.25702
                                   -0.16028 -0.05733  0.25307 -0.20361
 CT        2.0109 -1.4886  0.7190   1.23961  0.93980  1.04071 -0.37230 -0.45840
                                    0.34160 -0.31115 -0.40049  0.35234
 CT        3.4605 -1.6210  0.3390   1.69873  0.81060  0.71080  0.37511  0.16869
                                    0.10949  0.31395  0.11079  0.09875
 CT        2.5912 -2.5327  0.3183   0.92913  1.61086  0.85525  0.02295 -0.03859
                                   -0.18745  0.01241 -0.03492 -0.14723
 CT        2.4654 -1.8549 -0.3975   0.97637  0.82617  1.59270 -0.04218  0.16433
                                   -0.08203 -0.03164  0.16066 -0.12225
 CT        2.0109 -1.4886  0.7190   0.71933  0.58598  0.63051 -0.15944 -0.19872
                                    0.15646 -0.14401 -0.18410  0.15917
 CT        3.4605 -1.6210  0.3390   0.92429  0.52831  0.48323  0.16235  0.06999
                                    0.05076  0.14691  0.05537  0.04805
 CT        2.5912 -2.5327  0.3183   0.56814  0.91879  0.53683  0.01328 -0.01673
                                   -0.08417  0.00968 -0.01547 -0.07042
 CT        2.4654 -1.8549 -0.3975   0.59191  0.52386  0.90799 -0.01779  0.08481
                                   -0.03760 -0.01419  0.08355 -0.05135
 CT        2.0109 -1.4886  0.7190   0.27398  0.23968  0.25199 -0.04243 -0.05326
                                    0.04559 -0.04280 -0.05361  0.04552
 CT        3.4605 -1.6210  0.3390   0.33227  0.22327  0.21011  0.04432  0.01865
                                    0.01469  0.04470  0.01900  0.01476
 CT        2.5912 -2.5327  0.3183   0.22586  0.34980  0.22018  0.00421 -0.00425
                                   -0.02818  0.00387 -0.00413 -0.02687
 CT        2.4654 -1.8549 -0.3975   0.23392  0.21589  0.34603 -0.00545  0.02987
                                   -0.01575 -0.00510  0.02975 -0.01705
 CT        2.0109 -1.4886  0.7190   0.05238  0.04790  0.04963 -0.00587 -0.00740
                                    0.00682 -0.00629 -0.00781  0.00675
 CT        3.4605 -1.6210  0.3390   0.06083  0.04553  0.04355  0.00634  0.00267
                                    0.00228  0.00676  0.00307  0.00235
 CT        2.5912 -2.5327  0.3183   0.04531  0.06780  0.04505  0.00064 -0.00059
                                   -0.00543  0.00062 -0.00058 -0.00537
 CT        2.4654 -1.8549 -0.3975   0.04673  0.04425  0.06719 -0.00102  0.00540
                                   -0.00342 -0.00100  0.00539 -0.00347
 CT        2.0109 -1.4886  0.7190   0.00198  0.00184  0.00190 -0.00019 -0.00024
                                    0.00023 -0.00021 -0.00026  0.00023
 CT        3.4605 -1.6210  0.3390   0.00226  0.00176  0.00169  0.00021  0.00009
                                    0.00008  0.00023  0.00011  0.00008
 CT        2.5912 -2.5327  0.3183   0.00179  0.00263  0.00179  0.00002 -0.00002
                                   -0.00021  0.00002 -0.00002 -0.00021
 CT        2.4654 -1.8549 -0.3975   0.00184  0.00176  0.00261 -0.00004  0.00020
                                   -0.00013 -0.00004  0.00020 -0.00013
 CT       -1.9342  0.7048  3.1725   1.93339  0.97128  2.41063  0.39382 -1.15460
                                   -0.53528  0.43408 -1.28706 -0.54026
 CT       -1.8520  1.1445  1.7360   1.66179  0.94444  2.70912 -0.29513  1.07849
                                   -0.54208 -0.33539  1.21095 -0.53710
 CT       -1.0327  1.4160  2.6539   1.78630  2.63952  1.60026  0.91877  0.30022
                                    0.42066  1.01172  0.32867  0.41534
 CT       -0.9970  0.4658  2.3650   1.93687  2.56549  1.52371 -0.99008 -0.27545
                                    0.27817 -1.08302 -0.30390  0.28348
 CT       -1.9342  0.7048  3.1725   1.93240  0.97104  2.40950  0.39346 -1.15351
                                   -0.53493  0.43376 -1.28613 -0.53992
 CT       -1.8520  1.1445  1.7360   1.66102  0.94422  2.70774 -0.29483  1.07744
                                   -0.54174 -0.33514  1.21006 -0.53675
 CT       -1.0327  1.4160  2.6539   1.78534  2.63735  1.59955  0.91793  0.29994
                                    0.42006  1.01016  0.32817  0.41478
 CT       -0.9970  0.4658  2.3650   1.93572  2.56341  1.52310 -0.98913 -0.27520
                                    0.27778 -1.08136 -0.30343  0.28306
 CT       -1.9342  0.7048  3.1725   1.92663  0.96966  2.40290  0.39134 -1.14719
                                   -0.53290  0.43193 -1.28071 -0.53792
 CT       -1.8520  1.1445  1.7360   1.65658  0.94297  2.69969 -0.29311  1.07132
                                   -0.53973 -0.33369  1.20485 -0.53472
 CT       -1.0327  1.4160  2.6539   1.77976  2.62474  1.59543  0.91304  0.29829
                                    0.41659  1.00111  0.32525  0.41155
 CT       -0.9970  0.4658  2.3650   1.92905  2.55134  1.51953 -0.98365 -0.27373
                                    0.27554 -1.07173 -0.30069  0.28058
 CT       -1.9342  0.7048  3.1725   1.90673  0.96486  2.38000  0.38410 -1.12553
                                   -0.52587  0.42557 -1.26196 -0.53099
 CT       -1.8520  1.1445  1.7360   1.64123  0.93861  2.67178 -0.28723  1.05038
                                   -0.53277 -0.32870  1.18682 -0.52765
 CT       -1.0327  1.4160  2.6539   1.76058  2.58196  1.58121  0.89627  0.29266
                                    0.40492  0.97080  0.31547  0.40066
 CT       -0.9970  0.4658  2.3650   1.90618  2.51038  1.50719 -0.96491 -0.26871
                                    0.26801 -1.03944 -0.29153  0.27228
 CT       -1.9342  0.7048  3.1725   1.85317  0.95172  2.31710  0.36494 -1.06827
                                   -0.50661  0.40829 -1.21091 -0.51197
 CT       -1.8520  1.1445  1.7360   1.59987  0.92668  2.59547 -0.27177  0.99520
                                   -0.51367 -0.31512  1.13784 -0.50831
 CT       -1.0327  1.4160  2.6539   1.70942  2.47154  1.54285  0.85204  0.27782
                                    0.37554  0.89538  0.29108  0.37306
 CT       -0.9970  0.4658  2.3650   1.84564  2.40456  1.47360 -0.91570 -0.25548
                                    0.24895 -0.95903 -0.26875  0.25143
 CT       -1.9342  0.7048  3.1725   1.73144  0.92038  2.16798  0.32322 -0.94408
                                   -0.46153  0.36838 -1.09267 -0.46711
 CT       -1.8520  1.1445  1.7360   1.50536  0.89803  2.41644 -0.23860  0.87639
                                   -0.46863 -0.28376  1.02499 -0.46304
 CT       -1.0327  1.4160  2.6539   1.59565  2.24152  1.45476  0.75655  0.24601
                                    0.31791  0.75158  0.24449  0.31820
 CT       -0.9970  0.4658  2.3650   1.71314  2.18376  1.39503 -0.81043 -0.22691
                                    0.21116 -0.80547 -0.22540  0.21088
 CT       -1.9342  0.7048  3.1725   1.49843  0.85243  1.86483  0.25089 -0.73021
                                   -0.37294  0.29195 -0.86528 -0.37802
 CT       -1.8520  1.1445  1.7360   1.32163  0.83496  2.05913 -0.18273  0.67458
                                   -0.37920 -0.22378  0.80965 -0.37413
 CT       -1.0327  1.4160  2.6539   1.38632  1.85693  1.28032  0.59363  0.19249
                                    0.23322  0.55070  0.17934  0.23568
 CT       -0.9970  0.4658  2.3650   1.47535  1.81316  1.23506 -0.63294 -0.17787
                                    0.15457 -0.59001 -0.16473  0.15211
 CT       -1.9342  0.7048  3.1725   1.13218  0.71667  1.37126  0.15756 -0.45714
                                   -0.24043  0.18224 -0.53832 -0.24348
 CT       -1.8520  1.1445  1.7360   1.02199  0.70578  1.49236 -0.11361  0.42141
                                   -0.24422 -0.13828  0.50259 -0.24117
 CT       -1.0327  1.4160  2.6539   1.06695  1.34014  0.98815  0.38596  0.12557
                                    0.14315  0.34611  0.11337  0.14543
 CT       -0.9970  0.4658  2.3650   1.12378  1.31220  0.95926 -0.40937 -0.11463
                                    0.09366 -0.36952 -0.10243  0.09138
 CT       -1.9342  0.7048  3.1725   0.67472  0.48336  0.77775  0.07289 -0.21170
                                   -0.10835  0.07911 -0.23219 -0.10912
 CT       -1.8520  1.1445  1.7360   0.62552  0.47850  0.83181 -0.05296  0.19624
                                   -0.10945 -0.05918  0.21674 -0.10868
 CT       -1.0327  1.4160  2.6539   0.65198  0.77469  0.59709  0.19130  0.06317
                                    0.07242  0.17767  0.05900  0.07320
 CT       -0.9970  0.4658  2.3650   0.68058  0.76063  0.58255 -0.20256 -0.05575
                                    0.04714 -0.18893 -0.05158  0.04636
 CT       -1.9342  0.7048  3.1725   0.26567  0.20941  0.29056  0.02167 -0.06310
                                   -0.03006  0.02152 -0.06261 -0.03004
 CT       -1.8520  1.1445  1.7360   0.25168  0.20803  0.30594 -0.01604  0.05923
                                   -0.03014 -0.01589  0.05874 -0.03015
 CT       -1.0327  1.4160  2.6539   0.25819  0.30172  0.23592  0.06305  0.02111
                                    0.02653  0.06175  0.02071  0.02661
 CT       -0.9970  0.4658  2.3650   0.26789  0.29696  0.23099 -0.06717 -0.01820
                                    0.01777 -0.06588 -0.01780  0.01770
 CT       -1.9342  0.7048  3.1725   0.05186  0.04328  0.05477  0.00322 -0.00935
                                   -0.00427  0.00305 -0.00879 -0.00425
 CT       -1.8520  1.1445  1.7360   0.04983  0.04308  0.05700 -0.00240  0.00888
                                   -0.00426 -0.00223  0.00831 -0.00429
 CT       -1.0327  1.4160  2.6539   0.05116  0.05984  0.04716  0.01096  0.00369
                                    0.00504  0.01091  0.00367  0.00504
 CT       -0.9970  0.4658  2.3650   0.05287  0.05900  0.04629 -0.01177 -0.00318
                                    0.00349 -0.01172 -0.00316  0.00349
 CT       -1.9342  0.7048  3.1725   0.00197  0.00168  0.00206  0.00011 -0.00031
                                   -0.00014  0.00010 -0.00029 -0.00014
 CT       -1.8520  1.1445  1.7360   0.00190  0.00168  0.00214 -0.00008  0.00030
                                   -0.00014 -0.00007  0.00028 -0.00014
 CT       -1.0327  1.4160  2.6539   0.00201  0.00234  0.00185  0.00041  0.00014
                                    0.00019  0.00040  0.00014  0.00019
 CT       -0.9970  0.4658  2.3650   0.00207  0.00231  0.00182 -0.00044 -0.00012
                                    0.00013 -0.00044 -0.00012  0.00013
 CT       -0.3000 -2.7995 -4.8304   0.92524  3.10752  1.28255  0.43869  0.25191
                                    0.89667  0.35234  0.23474  1.00362
 CT        0.4352 -2.0303 -3.7668   1.91471  0.94054  2.46010 -0.16561  1.35744
                                   -0.06871 -0.07926  1.37461 -0.17567
 CT        0.0937 -1.6048 -4.9025   1.61155  1.98945  2.42507  0.65023 -0.57895
                                   -0.78891  0.58141 -0.52917 -0.83648
 CT       -0.6736 -1.7280 -4.2831   2.92874  1.54701  1.55032 -0.69149 -0.51907
                                    0.36338 -0.62267 -0.56884  0.41095
 CT       -0.3000 -2.7995 -4.8304   0.92511  3.10562  1.28222  0.43847  0.25186
                                    0.89592  0.35202  0.23467  1.00301
 CT        0.4352 -2.0303 -3.7668   1.91375  0.94045  2.45878 -0.16550  1.35643
                                   -0.06844 -0.07904  1.37362 -0.17552
 CT        0.0937 -1.6048 -4.9025   1.61073  1.98825  2.42326  0.64918 -0.57797
                                   -0.78805  0.58090 -0.52858 -0.83525
 CT       -0.6736 -1.7280 -4.2831   2.92627  1.54636  1.54961 -0.69041 -0.51849
                                    0.36310 -0.62212 -0.56788  0.41030
 CT       -0.3000 -2.7995 -4.8304   0.92437  3.09455  1.28028  0.43722  0.25155
                                    0.89157  0.35017  0.23425  0.99939
 CT        0.4352 -2.0303 -3.7668   1.90818  0.93995  2.45109 -0.16482  1.35053
                                   -0.06682 -0.07777  1.36784 -0.17464
 CT        0.0937 -1.6048 -4.9025   1.60591  1.98123  2.41279  0.64314 -0.57232
                                   -0.78307  0.57792 -0.52515 -0.82815
 CT       -0.6736 -1.7280 -4.2831   2.91189  1.54255  1.54548 -0.68414 -0.51513
                                    0.36150 -0.61892 -0.56230  0.40658
 CT       -0.3000 -2.7995 -4.8304   0.92173  3.05639  1.27347  0.43279  0.25041
                                    0.87663  0.34385  0.23273  0.98680
 CT        0.4352 -2.0303 -3.7668   1.88894  0.93815  2.42453 -0.16245  1.33018
                                   -0.06142 -0.07351  1.34786 -0.17159
 CT        0.0937 -1.6048 -4.9025   1.58939  1.95722  2.37714  0.62292 -0.55341
                                   -0.76613  0.56774 -0.51350 -0.80428
 CT       -0.6736 -1.7280 -4.2831   2.86309  1.52938  1.53128 -0.66313 -0.50373
                                    0.35597 -0.60795 -0.54364  0.39412
 CT       -0.3000 -2.7995 -4.8304   0.91413  2.95358  1.25428  0.42006  0.24668
                                    0.83674  0.32708  0.22819  0.95192
 CT        0.4352 -2.0303 -3.7668   1.83691  0.93266  2.35246 -0.15596  1.27522
                                   -0.04814 -0.06298  1.29371 -0.16333
 CT        0.0937 -1.6048 -4.9025   1.54546  1.89382  2.28452  0.57287 -0.50656
                                   -0.72226  0.54078 -0.48336 -0.74444
 CT       -0.6736 -1.7280 -4.2831   2.73716  1.49353  1.49312 -0.61084 -0.47421
                                    0.34110 -0.57875 -0.49742  0.36328
 CT       -0.3000 -2.7995 -4.8304   0.89374  2.72009  1.20597  0.38735  0.23491
                                    0.74821  0.29049  0.21566  0.86820
 CT        0.4352 -2.0303 -3.7668   1.71737  0.91632  2.18615 -0.14065  1.15018
                                   -0.02441 -0.04378  1.16944 -0.14440
 CT        0.0937 -1.6048 -4.9025   1.44756  1.75560  2.08876  0.47823 -0.41789
                                   -0.63125  0.48191 -0.42055 -0.62871
 CT       -0.6736 -1.7280 -4.2831   2.47537  1.41036  1.40620 -0.51134 -0.41266
                                    0.30755 -0.51501 -0.41000  0.30501
 CT       -0.3000 -2.7995 -4.8304   0.84096  2.27884  1.09589  0.31482  0.20237
                                    0.58915  0.22677  0.18486  0.69823
 CT        0.4352 -2.0303 -3.7668   1.48505  0.86825  1.86242 -0.11039  0.91568
                                    0.00019 -0.02234  0.93319 -0.10889
 CT        0.0937 -1.6048 -4.9025   1.26235  1.50794  1.75328  0.34658 -0.29519
                                   -0.48576  0.37837 -0.31818 -0.46379
 CT       -0.6736 -1.7280 -4.2831   2.04119  1.24633  1.23605 -0.37428 -0.31221
                                    0.24568 -0.40607 -0.28922  0.22371
 CT       -0.3000 -2.7995 -4.8304   0.71641  1.62177  0.88193  0.19707  0.13786
                                    0.37436  0.14415  0.12734  0.43991
 CT        0.4352 -2.0303 -3.7668   1.11785  0.74261  1.35967 -0.06599  0.58283
                                    0.00486 -0.01307  0.59335 -0.06070
 CT        0.0937 -1.6048 -4.9025   0.96836  1.14169  1.28519  0.21143 -0.17449
                                   -0.31448  0.24094 -0.19583 -0.29408
 CT       -0.6736 -1.7280 -4.2831   1.46546  0.97471  0.95506 -0.23945 -0.19201
                                    0.15875 -0.26896 -0.17067  0.13835
 CT       -0.3000 -2.7995 -4.8304   0.48465  0.89229  0.55889  0.08138  0.06225
                                    0.17268  0.06802  0.05959  0.18923
 CT        0.4352 -2.0303 -3.7668   0.66386  0.49981  0.77216 -0.02579  0.26293
                                   -0.00499 -0.01243  0.26559 -0.02154
 CT        0.0937 -1.6048 -4.9025   0.58992  0.68540  0.74843  0.10353 -0.08774
                                   -0.16105  0.11362 -0.09504 -0.15408
 CT       -0.6736 -1.7280 -4.2831   0.84011  0.60137  0.58228 -0.12816 -0.09312
                                    0.07383 -0.13825 -0.08582  0.06685
 CT       -0.3000 -2.7995 -4.8304   0.20956  0.32630  0.22978  0.01976  0.01643
                                    0.05008  0.02008  0.01650  0.04968
 CT        0.4352 -2.0303 -3.7668   0.26053  0.21469  0.29043 -0.00660  0.07432
                                   -0.00555 -0.00692  0.07426 -0.00515
 CT        0.0937 -1.6048 -4.9025   0.23763  0.26846  0.28975  0.03551 -0.03331
                                   -0.05549  0.03647 -0.03401 -0.05483
 CT       -0.6736 -1.7280 -4.2831   0.32246  0.23997  0.23341 -0.04551 -0.03335
                                    0.02245 -0.04647 -0.03266  0.02179
 CT       -0.3000 -2.7995 -4.8304   0.04332  0.06046  0.04614  0.00248  0.00229
                                    0.00722  0.00285  0.00236  0.00677
 CT        0.4352 -2.0303 -3.7668   0.05071  0.04427  0.05493 -0.00102  0.01074
                                   -0.00124 -0.00139  0.01067 -0.00078
 CT        0.0937 -1.6048 -4.9025   0.04817  0.05293  0.05705  0.00637 -0.00652
                                   -0.00988  0.00641 -0.00655 -0.00985
 CT       -0.6736 -1.7280 -4.2831   0.06310  0.04792  0.04714 -0.00801 -0.00643
                                    0.00375 -0.00805 -0.00640  0.00372
 CT       -0.3000 -2.7995 -4.8304   0.00168  0.00226  0.00178  0.00008  0.00007
                                    0.00024  0.00009  0.00008  0.00022
 CT        0.4352 -2.0303 -3.7668   0.00193  0.00172  0.00207 -0.00003  0.00036
                                   -0.00005 -0.00005  0.00035 -0.00003
 CT        0.0937 -1.6048 -4.9025   0.00190  0.00207  0.00223  0.00024 -0.00025
                                   -0.00037  0.00024 -0.00025 -0.00037
 CT       -0.6736 -1.7280 -4.2831   0.00246  0.00189  0.00186 -0.00030 -0.00025
                                    0.00014 -0.00030 -0.00024  0.00014

                    AO EXPANSION POINTS                             LMO CENTROIDS

                X          Y          Z                         X          Y          Z

  A01O        2.59196   -1.99766    0.13495       CT1         2.01087   -1.48861    0.71901
  A02H        4.22682   -1.34863    0.46242       CT2         3.46054   -1.62103    0.33905
  A03H        1.46047   -1.09594    1.18749       CT3         2.59115   -2.53269    0.31833
  A01O       -1.28444    0.93593    2.49251       CT4         2.46545   -1.85488   -0.39749
  A02H       -2.27178    1.33576    1.05496       CT1        -1.93420    0.70484    3.17247
  A03H       -2.42858    0.49672    3.79607       CT2        -1.85203    1.14453    1.73602
  A01O       -0.18024   -1.89615   -4.50248       CT3        -1.03273    1.41602    2.65386
  A02H        0.95515   -2.07049   -3.13072       CT4        -0.99702    0.46580    2.36505
  A03H       -0.44779   -3.53836   -5.16035       CT1        -0.30002   -2.79950   -4.83042
                                                  CT2         0.43518   -2.03028   -3.76682
                                                  CT3         0.09366   -1.60484   -4.90249
                                                  CT4        -0.67364   -1.72797   -4.28305

          ----------------
          PROPERTIES INPUT
          ----------------

     MOMENTS            FIELD           POTENTIAL          DENSITY
 IEMOM =       1   IEFLD =       0   IEPOT =       0   IEDEN =       0
 WHERE =COMASS     WHERE =NUCLEI     WHERE =NUCLEI     WHERE =NUCLEI  
 OUTPUT=BOTH       OUTPUT=BOTH       OUTPUT=BOTH       OUTPUT=BOTH    
 IEMINT=       0   IEFINT=       0                     IEDINT=       0
                                                       MORB  =       0
          EXTRAPOLATION IN EFFECT
          SOSCF IN EFFECT
 ORBITAL PRINTING OPTION: NPREO=     1    65     2     1

     -------------------------------
     INTEGRAL TRANSFORMATION OPTIONS
     -------------------------------
     NWORD  =            0
     CUTOFF = 1.0E-09     MPTRAN =       0
     DIRTRF =       F     AOINTS =DUP     

          -----------------------------
          LOCALIZATION INPUT PARAMETERS
          -----------------------------
           LOCAL=BOYS          NOUTA=       1
          PRTLOC=       F      NOUTB=       0
          MAXLOC=     250     CVGLOC=1.00E-06
           FCORE=       T     SYMLOC=       F
          MOIDON=       F     EDCOMP=       F
          DIPDCM=       F      NPROT=       0
          QADDCM=       F     DEPRNT=       F
          POLNUM=       F     ORIENT=       F
          POLDYN=       F      VMTOL=1.50E-01
          NPRDTL=       2
          MOOUTA =      1

          ----------------------
          INTEGRAL INPUT OPTIONS
          ----------------------
 NOPK  =       1 NORDER=       0 SCHWRZ=       F

     ------------------------------------------
     THE POINT GROUP IS C1 , NAXIS= 0, ORDER= 1
     ------------------------------------------

     DIMENSIONS OF THE SYMMETRY SUBSPACES ARE
 A   =   65

 ..... DONE SETTING UP THE RUN .....
 STEP CPU TIME =     0.06 TOTAL CPU TIME =        0.1 (    0.0 MIN)
 TOTAL WALL CLOCK TIME=        0.1 SECONDS, CPU UTILIZATION IS  85.71%

          ********************
          1 ELECTRON INTEGRALS
          ********************
 TIME TO DO ORDINARY INTEGRALS=      0.00
 TIME TO DO FRAGMENT INTEGRALS=      0.04
 ...... END OF ONE-ELECTRON INTEGRALS ......
 STEP CPU TIME =     0.04 TOTAL CPU TIME =        0.1 (    0.0 MIN)
 TOTAL WALL CLOCK TIME=        0.1 SECONDS, CPU UTILIZATION IS 100.00%

          -------------
          GUESS OPTIONS
          -------------
          GUESS =HUCKEL            NORB  =       0          NORDER=       0
          MIX   =       F          PRTMO =       F          PUNMO =       F
          TOLZ  = 1.0E-08          TOLE  = 1.0E-05
          SYMDEN=       F          PURIFY=       F

 INITIAL GUESS ORBITALS GENERATED BY HUCKEL   ROUTINE.
 HUCKEL GUESS REQUIRES     33070 WORDS.

 SYMMETRIES FOR INITIAL GUESS ORBITALS FOLLOW.   BOTH SET(S).
     5 ORBITALS ARE OCCUPIED (    1 CORE ORBITALS).
     2=A        3=A        4=A        5=A        6=A        7=A        8=A   
     9=A       10=A       11=A       12=A       13=A       14=A       15=A   
 ...... END OF INITIAL ORBITAL SELECTION ......
 STEP CPU TIME =     0.00 TOTAL CPU TIME =        0.1 (    0.0 MIN)
 TOTAL WALL CLOCK TIME=        0.1 SECONDS, CPU UTILIZATION IS  90.91%

                    ----------------------
                    AO INTEGRAL TECHNOLOGY
                    ----------------------
     S,P,L SHELL ROTATED AXIS INTEGRALS, REPROGRAMMED BY
        KAZUYA ISHIMURA (IMS) AND JOSE SIERRA (SYNSTAR).
     S,P,D,L SHELL ROTATED AXIS INTEGRALS PROGRAMMED BY
        KAZUYA ISHIMURA (INSTITUTE FOR MOLECULAR SCIENCE).
     S,P,D,F,G SHELL TO TOTAL QUARTET ANGULAR MOMENTUM SUM 5,
        ERIC PROGRAM BY GRAHAM FLETCHER (ELORET AND NASA ADVANCED
        SUPERCOMPUTING DIVISION, AMES RESEARCH CENTER).
     S,P,D,F,G,L SHELL GENERAL RYS QUADRATURE PROGRAMMED BY
        MICHEL DUPUIS (PACIFIC NORTHWEST NATIONAL LABORATORY).

          --------------------
          2 ELECTRON INTEGRALS
          --------------------

 THE -PK- OPTION IS OFF, THE INTEGRALS ARE NOT IN SUPERMATRIX FORM.
 STORING   15000 INTEGRALS/RECORD ON DISK, USING 12 BYTES/INTEGRAL.
 TWO ELECTRON INTEGRAL EVALUATION REQUIRES   99331 WORDS OF MEMORY.
 II,JST,KST,LST =  1  1  1  1 NREC =         1 INTLOC =    1
 II,JST,KST,LST =  2  1  1  1 NREC =         1 INTLOC =    2
 II,JST,KST,LST =  3  1  1  1 NREC =         1 INTLOC =   34
 II,JST,KST,LST =  4  1  1  1 NREC =         1 INTLOC =  214
 II,JST,KST,LST =  5  1  1  1 NREC =         1 INTLOC =  776
 II,JST,KST,LST =  6  1  1  1 NREC =         1 INTLOC = 2074
 II,JST,KST,LST =  7  1  1  1 NREC =         1 INTLOC = 5929
 II,JST,KST,LST =  8  1  1  1 NREC =         1 INTLOC =14065
 II,JST,KST,LST =  9  1  1  1 NREC =         2 INTLOC =14002
 II,JST,KST,LST = 10  1  1  1 NREC =         5 INTLOC =12962
 II,JST,KST,LST = 11  1  1  1 NREC =         9 INTLOC = 1653
 II,JST,KST,LST = 12  1  1  1 NREC =        12 INTLOC = 8588
 II,JST,KST,LST = 13  1  1  1 NREC =        16 INTLOC = 3905
 II,JST,KST,LST = 14  1  1  1 NREC =        20 INTLOC = 2597
 II,JST,KST,LST = 15  1  1  1 NREC =        33 INTLOC = 6521
 II,JST,KST,LST = 16  1  1  1 NREC =        49 INTLOC = 2030
 II,JST,KST,LST = 17  1  1  1 NREC =        54 INTLOC =14866
 II,JST,KST,LST = 18  1  1  1 NREC =        61 INTLOC = 2491
 II,JST,KST,LST = 19  1  1  1 NREC =        67 INTLOC =10076
 II,JST,KST,LST = 20  1  1  1 NREC =        74 INTLOC = 7743
 II,JST,KST,LST = 21  1  1  1 NREC =        97 INTLOC = 3207
 TOTAL NUMBER OF NONZERO TWO-ELECTRON INTEGRALS =             1835780
        123 INTEGRAL RECORDS WERE STORED ON DISK FILE  8.
  ...... END OF TWO-ELECTRON INTEGRALS .....
 STEP CPU TIME =     0.09 TOTAL CPU TIME =        0.2 (    0.0 MIN)
 TOTAL WALL CLOCK TIME=        0.2 SECONDS, CPU UTILIZATION IS  95.00%

 EFP ADDITIVE CONTRIBUTIONS TO THE "NUCLEAR ENERGY":
   -- NUCLEAR CHARGE - NUCLEAR CHARGE   =        9.2743641990
   -- NUCLEAR CHARGE - EFP CHARGE       =        0.0120464755
   -- NUCLEAR CHARGE - EFP DIPOLE       =       -0.0356976354
   -- NUCLEAR CHARGE - EFP QUADRUPOLE   =        0.0324614417
   -- NUCLEAR CHARGE - EFP OCTUPOLE     =        0.0003602494
   -- EFP CHARGE     - EFP CHARGE       =       -0.0109337994
   -- EFP CHARGE     - EFP DIPOLE       =       -0.0084484156
   -- EFP CHARGE     - EFP QUADRUPOLE   =       -0.0031895071
   -- EFP CHARGE     - EFP OCTUPOLE     =        0.0003066627
   -- EFP DIPOLE     - EFP DIPOLE       =       -0.0023099750
   -- EFP DIPOLE     - EFP QUADRUPOLE   =       -0.0016806869
   -- EFP QUADRUPOLE - EFP QUADRUPOLE   =       -0.0015655970
   -- EFP-EFP EXCHANGE REPULSION ENERGY =        0.0206505396
   -- EFP-EFP DISPERSION ENERGY (C6)    =        0.0000000000
   -- EFP-EFP DISPERSION ENERGY (C8)    =        0.0000000000
   -- TOTAL INTERFRAGMENT INTERACTION   =       -0.0071707788
 THE TOTAL NUCLEAR CHARGE/EFP ENERGY    =        9.2763639515

          --------------------------
                 RHF SCF CALCULATION
          --------------------------

     NUCLEAR ENERGY =         9.2763639515
     MAXIT =   30     NPUNCH=    2
     EXTRAP=T  DAMP=F  SHIFT=F  RSTRCT=F  DIIS=F  DEM=F  SOSCF=T
     DENSITY MATRIX CONV=  1.00E-05
     SOSCF WILL OPTIMIZE     300 ORBITAL ROTATIONS, SOGTOL=   0.250
     MEMORY REQUIRED FOR RHF ITERS=     85193 WORDS.

 ITER EX DEM     TOTAL ENERGY        E CHANGE  DENSITY CHANGE     ORB. GRAD
   1  0  0      -75.7681862111   -75.7681862111   0.436828105   0.000000000
          ---------------START SECOND ORDER SCF---------------
   2  1  0      -76.0640604526    -0.2958742414   0.184322780   0.032076247
   3  2  0      -76.1114902659    -0.0474298134   0.160702814   0.013597086
   4  3  0      -76.0577324090     0.0537578570   0.043799714   0.005161864
   5  4  0      -76.1141814377    -0.0564490287   0.005735417   0.001477673
   6  5  0      -76.1142097016    -0.0000282639   0.005404953   0.000383779
   7  6  0      -76.1142126499    -0.0000029482   0.000923185   0.000084273
   8  7  0      -76.0558666201     0.0583460298   0.000969190   0.000048201
   9  8  0      -76.1142128418    -0.0583462217   0.000461472   0.000016289
  10  9  0      -76.1142128503    -0.0000000085   0.000240002   0.000006967
  11 10  0      -76.1142128524    -0.0000000021   0.000026211   0.000002728
  12 11  0      -76.0558374331     0.0583754193   0.000006554   0.000000635
  13 12  0      -76.1142128525    -0.0583754194   0.000006159   0.000000235
  14 13  0      -76.1142128525    -0.0000000000   0.000003613   0.000000061
  15 14  0      -76.1142128525     0.0000000000   0.000000774   0.000000020

          -----------------
          DENSITY CONVERGED
          -----------------
     TIME TO FORM FOCK OPERATORS=       2.4 SECONDS (       0.2 SEC/ITER)
     TIME TO SOLVE SCF EQUATIONS=       0.0 SECONDS (       0.0 SEC/ITER)

          -------------------------
          BOYS ORBITAL LOCALIZATION
          -------------------------
          S.F.BOYS, IN "QUANTUM THEORY OF ATOMS, MOLECULES, AND SOLIDS"
          P.O.LOWDIN, ED. ACADEMIC PRESS, NY, 1966 PP253-266.

          THIS LOCALIZATION REQUIRES     11020 WORDS OF MEMORY.
          THIS LOCALIZATION HAS    5 ORBITALS, OF WHICH   1 ARE FROZEN.

          THE INITIAL LOCALIZATION SUM IS    561.595274 DEBYE**2
          BOYS ITERATION  10 ORBITAL CHANGE=    2.9537804794E-06
          BOYS ITERATION  20 ORBITAL CHANGE=    9.1842732969E-10
          LOCALIZATION CONVERGED IN  20 ITERATIONS
            THE FINAL LOCALIZATION SUM IS    576.352848 DEBYE**2

          THE BOYS LOCALIZED ORBITALS ARE

                      1          2          3          4          5

    1  O  1  S   -0.551335   0.051850  -0.051809   0.064002   0.065685
    2  O  1  S   -0.472637   0.091264  -0.091755   0.119446   0.121313
    3  O  1  X   -0.001182  -0.117209  -0.020625  -0.117752   0.220973
    4  O  1  Y   -0.000716   0.128915   0.174453  -0.050087   0.102528
    5  O  1  Z    0.002362   0.117623  -0.109210  -0.202900  -0.038429
    6  O  1  S   -0.000987  -0.249236   0.246653  -0.318334  -0.331854
    7  O  1  X    0.002450  -0.176255  -0.029510  -0.179168   0.328019
    8  O  1  Y    0.001487   0.190483   0.260715  -0.075155   0.152308
    9  O  1  Z   -0.004811   0.178370  -0.165988  -0.298603  -0.051335
   10  O  1  S    0.005570  -0.098009   0.141658  -0.436247  -0.499026
   11  O  1  X   -0.000009  -0.078374   0.006544  -0.179084   0.286981
   12  O  1  Y    0.000059   0.067685   0.127627  -0.065009   0.145311
   13  O  1  Z   -0.000212   0.098054  -0.110607  -0.272594  -0.007376
   14  O  1  S    0.000658   0.319919  -0.033681  -0.322927  -0.228515
   15  O  1  X    0.000076   0.046524  -0.005931  -0.101244   0.027444
   16  O  1  Y    0.000036  -0.044690   0.015934   0.034078   0.046218
   17  O  1  Z   -0.000151  -0.045474  -0.024271  -0.028681   0.049259
   18  O  1 XX   -0.001114   0.003401  -0.005021   0.006857   0.006848
   19  O  1 YY   -0.001196   0.003991  -0.003008   0.007592   0.006936
   20  O  1 ZZ   -0.001153   0.003456  -0.003957   0.007891   0.006643
   21  O  1 XY    0.000053   0.000839   0.000131  -0.000350   0.000115
   22  O  1 XZ    0.000028   0.001200   0.000244  -0.000251  -0.000653
   23  O  1 YZ    0.000017  -0.001377  -0.002029  -0.000215  -0.000391
   24  O  1 XX   -0.002163   0.009839  -0.021194   0.018740   0.025470
   25  O  1 YY   -0.002060   0.012895  -0.003694   0.020514   0.020437
   26  O  1 ZZ   -0.002102   0.005453  -0.007797   0.035683   0.021635
   27  O  1 XY   -0.000072   0.010148   0.000255  -0.002376   0.003890
   28  O  1 XZ   -0.000024   0.013937   0.001079   0.001786  -0.009137
   29  O  1 YZ   -0.000016  -0.012499  -0.018480   0.000364  -0.004063
   30  O  1 XX   -0.001349   0.015165  -0.020093   0.043678   0.050833
   31  O  1 YY   -0.001102   0.022712  -0.026528   0.053856   0.030258
   32  O  1 ZZ   -0.001248   0.010618  -0.016574   0.061837   0.035179
   33  O  1 XY   -0.000144  -0.015348   0.003382   0.004181   0.018271
   34  O  1 XZ   -0.000083  -0.007039  -0.010913  -0.007546  -0.004946
   35  O  1 YZ   -0.000063   0.014741   0.006063  -0.004169  -0.006352
   36  O  1 XXX  -0.001207  -0.000089   0.000350  -0.003175   0.004074
   37  O  1 YYY  -0.000763   0.003214   0.005861  -0.003589   0.005103
   38  O  1 ZZZ   0.002339   0.002766  -0.002436  -0.006596  -0.000040
   39  O  1 XXY  -0.000290   0.002330  -0.000458   0.002149  -0.002911
   40  O  1 XXZ   0.001063   0.001464  -0.000104   0.000147  -0.001507
   41  O  1 YYX  -0.000554  -0.004220  -0.002783  -0.002350   0.003366
   42  O  1 YYZ   0.001143   0.002527  -0.003902  -0.003071   0.001018
   43  O  1 ZZX  -0.000550  -0.002535   0.001494  -0.000662   0.003798
   44  O  1 ZZY  -0.000329   0.000175   0.001874  -0.000252   0.001759
   45  O  1 XYZ  -0.000052  -0.002268   0.000946   0.002401  -0.001714
   46  H  2  S   -0.000158   0.014948   0.192108   0.016264   0.011916
   47  H  2  S   -0.000976   0.060127   0.285999   0.033808   0.080806
   48  H  2  S   -0.000210  -0.043253   0.056041   0.066314   0.074279
   49  H  2  S   -0.000057   0.022668  -0.000994  -0.011268  -0.016605
   50  H  2  X   -0.000011  -0.003624   0.002517  -0.005348   0.009292
   51  H  2  Y   -0.000001   0.003439  -0.015112  -0.003542   0.003484
   52  H  2  Z    0.000018   0.004342   0.009207  -0.008077  -0.000659
   53  H  2  X   -0.000059  -0.006932   0.004760  -0.009161   0.019005
   54  H  2  Y    0.000407  -0.002905  -0.043570  -0.013319  -0.014439
   55  H  2  Z   -0.000255   0.015114   0.028420  -0.006643   0.008164
   56  H  3  S   -0.000154  -0.188397  -0.017318   0.013399   0.011498
   57  H  3  S   -0.000790  -0.282534  -0.068455   0.030893   0.078417
   58  H  3  S   -0.000218  -0.329411  -0.005553   0.250064   0.175398
   59  H  3  S   -0.000054  -0.044908  -0.003349   0.013329   0.042699
   60  H  3  X   -0.000006   0.009367   0.000156  -0.005288   0.009296
   61  H  3  Y   -0.000010  -0.010693   0.004866  -0.002365   0.003749
   62  H  3  Z    0.000016  -0.007669  -0.004831  -0.010085  -0.001822
   63  H  3  X    0.000232   0.047415   0.010239  -0.017063  -0.010151
   64  H  3  Y   -0.000268  -0.059246  -0.006528   0.013094   0.030530
   65  H  3  Z   -0.000217  -0.048242  -0.011269   0.014362   0.018466
 ...... END OF ORBITAL LOCALIZATION ......
 STEP CPU TIME =     2.56 TOTAL CPU TIME =        2.8 (    0.0 MIN)
 TOTAL WALL CLOCK TIME=        2.8 SECONDS, CPU UTILIZATION IS  99.28%

 FINAL RHF ENERGY IS      -76.0959791432 AFTER  15 ITERATIONS

          ------------
          EIGENVECTORS
          ------------

                      1          2          3          4          5
                  -20.5799    -1.3672    -0.7360    -0.5981    -0.5247
                     A          A          A          A          A   
    1  O  1  S    0.551335  -0.112840   0.003374  -0.032087   0.003079
    2  O  1  S    0.472637  -0.204060   0.005996  -0.063489   0.005034
    3  O  1  X    0.001182   0.012215  -0.094353  -0.090839   0.244038
    4  O  1  Y    0.000716   0.008005   0.215758  -0.031363   0.111689
    5  O  1  Z   -0.002362  -0.031812  -0.006909   0.238039   0.103368
    6  O  1  S    0.000987   0.551974  -0.018877   0.170312  -0.019559
    7  O  1  X   -0.002450   0.021857  -0.141022  -0.133584   0.365274
    8  O  1  Y   -0.001487   0.013693   0.320895  -0.047168   0.166481
    9  O  1  Z    0.004811  -0.055023  -0.010151   0.351823   0.155746
   10  O  1  S   -0.005570   0.521391   0.000247   0.438638  -0.068991
   11  O  1  X    0.000009   0.004330  -0.048526  -0.081327   0.334105
   12  O  1  Y   -0.000059   0.003826   0.140321  -0.055099   0.153202
   13  O  1  Z    0.000212  -0.005676  -0.023504   0.255930   0.173568
   14  O  1  S   -0.000658   0.024854   0.176661   0.475786   0.042254
   15  O  1  X   -0.000076   0.000460   0.024470   0.070359   0.087486
   16  O  1  Y   -0.000036   0.001796  -0.016638  -0.071521   0.012379
   17  O  1  Z    0.000151   0.003129  -0.048690  -0.020098   0.055872
   18  O  1 XX    0.001114  -0.010481  -0.000755  -0.004494   0.000243
   19  O  1 YY    0.001196  -0.009972   0.001135  -0.005476  -0.000146
   20  O  1 ZZ    0.001153  -0.010229   0.000086  -0.005389  -0.000579
   21  O  1 XY   -0.000053  -0.000302   0.000664   0.000479   0.000309
   22  O  1 XZ   -0.000028  -0.000167   0.000976   0.000949  -0.000328
   23  O  1 YZ   -0.000017  -0.000163  -0.002435   0.000479  -0.000172
   24  O  1 XX    0.002163  -0.036099  -0.006858  -0.012888   0.005444
   25  O  1 YY    0.002060  -0.026230   0.007771  -0.016405   0.000937
   26  O  1 ZZ    0.002102  -0.031132   0.000348  -0.028151  -0.008373
   27  O  1 XY    0.000072  -0.006212   0.007230   0.003809   0.004297
   28  O  1 XZ    0.000024  -0.004256   0.010229   0.009621  -0.008171
   29  O  1 YZ    0.000016  -0.002256  -0.022059   0.003228  -0.003504
   30  O  1 XX    0.001349  -0.059056  -0.000542  -0.039803   0.007298
   31  O  1 YY    0.001102  -0.062869  -0.000133  -0.029266  -0.015053
   32  O  1 ZZ    0.001248  -0.055463  -0.000859  -0.045888  -0.016320
   33  O  1 XY    0.000144   0.001494  -0.007466  -0.020459   0.011036
   34  O  1 XZ    0.000083   0.002696  -0.013198   0.008184   0.001274
   35  O  1 YZ    0.000063  -0.000484   0.014202   0.010292  -0.001986
   36  O  1 XXX   0.001207  -0.000108   0.000178  -0.000405   0.005158
   37  O  1 YYY   0.000763   0.001005   0.006444  -0.001272   0.006281
   38  O  1 ZZZ  -0.002339  -0.000275  -0.000119   0.006205   0.004301
   39  O  1 XXY   0.000290  -0.001279   0.001288   0.001452  -0.003651
   40  O  1 XXZ  -0.001063  -0.000334   0.000900   0.001409  -0.001241
   41  O  1 YYX   0.000554   0.000344  -0.004923  -0.001213   0.004071
   42  O  1 YYZ  -0.001143  -0.002878  -0.001157   0.003913   0.002673
   43  O  1 ZZX   0.000550   0.001031  -0.000594  -0.003315   0.003334
   44  O  1 ZZY   0.000329   0.000385   0.001511  -0.001405   0.001514
   45  O  1 XYZ   0.000052   0.001556  -0.000840  -0.001918  -0.002817
   46  H  2  S    0.000158   0.092731   0.149598  -0.080931   0.002600
   47  H  2  S    0.000976   0.086900   0.251270  -0.143254   0.043282
   48  H  2  S    0.000210  -0.000164   0.015434  -0.120559   0.012399
   49  H  2  S    0.000057  -0.002013   0.014002   0.026295  -0.005100
   50  H  2  X    0.000011   0.001923  -0.000646  -0.004249   0.010594
   51  H  2  Y    0.000001  -0.010787  -0.008534   0.007446   0.004501
   52  H  2  Z   -0.000018   0.006525   0.009266   0.003831   0.005119
   53  H  2  X    0.000059   0.002706  -0.001193  -0.009423   0.020452
   54  H  2  Y   -0.000407  -0.012562  -0.034360   0.030766  -0.002774
   55  H  2  Z    0.000255   0.007505   0.030877  -0.004093   0.010975
   56  H  3  S    0.000154   0.086319  -0.142038  -0.092052   0.002393
   57  H  3  S    0.000790   0.075092  -0.241254  -0.161690   0.040361
   58  H  3  S    0.000218   0.009072  -0.216180  -0.392325  -0.033229
   59  H  3  S    0.000054   0.000547  -0.031653  -0.049856   0.023260
   60  H  3  X    0.000006  -0.006844   0.006657   0.002386   0.010261
   61  H  3  Y    0.000010   0.008347  -0.003894  -0.007136   0.004680
   62  H  3  Z   -0.000016   0.006386  -0.009273   0.005530   0.005462
   63  H  3  X   -0.000232  -0.009696   0.039173   0.033271   0.003419
   64  H  3  Y    0.000268   0.011870  -0.044251  -0.048413   0.014610
   65  H  3  Z    0.000217   0.007269  -0.040349  -0.036057   0.004527

                      6          7          8          9         10
                   -0.2087     0.0155     0.0734     0.1783     0.2359
                     A          A          A          A          A   
    1  O  1  S   -0.001265  -0.018806  -0.002079   0.012633  -0.006150
    2  O  1  S   -0.022230  -0.014188  -0.024473   0.003775  -0.004264
    3  O  1  X    0.029572   0.017613  -0.013241  -0.041676  -0.089275
    4  O  1  Y   -0.018677   0.022758   0.014901   0.006436  -0.041737
    5  O  1  Z   -0.023689   0.046992  -0.058448  -0.044848   0.023523
    6  O  1  S   -0.041881   0.152049  -0.046306  -0.152236   0.059879
    7  O  1  X    0.043699   0.005763  -0.005838  -0.052789  -0.097931
    8  O  1  Y   -0.044100   0.038157   0.020180   0.019773  -0.050309
    9  O  1  Z   -0.044877   0.045334  -0.070521  -0.038581   0.033929
   10  O  1  S    0.734094  -1.059131   0.814704  -0.126008  -0.827544
   11  O  1  X    0.328428  -0.031625   0.163125  -0.482883  -0.687181
   12  O  1  Y   -0.167348  -0.146205  -0.189762   0.495900  -0.156125
   13  O  1  Z   -0.338374   0.768143  -0.560015  -0.173757   0.504411
   14  O  1  S    5.301423  -2.072302   2.951874  -3.113515   0.869641
   15  O  1  X    0.929095  -0.888642   0.624560  -0.461084   1.438945
   16  O  1  Y   -0.896155   0.916275  -0.358227   0.519019   0.059629
   17  O  1  Z   -1.271967  -0.137441  -0.127231   1.905125  -0.685067
   18  O  1 XX   -0.012307   0.010852  -0.012487  -0.010595   0.003786
   19  O  1 YY   -0.011512   0.011119  -0.012693  -0.011113   0.003920
   20  O  1 ZZ   -0.011761   0.010185  -0.012080  -0.010556   0.003771
   21  O  1 XY   -0.002025   0.000844  -0.000505   0.000849  -0.000103
   22  O  1 XZ   -0.001855   0.000294  -0.000288   0.001096   0.000020
   23  O  1 YZ    0.001173  -0.000729   0.000398  -0.000383   0.000000
   24  O  1 XX   -0.042664   0.044267  -0.050985  -0.049911   0.015224
   25  O  1 YY   -0.051053   0.040928  -0.047526  -0.038629   0.013648
   26  O  1 ZZ   -0.045874   0.042529  -0.047095  -0.043320   0.016438
   27  O  1 XY    0.014143  -0.005769   0.005275  -0.013281   0.003079
   28  O  1 XZ    0.010614  -0.003804   0.003609  -0.010680   0.007207
   29  O  1 YZ   -0.006279   0.006929  -0.007588   0.004653  -0.000187
   30  O  1 XX   -0.204887   0.192801  -0.192853  -0.242907   0.066947
   31  O  1 YY   -0.145502   0.056767  -0.151325  -0.191403  -0.028201
   32  O  1 ZZ   -0.164427   0.111928  -0.163698  -0.217275   0.016975
   33  O  1 XY   -0.131690   0.105918  -0.095737   0.073811   0.078887
   34  O  1 XZ   -0.121979   0.045136  -0.070239   0.105678   0.061138
   35  O  1 YZ    0.054769   0.045952   0.043113  -0.125549  -0.007803
   36  O  1 XXX  -0.001113  -0.004607   0.002722   0.006742   0.011954
   37  O  1 YYY  -0.000651  -0.001841   0.003642   0.000966   0.001002
   38  O  1 ZZZ  -0.001520  -0.006218   0.003790   0.005001  -0.000573
   39  O  1 XXY  -0.000897  -0.000493   0.000563  -0.001094   0.005382
   40  O  1 XXZ   0.000453  -0.004886   0.003041   0.002170   0.001264
   41  O  1 YYX  -0.001741   0.000291  -0.000248   0.003011   0.002812
   42  O  1 YYZ   0.000086  -0.000793  -0.000757  -0.002585   0.003226
   43  O  1 ZZX  -0.001037  -0.001477   0.001231   0.004207   0.002767
   44  O  1 ZZY   0.002042  -0.003335   0.003249  -0.000599   0.001354
   45  O  1 XYZ  -0.001946   0.000001   0.000744   0.004059  -0.002139
   46  H  2  S   -0.008033  -0.016966   0.012856   0.009617  -0.006874
   47  H  2  S   -0.094098   0.601159  -0.178431  -0.318999   0.360411
   48  H  2  S   -1.210225   0.005286  -0.014262   0.918357  -0.007330
   49  H  2  S    0.866995  -1.004396  -2.219930   0.664345   0.108151
   50  H  2  X    0.004409  -0.004017   0.002686  -0.000995   0.002789
   51  H  2  Y   -0.002419   0.000099   0.000770   0.001440   0.003788
   52  H  2  Z   -0.008289  -0.001043  -0.000446   0.006345  -0.003924
   53  H  2  X   -0.034504   0.048965  -0.016373  -0.005518   0.037722
   54  H  2  Y    0.068162  -0.235281   0.036592   0.112238  -0.142841
   55  H  2  Z    0.009051   0.136752  -0.008477  -0.092762   0.069335
   56  H  3  S   -0.035279   0.019530  -0.029917   0.052791  -0.023223
   57  H  3  S   -0.167511   0.176254  -0.322384   0.247860   0.559128
   58  H  3  S   -4.267706   2.959361  -2.839922   4.599875  -0.996294
   59  H  3  S   -1.771880  -0.178910   1.571553  -1.760609  -0.273571
   60  H  3  X   -0.017539   0.006922  -0.007390   0.017859   0.005103
   61  H  3  Y    0.026765  -0.011397   0.012886  -0.022874   0.000226
   62  H  3  Z    0.021786  -0.019019   0.014233  -0.013079  -0.002210
   63  H  3  X    0.182170  -0.142665   0.152437  -0.161889  -0.127804
   64  H  3  Y   -0.271511   0.208695  -0.208949   0.211922   0.146668
   65  H  3  Z   -0.209535   0.184427  -0.181316   0.156528   0.109565

                     11         12         13         14         15
                    0.2456     0.2746     0.2942     0.6429     0.6963
                     A          A          A          A          A   
    1  O  1  S    0.035616   0.021325  -0.001137  -0.015610  -0.029481
    2  O  1  S    0.039650   0.009482  -0.008937  -0.036189  -0.069791
    3  O  1  X    0.003492  -0.015507  -0.030706   0.080413   0.005607
    4  O  1  Y   -0.023441   0.018056   0.107369  -0.118938   0.081142
    5  O  1  Z    0.065986   0.005995   0.005310  -0.058211  -0.082996
    6  O  1  S   -0.316438  -0.228735  -0.011761   0.037778   0.073068
    7  O  1  X   -0.005183  -0.030268  -0.046937   0.106192   0.008772
    8  O  1  Y   -0.047304   0.032359   0.152282  -0.158150   0.104849
    9  O  1  Z    0.101318   0.007794   0.002828  -0.082415  -0.107958
   10  O  1  S   -1.116688  -0.359071   0.061164  -0.835374  -1.240260
   11  O  1  X   -0.099743   0.105348  -0.703561  -0.185334  -0.316547
   12  O  1  Y   -0.097219  -0.331838   1.692259  -0.052014  -0.040718
   13  O  1  Z    0.612924   0.121779   0.070568   0.437565   0.711815
   14  O  1  S    0.561006   7.650736   1.725128  -0.108471  -2.903187
   15  O  1  X    0.250742  -0.036172   0.804115  -0.456989  -0.039081
   16  O  1  Y   -1.248016   2.162134  -1.618295   0.825677  -0.935985
   17  O  1  Z   -0.014945  -1.954807  -0.646342   0.135213   0.925845
   18  O  1 XX   -0.012942  -0.016503  -0.004271  -0.005631  -0.007913
   19  O  1 YY   -0.012938  -0.016197  -0.004202  -0.006333  -0.016178
   20  O  1 ZZ   -0.012875  -0.015709  -0.003923  -0.003860  -0.008212
   21  O  1 XY   -0.000260  -0.000230   0.000234   0.004252   0.003221
   22  O  1 XZ    0.000248  -0.000126   0.000316   0.003795  -0.000420
   23  O  1 YZ    0.000120   0.000032  -0.000562  -0.005557   0.003594
   24  O  1 XX   -0.058489  -0.055127  -0.016023  -0.023159  -0.037996
   25  O  1 YY   -0.048570  -0.077863  -0.015730  -0.025520  -0.059247
   26  O  1 ZZ   -0.059314  -0.067064  -0.017032  -0.016508  -0.034170
   27  O  1 XY    0.000406   0.006629   0.005207   0.009722   0.008646
   28  O  1 XZ    0.002474   0.000268   0.003227   0.002816  -0.005862
   29  O  1 YZ   -0.008599   0.014238  -0.005455  -0.012312   0.006400
   30  O  1 XX   -0.306049  -0.326959  -0.171902  -0.140853  -0.133904
   31  O  1 YY   -0.398497  -0.386887   0.032644  -0.250026  -0.542382
   32  O  1 ZZ   -0.348785  -0.323587  -0.064851  -0.155584  -0.282868
   33  O  1 XY    0.051701  -0.023859   0.104180   0.226719   0.209145
   34  O  1 XZ    0.051128  -0.042555   0.158023   0.222046   0.103479
   35  O  1 YZ    0.019730   0.085378  -0.330893  -0.182707   0.159607
   36  O  1 XXX  -0.001099  -0.001672   0.005161   0.000859   0.002864
   37  O  1 YYY   0.000410  -0.000696  -0.004607  -0.008268   0.004949
   38  O  1 ZZZ  -0.002810  -0.001029  -0.001695  -0.003352  -0.003550
   39  O  1 XXY  -0.001131   0.001589  -0.003975  -0.001296   0.000213
   40  O  1 XXZ  -0.001243  -0.001760   0.001232  -0.002648  -0.000865
   41  O  1 YYX  -0.001040   0.000911  -0.004627   0.006552  -0.002544
   42  O  1 YYZ  -0.003576   0.003065  -0.002200  -0.000287  -0.004810
   43  O  1 ZZX  -0.002103   0.000141   0.000290   0.001025  -0.000049
   44  O  1 ZZY   0.000843  -0.001803  -0.002659  -0.002628   0.001141
   45  O  1 XYZ  -0.000557   0.000543  -0.002660   0.001396   0.000253
   46  H  2  S    0.049041  -0.063101  -0.002187   0.033942  -0.162673
   47  H  2  S    0.395044   0.580093  -0.987627   0.745953  -0.339366
   48  H  2  S    3.035630  -5.603192  -1.415177  -1.498532   4.541424
   49  H  2  S   -1.081976  -0.788662   2.039939   0.367811  -0.649760
   50  H  2  X   -0.003561   0.001365   0.004210   0.001581  -0.007886
   51  H  2  Y    0.024507  -0.003815  -0.020258  -0.007915   0.034816
   52  H  2  Z   -0.017023   0.001514   0.010133   0.006249  -0.014051
   53  H  2  X    0.036228  -0.002454  -0.032231   0.101838   0.208604
   54  H  2  Y   -0.175959  -0.071005   0.323067  -0.059907  -0.795245
   55  H  2  Z    0.092166   0.062760  -0.239542  -0.175445   0.291120
   56  H  3  S   -0.000333   0.013283  -0.019116  -0.155948  -0.053005
   57  H  3  S    0.485362  -0.075427   1.033150  -0.383703   0.555539
   58  H  3  S   -0.425913  -1.272074  -0.514072   2.839323   1.057220
   59  H  3  S   -0.396308   0.074882  -2.010472  -0.772785  -0.044994
   60  H  3  X    0.007086   0.004678   0.010367   0.018675   0.006854
   61  H  3  Y   -0.012268   0.001629  -0.015090  -0.026884  -0.010028
   62  H  3  Z   -0.005622  -0.009670  -0.010738  -0.018645  -0.003919
   63  H  3  X   -0.089798   0.035235  -0.228632  -0.397763  -0.226243
   64  H  3  Y    0.113842  -0.048923   0.263506   0.516516   0.448718
   65  H  3  Z    0.076281  -0.042821   0.238818   0.398213   0.043337

                     16         17         18         19         20
                    0.7988     0.8145     0.8586     1.0166     1.0435
                     A          A          A          A          A   
    1  O  1  S   -0.012152  -0.000518  -0.001182  -0.038268  -0.015231
    2  O  1  S   -0.036838  -0.003913  -0.015170  -0.236555  -0.071342
    3  O  1  X    0.027759  -0.009246  -0.040837   0.022554  -0.019647
    4  O  1  Y    0.010014  -0.011413  -0.020033  -0.049058   0.110779
    5  O  1  Z   -0.078228  -0.000745   0.001047   0.115325  -0.085037
    6  O  1  S   -0.014666  -0.009015  -0.040613  -0.412865  -0.122186
    7  O  1  X    0.047201  -0.020298  -0.076556   0.054071  -0.036013
    8  O  1  Y    0.014054  -0.019265  -0.037694  -0.081620   0.205577
    9  O  1  Z   -0.129656   0.000246   0.005590   0.249716  -0.176196
   10  O  1  S    0.019504   0.201823   0.900492   5.885023  -2.980979
   11  O  1  X    0.068108  -0.138401  -0.213508  -0.221288   0.922972
   12  O  1  Y    0.158962   0.132110   0.052760   2.029542  -4.286325
   13  O  1  Z   -0.396597  -0.123125  -0.499252  -1.730242   2.167379
   14  O  1  S    0.555986   0.013940   0.322442   3.933711   3.001182
   15  O  1  X    0.129338  -0.029768  -0.062962   0.312295  -0.101927
   16  O  1  Y   -0.109329  -0.033725  -0.075282  -0.238145   1.206232
   17  O  1  Z   -0.167262   0.023670   0.001720  -0.229067  -0.952069
   18  O  1 XX   -0.004746  -0.007419   0.000871  -0.099137  -0.032050
   19  O  1 YY   -0.004960   0.005456  -0.008286  -0.098823  -0.021515
   20  O  1 ZZ   -0.017824  -0.003327  -0.015675  -0.099094  -0.024154
   21  O  1 XY    0.000412   0.008070   0.002065  -0.000700  -0.004954
[...]
   59  H  3  S   -0.000536   0.016910  -0.144224   0.114691  -0.020274
   60  H  3  X   -0.359731  -0.146942   0.285228  -0.534640  -0.480372
   61  H  3  Y   -0.161925  -0.206676  -0.299462   0.695838   0.513383
   62  H  3  Z   -0.181689   0.483533  -0.307632   0.450823   0.510279
   63  H  3  X    0.050294  -0.029387   0.093362   0.168721   0.222570
   64  H  3  Y    0.018133   0.156447  -0.106234  -0.236188  -0.265488
   65  H  3  Z    0.024065  -0.083604  -0.094199  -0.127982  -0.211459

                     56         57         58         59         60
                   15.0051    15.0387    15.0751    15.4550    15.7970
                     A          A          A          A          A   
    1  O  1  S   -0.000002  -0.000005  -0.004373   0.033625   0.002888
    2  O  1  S    0.000560  -0.000101   0.013529  -0.109468  -0.008921
    3  O  1  X    0.029840  -0.001089  -0.001738  -0.075365   0.191940
    4  O  1  Y    0.013756  -0.001724  -0.000134  -0.031173  -0.440686
    5  O  1  Z    0.014589  -0.000688   0.003943   0.182467   0.018492
    6  O  1  S   -0.003911   0.000986  -0.030271   0.154880   0.029837
    7  O  1  X   -0.110676   0.004737   0.012634   0.231123  -0.632594
    8  O  1  Y   -0.050940   0.004675   0.002743   0.102405   1.458475
    9  O  1  Z   -0.055512   0.002493  -0.027224  -0.567277  -0.066812
   10  O  1  S    0.011241   0.001113   0.412255   1.055517   0.036544
   11  O  1  X   -0.061990   0.005694   0.156220   0.006141   0.250419
   12  O  1  Y   -0.027230   0.000193   0.073793   0.026814  -0.553879
   13  O  1  Z   -0.037324  -0.000031  -0.390317  -0.037894   0.003728
   14  O  1  S    0.000773   0.002095   0.178043  -0.262087  -0.011356
   15  O  1  X   -0.010364   0.000759   0.022128  -0.040111   0.025254
   16  O  1  Y   -0.004749   0.000099   0.010035  -0.017738  -0.058813
   17  O  1  Z   -0.005213  -0.000349  -0.054893   0.099756   0.003066
   18  O  1 XX   -0.634139  -0.663569  -0.361445   0.362834   0.316692
   19  O  1 YY   -0.105150   0.686864  -0.452214  -0.844200  -0.346726
   20  O  1 ZZ    0.740421  -0.023481   0.860100   0.117535  -0.000518
   21  O  1 XY   -0.287463   0.701255   0.049631   0.826094  -0.282691
   22  O  1 XZ    0.690086  -0.224607  -0.704337   0.341571  -0.434077
   23  O  1 YZ    0.333791   0.406626  -0.325439   0.113985   0.982937
   24  O  1 XX    0.349946   0.371511   0.236437  -0.514433  -0.279176
   25  O  1 YY    0.059659  -0.385072   0.286755   0.337729   0.266257
   26  O  1 ZZ   -0.406212   0.012980  -0.463276  -0.337148  -0.018638
   27  O  1 XY    0.157832  -0.392937  -0.027691  -0.580882   0.228822
   28  O  1 XZ   -0.379677   0.126224   0.403138  -0.241861   0.353946
   29  O  1 YZ   -0.183505  -0.228253   0.186641  -0.084625  -0.804584
   30  O  1 XX   -0.130977  -0.150333  -0.055171  -0.258286   0.084489
   31  O  1 YY   -0.021542   0.155647  -0.093258  -0.490281  -0.116571
   32  O  1 ZZ    0.151720  -0.003853   0.331242  -0.226931  -0.010820
   33  O  1 XY   -0.058399   0.158821   0.023622   0.163656  -0.091765
   34  O  1 XZ    0.139320  -0.050863  -0.218762   0.025348  -0.138135
   35  O  1 YZ    0.067590   0.092603  -0.101984  -0.004533   0.305090
   36  O  1 XXX   0.064218   0.007135  -0.012612  -0.100058   0.331436
   37  O  1 YYY   0.038107  -0.007974  -0.009044   0.039443  -0.597965
   38  O  1 ZZZ   0.034527  -0.001754   0.022970   0.282601   0.033444
   39  O  1 XXY   0.003655  -0.005362   0.005346  -0.109150  -0.308972
   40  O  1 XXZ   0.010578  -0.009034   0.013008   0.093507   0.095138
   41  O  1 YYX   0.032795  -0.010217  -0.009259  -0.007913   0.038845
   42  O  1 YYZ   0.016904   0.008096   0.027841  -0.089607  -0.081953
   43  O  1 ZZX   0.028980  -0.006990  -0.005542  -0.016324   0.074858
   44  O  1 ZZY   0.013133   0.011276  -0.002914  -0.010684  -0.174708
   45  O  1 XYZ  -0.004236   0.009682  -0.009253   0.125584  -0.074598
   46  H  2  S   -0.000223  -0.000322   0.044245  -0.248245  -0.333758
   47  H  2  S   -0.007144   0.000145  -0.370550  -0.004225   0.562643
   48  H  2  S   -0.000413  -0.000580  -0.113670   0.226942   0.191009
   49  H  2  S    0.000009  -0.000131   0.002810  -0.018739  -0.040623
   50  H  2  X   -0.051445   0.076295   0.050192   0.002277  -0.061890
   51  H  2  Y   -0.023701   0.034754  -0.061278   0.197120   0.311754
   52  H  2  Z   -0.026279   0.036158  -0.045939  -0.189954  -0.166059
   53  H  2  X    0.073999  -0.098811  -0.124069  -0.048803   0.039626
   54  H  2  Y    0.037372  -0.044248   0.186377   0.010971  -0.206682
   55  H  2  Z    0.037223  -0.046389   0.080519   0.089916   0.113412
   56  H  3  S   -0.000543   0.000883   0.043583  -0.250012   0.292406
   57  H  3  S   -0.005242  -0.003321  -0.361958   0.043820  -0.548065
   58  H  3  S   -0.000531  -0.001946  -0.112204   0.231353  -0.170582
   59  H  3  S    0.000019   0.000149   0.002777  -0.021435   0.038938
   60  H  3  X   -0.055340  -0.068889  -0.013403   0.157187  -0.177814
   61  H  3  Y   -0.025185  -0.030189   0.077145  -0.138323   0.231750
   62  H  3  Z   -0.028217  -0.032952  -0.041807  -0.194317   0.149742
   63  H  3  X    0.082818   0.089868   0.058147  -0.034585   0.128306
   64  H  3  Y    0.034594   0.039051  -0.213452  -0.028985  -0.165104
   65  H  3  Z    0.040699   0.043220   0.076267   0.097895  -0.110179

                     61         62         63         64         65
                   17.1997    17.3409    17.4789    19.3331    62.9091
                     A          A          A          A          A   
    1  O  1  S    0.002681   0.045600  -0.004159   0.802433  -2.208902
    2  O  1  S   -0.010278  -0.177597   0.016101  -3.679738   1.613260
    3  O  1  X   -2.860460   1.392555   1.383519  -0.083845  -0.001336
    4  O  1  Y   -1.295298   0.484633  -3.189881  -0.051011  -0.000670
    5  O  1  Z   -1.464206  -3.149836   0.119074   0.238391   0.003103
    6  O  1  S    0.050250   0.878694  -0.077316  16.668566   5.263507
    7  O  1  X   10.577476  -5.157992  -5.139637   0.325253   0.006041
    8  O  1  Y    4.789667  -1.794061  11.848114   0.195702   0.002895
    9  O  1  Z    5.414339  11.666172  -0.440748  -0.919307  -0.014066
   10  O  1  S   -0.031343  -1.427062   0.112384   6.540084   0.264846
   11  O  1  X   -0.633297   0.038469  -0.156565   0.076092   0.007794
   12  O  1  Y   -0.292271   0.004347   0.356889   0.047494   0.003600
   13  O  1  Z   -0.305252  -0.042189  -0.018116  -0.197469  -0.019566
   14  O  1  S   -0.000752  -0.134856  -0.000930   0.954736   0.042339
   15  O  1  X    0.150235  -0.072708  -0.081863   0.040891   0.000777
   16  O  1  Y    0.068647  -0.019257   0.184363   0.019241   0.000187
   17  O  1  Z    0.075868   0.158312  -0.002679  -0.104450  -0.001782
   18  O  1 XX   -0.016364  -0.152787  -0.034889  -3.425269  -1.199949
   19  O  1 YY   -0.012453  -0.224313   0.069585  -3.342156  -1.198239
   20  O  1 ZZ   -0.001451  -0.166341   0.014856  -3.396756  -1.199290
   21  O  1 XY   -0.003011   0.048738   0.042526  -0.052191  -0.001143
   22  O  1 XZ    0.008062   0.019292   0.066949  -0.025636  -0.000621
   23  O  1 YZ    0.004150   0.006661  -0.152986  -0.016629  -0.000275
   24  O  1 XX   -0.011386  -0.306252   0.093624  -6.398821  -1.555583
   25  O  1 YY   -0.014034  -0.211973  -0.049610  -6.541197  -1.560516
   26  O  1 ZZ   -0.023863  -0.281934   0.025440  -6.448537  -1.557475
   27  O  1 XY    0.002215  -0.063499  -0.056611   0.088169   0.003267
   28  O  1 XZ   -0.007084  -0.028691  -0.090033   0.043421   0.001806
   29  O  1 YZ   -0.003895  -0.011496   0.207605   0.030209   0.000837
   30  O  1 XX   -0.006665   0.020199  -0.111667  -1.795263  -0.082353
   31  O  1 YY   -0.007565  -0.191283   0.126233  -1.708848  -0.076994
   32  O  1 ZZ    0.004485  -0.071534   0.003756  -1.754820  -0.078756
   33  O  1 XY    0.000045   0.146431   0.100887  -0.055395  -0.003597
   34  O  1 XZ    0.008783   0.090121   0.155124  -0.034055  -0.002900
   35  O  1 YZ    0.005786   0.030998  -0.353518  -0.018978  -0.001258
   36  O  1 XXX  -5.708072   2.778483   2.758927  -0.179170  -0.003303
   37  O  1 YYY  -2.581105   0.986199  -6.419096  -0.149906  -0.003435
   38  O  1 ZZZ  -2.919834  -6.266515   0.236219   0.487400   0.006699
   39  O  1 XXY  -1.159902   0.410860  -2.854571  -0.006741   0.001346
   40  O  1 XXZ  -1.308288  -2.811982   0.074330   0.230885   0.003726
   41  O  1 YYX  -2.551127   1.250731   1.271357  -0.094574  -0.002292
   42  O  1 YYZ  -1.306191  -2.857108   0.146406   0.321270   0.007952
   43  O  1 ZZX  -2.552603   1.244463   1.263248  -0.091632  -0.002045
   44  O  1 ZZY  -1.155753   0.432394  -2.911236  -0.056886  -0.000933
   45  O  1 XYZ  -0.001644   0.030273   0.028230  -0.056410  -0.002818
   46  H  2  S   -0.001791  -0.070312   0.130430   0.096042   0.008101
   47  H  2  S    0.027393   0.880320  -1.188250  -0.360040  -0.032379
   48  H  2  S    0.002773   0.152180  -0.177013  -0.235579  -0.002731
   49  H  2  S   -0.000348  -0.015768  -0.058556  -0.085228  -0.005441
   50  H  2  X   -0.014104  -0.004429   0.035528   0.020001   0.000722
   51  H  2  Y   -0.004010   0.095915  -0.193890  -0.158940  -0.005775
   52  H  2  Z   -0.008594  -0.080348   0.109115   0.108374   0.003945
   53  H  2  X    0.018177   0.056301  -0.068596  -0.035203  -0.002482
   54  H  2  Y   -0.003233  -0.368770   0.481144   0.228244   0.013008
   55  H  2  Z    0.014674   0.230017  -0.311281  -0.142157  -0.007116
   56  H  3  S   -0.000910  -0.066192  -0.105362   0.078430   0.007677
   57  H  3  S    0.017759   0.903471   1.038233  -0.324400  -0.031533
   58  H  3  S    0.002732   0.169791   0.168388  -0.234068  -0.003721
   59  H  3  S   -0.000788  -0.006686   0.060228  -0.081918  -0.005062
   60  H  3  X   -0.013471   0.073322   0.109645  -0.099114  -0.004078
   61  H  3  Y   -0.007522  -0.070683  -0.139543   0.109669   0.004542
   62  H  3  Z   -0.008371  -0.084304  -0.095640   0.101919   0.004158
   63  H  3  X    0.012505  -0.255028  -0.285307   0.141667   0.008381
   64  H  3  Y    0.013814   0.298020   0.327301  -0.166943  -0.010576
   65  H  3  Z    0.013006   0.246063   0.282432  -0.136277  -0.007381
 ...... END OF RHF CALCULATION ......
 STEP CPU TIME =     0.01 TOTAL CPU TIME =        2.8 (    0.0 MIN)
 TOTAL WALL CLOCK TIME=        2.8 SECONDS, CPU UTILIZATION IS  99.28%

     ----------------------------------------------------------------
     PROPERTY VALUES FOR THE RHF   SELF-CONSISTENT FIELD WAVEFUNCTION
     ----------------------------------------------------------------

          -----------------
          ENERGY COMPONENTS
          -----------------

         WAVEFUNCTION NORMALIZATION =       1.0000000000

                ONE ELECTRON ENERGY =    -123.1454803767
                TWO ELECTRON ENERGY =      37.7848193593
           NUCLEAR REPULSION ENERGY =       9.2743641990
          EFFECTIVE FRAGMENT ENERGY =      -0.0096823249
                                      ------------------
                       TOTAL ENERGY =     -76.0959791432

 ELECTRON-ELECTRON POTENTIAL ENERGY =      37.7848193593
  NUCLEUS-ELECTRON POTENTIAL ENERGY =    -199.0373060268
   NUCLEUS-NUCLEUS POTENTIAL ENERGY =       9.2743641990
 ELECTRON-FRAGMENT MULTIPOLE ENERGY =      -0.0554929349
 ELECTRON-FRAGMENT REMAINDER ENERGY =       0.0000000000
        STATIC INTERFRAGMENT ENERGY =      -0.0071707788
            FRAGMENT-NUCLEAR ENERGY =       0.0091705312
    TOTAL FRAGMENT INDUCTION ENERGY =       0.0000000000
 ELECTRON-FRAGMENT DISPERSION ENERGY =     -0.0058331653
 ELECTRON-FRAGMENT EXCHANGE REPULSION =      0.0240668746
                                      ------------------
             TOTAL POTENTIAL ENERGY =    -152.0432977282
                                      ------------------
            SOLUTE POTENTIAL ENERGY =    -152.0336154033
              SOLUTE KINETIC ENERGY =      75.9473185851
                 VIRIAL RATIO (V/T) =       2.0018299294

          ---------------------------------------
          MULLIKEN AND LOWDIN POPULATION ANALYSES
          ---------------------------------------

     ATOMIC MULLIKEN POPULATION IN EACH MOLECULAR ORBITAL

                      1          2          3          4          5

                  2.000000   2.000000   2.000000   2.000000   2.000000

    1             1.999396   1.606617   1.106584   1.655141   1.958161
    2             0.000329   0.202835   0.410818   0.130858   0.026223
    3             0.000276   0.190547   0.482598   0.214000   0.015616

               ----- POPULATIONS IN EACH AO -----
                             MULLIKEN      LOWDIN
              1  O  1  S      1.08316     1.01557
              2  O  1  S      0.91401     0.90295
              3  O  1  X      0.34843     0.33695
              4  O  1  Y      0.28240     0.26702
              5  O  1  Z      0.31473     0.30120
              6  O  1  S      0.98633     0.32385
              7  O  1  X      0.74528     0.40635
              8  O  1  Y      0.63613     0.35190
              9  O  1  Z      0.68759     0.38121
             10  O  1  S      1.09000     0.26749
             11  O  1  X      0.54997     0.40363
             12  O  1  Y      0.32410     0.35010
             13  O  1  Z      0.50735     0.40900
             14  O  1  S      0.11443     0.07491
             15  O  1  X      0.04193     0.11401
             16  O  1  Y     -0.00347     0.07791
             17  O  1  Z      0.00416     0.13432
             18  O  1 XX     -0.00814     0.07406
             19  O  1 YY     -0.00805     0.07531
             20  O  1 ZZ     -0.00813     0.07409
             21  O  1 XY      0.00002     0.00004
             22  O  1 XZ      0.00004     0.00008
             23  O  1 YZ      0.00013     0.00017
             24  O  1 XX     -0.05095     0.17605
             25  O  1 YY     -0.04052     0.18547
             26  O  1 ZZ     -0.04922     0.17826
             27  O  1 XY      0.00126     0.00125
             28  O  1 XZ      0.00222     0.00199
             29  O  1 YZ      0.00551     0.00640
             30  O  1 XX     -0.06159     0.04175
             31  O  1 YY     -0.06709     0.05010
             32  O  1 ZZ     -0.05841     0.04857
             33  O  1 XY     -0.00312     0.00600
             34  O  1 XZ     -0.00137     0.00551
             35  O  1 YZ     -0.00510     0.01779
             36  O  1 XXX     0.00683     0.23321
             37  O  1 YYY     0.01291     0.21233
             38  O  1 ZZZ     0.01096     0.22004
             39  O  1 XXY    -0.00047     0.09164
             40  O  1 XXZ     0.00099     0.10123
             41  O  1 YYX     0.00690     0.11222
             42  O  1 YYZ     0.00611     0.11497
             43  O  1 ZZX     0.00493     0.11023
             44  O  1 ZZY     0.00246     0.10325
             45  O  1 XYZ     0.00024     0.00077
             46  H  2  S      0.26206     0.22551
             47  H  2  S      0.41906     0.25855
             48  H  2  S      0.02470     0.07007
             49  H  2  S     -0.00034     0.01212
             50  H  2  X      0.00455     0.00752
             51  H  2  Y      0.00903     0.01448
             52  H  2  Z      0.00592     0.01124
             53  H  2  X      0.02145     0.07690
             54  H  2  Y      0.00920     0.07457
             55  H  2  Z      0.01543     0.07982
             56  H  3  S      0.24969     0.20485
             57  H  3  S      0.40924     0.24805
             58  H  3  S      0.19302     0.08566
             59  H  3  S      0.00857     0.01484
             60  H  3  X      0.00679     0.01172
             61  H  3  Y      0.00604     0.01108
             62  H  3  Z      0.00608     0.01007
             63  H  3  X      0.00707     0.08280
             64  H  3  Y      0.01847     0.06083
             65  H  3  Z     -0.00194     0.07815

          ----- MULLIKEN ATOMIC OVERLAP POPULATIONS -----
          (OFF-DIAGONAL ELEMENTS NEED TO BE MULTIPLIED BY 2)

             1           2           3

    1    8.7024179
    2    0.1922471   0.5421503
    3   -0.5687653   0.0366657   1.4351367

          TOTAL MULLIKEN AND LOWDIN ATOMIC POPULATIONS
       ATOM         MULL.POP.    CHARGE          LOW.POP.     CHARGE
    1 O             8.325900   -0.325900         8.361163   -0.361163
    2 H             0.771063    0.228937         0.830772    0.169228
    3 H             0.903037    0.096963         0.808065    0.191935

          -------------------------------
          BOND ORDER AND VALENCE ANALYSIS     BOND ORDER THRESHOLD=0.050
          -------------------------------

                   BOND                       BOND                       BOND
  ATOM PAIR DIST  ORDER      ATOM PAIR DIST  ORDER      ATOM PAIR DIST  ORDER
    1   2  0.943  0.954        1   3  0.954  0.871

                       TOTAL       BONDED        FREE
      ATOM            VALENCE     VALENCE     VALENCE
    1 O                 1.825       1.825      -0.000
    2 H                 0.968       0.968       0.000
    3 H                 0.885       0.885       0.000

          ----------------------------
          SOLUTE ELECTROSTATIC MOMENTS
          ----------------------------

 POINT   1           X           Y           Z (BOHR)    CHARGE
                -3.695513    1.532202   -2.394303       -0.00 (A.U.)
         DX          DY          DZ         /D/  (DEBYE)
     0.616943    0.277303   -2.303214    2.400481

          ----------------------------------------
          EFFECTIVE FRAGMENT ELECTROSTATIC MOMENTS
          ----------------------------------------

 FRAGMENT   1  H2O   
          X           Y           Z (BOHR)    CHARGE
     2.620128   -1.910884    0.212173        0.00 (A.U.)
         DX          DY          DZ         /D/  (DEBYE)
     0.464792    1.431920    1.274261    1.972351

 FRAGMENT   2  H2O   
          X           Y           Z (BOHR)    CHARGE
    -1.403715    0.933724    2.485011        0.00 (A.U.)
         DX          DY          DZ         /D/  (DEBYE)
    -1.968131   -0.036358   -0.123719    1.972351

 FRAGMENT   3  H2O   
          X           Y           Z (BOHR)    CHARGE
    -0.131677   -1.997798   -4.462536        0.00 (A.U.)
         DX          DY          DZ         /D/  (DEBYE)
     0.801332   -1.677350    0.659192    1.972351


          ----------------------------
          SYSTEM ELECTROSTATIC MOMENTS
          ----------------------------

 POINT   1           X           Y           Z (BOHR)    CHARGE
                -3.695513    1.532202   -2.394303        0.00 (A.U.)
         DX          DY          DZ         /D/  (DEBYE)
    -0.154360    0.266757    0.090375    0.321176
 ...... END OF PROPERTY EVALUATION ......
 STEP CPU TIME =     0.00 TOTAL CPU TIME =        2.8 (    0.0 MIN)
 TOTAL WALL CLOCK TIME=        2.8 SECONDS, CPU UTILIZATION IS  99.28%
               580000  WORDS OF DYNAMIC MEMORY USED
 EXECUTION OF GAMESS TERMINATED NORMALLY Wed Aug  9 22:08:59 2017
 DDI: 263640 bytes (0.3 MB / 0 MWords) used by master data server.

 ----------------------------------------
 CPU timing information for all processes
 ========================================
 0: 2.481 + 0.294 = 2.776
 ----------------------------------------
 ddikick.x: exited gracefully.
unset echo
----- accounting info -----
Files used on the master node compute-1-7.local were:
-rw-rw-r-- 1 sarom sarom  29K Aug  9 22:08 /scratch/4h2o-4.F05
-rw-rw-r-- 1 sarom sarom  22M Aug  9 22:08 /scratch/4h2o-4.F08
-rw-rw-r-- 1 sarom sarom 1.9M Aug  9 22:09 /scratch/4h2o-4.F10
-rw-rw-r-- 1 sarom sarom 604K Aug  9 22:08 /scratch/4h2o-4.F25
-rw-rw-r-- 1 sarom sarom 207M Aug  9 22:08 /scratch/4h2o-4.F39
rm: cannot remove `/scratch/tmp': Is a directory
ls: No match.
ls: No match.
ls: No match.
Wed Aug  9 22:09:02 CDT 2017
0.237u 0.172s 0:06.25 6.4%	0+0k 64+416io 0pf+0w
/opt/gridengine/default/spool/compute-1-7/active_jobs/36162.1/pe_hostfile compute-1-7.local
