-catch_rsh /opt/gridengine/default/spool/compute-0-7/active_jobs/36163.1/pe_hostfile
compute-0-7
The primary node assigned by SGE to this run is compute-0-7
Warning: no access to tty (Bad file descriptor).
Thus no job control in this shell.
source /home/sarom/dir.git.branch.saromleang-travis-ci/install.info
setenv GMS_PATH /home/sarom/dir.git.branch.saromleang-travis-ci
setenv GMS_BUILD_DIR /home/sarom/dir.git.branch.saromleang-travis-ci
setenv GMS_TARGET linux64
setenv GMS_FORTRAN gfortran
setenv GMS_GFORTRAN_VERNO 4.4
setenv GMS_MATHLIB mkl-so
setenv GMS_MATHLIB none
setenv GMS_MATHLIB_PATH /share/apps/intel/compilers_and_libraries_2017.1.132/linux/mkl/lib/intel64
setenv GMS_MKL_VERNO 12
setenv GMS_DDI_COMM sockets
setenv GMS_LIBCCHEM false
setenv GMS_EIGEN_PATH
setenv GMS_PHI false
setenv GMS_SHMTYPE sysv
setenv GMS_OPENMP false
unset echo
h2o_acetone_efpqm
/home/sarom/dir.git.branch.saromleang-travis-ci/tests/exrep
----- GAMESS execution script 'rungms' -----
This job is running on host compute-0-7.local
under operating system Linux at Wed Aug 9 22:08:56 CDT 2017
Available scratch disk space (Kbyte units) at beginning of the job is
Filesystem           1K-blocks      Used Available Use% Mounted on
/dev/sda1             16126920   3962060  11345660  26% /
GAMESS temporary binary files will be written to /scratch
GAMESS supplementary output files will be written to /home/sarom/restart
Copying input file h2o_acetone_efpqm.inp to your run's scratch directory...
cp /home/sarom/dir.git.branch.saromleang-travis-ci/tests/exrep/h2o_acetone_efpqm.inp /scratch/h2o_acetone_efpqm.F05
unset echo
The generated host list is
compute-0-7.local
/home/sarom/dir.git.branch.saromleang-travis-ci/ddikick.x /home/sarom/dir.git.branch.saromleang-travis-ci/gamess.00.x h2o_acetone_efpqm -ddi 1 1 compute-0-7.local -scr /scratch

 Distributed Data Interface kickoff program.
 Initiating 1 compute processes on 1 nodes to run the following command:
 /home/sarom/dir.git.branch.saromleang-travis-ci/gamess.00.x h2o_acetone_efpqm 

          ******************************************************
          *         GAMESS VERSION = 20 APR 2017 (R1)          *
          *             FROM IOWA STATE UNIVERSITY             *
          * M.W.SCHMIDT, K.K.BALDRIDGE, J.A.BOATZ, S.T.ELBERT, *
          *   M.S.GORDON, J.H.JENSEN, S.KOSEKI, N.MATSUNAGA,   *
          *          K.A.NGUYEN, S.J.SU, T.L.WINDUS,           *
          *       TOGETHER WITH M.DUPUIS, J.A.MONTGOMERY       *
          *         J.COMPUT.CHEM.  14, 1347-1363(1993)        *
          **************** 64 BIT LINUX VERSION ****************

  SINCE 1993, STUDENTS AND POSTDOCS WORKING AT IOWA STATE UNIVERSITY
  AND ALSO IN THEIR VARIOUS JOBS AFTER LEAVING ISU HAVE MADE IMPORTANT
  CONTRIBUTIONS TO THE CODE:
     IVANA ADAMOVIC, CHRISTINE AIKENS, YURI ALEXEEV, POOJA ARORA,
     ANDREY ASADCHEV, ROB BELL, PRADIPTA BANDYOPADHYAY, JONATHAN BENTZ,
     BRETT BODE, KURT BRORSEN, CALEB CARLIN, GALINA CHABAN, WEI CHEN,
     CHEOL HO CHOI, PAUL DAY, ALBERT DEFUSCO, NUWAN DESILVA, TIM DUDLEY,
     DMITRI FEDOROV, GRAHAM FLETCHER, MARK FREITAG, KURT GLAESEMANN,
     DAN KEMP, GRANT MERRILL, NORIYUKI MINEZAWA, JONATHAN MULLIN,
     TAKESHI NAGATA, SEAN NEDD, HEATHER NETZLOFF, BOSILJKA NJEGIC, RYAN OLSON,
     MIKE PAK, SPENCER PRUITT, LUKE ROSKOP, JIM SHOEMAKER, LYUDMILA SLIPCHENKO,
     TONY SMITH, SAROM SOK LEANG, JIE SONG, TETSUYA TAKETSUGU, SIMON WEBB,
     PENG XU, SOOHAENG YOO, FEDERICO ZAHARIEV

  ADDITIONAL CODE HAS BEEN PROVIDED BY COLLABORATORS IN OTHER GROUPS:
     IOWA STATE UNIVERSITY:
          JOE IVANIC, AARON WEST, LAIMUTIS BYTAUTAS, KLAUS RUEDENBERG
     UNIVERSITY OF TOKYO: KIMIHIKO HIRAO, TAKAHITO NAKAJIMA,
          TAKAO TSUNEDA, MUNEAKI KAMIYA, SUSUMU YANAGISAWA,
          KIYOSHI YAGI, MAHITO CHIBA, SEIKEN TOKURA, NAOAKI KAWAKAMI
     UNIVERSITY OF AARHUS: FRANK JENSEN
     UNIVERSITY OF IOWA: VISVALDAS KAIRYS, HUI LI
     NATIONAL INST. OF STANDARDS AND TECHNOLOGY: WALT STEVENS, DAVID GARMER
     UNIVERSITY OF PISA: BENEDETTA MENNUCCI, JACOPO TOMASI
     UNIVERSITY OF MEMPHIS: HENRY KURTZ, PRAKASHAN KORAMBATH
     UNIVERSITY OF ALBERTA: TOBY ZENG, MARIUSZ KLOBUKOWSKI
     UNIVERSITY OF NEW ENGLAND: MARK SPACKMAN
     MIE UNIVERSITY: HIROAKI UMEDA
     NAT. INST. OF ADVANCED INDUSTRIAL SCIENCE AND TECHNOLOGY: KAZUO KITAURA
     MICHIGAN STATE UNIVERSITY:
          KAROL KOWALSKI, MARTA WLOCH, JEFFREY GOUR, JESSE LUTZ,
          WEI LI, PIOTR PIECUCH
     UNIVERSITY OF SILESIA: MONIKA MUSIAL, STANISLAW KUCHARSKI
     FACULTES UNIVERSITAIRES NOTRE-DAME DE LA PAIX:
          OLIVIER QUINET, BENOIT CHAMPAGNE
     UNIVERSITY OF CALIFORNIA - SANTA BARBARA: BERNARD KIRTMAN
     INSTITUTE FOR MOLECULAR SCIENCE:
          KAZUYA ISHIMURA, MICHIO KATOUDA, AND SHIGERU NAGASE
     UNIVERSITY OF NOTRE DAME: ANNA POMOGAEVA, DAN CHIPMAN
     KYUSHU UNIVERSITY:
          HARUYUKI NAKANO,
          FENG LONG GU, JACEK KORCHOWIEC, MARCIN MAKOWSKI, AND YURIKO AOKI,
          HIROTOSHI MORI AND EISAKU MIYOSHI
     PENNSYLVANIA STATE UNIVERSITY:
          TZVETELIN IORDANOV, CHET SWALINA, JONATHAN SKONE,
          SHARON HAMMES-SCHIFFER
     WASEDA UNIVERSITY:
          MASATO KOBAYASHI, TOMOKO AKAMA, TSUGUKI TOUMA,
          TAKESHI YOSHIKAWA, YASUHIRO IKABATA, JUNJI SEINO,
          YUYA NAKAJIMA, HIROMI NAKAI
     NANJING UNIVERSITY: SHUHUA LI
     UNIVERSITY OF NEBRASKA:
          PEIFENG SU, DEJUN SI, NANDUN THELLAMUREGE, YALI WANG, HUI LI
     UNIVERSITY OF ZURICH: ROBERTO PEVERATI, KIM BALDRIDGE
     N. COPERNICUS UNIVERSITY AND JACKSON STATE UNIVERSITY:
          MARIA BARYSZ
     UNIVERSITY OF COPENHAGEN: Jimmy Kromann, CASPER STEINMANN
     TOKYO INSTITUTE OF TECHNOLOGY: HIROYA NAKATA
     NAGOYA UNIVERSITY: YOSHIO NISHIMOTO, STEPHAN IRLE
     MOSCOW STATE UNIVERSITY: VLADIMIR MIRONOV

 EXECUTION OF GAMESS BEGUN Wed Aug  9 22:08:56 2017

            ECHO OF THE FIRST FEW INPUT CARDS -
 INPUT CARD>!H2O-Acetone                                                                    
 INPUT CARD>!Acetone - Ab initio; H2O - EFP                                                 
 INPUT CARD>!EXCHANGE REPULSION =    0.0189703223                                           
 INPUT CARD> $scf dirscf=.t. $end                                                           
 INPUT CARD> $CONTRL SCFTYP=RHF RUNTYP=energy MAXIT=30 MULT=1 ispher=0 $END                 
 INPUT CARD> $SYSTEM TIMLIM=525600 PARALL=.FALSE. MWORDS=10 $END                            
 INPUT CARD> $BASIS GBASIS=N311 NGAUSS=6 NDFUNC=3 NPFUNC=2 NFFUNC=1                         
 INPUT CARD>        DIFFSP=.T. DIFFS=.T. $END                                               
 INPUT CARD> $INTGRL SCHWRZ=.F. $END                                                        
 INPUT CARD> $SCF DIRSCF=.F. $END                                                           
 INPUT CARD> $DATA                                                                          
 INPUT CARD>title                                                                           
 INPUT CARD> C1                                                                             
 INPUT CARD> C           6.0   1.6694067828   2.7198059089   1.1111027703                   
 INPUT CARD> O           8.0   1.3493900366   1.5663671807   1.1742910192                   
 INPUT CARD> C           6.0   0.6356233527   3.8071257033   0.9405477082                   
 INPUT CARD> C           6.0   3.1137833070   3.1514172212   1.1979841363                   
 INPUT CARD> H           1.0   0.7041504427   4.5190093509   1.7579006945                   
 INPUT CARD> H           1.0   3.3841370172   3.7183771539   0.3119031385                   
 INPUT CARD> H           1.0   0.8219712094   4.3537059030   0.0205391736                   
 INPUT CARD> H           1.0  -0.3549150468   3.3753569971   0.9132931174                   
 INPUT CARD> H           1.0   3.2486368136   3.8074891929   2.0532551391                   
 INPUT CARD> H           1.0   3.7622189176   2.2922416768   1.2938433043                   
 INPUT CARD> $END                                                                           
 INPUT CARD> $EFRAG                                                                         
 INPUT CARD> ISCRELEC=0 ISCRPOL=1 ISCRDISP=1 COORD=CART QMDISP=1                            
 INPUT CARD> FRAGNAME=H2O                                                                   
 INPUT CARD> A01O              3.4620249389  -0.4803660475   1.4897688110                   
 INPUT CARD> A02H              2.6837951840   0.0536697422   1.3918495441                   
 INPUT CARD> A03H              3.1820170444  -1.3789099834   1.5352214435                   
 INPUT CARD> $END                                                                           
 INPUT CARD>                                                                                
 INPUT CARD>          RUNTYP=MAKEFP EFFECTIVE FRAGMENT POTENTIAL DATA FOLLOWS...            
 INPUT CARD>          H2O     EFP GENERATED AT Wed Nov 16 16:07:39 2011                     
 INPUT CARD> $H2O                                                                           
 INPUT CARD>EFP DATA FOR H2O      SCFTYP=RHF     ... GENERATED WITH BASIS SET=XXX           
 INPUT CARD> COORDINATES (BOHR)                                                             
 INPUT CARD>A01O      -0.9321262407   0.6657504655  -0.0153445750  15.9949100  8.0          
 INPUT CARD>A02H       0.2794526791   1.9608363766  -0.2521272413   1.0078250  1.0          
 INPUT CARD>A03H      -0.2306788513  -0.8273976265  -0.7079480468   1.0078250  1.0          
 INPUT CARD>BO21      -0.3263367808   1.3132934211  -0.1337359082   0.0000000  0.0          
 INPUT CARD>BO31      -0.5814025460  -0.0808235805  -0.3616463109   0.0000000  0.0          
 INPUT CARD> STOP                                                                           
 INPUT CARD> MONOPOLES                                                                      
 INPUT CARD>A01O      -8.1254763279   8.00000                                               
 INPUT CARD>A02H      -0.6426806389   1.00000                                               
 INPUT CARD>A03H      -0.6426824447   1.00000                                               
 INPUT CARD>BO21      -0.2834436381   0.00000                                               
 INPUT CARD>BO31      -0.3057169504   0.00000                                               
 INPUT CARD> STOP                                                                           
   10000000 WORDS OF MEMORY AVAILABLE

     BASIS OPTIONS
     -------------
     GBASIS=N311         IGAUSS=       6      POLAR=POPN311 
     NDFUNC=       3     NFFUNC=       1     DIFFSP=       T
     NPFUNC=       2      DIFFS=       T     BASNAM=        
     SPLIT2=     2.00000000     0.50000000
     SPLIT3=     4.00000000     1.00000000     0.25000000


     RUN TITLE
     ---------
 title                                                                           

 THE POINT GROUP OF THE MOLECULE IS C1      
 THE ORDER OF THE PRINCIPAL AXIS IS     0

 ATOM      ATOMIC                      COORDINATES (BOHR)
           CHARGE         X                   Y                   Z
 C           6.0     3.1547213815        5.1396879076        2.0996797801
 O           8.0     2.5499774197        2.9600047677        2.2190882561
 C           6.0     1.2011539680        7.1944243800        1.7773774469
 C           6.0     5.8841972354        5.9553150211        2.2638617552
 H           1.0     1.3306513908        8.5396894092        3.3219506262
 H           1.0     6.3950916674        7.0267139399        0.5894114665
 H           1.0     1.5533003556        8.2273111878        0.0388134101
 H           1.0    -0.6706921874        6.3784998353        1.7258737384
 H           1.0     6.1390334113        7.1951112758        3.8800895958
 H           1.0     7.1095628601        4.3317086668        2.4450093162

          INTERNUCLEAR DISTANCES (ANGS.)
          ------------------------------

                1 C          2 O          3 C          4 C          5 H     

   1 C       0.0000000    1.1986761 *  1.5099873 *  1.5099868 *  2.1417751 *
   2 O       1.1986761 *  0.0000000    2.3632811 *  2.3719251 *  3.0781537  
   3 C       1.5099873 *  2.3632811 *  0.0000000    2.5763354 *  1.0860664 *
   4 C       1.5099868 *  2.3719251 *  2.5763354 *  0.0000000    2.8266845 *
   5 H       2.1417751 *  3.0781537    1.0860664 *  2.8266845 *  0.0000000  
   6 H       2.1391971 *  3.0846483    2.8208860 *  1.0861281 *  3.1486900  
   7 H       2.1394170 *  3.0624453    1.0862279 *  2.8432864 *  1.7491804 *
   8 H       2.1369967 *  2.4990438 *  1.0808947 *  3.4875588    1.7728289 *
   9 H       2.1365097 *  3.0663242    2.8400629 *  1.0863261 *  2.6585534 *
  10 H       2.1438442 *  2.5224848 *  3.4921757    1.0806666 *  3.8112500  

                6 H          7 H          8 H          9 H         10 H     

   1 C       2.1391971 *  2.1394170 *  2.1369967 *  2.1365097 *  2.1438442 *
   2 O       3.0846483    3.0624453    2.4990438 *  3.0663242    2.5224848 *
   3 C       2.8208860 *  1.0862279 *  1.0808947 *  2.8400629 *  3.4921757  
   4 C       1.0861281 *  2.8432864 *  3.4875588    1.0863261 *  1.0806666 *
   5 H       3.1486900    1.7491804 *  1.7728289 *  2.6585534 *  3.8112500  
   6 H       0.0000000    2.6557916 *  3.8026100    1.7488877 *  1.7722908 *
   7 H       2.6557916 *  0.0000000    1.7717893 *  3.2123189    3.8099862  
   8 H       3.8026100    1.7717893 *  0.0000000    3.8041869    4.2741958  
   9 H       1.7488877 *  3.2123189    3.8041869    0.0000000    1.7710020 *
  10 H       1.7722908 *  3.8099862    4.2741958    1.7710020 *  0.0000000  

  * ... LESS THAN  3.000


     ATOMIC BASIS SET
     ----------------
 THE CONTRACTED PRIMITIVE FUNCTIONS HAVE BEEN UNNORMALIZED
 THE CONTRACTED BASIS FUNCTIONS ARE NOW NORMALIZED TO UNITY

  SHELL TYPE  PRIMITIVE        EXPONENT          CONTRACTION COEFFICIENT(S)

 C         

      1   S       1          4563.2400000    0.001966650249
      1   S       2           682.0240000    0.015230601932
      1   S       3           154.9730000    0.076126909656
      1   S       4            44.4553000    0.260801033080
      1   S       5            13.0290000    0.616462078191
      1   S       6             1.8277300    0.221006028032

      2   L       7            20.9642000    0.114660080729    0.040248692673
      2   L       8             4.8033100    0.919999647749    0.237593956746
      2   L       9             1.4593300   -0.003030682134    0.815853851473

      3   L      10             0.4834560    1.000000000000    1.000000000000

      4   L      11             0.1455850    1.000000000000    1.000000000000

      5   L      12             0.0438000    1.000000000000    1.000000000000

      6   D      13             2.5040000    1.000000000000

      7   D      14             0.6260000    1.000000000000

      8   D      15             0.1565000    1.000000000000

      9   F      16             0.8000000    1.000000000000

 O         

     10   S      17          8588.5000000    0.001895150083
     10   S      18          1297.2300000    0.014385900631
     10   S      19           299.2960000    0.070732003103
     10   S      20            87.3771000    0.240001010530
     10   S      21            25.6789000    0.594797026097
     10   S      22             3.7400400    0.280802012320

     11   L      23            42.1175000    0.113889012440    0.036511397380
     11   L      24             9.6283700    0.920811100576    0.237152982984
     11   L      25             2.8533200   -0.003274470358    0.819701941186

     12   L      26             0.9056610    1.000000000000    1.000000000000

     13   L      27             0.2556110    1.000000000000    1.000000000000

     14   L      28             0.0845000    1.000000000000    1.000000000000

     15   D      29             5.1680000    1.000000000000

     16   D      30             1.2920000    1.000000000000

     17   D      31             0.3230000    1.000000000000

     18   F      32             1.4000000    1.000000000000

 C         

     19   S      33          4563.2400000    0.001966650249
     19   S      34           682.0240000    0.015230601932
     19   S      35           154.9730000    0.076126909656
     19   S      36            44.4553000    0.260801033080
     19   S      37            13.0290000    0.616462078191
     19   S      38             1.8277300    0.221006028032

     20   L      39            20.9642000    0.114660080729    0.040248692673
     20   L      40             4.8033100    0.919999647749    0.237593956746
     20   L      41             1.4593300   -0.003030682134    0.815853851473

     21   L      42             0.4834560    1.000000000000    1.000000000000

     22   L      43             0.1455850    1.000000000000    1.000000000000

     23   L      44             0.0438000    1.000000000000    1.000000000000

     24   D      45             2.5040000    1.000000000000

     25   D      46             0.6260000    1.000000000000

     26   D      47             0.1565000    1.000000000000

     27   F      48             0.8000000    1.000000000000

 C         

     28   S      49          4563.2400000    0.001966650249
     28   S      50           682.0240000    0.015230601932
     28   S      51           154.9730000    0.076126909656
     28   S      52            44.4553000    0.260801033080
     28   S      53            13.0290000    0.616462078191
     28   S      54             1.8277300    0.221006028032

     29   L      55            20.9642000    0.114660080729    0.040248692673
     29   L      56             4.8033100    0.919999647749    0.237593956746
     29   L      57             1.4593300   -0.003030682134    0.815853851473

     30   L      58             0.4834560    1.000000000000    1.000000000000

     31   L      59             0.1455850    1.000000000000    1.000000000000

     32   L      60             0.0438000    1.000000000000    1.000000000000

     33   D      61             2.5040000    1.000000000000

     34   D      62             0.6260000    1.000000000000

     35   D      63             0.1565000    1.000000000000

     36   F      64             0.8000000    1.000000000000

 H         

     37   S      65            33.8650000    0.025493814541
     37   S      66             5.0947900    0.190373108582
     37   S      67             1.1587900    0.852161486043

     38   S      68             0.3258400    1.000000000000

     39   S      69             0.1027410    1.000000000000

     40   S      70             0.0360000    1.000000000000

     41   P      71             1.5000000    1.000000000000

     42   P      72             0.3750000    1.000000000000

 H         

     43   S      73            33.8650000    0.025493814541
     43   S      74             5.0947900    0.190373108582
     43   S      75             1.1587900    0.852161486043

     44   S      76             0.3258400    1.000000000000

     45   S      77             0.1027410    1.000000000000

     46   S      78             0.0360000    1.000000000000

     47   P      79             1.5000000    1.000000000000

     48   P      80             0.3750000    1.000000000000

 H         

     49   S      81            33.8650000    0.025493814541
     49   S      82             5.0947900    0.190373108582
     49   S      83             1.1587900    0.852161486043

     50   S      84             0.3258400    1.000000000000

     51   S      85             0.1027410    1.000000000000

     52   S      86             0.0360000    1.000000000000

     53   P      87             1.5000000    1.000000000000

     54   P      88             0.3750000    1.000000000000

 H         

     55   S      89            33.8650000    0.025493814541
     55   S      90             5.0947900    0.190373108582
     55   S      91             1.1587900    0.852161486043

     56   S      92             0.3258400    1.000000000000

     57   S      93             0.1027410    1.000000000000

     58   S      94             0.0360000    1.000000000000

     59   P      95             1.5000000    1.000000000000

     60   P      96             0.3750000    1.000000000000

 H         

     61   S      97            33.8650000    0.025493814541
     61   S      98             5.0947900    0.190373108582
     61   S      99             1.1587900    0.852161486043

     62   S     100             0.3258400    1.000000000000

     63   S     101             0.1027410    1.000000000000

     64   S     102             0.0360000    1.000000000000

     65   P     103             1.5000000    1.000000000000

     66   P     104             0.3750000    1.000000000000

 H         

     67   S     105            33.8650000    0.025493814541
     67   S     106             5.0947900    0.190373108582
     67   S     107             1.1587900    0.852161486043

     68   S     108             0.3258400    1.000000000000

     69   S     109             0.1027410    1.000000000000

     70   S     110             0.0360000    1.000000000000

     71   P     111             1.5000000    1.000000000000

     72   P     112             0.3750000    1.000000000000

 TOTAL NUMBER OF BASIS SET SHELLS             =   72
 NUMBER OF CARTESIAN GAUSSIAN BASIS FUNCTIONS =  240
 NUMBER OF ELECTRONS                          =   32
 CHARGE OF MOLECULE                           =    0
 SPIN MULTIPLICITY                            =    1
 NUMBER OF OCCUPIED ORBITALS (ALPHA)          =   16
 NUMBER OF OCCUPIED ORBITALS (BETA )          =   16
 TOTAL NUMBER OF ATOMS                        =   10
 THE NUCLEAR REPULSION ENERGY IS      120.1423810960

     $CONTRL OPTIONS
     ---------------
 SCFTYP=RHF          RUNTYP=ENERGY       EXETYP=RUN     
 MPLEVL=       0     CITYP =NONE         CCTYP =NONE         VBTYP =NONE    
 DFTTYP=NONE         TDDFT =NONE    
 MULT  =       1     ICHARG=       0     NZVAR =       0     COORD =UNIQUE  
 PP    =NONE         RELWFN=NONE         LOCAL =NONE         NUMGRD=       F
 ISPHER=       0     NOSYM =       0     MAXIT =      30     UNITS =ANGS    
 PLTORB=       F     MOLPLT=       F     AIMPAC=       F     FRIEND=        
 NPRINT=       7     IREST =       0     GEOM  =INPUT   
 NORMF =       0     NORMP =       0     ITOL  =      20     ICUT  =       9
 INTTYP=BEST         GRDTYP=BEST         QMTTOL= 1.0E-06

     $SYSTEM OPTIONS
     ---------------
  REPLICATED MEMORY=    10000000 WORDS (ON EVERY NODE).
 DISTRIBUTED MEMDDI=           0 MILLION WORDS IN AGGREGATE,
 MEMDDI DISTRIBUTED OVER   1 PROCESSORS IS           0 WORDS/PROCESSOR.
 TOTAL MEMORY REQUESTED ON EACH PROCESSOR=    10000000 WORDS.
 TIMLIM=      525600.00 MINUTES, OR     365.0 DAYS.
 PARALL= F  BALTYP=  DLB     KDIAG=    0  COREFL= F
 MXSEQ2=     300 MXSEQ3=     150  mem10=         0

 READING $EFRAG GROUP
 COORD=CART      POSITION=OPTIMIZE  POLMETHD=FRGSCF   NBUFFMO=0
 READING COORDINATES OF FRAGMENT   1 NAMED   H2O   
 FINISHED READING $EFRAG GROUP,   1 FRAGMENTS WILL BE USED.

 READING POTENTIAL PARAMETERS FOR FRAGMENT    1 FROM GROUP $H2O   


     SUMMARY OF THE EFFECTIVE FRAGMENT POTENTIAL MODEL CHOSEN
     --------------------------------------------------------
 TOTAL NUMBER OF MULTIPOLE POINTS   =         5  (EFP1/EFP2 ELECTROSTATICS)
 TOTAL NUMBER OF POLARIZABLE POINTS =         4  (EFP1/EFP2 INDUCTION)
 TOTAL NUMBER OF L-J POINTS         =         0  (REPULSION AND DISPERSION)
 TOTAL NUMBER OF AO CENTERS         =         3  (EFP2 PAULI REPULSION)
 TOTAL NUMBER OF EFP MOS            =         4  (EFP2 PAULI REPULSION)
 TOTAL NO OF DYNAMIC POLARIZABLE PTS=        48  (EFP2 DISPERSION)
 TOTAL NUMBER OF EFP MOS            =         7  (EFP2 CHARGE TRANSFER)

 THIS IS A -EFP2- TYPE RUN, INCLUDING SEPARATE FORMULAE FOR
   PAULI REPULSION=T  DISPERSION=T  CHARGE TRANSFER=T

 OPTIONS FOR EFP SCREENING:
     ELECTROSTATIC AB INITIO-EFP GAUSSIAN SCREENING IS ON
     ELECTROSTATIC EFP-EFP SCREENING CHOICE IS EXPONENTIAL, TO HIGHER ORDER
     POLARIZATION EFP-EFP SCREENING IS TANG-TOENNIS LIKE
     DISPERSION EFP-EFP SCREENING CHOICE IS USING OVERLAP

     $EWALD OPTIONS
     -----------

     IFEWLD   =        F         TINFOIL        =        T
     BETA    =    0.200         ELECTRIC CONST =     1.00
     EPSILON =     1.00         CUT_OFF        = 0.10E+04
     CUTLIST =  1000.00         LEVEL          =    1
     KMAX    =       10         EWLDPL         =        F

            MULTIPOLE COORDINATES, ELECTRONIC AND NUCLEAR CHARGES

                  X              Y              Z           ELEC.   NUC.
 A01O       6.5422784972  -0.9077602036   2.8152548378   -8.12548    8.0
 A02H       5.0748963661   0.0991848152   2.6306242944   -0.64268    1.0
 A03H       5.9917710184  -2.6080623506   2.8997140492   -0.64268    1.0
 BO21       5.8085874316  -0.4042876941   2.7229395662   -0.28344    0.0
 BO31       6.2670247578  -1.7579112771   2.8574844435   -0.30572    0.0

   CHARGE SCREENING PARAMETERS (COEF AND ZETA)
   ICHGP=   7 AI-FRAGMENT SCREENING= 1   FRAGMENT-FRAGMENT SCREENING= 3

             GAUSSIAN DAMPING    EXPONENTIAL DAMPING
 A01O       1.00000   1.06136      1.00000   1.99330
 A02H       1.00000   4.09743      1.00000   2.50724
 A03H       1.00000  10.00000      1.00000   3.05985
 BO21       1.00000   0.50829      1.00000   1.92505
 BO31       1.00000   0.49052      1.00000   1.69612

   SCREENING FOR POLARIZATION WITH EXPONENTIAL FORMULA  OFF

   SCREENING FOR POLARIZATION WITH TANG-TOENNIS FORMULA   ON

    WITH COEFFICIENTS 

     H2O     0.60

                  DIPOLE MOMENTS AND THE SECOND MOMENT TENSOR

                  X        Y        Z           XX/XY    YY/XZ    ZZ/YZ
 A01O         -0.77353 -0.26579 -0.03840     -3.89118 -3.61125 -4.72940
                                             -0.10254  0.07141 -0.09131
 A02H         -0.07675  0.07201 -0.01109     -0.36257 -0.37650 -0.38119
                                             -0.00401  0.00171 -0.00066
 A03H         -0.01706 -0.10425  0.00643     -0.37165 -0.36730 -0.38132
                                              0.00784  0.00015 -0.00045
 BO21          0.35181 -0.13555  0.03643      0.12350  0.04103 -0.04678
                                             -0.09715  0.02016 -0.01398
 BO31          0.21140  0.31224 -0.00723     -0.02872  0.14431 -0.06471
                                              0.07322 -0.00267 -0.01001

                  THE THIRD MOMENT TENSOR

               XXX/XYY  YYY/YYZ  ZZZ/XZZ  XXY/YZZ  XXZ/XYZ
 A01O         -1.96146 -0.73047 -0.08908 -0.18328 -0.04405
              -0.69441 -0.02843 -0.59870 -0.20455  0.00885
 A02H         -0.08945  0.11652 -0.01673  0.03304 -0.00393
              -0.03027 -0.00495 -0.03462  0.04006 -0.00087
 A03H         -0.00717 -0.14254  0.01109 -0.04939  0.00359
               0.00322  0.00291 -0.00317 -0.05318 -0.00019
 BO21          1.04685 -0.32841  0.09643 -0.14107  0.03956
               0.35299  0.03604  0.33034 -0.10038 -0.00485
 BO31          0.63942  0.90804 -0.01314  0.28208 -0.00457
               0.24262 -0.00851  0.21125  0.27360 -0.00168

                  POLARIZABLE POINTS AND THE POLARIZABILITY TENSOR

              X       Y       Z       XX/YZ    YY/YX    ZZ/ZX    XY/ZY     XZ
 CT1       6.2063 -1.8151  2.8572   1.13370  3.38127  0.80060  0.63716 -0.02151
                                   -0.13339  0.77481 -0.03173 -0.14376
 CT2       5.7258 -0.3964  2.7161   2.63745  1.85568  0.82251 -1.18682  0.22629
                                   -0.17811 -1.32450  0.23650 -0.16776
 CT3       6.7604 -0.7835  3.3221   1.67682  1.55407  2.79505  0.16101  0.86152
                                    0.42499  0.17002  0.95325  0.45611
 CT4       6.8346 -0.8566  2.3338   1.97295  1.45386  2.59921  0.07510 -1.01185
                                   -0.22890  0.06602 -1.10359 -0.25995

                  DYNAMIC POLARIZABLE POINTS AND DYNAMIC TENSOR

              X       Y       Z       XX/YZ    YY/YX    ZZ/ZX    XY/ZY     XZ
 CT        6.2063 -1.8151  2.8572   1.13366  3.38112  0.80052  0.63705 -0.02150
                                   -0.13335  0.77482 -0.03169 -0.14369
 CT        5.7258 -0.3964  2.7161   2.63726  1.85565  0.82243 -1.18668  0.22627
                                   -0.17808 -1.32445  0.23646 -0.16774
 CT        6.7604 -0.7835  3.3221   1.67682  1.55418  2.79507  0.16098  0.86149
                                    0.42503  0.17011  0.95329  0.45612
 CT        6.8346 -0.8566  2.3338   1.97294  1.45391  2.59922  0.07507 -1.01183
                                   -0.22888  0.06594 -1.10363 -0.25997
 CT        6.2063 -1.8151  2.8572   1.13337  3.37918  0.80040  0.63629 -0.02146
                                   -0.13326  0.77422 -0.03166 -0.14361
 CT        5.7258 -0.3964  2.7161   2.63571  1.85498  0.82229 -1.18563  0.22609
                                   -0.17797 -1.32357  0.23629 -0.16762
 CT        6.7604 -0.7835  3.3221   1.67601  1.55354  2.79269  0.16080  0.86072
                                    0.42458  0.16985  0.95181  0.45543
 CT        6.8346 -0.8566  2.3338   1.97175  1.45340  2.59709  0.07493 -1.01085
                                   -0.22871  0.06588 -1.10194 -0.25956
 CT        6.2063 -1.8151  2.8572   1.13166  3.36785  0.79968  0.63186 -0.02121
                                   -0.13274  0.77074 -0.03148 -0.14316
 CT        5.7258 -0.3964  2.7161   2.62667  1.85110  0.82147 -1.17955  0.22501
                                   -0.17735 -1.31843  0.23528 -0.16692
 CT        6.7604 -0.7835  3.3221   1.67124  1.54982  2.77887  0.15975  0.85626
                                    0.42199  0.16839  0.94325  0.45145
 CT        6.8346 -0.8566  2.3338   1.96483  1.45041  2.58469  0.07416 -1.00515
                                   -0.22772  0.06552 -1.09214 -0.25718
 CT        6.2063 -1.8151  2.8572   1.12573  3.32867  0.79719  0.61681 -0.02035
                                   -0.13092  0.75871 -0.03085 -0.14157
 CT        5.7258 -0.3964  2.7161   2.59551  1.83751  0.81860 -1.15866  0.22131
                                   -0.17518 -1.30057  0.23181 -0.16453
 CT        6.7604 -0.7835  3.3221   1.65480  1.53695  2.73200  0.15616  0.84096
                                    0.41318  0.16347  0.91457  0.43811
 CT        6.8346 -0.8566  2.3338   1.94114  1.43999  2.54261  0.07157 -0.98567
                                   -0.22428  0.06426 -1.05928 -0.24921
 CT        6.2063 -1.8151  2.8572   1.10942  3.22222  0.79035  0.57778 -0.01819
                                   -0.12598  0.72614 -0.02917 -0.13712
 CT        5.7258 -0.3964  2.7161   2.51168  1.79956  0.81078 -1.10316  0.21141
                                   -0.16918 -1.25152  0.22238 -0.15805
 CT        6.7604 -0.7835  3.3221   1.61061  1.50196  2.61122  0.14682  0.80044
                                    0.39028  0.15108  0.84324  0.40478
 CT        6.8346 -0.8566  2.3338   1.87852  1.41125  2.43404  0.06509 -0.93465
                                   -0.21496  0.06084 -0.97745 -0.22945
 CT        6.2063 -1.8151  2.8572   1.07010  2.97602  0.77369  0.49697 -0.01396
                                   -0.11456  0.65153 -0.02539 -0.12616
 CT        5.7258 -0.3964  2.7161   2.32169  1.70623  0.79192 -0.98120  0.18934
                                   -0.15478 -1.13576  0.20077 -0.14318
 CT        6.7604 -0.7835  3.3221   1.51080  1.42042  2.36071  0.12751  0.71235
                                    0.34237  0.12702  0.70745  0.34071
 CT        6.8346 -0.8566  2.3338   1.74186  1.34218  2.20789  0.05286 -0.82594
                                   -0.19379  0.05335 -0.82104 -0.19213
 CT        6.2063 -1.8151  2.8572   0.98405  2.49730  0.73434  0.37020 -0.00817
                                   -0.09254  0.51070 -0.01857 -0.10309
 CT        5.7258 -0.3964  2.7161   1.96282  1.50429  0.74861 -0.76614  0.14935
                                   -0.12547 -0.90663  0.15975 -0.11493
 CT        6.7604 -0.7835  3.3221   1.32220  1.25589  1.94548  0.09783  0.56077
                                    0.26422  0.09362  0.51837  0.24986
 CT        6.8346 -0.8566  2.3338   1.49729  1.19660  1.82968  0.03742 -0.64358
                                   -0.15517  0.04163 -0.60118 -0.14081
 CT        6.2063 -1.8151  2.8572   0.81283  1.76637  0.64091  0.22840 -0.00368
                                   -0.06008  0.31284 -0.00992 -0.06642
 CT        5.7258 -0.3964  2.7161   1.42285  1.14747  0.64980 -0.48296  0.09473
                                   -0.08037 -0.56739  0.10098 -0.07403
 CT        6.7604 -0.7835  3.3221   1.02495  0.97505  1.39523  0.06611  0.36593
                                    0.16946  0.06220  0.32657  0.15613
 CT        6.8346 -0.8566  2.3338   1.13671  0.93721  1.32132  0.02633 -0.41507
                                   -0.10239  0.03024 -0.37571 -0.08906
 CT        6.2063 -1.8151  2.8572   0.53178  0.95469  0.44935  0.11125 -0.00190
                                   -0.02757  0.13256 -0.00348 -0.02917
 CT        5.7258 -0.3964  2.7161   0.80410  0.67840  0.45332 -0.22270  0.04324
                                   -0.03540 -0.24401  0.04482 -0.03380
 CT        6.7604 -0.7835  3.3221   0.62925  0.59201  0.80249  0.03768  0.18163
                                    0.08449  0.03634  0.16817  0.07993
 CT        6.8346 -0.8566  2.3338   0.68550  0.57297  0.76529  0.01829 -0.20509
                                   -0.05018  0.01963 -0.19163 -0.04562
 CT        6.2063 -1.8151  2.8572   0.22455  0.34112  0.19998  0.03635 -0.00081
                                   -0.00779  0.03583 -0.00077 -0.00775
 CT        5.7258 -0.3964  2.7161   0.30199  0.26254  0.20111 -0.06519  0.01252
                                   -0.00952 -0.06468  0.01248 -0.00956
 CT        6.7604 -0.7835  3.3221   0.25008  0.23409  0.31166  0.01388  0.05963
                                    0.02865  0.01375  0.05835  0.02822
 CT        6.8346 -0.8566  2.3338   0.26915  0.22764  0.29905  0.00763 -0.06821
                                   -0.01590  0.00776 -0.06693 -0.01547
 CT        6.2063 -1.8151  2.8572   0.04582  0.06214  0.04194  0.00575 -0.00013
                                   -0.00111  0.00516 -0.00009 -0.00107
 CT        5.7258 -0.3964  2.7161   0.05705  0.05075  0.04210 -0.00948  0.00184
                                   -0.00133 -0.00890  0.00180 -0.00137
 CT        6.7604 -0.7835  3.3221   0.04972  0.04675  0.06169  0.00249  0.01032
                                    0.00511  0.00248  0.01026  0.00509
 CT        6.8346 -0.8566  2.3338   0.05308  0.04562  0.05947  0.00140 -0.01200
                                   -0.00267  0.00141 -0.01195 -0.00265
 CT        6.2063 -1.8151  2.8572   0.00177  0.00231  0.00164  0.00020 -0.00000
                                   -0.00004  0.00017 -0.00000 -0.00004
 CT        5.7258 -0.3964  2.7161   0.00215  0.00193  0.00164 -0.00032  0.00006
                                   -0.00004 -0.00029  0.00006 -0.00005
 CT        6.7604 -0.7835  3.3221   0.00195  0.00184  0.00241  0.00009  0.00038
                                    0.00019  0.00009  0.00038  0.00019
 CT        6.8346 -0.8566  2.3338   0.00208  0.00180  0.00233  0.00005 -0.00045
                                   -0.00010  0.00005 -0.00044 -0.00010

                    AO EXPANSION POINTS                             LMO CENTROIDS

                X          Y          Z                         X          Y          Z

  A01O        6.54228   -0.90776    2.81525       CT1         6.20628   -1.81511    2.85716
  A02H        5.07490    0.09918    2.63062       CT2         5.72580   -0.39641    2.71614
  A03H        5.99177   -2.60806    2.89971       CT3         6.76039   -0.78352    3.32208
                                                  CT4         6.83457   -0.85663    2.33377

          ----------------
          PROPERTIES INPUT
          ----------------

     MOMENTS            FIELD           POTENTIAL          DENSITY
 IEMOM =       1   IEFLD =       0   IEPOT =       0   IEDEN =       0
 WHERE =COMASS     WHERE =NUCLEI     WHERE =NUCLEI     WHERE =NUCLEI  
 OUTPUT=BOTH       OUTPUT=BOTH       OUTPUT=BOTH       OUTPUT=BOTH    
 IEMINT=       0   IEFINT=       0                     IEDINT=       0
                                                       MORB  =       0
          EXTRAPOLATION IN EFFECT
          SOSCF IN EFFECT
 ORBITAL PRINTING OPTION: NPREO=     1   240     2     1

     -------------------------------
     INTEGRAL TRANSFORMATION OPTIONS
     -------------------------------
     NWORD  =            0
     CUTOFF = 1.0E-09     MPTRAN =       0
     DIRTRF =       F     AOINTS =DUP     

          -----------------------------
          LOCALIZATION INPUT PARAMETERS
          -----------------------------
           LOCAL=BOYS          NOUTA=       4
          PRTLOC=       F      NOUTB=       0
          MAXLOC=     250     CVGLOC=1.00E-06
           FCORE=       T     SYMLOC=       F
          MOIDON=       F     EDCOMP=       F
          DIPDCM=       F      NPROT=       0
          QADDCM=       F     DEPRNT=       F
          POLNUM=       F     ORIENT=       F
          POLDYN=       F      VMTOL=1.50E-01
          NPRDTL=       2
          MOOUTA =      1    2    3    4

          ----------------------
          INTEGRAL INPUT OPTIONS
          ----------------------
 NOPK  =       1 NORDER=       0 SCHWRZ=       F

     ------------------------------------------
     THE POINT GROUP IS C1 , NAXIS= 0, ORDER= 1
     ------------------------------------------

     DIMENSIONS OF THE SYMMETRY SUBSPACES ARE
 A   =  240

 ..... DONE SETTING UP THE RUN .....
 STEP CPU TIME =     0.07 TOTAL CPU TIME =        0.1 (    0.0 MIN)
 TOTAL WALL CLOCK TIME=        0.1 SECONDS, CPU UTILIZATION IS  87.50%

          ********************
          1 ELECTRON INTEGRALS
          ********************
 TIME TO DO ORDINARY INTEGRALS=      0.01
 TIME TO DO FRAGMENT INTEGRALS=      0.14
 ...... END OF ONE-ELECTRON INTEGRALS ......
 STEP CPU TIME =     0.15 TOTAL CPU TIME =        0.2 (    0.0 MIN)
 TOTAL WALL CLOCK TIME=        0.2 SECONDS, CPU UTILIZATION IS  91.67%

          -------------
          GUESS OPTIONS
          -------------
          GUESS =HUCKEL            NORB  =       0          NORDER=       0
          MIX   =       F          PRTMO =       F          PUNMO =       F
          TOLZ  = 1.0E-08          TOLE  = 1.0E-05
          SYMDEN=       F          PURIFY=       F

 INITIAL GUESS ORBITALS GENERATED BY HUCKEL   ROUTINE.
 HUCKEL GUESS REQUIRES    421470 WORDS.

 SYMMETRIES FOR INITIAL GUESS ORBITALS FOLLOW.   BOTH SET(S).
    16 ORBITALS ARE OCCUPIED (    4 CORE ORBITALS).
     5=A        6=A        7=A        8=A        9=A       10=A       11=A   
    12=A       13=A       14=A       15=A       16=A       17=A       18=A   
    19=A       20=A       21=A       22=A       23=A       24=A       25=A   
    26=A   
 ...... END OF INITIAL ORBITAL SELECTION ......
 STEP CPU TIME =     0.14 TOTAL CPU TIME =        0.4 (    0.0 MIN)
 TOTAL WALL CLOCK TIME=        0.4 SECONDS, CPU UTILIZATION IS  97.30%

                    ----------------------
                    AO INTEGRAL TECHNOLOGY
                    ----------------------
     S,P,L SHELL ROTATED AXIS INTEGRALS, REPROGRAMMED BY
        KAZUYA ISHIMURA (IMS) AND JOSE SIERRA (SYNSTAR).
     S,P,D,L SHELL ROTATED AXIS INTEGRALS PROGRAMMED BY
        KAZUYA ISHIMURA (INSTITUTE FOR MOLECULAR SCIENCE).
     S,P,D,F,G SHELL TO TOTAL QUARTET ANGULAR MOMENTUM SUM 5,
        ERIC PROGRAM BY GRAHAM FLETCHER (ELORET AND NASA ADVANCED
        SUPERCOMPUTING DIVISION, AMES RESEARCH CENTER).
     S,P,D,F,G,L SHELL GENERAL RYS QUADRATURE PROGRAMMED BY
        MICHEL DUPUIS (PACIFIC NORTHWEST NATIONAL LABORATORY).

          --------------------
          2 ELECTRON INTEGRALS
          --------------------

 THE -PK- OPTION IS OFF, THE INTEGRALS ARE NOT IN SUPERMATRIX FORM.
 STORING   15000 INTEGRALS/RECORD ON DISK, USING 12 BYTES/INTEGRAL.
 TWO ELECTRON INTEGRAL EVALUATION REQUIRES  101728 WORDS OF MEMORY.
 II,JST,KST,LST =  1  1  1  1 NREC =         1 INTLOC =    1
 II,JST,KST,LST =  2  1  1  1 NREC =         1 INTLOC =    2
 II,JST,KST,LST =  3  1  1  1 NREC =         1 INTLOC =   34
 II,JST,KST,LST =  4  1  1  1 NREC =         1 INTLOC =  214
 II,JST,KST,LST =  5  1  1  1 NREC =         1 INTLOC =  776
 II,JST,KST,LST =  6  1  1  1 NREC =         1 INTLOC = 2074
 II,JST,KST,LST =  7  1  1  1 NREC =         1 INTLOC = 5929
 II,JST,KST,LST =  8  1  1  1 NREC =         1 INTLOC =14065
 II,JST,KST,LST =  9  1  1  1 NREC =         2 INTLOC =14002
 II,JST,KST,LST = 10  1  1  1 NREC =         5 INTLOC =12962
 II,JST,KST,LST = 11  1  1  1 NREC =         9 INTLOC = 1522
 II,JST,KST,LST = 12  1  1  1 NREC =        24 INTLOC = 4868
 II,JST,KST,LST = 13  1  1  1 NREC =        43 INTLOC = 9031
 II,JST,KST,LST = 14  1  1  1 NREC =        67 INTLOC = 7685
 II,JST,KST,LST = 15  1  1  1 NREC =        96 INTLOC = 9801
 II,JST,KST,LST = 16  1  1  1 NREC =       151 INTLOC = 6112
 II,JST,KST,LST = 17  1  1  1 NREC =       221 INTLOC = 6187
 II,JST,KST,LST = 18  1  1  1 NREC =       308 INTLOC =10617
 II,JST,KST,LST = 19  1  1  1 NREC =       498 INTLOC = 2940
 II,JST,KST,LST = 20  1  1  1 NREC =       518 INTLOC = 3148
 II,JST,KST,LST = 21  1  1  1 NREC =       607 INTLOC = 3638
 II,JST,KST,LST = 22  1  1  1 NREC =       728 INTLOC = 6469
 II,JST,KST,LST = 23  1  1  1 NREC =       865 INTLOC =10374
 II,JST,KST,LST = 24  1  1  1 NREC =      1019 INTLOC = 9899
 II,JST,KST,LST = 25  1  1  1 NREC =      1240 INTLOC =  555
 II,JST,KST,LST = 26  1  1  1 NREC =      1543 INTLOC =  449
 II,JST,KST,LST = 27  1  1  1 NREC =      1896 INTLOC = 2012
 II,JST,KST,LST = 28  1  1  1 NREC =      2592 INTLOC =13901
 II,JST,KST,LST = 29  1  1  1 NREC =      2652 INTLOC =11868
 II,JST,KST,LST = 30  1  1  1 NREC =      2917 INTLOC =12138
 II,JST,KST,LST = 31  1  1  1 NREC =      3285 INTLOC =  860
 II,JST,KST,LST = 32  1  1  1 NREC =      3690 INTLOC =13147
 II,JST,KST,LST = 33  1  1  1 NREC =      4130 INTLOC =14018
 II,JST,KST,LST = 34  1  1  1 NREC =      4694 INTLOC = 5091
 II,JST,KST,LST = 35  1  1  1 NREC =      5480 INTLOC =10965
 II,JST,KST,LST = 36  1  1  1 NREC =      6378 INTLOC = 2388
 II,JST,KST,LST = 37  1  1  1 NREC =      8032 INTLOC =13325
 II,JST,KST,LST = 38  1  1  1 NREC =      8176 INTLOC = 8721
 II,JST,KST,LST = 39  1  1  1 NREC =      8366 INTLOC =14561
 II,JST,KST,LST = 40  1  1  1 NREC =      8564 INTLOC = 3259
 II,JST,KST,LST = 41  1  1  1 NREC =      8764 INTLOC =12814
 II,JST,KST,LST = 42  1  1  1 NREC =      9222 INTLOC = 5547
 II,JST,KST,LST = 43  1  1  1 NREC =      9854 INTLOC =13855
 II,JST,KST,LST = 44  1  1  1 NREC =     10020 INTLOC = 3639
 II,JST,KST,LST = 45  1  1  1 NREC =     10242 INTLOC = 4827
 II,JST,KST,LST = 46  1  1  1 NREC =     10472 INTLOC = 7588
 II,JST,KST,LST = 47  1  1  1 NREC =     10706 INTLOC = 6025
 II,JST,KST,LST = 48  1  1  1 NREC =     11228 INTLOC =12267
 II,JST,KST,LST = 49  1  1  1 NREC =     11964 INTLOC = 4451
 II,JST,KST,LST = 50  1  1  1 NREC =     12163 INTLOC =  397
 II,JST,KST,LST = 51  1  1  1 NREC =     12420 INTLOC =11437
 II,JST,KST,LST = 52  1  1  1 NREC =     12687 INTLOC = 1959
 II,JST,KST,LST = 53  1  1  1 NREC =     12957 INTLOC = 9809
 II,JST,KST,LST = 54  1  1  1 NREC =     13586 INTLOC = 5442
 II,JST,KST,LST = 55  1  1  1 NREC =     14438 INTLOC = 4496
 II,JST,KST,LST = 56  1  1  1 NREC =     14665 INTLOC = 2150
 II,JST,KST,LST = 57  1  1  1 NREC =     14956 INTLOC = 9213
 II,JST,KST,LST = 58  1  1  1 NREC =     15262 INTLOC = 5900
 II,JST,KST,LST = 59  1  1  1 NREC =     15573 INTLOC = 1062
 II,JST,KST,LST = 60  1  1  1 NREC =     16280 INTLOC = 3373
 II,JST,KST,LST = 61  1  1  1 NREC =     17229 INTLOC =14382
 II,JST,KST,LST = 62  1  1  1 NREC =     17480 INTLOC = 4210
 II,JST,KST,LST = 63  1  1  1 NREC =     17815 INTLOC =12263
 II,JST,KST,LST = 64  1  1  1 NREC =     18165 INTLOC =12436
 II,JST,KST,LST = 65  1  1  1 NREC =     18520 INTLOC =12280
 II,JST,KST,LST = 66  1  1  1 NREC =     19303 INTLOC =13873
 II,JST,KST,LST = 67  1  1  1 NREC =     20399 INTLOC = 6793
 II,JST,KST,LST = 68  1  1  1 NREC =     20680 INTLOC = 7754
 II,JST,KST,LST = 69  1  1  1 NREC =     21052 INTLOC =10879
 II,JST,KST,LST = 70  1  1  1 NREC =     21448 INTLOC =13130
 II,JST,KST,LST = 71  1  1  1 NREC =     21851 INTLOC =10733
 II,JST,KST,LST = 72  1  1  1 NREC =     22715 INTLOC =13183
 TOTAL NUMBER OF NONZERO TWO-ELECTRON INTEGRALS =           358815650
      23922 INTEGRAL RECORDS WERE STORED ON DISK FILE  8.
  ...... END OF TWO-ELECTRON INTEGRALS .....
 STEP CPU TIME =    13.35 TOTAL CPU TIME =       13.7 (    0.2 MIN)
 TOTAL WALL CLOCK TIME=       13.7 SECONDS, CPU UTILIZATION IS  99.93%

 EFP ADDITIVE CONTRIBUTIONS TO THE "NUCLEAR ENERGY":
   -- NUCLEAR CHARGE - NUCLEAR CHARGE   =      120.1423810960
   -- NUCLEAR CHARGE - EFP CHARGE       =        0.1567818282
   -- NUCLEAR CHARGE - EFP DIPOLE       =        0.0326087094
   -- NUCLEAR CHARGE - EFP QUADRUPOLE   =        0.0970060130
   -- NUCLEAR CHARGE - EFP OCTUPOLE     =       -0.0007638468
 THE TOTAL NUCLEAR CHARGE/EFP ENERGY    =      120.4280137997

          --------------------------
                 RHF SCF CALCULATION
          --------------------------

     NUCLEAR ENERGY =       120.4280137997
     MAXIT =   30     NPUNCH=    2
     EXTRAP=T  DAMP=F  SHIFT=F  RSTRCT=F  DIIS=F  DEM=F  SOSCF=T
     DENSITY MATRIX CONV=  1.00E-05
     SOSCF WILL OPTIMIZE    3584 ORBITAL ROTATIONS, SOGTOL=   0.250
     MEMORY REQUIRED FOR RHF ITERS=    768332 WORDS.

 ITER EX DEM     TOTAL ENERGY        E CHANGE  DENSITY CHANGE     ORB. GRAD
   1  0  0     -191.3000477314  -191.3000477314   1.712895291   0.000000000
          ---------------START SECOND ORDER SCF---------------
   2  1  0     -191.9434836550    -0.6434359236   1.432934913   0.075117474
   3  2  0     -192.0027973069    -0.0593136519   2.475382653   0.056713232
   4  3  0     -191.9982698008     0.0045275061   1.472074133   0.006137257
   5  4  0     -192.0527738239    -0.0545040231   1.748577038   0.002783719
   6  5  0     -192.0530052148    -0.0002313909   0.835557986   0.001445341
   7  6  0     -192.0530416353    -0.0000364205   0.371877282   0.000307125
   8  7  0     -191.9851850052     0.0678566300   0.077832375   0.000124872
   9  8  0     -192.0530471409    -0.0678621357   0.002050441   0.000018179
  10  9  0     -192.0530471671    -0.0000000262   0.002373800   0.000006163
  11 10  0     -192.0530471691    -0.0000000020   0.000158994   0.000001536
  12 11  0     -191.9849391670     0.0681080021   0.000026891   0.000000386
  13 12  0     -192.0530471692    -0.0681080023   0.000055683   0.000000085
  14 13  0     -192.0530471692     0.0000000000   0.000036124   0.000000030
  15 14  0     -192.0530471693    -0.0000000000   0.000004707   0.000000014
  16 15  0     -191.9849394584     0.0681077108   0.000000599   0.000000010

          -----------------
          DENSITY CONVERGED
          -----------------
     TIME TO FORM FOCK OPERATORS=     104.0 SECONDS (       6.5 SEC/ITER)
     TIME TO SOLVE SCF EQUATIONS=       0.4 SECONDS (       0.0 SEC/ITER)

          -------------------------
          BOYS ORBITAL LOCALIZATION
          -------------------------
          S.F.BOYS, IN "QUANTUM THEORY OF ATOMS, MOLECULES, AND SOLIDS"
          P.O.LOWDIN, ED. ACADEMIC PRESS, NY, 1966 PP253-266.

          THIS LOCALIZATION REQUIRES    146256 WORDS OF MEMORY.
          THIS LOCALIZATION HAS   16 ORBITALS, OF WHICH   4 ARE FROZEN.

          THE INITIAL LOCALIZATION SUM IS   3544.274057 DEBYE**2
          BOYS ITERATION  10 ORBITAL CHANGE=    9.9977365930E-04
          BOYS ITERATION  20 ORBITAL CHANGE=    2.3713438450E-06
          BOYS ITERATION  30 ORBITAL CHANGE=    4.7769398480E-09
          LOCALIZATION CONVERGED IN  34 ITERATIONS
            THE FINAL LOCALIZATION SUM IS   4082.559094 DEBYE**2

          THE BOYS LOCALIZED ORBITALS ARE

                      1          2          3          4          5

    1  C  1  S   -0.000006  -0.563276   0.001857   0.001777  -0.044854
    2  C  1  S   -0.000040  -0.468350   0.001632   0.001565  -0.076575
    3  C  1  X   -0.000034   0.000072   0.000066  -0.000094  -0.036331
    4  C  1  Y   -0.000130   0.000000  -0.000072  -0.000030  -0.097835
    5  C  1  Z    0.000007   0.000006   0.000011  -0.000006   0.101303
    6  C  1  S    0.000136   0.005051  -0.000417  -0.000415   0.190976
    7  C  1  X    0.000011   0.000129   0.000162  -0.000216  -0.051550
    8  C  1  Y    0.000069   0.001080  -0.000147  -0.000051  -0.136686
    9  C  1  Z   -0.000005  -0.000073   0.000023  -0.000012   0.151308
   10  C  1  S   -0.006300   0.000600  -0.002414  -0.002653  -0.012562
   11  C  1  X    0.000663   0.000409  -0.001089   0.000573  -0.050646
   12  C  1  Y    0.002374   0.000869  -0.000856  -0.001342  -0.040175
   13  C  1  Z   -0.000130  -0.000034  -0.000015   0.000142   0.098842
   14  C  1  S   -0.001947   0.001258   0.000985   0.000959   0.194736
   15  C  1  X    0.000010   0.000110  -0.000430   0.000480  -0.010486
   16  C  1  Y   -0.000321   0.000448   0.000189  -0.000057   0.051018
   17  C  1  Z    0.000026  -0.000025  -0.000049   0.000042   0.016297
   18  C  1 XX   -0.000007  -0.001916   0.000042   0.000029  -0.005122
   19  C  1 YY   -0.000014  -0.002146   0.000044   0.000056   0.002591
   20  C  1 ZZ   -0.000009  -0.002162   0.000056   0.000055  -0.004945
   21  C  1 XY   -0.000003  -0.000078   0.000018  -0.000008   0.003145
   22  C  1 XZ    0.000001   0.000029  -0.000003  -0.000002  -0.001376
   23  C  1 YZ    0.000000  -0.000008   0.000003  -0.000001  -0.004625
   24  C  1 XX   -0.000131  -0.003980   0.000129   0.000108  -0.020443
   25  C  1 YY   -0.000155  -0.003957   0.000088   0.000099   0.008970
   26  C  1 ZZ   -0.000033  -0.002540   0.000110   0.000111  -0.017652
   27  C  1 XY   -0.000010  -0.000017   0.000007  -0.000029   0.013603
   28  C  1 XZ   -0.000009  -0.000139   0.000001   0.000002  -0.009256
   29  C  1 YZ    0.000010   0.000127   0.000002  -0.000001  -0.030366
   30  C  1 XX   -0.000223  -0.000634  -0.000414  -0.000284  -0.056218
   31  C  1 YY   -0.001116  -0.001220  -0.000298  -0.000488  -0.002035
   32  C  1 ZZ    0.000479  -0.000834   0.000028   0.000037  -0.015769
   33  C  1 XY   -0.000187  -0.000121  -0.000142   0.000117  -0.009256
   34  C  1 XZ   -0.000056   0.000023  -0.000028  -0.000040   0.000627
   35  C  1 YZ    0.000129   0.000026   0.000024   0.000050   0.018392
   36  C  1 XXX  -0.000029  -0.000484  -0.000092   0.000051   0.001881
   37  C  1 YYY   0.000107  -0.000174   0.000093   0.000053  -0.001392
   38  C  1 ZZZ   0.000005   0.000028  -0.000009   0.000005  -0.001476
   39  C  1 XXY  -0.000032  -0.000776  -0.000015  -0.000030   0.001724
   40  C  1 XXZ   0.000001   0.000009  -0.000004   0.000002   0.000130
   41  C  1 YYX   0.000070   0.000483   0.000011   0.000079  -0.003006
   42  C  1 YYZ  -0.000012   0.000032  -0.000004   0.000002   0.010417
   43  C  1 ZZX  -0.000012  -0.000008  -0.000026   0.000036   0.000447
   44  C  1 ZZY  -0.000042  -0.000179   0.000026   0.000010   0.000847
   45  C  1 XYZ  -0.000006  -0.000103  -0.000007  -0.000008   0.003896
   46  O  2  S    0.551332   0.000210  -0.000005  -0.000005  -0.046742
   47  O  2  S    0.472796   0.000278   0.000002   0.000004  -0.081851
   48  O  2  X    0.001058  -0.000087  -0.000006   0.000012   0.021777
   49  O  2  Y    0.002635  -0.000305   0.000011   0.000007   0.137457
   50  O  2  Z   -0.000118   0.000017  -0.000001   0.000000   0.158021
   51  O  2  S    0.000929  -0.000172   0.000008   0.000007   0.217708
   52  O  2  X   -0.002161  -0.000090  -0.000014   0.000030   0.031340
   53  O  2  Y   -0.005178  -0.000302   0.000037   0.000025   0.199422
   54  O  2  Z    0.000225   0.000016  -0.000004   0.000001   0.235547
   55  O  2  S   -0.002664   0.001000  -0.000026   0.000006   0.127126
   56  O  2  X    0.000693   0.000239   0.000001  -0.000048   0.007529
   57  O  2  Y    0.001970   0.000794  -0.000099  -0.000068   0.134922
   58  O  2  Z   -0.000096  -0.000042   0.000009  -0.000001   0.240992
   59  O  2  S    0.001612   0.001659  -0.000027   0.000009  -0.021263
   60  O  2  X    0.000107   0.000128   0.000067  -0.000045  -0.014764
   61  O  2  Y    0.000442   0.000430   0.000031   0.000069   0.009406
   62  O  2  Z   -0.000026  -0.000023   0.000001  -0.000007   0.025461
   63  O  2 XX    0.001177   0.000007   0.000007   0.000009  -0.003915
   64  O  2 YY    0.001288  -0.000032   0.000005   0.000004  -0.001401
   65  O  2 ZZ    0.001233   0.000002   0.000005   0.000006  -0.004298
   66  O  2 XY    0.000035  -0.000014  -0.000002  -0.000000   0.000756
   67  O  2 XZ   -0.000008   0.000002   0.000000   0.000000   0.000467
   68  O  2 YZ   -0.000002   0.000002  -0.000000   0.000000   0.001363
   69  O  2 XX    0.002533   0.000089   0.000014   0.000014  -0.016534
   70  O  2 YY    0.002562  -0.000257   0.000042   0.000050   0.010468
   71  O  2 ZZ    0.002210   0.000086   0.000018   0.000021  -0.018388
   72  O  2 XY    0.000030  -0.000122   0.000014   0.000009   0.008344
   73  O  2 XZ    0.000028   0.000010  -0.000002  -0.000001   0.003391
   74  O  2 YZ   -0.000029   0.000021  -0.000001  -0.000002   0.011597
   75  O  2 XX    0.002184   0.000129   0.000029   0.000015  -0.016764
   76  O  2 YY    0.002390   0.000399  -0.000046  -0.000008  -0.003578
   77  O  2 ZZ    0.002142   0.000059   0.000014   0.000025  -0.017816
   78  O  2 XY    0.000091   0.000102   0.000010  -0.000044   0.000427
   79  O  2 XZ   -0.000003  -0.000001   0.000001   0.000003   0.008822
   80  O  2 YZ   -0.000015  -0.000022   0.000006  -0.000000   0.024683
   81  O  2 XXX   0.001036   0.000046  -0.000002  -0.000003  -0.001265
   82  O  2 YYY   0.002688  -0.000186   0.000014   0.000027   0.009435
   83  O  2 ZZZ  -0.000110  -0.000011  -0.000001  -0.000001   0.002455
   84  O  2 XXY   0.001120   0.000047   0.000003  -0.000007  -0.001400
   85  O  2 XXZ  -0.000050  -0.000003  -0.000001  -0.000000   0.000268
   86  O  2 YYX   0.000552  -0.000117   0.000019   0.000003   0.004323
   87  O  2 YYZ  -0.000060   0.000023   0.000001  -0.000001   0.004225
   88  O  2 ZZX   0.000468   0.000024   0.000002   0.000004  -0.000731
   89  O  2 ZZY   0.001127   0.000087   0.000009   0.000009  -0.001621
   90  O  2 XYZ  -0.000008   0.000009  -0.000002  -0.000001   0.001083
   91  C  3  S    0.000002  -0.001762  -0.563151  -0.001095   0.001990
   92  C  3  S   -0.000005  -0.001352  -0.467941  -0.000923   0.003691
   93  C  3  X   -0.000020  -0.000054  -0.000429   0.000003  -0.004133
   94  C  3  Y    0.000007   0.000054  -0.000044  -0.000007   0.004542
   95  C  3  Z   -0.000002  -0.000009  -0.000023   0.000001  -0.001730
   96  C  3  S    0.000015  -0.000320   0.003437   0.000066  -0.009562
   97  C  3  X    0.000092  -0.000096   0.001199   0.000035  -0.005281
   98  C  3  Y   -0.000046   0.000106  -0.000016  -0.000002   0.006116
   99  C  3  Z    0.000011  -0.000017   0.000080   0.000001  -0.001220
  100  C  3  S    0.001382   0.000272   0.000803   0.001967  -0.001079
  101  C  3  X    0.000272   0.000138   0.000562   0.001206  -0.006794
  102  C  3  Y   -0.000709   0.000016  -0.000510  -0.000867  -0.011578
  103  C  3  Z    0.000076  -0.000002   0.000088   0.000184  -0.031093
  104  C  3  S    0.000972  -0.000713  -0.001450   0.000299  -0.159904
  105  C  3  X    0.000086  -0.000092  -0.000297   0.000136  -0.027619
  106  C  3  Y   -0.000179   0.000159   0.000200   0.000007   0.026139
  107  C  3  Z    0.000029  -0.000023  -0.000037   0.000006  -0.019113
  108  C  3 XX   -0.000012   0.000035  -0.001967  -0.000012  -0.000202
  109  C  3 YY    0.000001   0.000032  -0.001964  -0.000013   0.000444
  110  C  3 ZZ   -0.000009   0.000059  -0.001983  -0.000013   0.000326
  111  C  3 XY   -0.000001   0.000036  -0.000018   0.000002  -0.000005
  112  C  3 XZ   -0.000000  -0.000005   0.000003  -0.000000   0.000311
  113  C  3 YZ   -0.000001   0.000006  -0.000003   0.000000  -0.000709
  114  C  3 XX    0.000026   0.000297  -0.002768  -0.000016  -0.003212
  115  C  3 YY   -0.000027   0.000329  -0.002760  -0.000015   0.002489
  116  C  3 ZZ   -0.000004   0.000123  -0.002729  -0.000026   0.002055
  117  C  3 XY   -0.000007  -0.000232  -0.000053  -0.000024   0.000025
  118  C  3 XZ    0.000003   0.000035   0.000002   0.000003   0.002866
  119  C  3 YZ    0.000001  -0.000039  -0.000001  -0.000002  -0.007502
  120  C  3 XX    0.000121   0.000084  -0.000529   0.000371   0.001553
  121  C  3 YY    0.000120   0.000011  -0.000533   0.000201   0.008924
  122  C  3 ZZ   -0.000210   0.000123  -0.000697   0.000026   0.002872
  123  C  3 XY   -0.000047  -0.000007  -0.000207  -0.000272   0.000151
  124  C  3 XZ    0.000029  -0.000007   0.000032   0.000063  -0.010787
  125  C  3 YZ   -0.000034   0.000010  -0.000032  -0.000036  -0.010621
  126  C  3 XXX  -0.000041   0.000129  -0.000317  -0.000008  -0.001093
  127  C  3 YYY   0.000033  -0.000154   0.000014  -0.000013  -0.000189
  128  C  3 ZZZ  -0.000001   0.000014   0.000032   0.000001  -0.000596
  129  C  3 XXY  -0.000016  -0.000141   0.000341  -0.000007   0.001349
  130  C  3 XXZ  -0.000002   0.000020  -0.000020  -0.000000   0.000531
  131  C  3 YYX  -0.000008   0.000148  -0.000376   0.000011   0.000074
  132  C  3 YYZ  -0.000004   0.000022  -0.000095   0.000002   0.000872
  133  C  3 ZZX  -0.000001   0.000036  -0.000302  -0.000001   0.000190
  134  C  3 ZZY  -0.000000  -0.000045  -0.000347  -0.000006  -0.000141
  135  C  3 XYZ  -0.000001  -0.000020   0.000063  -0.000001  -0.001265
  136  C  4  S    0.000002  -0.001675   0.001097  -0.563150   0.001800
  137  C  4  S   -0.000006  -0.001279   0.000898  -0.467942   0.004004
  138  C  4  X    0.000018   0.000073  -0.000007   0.000431   0.005752
  139  C  4  Y   -0.000006   0.000020  -0.000004  -0.000343   0.001490
  140  C  4  Z    0.000002   0.000005  -0.000000   0.000049  -0.000822
  141  C  4  S    0.000024  -0.000331   0.000054   0.003428  -0.007438
  142  C  4  X   -0.000089   0.000132  -0.000029  -0.001252   0.006602
  143  C  4  Y    0.000017   0.000046   0.000015   0.000815   0.002005
  144  C  4  Z   -0.000008   0.000009  -0.000002  -0.000137  -0.000037
  145  C  4  S    0.001176   0.000035   0.001843   0.000822   0.069966
  146  C  4  X   -0.000545   0.000041  -0.001351  -0.000741  -0.034876
  147  C  4  Y   -0.000537   0.000105  -0.000148  -0.000152  -0.010280
  148  C  4  Z   -0.000002   0.000007  -0.000115  -0.000052  -0.030958
  149  C  4  S    0.000740  -0.000699   0.000280  -0.001481  -0.033754
  150  C  4  X   -0.000117   0.000156  -0.000107   0.000361   0.011102
  151  C  4  Y   -0.000097   0.000076   0.000076   0.000031   0.006293
  152  C  4  Z   -0.000012   0.000009  -0.000009   0.000024  -0.011465
  153  C  4 XX   -0.000009   0.000007  -0.000006  -0.001955   0.000564
  154  C  4 YY   -0.000004   0.000060  -0.000004  -0.001977   0.000703
  155  C  4 ZZ   -0.000010   0.000061  -0.000006  -0.001986   0.000478
  156  C  4 XY    0.000007  -0.000021  -0.000002   0.000008   0.000394
  157  C  4 XZ   -0.000000  -0.000004   0.000000   0.000002  -0.000660
  158  C  4 YZ   -0.000000  -0.000002  -0.000000   0.000000  -0.000407
  159  C  4 XX    0.000019   0.000491   0.000009  -0.002724   0.002098
  160  C  4 YY   -0.000021   0.000151  -0.000022  -0.002814   0.002093
  161  C  4 ZZ   -0.000006   0.000118  -0.000016  -0.002724   0.001812
  162  C  4 XY   -0.000021   0.000141   0.000013   0.000048   0.003166
  163  C  4 XZ    0.000004   0.000025   0.000001  -0.000002  -0.006681
  164  C  4 YZ    0.000000   0.000009   0.000001   0.000010  -0.004537
  165  C  4 XX    0.000177   0.000019   0.000479  -0.000385   0.013200
  166  C  4 YY    0.000137   0.000022   0.000035  -0.000697   0.007116
  167  C  4 ZZ   -0.000194   0.000099   0.000024  -0.000699   0.009960
  168  C  4 XY    0.000039  -0.000050   0.000056   0.000115   0.009767
  169  C  4 XZ    0.000026  -0.000007   0.000045   0.000021   0.003360
  170  C  4 YZ   -0.000023   0.000004  -0.000003   0.000009  -0.012661
  171  C  4 XXX   0.000017  -0.000299  -0.000008   0.000761   0.000949
  172  C  4 YYY  -0.000000  -0.000031  -0.000004  -0.000281   0.000264
  173  C  4 ZZZ   0.000001  -0.000006  -0.000000   0.000077  -0.000601
  174  C  4 XXY  -0.000011  -0.000109  -0.000018   0.000121  -0.000567
  175  C  4 XXZ   0.000002  -0.000017   0.000001   0.000054   0.001901
  176  C  4 YYX   0.000038  -0.000063  -0.000001   0.000015  -0.000501
  177  C  4 YYZ   0.000002  -0.000005  -0.000000  -0.000031  -0.000274
  178  C  4 ZZX  -0.000001  -0.000051  -0.000002   0.000115   0.000265
  179  C  4 ZZY  -0.000005  -0.000020  -0.000004  -0.000496   0.000082
  180  C  4 XYZ  -0.000004  -0.000008  -0.000002   0.000062   0.000724
  181  H  5  S    0.000002   0.000019  -0.000271  -0.000002  -0.004867
  182  H  5  S   -0.000021  -0.000090   0.000429   0.000021  -0.000794
  183  H  5  S    0.000077  -0.000070   0.000630  -0.000015   0.004459
  184  H  5  S    0.000024  -0.000052   0.000001  -0.000020   0.005042
  185  H  5  X    0.000001  -0.000001   0.000002   0.000002  -0.000068
  186  H  5  Y   -0.000001  -0.000003   0.000057  -0.000000  -0.000185
  187  H  5  Z   -0.000001   0.000001   0.000061   0.000000  -0.000028
  188  H  5  X   -0.000018  -0.000002  -0.000042  -0.000016   0.000481
  189  H  5  Y    0.000033   0.000049  -0.000209  -0.000012   0.001730
  190  H  5  Z    0.000019   0.000019  -0.000241  -0.000017  -0.001218
  191  H  6  S    0.000003   0.000019  -0.000000  -0.000271   0.007476
  192  H  6  S   -0.000009  -0.000098   0.000012   0.000409   0.010504
  193  H  6  S    0.000072  -0.000058  -0.000023   0.000631  -0.006023
  194  H  6  S    0.000028  -0.000047  -0.000020   0.000003  -0.005488
  195  H  6  X   -0.000002   0.000000  -0.000002   0.000025   0.000638
  196  H  6  Y   -0.000001  -0.000003   0.000000   0.000044   0.000429
  197  H  6  Z    0.000001  -0.000000  -0.000000  -0.000066  -0.000063
  198  H  6  X    0.000034   0.000029   0.000007  -0.000058   0.000397
  199  H  6  Y    0.000018   0.000042  -0.000013  -0.000176  -0.001548
  200  H  6  Z   -0.000018  -0.000030   0.000013   0.000253   0.000294
  201  H  7  S    0.000002   0.000019  -0.000271  -0.000003   0.007643
  202  H  7  S   -0.000025  -0.000100   0.000428   0.000034   0.011361
  203  H  7  S    0.000078  -0.000076   0.000635  -0.000014   0.010423
  204  H  7  S    0.000037  -0.000052   0.000002  -0.000029  -0.004578
  205  H  7  X    0.000001  -0.000002   0.000011   0.000002  -0.000326
  206  H  7  Y   -0.000001  -0.000002   0.000045  -0.000001   0.000648
  207  H  7  Z    0.000001  -0.000000  -0.000070   0.000001  -0.000201
  208  H  7  X   -0.000017   0.000000  -0.000076  -0.000018  -0.001150
  209  H  7  Y    0.000031   0.000046  -0.000160  -0.000008  -0.000863
  210  H  7  Z   -0.000026  -0.000028   0.000268   0.000014   0.000586
  211  H  8  S    0.000007   0.000011  -0.000277  -0.000005  -0.002512
  212  H  8  S   -0.000213  -0.000033   0.000644   0.000060  -0.005789
  213  H  8  S   -0.000202  -0.000040   0.000587   0.000066  -0.001898
  214  H  8  S   -0.000083   0.000126  -0.000150   0.000130   0.007095
  215  H  8  X   -0.000005   0.000002  -0.000084   0.000001   0.000055
  216  H  8  Y   -0.000011  -0.000003  -0.000033  -0.000001   0.000039
  217  H  8  Z    0.000000   0.000000  -0.000002   0.000000   0.000211
  218  H  8  X   -0.000032  -0.000039   0.000387   0.000029   0.000671
  219  H  8  Y   -0.000017  -0.000016   0.000188   0.000003   0.000604
  220  H  8  Z    0.000000  -0.000002   0.000008   0.000003  -0.001796
  221  H  9  S    0.000003   0.000019  -0.000001  -0.000272  -0.005258
  222  H  9  S   -0.000013  -0.000108   0.000024   0.000408  -0.003244
  223  H  9  S    0.000075  -0.000062  -0.000023   0.000637  -0.014955
  224  H  9  S    0.000044  -0.000045  -0.000030   0.000005  -0.000911
  225  H  9  X   -0.000002   0.000000  -0.000002   0.000015  -0.000035
  226  H  9  Y   -0.000001  -0.000003   0.000000   0.000051  -0.000147
  227  H  9  Z   -0.000001   0.000001  -0.000001   0.000065  -0.000042
  228  H  9  X    0.000035   0.000026   0.000009  -0.000020   0.000832
  229  H  9  Y    0.000020   0.000045  -0.000014  -0.000201   0.001547
  230  H  9  Z    0.000020   0.000030  -0.000008  -0.000239  -0.000716
  231  H 10  S    0.000006   0.000012  -0.000003  -0.000277  -0.002191
  232  H 10  S   -0.000205  -0.000050   0.000050   0.000713  -0.002457
  233  H 10  S   -0.000214  -0.000045   0.000066   0.000603   0.002788
  234  H 10  S   -0.000101   0.000117   0.000125  -0.000145   0.001272
  235  H 10  X   -0.000001  -0.000002  -0.000002   0.000056  -0.000125
  236  H 10  Y   -0.000013  -0.000001  -0.000001  -0.000070   0.000072
  237  H 10  Z    0.000001  -0.000000   0.000000   0.000008   0.000183
  238  H 10  X    0.000013   0.000027  -0.000019  -0.000259   0.000874
  239  H 10  Y   -0.000022  -0.000035   0.000013   0.000376   0.000608
  240  H 10  Z    0.000001   0.000005  -0.000003  -0.000039  -0.001750

                      6          7          8          9         10

    1  C  1  S   -0.058566  -0.003692   0.011975   0.058395  -0.003771
    2  C  1  S   -0.103128  -0.007170   0.022225   0.103254  -0.007484
    3  C  1  X   -0.111469   0.010297  -0.016739  -0.159067  -0.006921
    4  C  1  Y    0.121928   0.003536   0.040546  -0.051565   0.011156
    5  C  1  Z   -0.018578   0.014999  -0.004442  -0.009036  -0.001772
    6  C  1  S    0.268655   0.020578  -0.071779  -0.263955   0.021654
    7  C  1  X   -0.163812   0.014686  -0.016079  -0.230589  -0.010792
    8  C  1  Y    0.177227   0.005222   0.058793  -0.067918   0.014835
    9  C  1  Z   -0.027094   0.023898  -0.005829  -0.013585  -0.002572
   10  C  1  S    0.260595   0.000839   0.036874  -0.204739   0.048201
   11  C  1  X   -0.130512   0.054841  -0.072559  -0.182064   0.033023
   12  C  1  Y    0.192138  -0.023437  -0.114448   0.069207   0.004435
   13  C  1  Z   -0.026054   0.009319   0.004054  -0.020694   0.002431
   14  C  1  S   -0.687024   0.057051   0.901184  -0.696280  -0.016146
   15  C  1  X    0.173033  -0.005220  -0.255296   0.150860   0.029540
   16  C  1  Y   -0.199675   0.013738   0.260636  -0.187355  -0.014652
   17  C  1  Z    0.030229  -0.008362  -0.042038   0.027279   0.003972
   18  C  1 XX   -0.003908  -0.000228   0.003022   0.000699  -0.001929
   19  C  1 YY   -0.004426  -0.000896  -0.001722   0.008346   0.000700
   20  C  1 ZZ   -0.005786  -0.000073   0.000965   0.005910  -0.000370
   21  C  1 XY   -0.004851  -0.000682   0.003998  -0.002168   0.000346
   22  C  1 XZ    0.000562   0.001088  -0.000122  -0.000328  -0.000157
   23  C  1 YZ   -0.000529   0.000639   0.000566  -0.000398  -0.000090
   24  C  1 XX   -0.007044  -0.000354   0.018148  -0.016711  -0.014262
   25  C  1 YY    0.001337  -0.002630  -0.011008   0.021058   0.009347
   26  C  1 ZZ   -0.018598   0.000277   0.002247   0.021671  -0.000546
   27  C  1 XY   -0.029284  -0.005475   0.027323  -0.020108   0.002603
   28  C  1 XZ    0.003411   0.011118  -0.000638  -0.002079  -0.001311
   29  C  1 YZ   -0.004220   0.005510   0.003427  -0.001580  -0.000892
   30  C  1 XX    0.013472   0.004655  -0.108047   0.070804  -0.023887
   31  C  1 YY   -0.036100  -0.026591   0.110395   0.015321   0.032474
   32  C  1 ZZ   -0.022030  -0.007381  -0.021567   0.054557  -0.007335
   33  C  1 XY   -0.050070   0.010698  -0.041087  -0.068945   0.023515
   34  C  1 XZ    0.007146   0.006133  -0.004445   0.006654  -0.003257
   35  C  1 YZ   -0.003527   0.008470  -0.014214  -0.002641  -0.001937
   36  C  1 XXX  -0.004850   0.000626   0.005304  -0.012767   0.001872
   37  C  1 YYY   0.003256   0.000281   0.000625   0.004535   0.002287
   38  C  1 ZZZ  -0.000276  -0.000124   0.000513  -0.000255  -0.000163
   39  C  1 XXY   0.006214  -0.001374  -0.006136  -0.004649  -0.002186
   40  C  1 XXZ  -0.000822   0.003118   0.000749  -0.000875   0.000437
   41  C  1 YYX  -0.008572  -0.001289  -0.005798  -0.000325  -0.002565
   42  C  1 YYZ  -0.000983  -0.000399  -0.000699  -0.000420  -0.000421
   43  C  1 ZZX  -0.001320   0.000487   0.001910  -0.001082  -0.000591
   44  C  1 ZZY   0.000451   0.000308  -0.000958   0.000394   0.000328
   45  C  1 XYZ   0.001232   0.001137   0.000212  -0.000543  -0.000005
   46  O  2  S    0.006785   0.001592  -0.071956  -0.005923  -0.002446
   47  O  2  S    0.012242   0.002922  -0.134538  -0.010223  -0.004977
   48  O  2  X    0.009281  -0.004978  -0.226937   0.020795  -0.003574
   49  O  2  Y   -0.019916  -0.004361  -0.067634   0.014926   0.005857
   50  O  2  Z    0.002312  -0.011997  -0.013095   0.000548  -0.000430
   51  O  2  S   -0.036315  -0.008569   0.359748   0.033065   0.012802
   52  O  2  X    0.014826  -0.007829  -0.333563   0.033214  -0.005594
   53  O  2  Y   -0.032682  -0.006555  -0.095023   0.023223   0.008456
   54  O  2  Z    0.003761  -0.018295  -0.019596   0.000923  -0.000629
   55  O  2  S   -0.005778  -0.012758   0.358632   0.108732  -0.006035
   56  O  2  X    0.042227  -0.010711  -0.372195   0.062163  -0.009303
   57  O  2  Y   -0.023262  -0.010389  -0.107872   0.052798   0.004277
   58  O  2  Z    0.005103  -0.018694  -0.021446   0.000882  -0.000626
   59  O  2  S    0.108089   0.004858  -0.091235   0.043824  -0.010342
   60  O  2  X    0.051790  -0.006670  -0.087265   0.038731  -0.006507
   61  O  2  Y    0.019233   0.001793  -0.029072   0.005416   0.001456
   62  O  2  Z    0.002464  -0.003801  -0.004488   0.002513  -0.000573
   63  O  2 XX    0.000123   0.000151  -0.008325  -0.000257  -0.000581
   64  O  2 YY    0.000601   0.000073  -0.008716   0.000117  -0.000366
   65  O  2 ZZ    0.000407   0.000117  -0.007902  -0.000076  -0.000473
   66  O  2 XY   -0.000481   0.000057  -0.001490  -0.000498   0.000004
   67  O  2 XZ    0.000010   0.000005   0.000077   0.000022  -0.000010
   68  O  2 YZ   -0.000057   0.000007  -0.000048  -0.000059  -0.000010
   69  O  2 XX   -0.001154   0.000961  -0.028852  -0.003720  -0.002387
   70  O  2 YY    0.001200  -0.000404  -0.032409   0.006908  -0.001638
   71  O  2 ZZ    0.001881   0.000383  -0.024547  -0.001197  -0.001216
   72  O  2 XY   -0.007013   0.000471  -0.010706  -0.003769   0.000295
   73  O  2 XZ    0.000265   0.000414   0.000428   0.000061  -0.000121
   74  O  2 YZ   -0.000514   0.000234  -0.000169  -0.001037   0.000054
   75  O  2 XX    0.006350   0.001582  -0.076541   0.005377  -0.006130
   76  O  2 YY    0.006937  -0.000129  -0.063378   0.010638  -0.004269
   77  O  2 ZZ    0.008095   0.001782  -0.062197   0.003126  -0.005723
   78  O  2 XY    0.002463   0.000549  -0.032311   0.002749  -0.000591
   79  O  2 XZ   -0.000393  -0.000524   0.001202  -0.000002  -0.000013
   80  O  2 YZ    0.000260   0.000237  -0.002434  -0.000491  -0.000188
   81  O  2 XXX   0.000610   0.000001  -0.000227  -0.000101   0.000157
   82  O  2 YYY  -0.000994  -0.000587  -0.000351   0.003655  -0.000129
   83  O  2 ZZZ   0.000054  -0.000330  -0.000371   0.000151   0.000018
   84  O  2 XXY  -0.001020   0.000254  -0.001356  -0.001789  -0.000276
   85  O  2 XXZ   0.000082   0.000011   0.000283   0.000087   0.000047
   86  O  2 YYX  -0.002629  -0.000012  -0.005248  -0.000005   0.000202
   87  O  2 YYZ  -0.000093   0.000089  -0.000266  -0.000474   0.000014
   88  O  2 ZZX   0.000392  -0.000130  -0.001248   0.000260  -0.000030
   89  O  2 ZZY   0.000148   0.000007   0.000798  -0.000561  -0.000082
   90  O  2 XYZ   0.000162   0.000179   0.000157  -0.000090  -0.000037
   91  C  3  S   -0.050299  -0.000961   0.004585  -0.007169   0.052370
   92  C  3  S   -0.085970  -0.001718   0.007801  -0.013319   0.093374
   93  C  3  X    0.108401   0.002026  -0.003734   0.013386   0.156065
   94  C  3  Y   -0.116994   0.000418   0.009492  -0.014552   0.069008
   95  C  3  Z    0.018474  -0.003236  -0.001154   0.002272   0.004104
   96  C  3  S    0.216735   0.004884  -0.019365   0.037361  -0.227590
   97  C  3  X    0.156009   0.003683  -0.007681   0.020985   0.230296
   98  C  3  Y   -0.167239   0.000904   0.017978  -0.020667   0.102442
   99  C  3  Z    0.026514  -0.004536  -0.002236   0.003354   0.005977
  100  C  3  S    0.021524   0.061980  -0.118547  -0.077390  -0.155483
  101  C  3  X    0.078839   0.040267  -0.064555   0.008161   0.179706
  102  C  3  Y   -0.051956  -0.015564  -0.020926   0.047534   0.038536
  103  C  3  Z    0.012075  -0.006175  -0.004975  -0.002193   0.007989
  104  C  3  S    0.742416  -0.027935  -0.999792   0.669114   0.058807
  105  C  3  X    0.120958   0.000998  -0.164620   0.107450   0.025404
  106  C  3  Y   -0.147971   0.011575   0.188994  -0.140226  -0.009594
  107  C  3  Z    0.022327   0.002531  -0.028812   0.020840   0.002455
  108  C  3 XX   -0.001867  -0.000119  -0.000153  -0.001572   0.000983
  109  C  3 YY   -0.001694  -0.000005  -0.000121  -0.000005   0.006393
  110  C  3 ZZ   -0.005271   0.000006  -0.000098  -0.000431   0.007616
  111  C  3 XY   -0.004231  -0.000125   0.000170   0.000095  -0.003419
  112  C  3 XZ    0.000664   0.000128  -0.000012  -0.000111  -0.000204
  113  C  3 YZ   -0.000686  -0.000136   0.000021  -0.000028  -0.000097
  114  C  3 XX    0.001228  -0.000798  -0.001479  -0.008683  -0.007972
  115  C  3 YY    0.000844  -0.000632   0.002235   0.004193   0.017955
  116  C  3 ZZ   -0.014460   0.000783  -0.001778   0.000941   0.023185
  117  C  3 XY   -0.021156  -0.000208  -0.001144   0.000062  -0.017717
  118  C  3 XZ    0.003215   0.001029   0.000127  -0.000858  -0.000857
  119  C  3 YZ   -0.003130  -0.000899  -0.000472  -0.000205  -0.000595
  120  C  3 XX   -0.010177   0.008534  -0.006359   0.002979   0.013824
  121  C  3 YY   -0.028811   0.001147   0.034855  -0.020100   0.042947
  122  C  3 ZZ   -0.025468   0.003619   0.008191  -0.010619   0.031923
  123  C  3 XY   -0.005342  -0.008953   0.004764   0.009693  -0.018203
  124  C  3 XZ    0.002277  -0.000215  -0.002416   0.000728   0.000156
  125  C  3 YZ    0.000153  -0.004065  -0.002261   0.002108  -0.002288
  126  C  3 XXX   0.004360  -0.000411   0.000116  -0.001048   0.007760
  127  C  3 YYY  -0.006636   0.000288  -0.000877  -0.002911   0.001294
  128  C  3 ZZZ   0.000491  -0.000480  -0.000098   0.000219   0.000459
  129  C  3 XXY  -0.006788   0.000172   0.000002   0.000661   0.005183
  130  C  3 XXZ   0.000605   0.000393   0.000113  -0.000358   0.000104
  131  C  3 YYX   0.005070  -0.000328   0.001040   0.001640   0.002483
  132  C  3 YYZ   0.001208  -0.000268   0.000138   0.000472  -0.000301
  133  C  3 ZZX   0.003080   0.000116  -0.000688   0.001099   0.000808
  134  C  3 ZZY  -0.000182   0.000163  -0.000122  -0.000135  -0.001497
  135  C  3 XYZ  -0.000738  -0.000134  -0.000180   0.000042   0.000361
  136  C  4  S    0.007202   0.050018  -0.005999   0.050294   0.003130
  137  C  4  S    0.012563   0.088550  -0.009443   0.085522   0.005702
  138  C  4  X    0.018307  -0.039973  -0.013072   0.152273   0.007862
  139  C  4  Y    0.006064  -0.087502  -0.006154   0.048353   0.000558
  140  C  4  Z    0.001077   0.138760  -0.000676   0.009375   0.000713
  141  C  4  S   -0.041637  -0.216494   0.031348  -0.219809  -0.017030
  142  C  4  X    0.027665  -0.058882  -0.020899   0.218129   0.012462
  143  C  4  Y    0.008120  -0.129232  -0.011588   0.069082   0.000750
  144  C  4  Z    0.001780   0.206083  -0.001114   0.013549   0.001115
  145  C  4  S   -0.062173  -0.200492   0.228266  -0.115393  -0.054212
  146  C  4  X    0.061027  -0.022800  -0.110373   0.148125   0.060821
  147  C  4  Y    0.016487  -0.090438  -0.029431   0.072002  -0.018503
  148  C  4  Z    0.004285   0.165393  -0.007937   0.007915   0.006624
  149  C  4  S   -0.053368  -0.034689   0.124282  -0.004174  -0.041744
  150  C  4  X    0.001202   0.011655  -0.010896  -0.012200   0.017081
  151  C  4  Y    0.020393  -0.011978  -0.016998   0.015856   0.001394
  152  C  4  Z   -0.002852   0.001341   0.002923  -0.003318   0.000946
  153  C  4 XX    0.000762   0.006837   0.000853  -0.001684   0.000329
  154  C  4 YY   -0.000179   0.004862   0.000346   0.004683   0.000192
  155  C  4 ZZ   -0.000057   0.001787   0.000637   0.005074   0.000119
  156  C  4 XY   -0.000755  -0.001162  -0.000437  -0.002266  -0.000348
  157  C  4 XZ    0.000132   0.001703   0.000052  -0.000479   0.000048
  158  C  4 YZ   -0.000043   0.003925  -0.000002  -0.000151  -0.000027
  159  C  4 XX    0.003373   0.021951   0.001675  -0.018441   0.001777
  160  C  4 YY   -0.003153   0.010776   0.001368   0.013572   0.000339
  161  C  4 ZZ   -0.002812  -0.004845   0.003495   0.013975  -0.000699
  162  C  4 XY   -0.005840  -0.005258  -0.006252  -0.010216  -0.002271
  163  C  4 XZ    0.001040   0.006212   0.000282  -0.002316   0.000431
  164  C  4 YZ   -0.000389   0.019709  -0.000249  -0.000798  -0.000224
  165  C  4 XX   -0.009429   0.024626   0.011195  -0.002832  -0.021399
  166  C  4 YY   -0.014061   0.021126  -0.004341   0.007129   0.002505
  167  C  4 ZZ    0.000102   0.007097   0.004744   0.018172  -0.002067
  168  C  4 XY   -0.010768  -0.006825   0.013957  -0.018676   0.003747
  169  C  4 XZ   -0.000471  -0.000923   0.000669  -0.001016  -0.002168
  170  C  4 YZ    0.000712   0.020904   0.001707  -0.000390   0.000291
  171  C  4 XXX  -0.000366  -0.000231   0.000390   0.011588  -0.000535
  172  C  4 YYY   0.000537  -0.001879  -0.001039   0.002926   0.000102
  173  C  4 ZZZ   0.000262   0.006079  -0.000189   0.000623   0.000102
  174  C  4 XXY   0.002409   0.000487   0.001208   0.004598   0.000282
  175  C  4 XXZ  -0.000452   0.001420   0.000138   0.000502  -0.000159
  176  C  4 YYX   0.001692  -0.001768   0.000811   0.001222   0.000502
  177  C  4 YYZ   0.000083   0.002537   0.000160  -0.000222   0.000016
  178  C  4 ZZX   0.001219  -0.001731  -0.000982   0.002703   0.000385
  179  C  4 ZZY  -0.000265  -0.005593   0.000111  -0.001243  -0.000176
  180  C  4 XYZ   0.000233   0.001060  -0.000025   0.000643   0.000050
  181  H  5  S   -0.010543  -0.001221   0.000643   0.003350   0.008322
  182  H  5  S   -0.029763  -0.001534   0.011273   0.004696   0.030097
  183  H  5  S   -0.025112  -0.003114   0.028082  -0.007437   0.004353
  184  H  5  S    0.002331  -0.007168  -0.000655   0.009436   0.006708
  185  H  5  X    0.002758   0.000126  -0.000084   0.000279   0.003977
  186  H  5  Y   -0.002126  -0.000035   0.000165  -0.000200   0.001197
  187  H  5  Z    0.001251   0.000022   0.000054  -0.000064  -0.000460
  188  H  5  X    0.004071  -0.000331   0.000030   0.000147   0.006547
  189  H  5  Y   -0.003805   0.000507  -0.000770  -0.000939   0.002139
  190  H  5  Z    0.004261  -0.000317  -0.003561   0.001366  -0.002570
  191  H  6  S   -0.003160  -0.191749  -0.002288   0.010668  -0.001997
  192  H  6  S   -0.009127  -0.266050  -0.007679   0.024806  -0.004379
  193  H  6  S    0.026404  -0.071125  -0.048535   0.031092   0.000648
  194  H  6  S   -0.004870  -0.015380  -0.004620   0.000219  -0.003482
  195  H  6  X    0.000329   0.003382  -0.000418   0.003502   0.000059
  196  H  6  Y    0.000009   0.006502  -0.000135   0.000599   0.000079
  197  H  6  Z   -0.000121  -0.010067   0.000126   0.001084  -0.000065
  198  H  6  X    0.001361   0.004815  -0.002261   0.006287   0.000129
  199  H  6  Y    0.001966   0.007582  -0.001868   0.002648   0.001009
  200  H  6  Z    0.000377  -0.012081  -0.002103   0.002638  -0.001216
  201  H  7  S   -0.010612   0.003436   0.000605   0.003160   0.008233
  202  H  7  S   -0.029038   0.002025   0.010280   0.005074   0.029922
  203  H  7  S   -0.023990  -0.002714   0.027143  -0.006378   0.003942
  204  H  7  S    0.002914   0.002157  -0.001001   0.010328   0.006697
  205  H  7  X    0.002875  -0.000226  -0.000060   0.000261   0.003902
[...]
    8             0.053435   0.104199   0.051740   0.004878   0.157174
    9             0.063839   0.098551   0.062569   0.054538   0.002101
   10             0.046220   0.103497   0.052733   0.003802   0.146555

                     11         12         13         14         15

                  2.000000   2.000000   2.000000   2.000000   2.000000

    1             0.338270   0.206654   0.017007   0.119025   0.250346
    2             0.331978   0.321130   0.001709   0.103706   1.145738
    3             0.421956   0.463352   0.549296   0.406456   0.153456
    4             0.351253   0.354487   0.595150   0.609180   0.174628
    5             0.148616   0.119960   0.188057   0.026321   0.061118
    6             0.123713   0.079380   0.204621   0.055515   0.070137
    7             0.152571   0.097920   0.208654   0.020762   0.065518
    8             0.002537   0.199517   0.004932   0.254897   0.001298
    9             0.127059   0.061497   0.225404   0.044507   0.076224
   10             0.002048   0.096104   0.005171   0.359632   0.001536

                     16

                  2.000000

    1             0.348831
    2             1.195590
    3             0.026976
    4             0.276690
    5             0.025361
    6             0.033774
    7             0.024525
    8             0.028837
    9             0.035605
   10             0.003811

               ----- POPULATIONS IN EACH AO -----
                             MULLIKEN      LOWDIN
              1  C  1  S      1.10337     1.03432
              2  C  1  S      0.89357     0.88317
              3  C  1  X      0.22304     0.19607
              4  C  1  Y      0.23494     0.20976
              5  C  1  Z      0.10724     0.09340
              6  C  1  S      0.76326     0.21638
              7  C  1  X      0.50743     0.26317
              8  C  1  Y      0.48430     0.26358
              9  C  1  Z      0.27251     0.14206
             10  C  1  S      0.49784     0.12803
             11  C  1  X      0.34664     0.16799
             12  C  1  Y      0.07276     0.15663
             13  C  1  Z      0.16978     0.14321
             14  C  1  S     -0.23470     0.03670
             15  C  1  X      0.19813     0.05060
             16  C  1  Y      0.18602     0.05635
             17  C  1  Z      0.00988     0.02924
             18  C  1 XX      0.00042     0.05668
             19  C  1 YY      0.00183     0.06109
             20  C  1 ZZ      0.00188     0.05118
             21  C  1 XY      0.00016     0.00217
             22  C  1 XZ      0.00086     0.00019
             23  C  1 YZ     -0.01473     0.00098
             24  C  1 XX      0.00713     0.14001
             25  C  1 YY      0.03731     0.16881
             26  C  1 ZZ      0.05478     0.08393
             27  C  1 XY      0.00860     0.08397
             28  C  1 XZ      0.03013     0.00966
             29  C  1 YZ     -0.06997     0.03932
             30  C  1 XX      0.01264     0.13147
             31  C  1 YY     -0.06840     0.14997
             32  C  1 ZZ     -0.04960     0.00670
             33  C  1 XY      0.00935     0.20998
             34  C  1 XZ     -0.01219     0.10069
             35  C  1 YZ     -0.02887     0.13781
             36  C  1 XXX     0.00486     0.17325
             37  C  1 YYY     0.00284     0.20030
             38  C  1 ZZZ     0.00074     0.07076
             39  C  1 XXY     0.00234     0.08887
             40  C  1 XXZ     0.00079     0.03937
             41  C  1 YYX     0.00166     0.10815
             42  C  1 YYZ     0.00488     0.08228
             43  C  1 ZZX     0.02407     0.06591
             44  C  1 ZZY     0.00680     0.06117
             45  C  1 XYZ     0.01112     0.00457
             46  O  2  S      1.08328     1.01647
             47  O  2  S      0.91402     0.90369
             48  O  2  X      0.37100     0.36019
             49  O  2  Y      0.30113     0.28180
             50  O  2  Z      0.25861     0.24642
             51  O  2  S      1.00468     0.33325
             52  O  2  X      0.76955     0.42103
             53  O  2  Y      0.65366     0.35721
             54  O  2  Z      0.57242     0.30683
             55  O  2  S      1.09503     0.26553
             56  O  2  X      0.75901     0.34620
             57  O  2  Y      0.38703     0.29078
             58  O  2  Z      0.57733     0.32229
             59  O  2  S      0.15345     0.07713
             60  O  2  X      0.12580     0.10012
             61  O  2  Y      0.01794     0.09005
             62  O  2  Z      0.03889     0.07457
             63  O  2 XX      0.00005     0.07702
             64  O  2 YY      0.00013     0.07764
             65  O  2 ZZ      0.00009     0.07658
             66  O  2 XY      0.00001     0.00012
             67  O  2 XZ      0.00010     0.00001
             68  O  2 YZ     -0.02595     0.00013
             69  O  2 XX      0.00196     0.18622
             70  O  2 YY      0.00557     0.18832
             71  O  2 ZZ      0.00393     0.18515
             72  O  2 XY      0.00037     0.00373
             73  O  2 XZ      0.00400     0.00026
             74  O  2 YZ     -0.15356     0.00251
             75  O  2 XX     -0.00040     0.04636
             76  O  2 YY      0.00314     0.08203
             77  O  2 ZZ     -0.00089     0.03591
             78  O  2 XY      0.00171     0.04462
             79  O  2 XZ      0.01744     0.00130
             80  O  2 YZ     -0.19458     0.01309
             81  O  2 XXX     0.00072     0.24177
             82  O  2 YYY     0.00034     0.23329
             83  O  2 ZZZ     0.00005     0.17663
             84  O  2 XXY     0.00016     0.09119
             85  O  2 XXZ     0.00033     0.07955
             86  O  2 YYX     0.00012     0.11623
             87  O  2 YYZ     0.00073     0.09043
             88  O  2 ZZX     0.00979     0.11095
             89  O  2 ZZY     0.01487     0.08675
             90  O  2 XYZ     0.01221     0.00012
             91  C  3  S      1.10274     1.03360
             92  C  3  S      0.89361     0.88408
             93  C  3  X      0.20600     0.18130
             94  C  3  Y      0.20679     0.18192
             95  C  3  Z      0.20612     0.18232
             96  C  3  S      0.72680     0.21365
             97  C  3  X      0.49100     0.27796
             98  C  3  Y      0.49073     0.27591
             99  C  3  Z      0.50105     0.28625
            100  C  3  S      0.53693     0.16173
            101  C  3  X      0.29099     0.22281
            102  C  3  Y      0.22161     0.21737
            103  C  3  Z      0.36239     0.25434
            104  C  3  S     -0.27892     0.03671
            105  C  3  X      0.08372     0.04135
            106  C  3  Y      0.05384     0.03734
            107  C  3  Z     -0.00121     0.03722
            108  C  3 XX      0.00047     0.05048
            109  C  3 YY      0.00031     0.04993
            110  C  3 ZZ      0.00061     0.05064
            111  C  3 XY      0.00007     0.00058
            112  C  3 XZ      0.00065     0.00008
            113  C  3 YZ     -0.01616     0.00069
            114  C  3 XX      0.00981     0.13321
            115  C  3 YY      0.00841     0.11927
            116  C  3 ZZ      0.01343     0.13348
            117  C  3 XY      0.00220     0.02288
            118  C  3 XZ      0.01418     0.00333
            119  C  3 YZ     -0.07049     0.03001
            120  C  3 XX      0.00511     0.07670
            121  C  3 YY      0.01556     0.05065
            122  C  3 ZZ      0.01191     0.03356
            123  C  3 XY     -0.00329     0.03935
            124  C  3 XZ      0.02165     0.01521
            125  C  3 YZ     -0.09206     0.06568
            126  C  3 XXX     0.00053     0.19032
            127  C  3 YYY     0.00025     0.16315
            128  C  3 ZZZ     0.00033     0.18914
            129  C  3 XXY     0.00017     0.09451
            130  C  3 XXZ     0.00123     0.06675
            131  C  3 YYX     0.00027     0.09247
            132  C  3 YYZ     0.00102     0.10353
            133  C  3 ZZX     0.02206     0.06696
            134  C  3 ZZY     0.02321     0.10686
            135  C  3 XYZ     0.01928     0.00103
            136  C  4  S      1.10274     1.03364
            137  C  4  S      0.89361     0.88414
            138  C  4  X      0.19893     0.17432
            139  C  4  Y      0.21437     0.19035
            140  C  4  Z      0.20573     0.18196
            141  C  4  S      0.72882     0.21628
            142  C  4  X      0.46990     0.26165
            143  C  4  Y      0.51156     0.29215
            144  C  4  Z      0.50040     0.28606
            145  C  4  S      0.50447     0.16292
            146  C  4  X      0.26675     0.19261
            147  C  4  Y      0.28116     0.23751
            148  C  4  Z      0.36299     0.25425
            149  C  4  S      0.02153     0.03769
            150  C  4  X     -0.00108     0.03601
            151  C  4  Y      0.02048     0.04338
            152  C  4  Z     -0.00454     0.03710
            153  C  4 XX      0.00046     0.05054
            154  C  4 YY      0.00040     0.05103
            155  C  4 ZZ      0.00052     0.05095
            156  C  4 XY      0.00009     0.00052
            157  C  4 XZ      0.00064     0.00009
            158  C  4 YZ     -0.01615     0.00070
            159  C  4 XX      0.00956     0.12636
            160  C  4 YY      0.00938     0.12842
            161  C  4 ZZ      0.01198     0.13423
            162  C  4 XY      0.00275     0.02367
            163  C  4 XZ      0.01385     0.00470
            164  C  4 YZ     -0.07083     0.02920
            165  C  4 XX     -0.00088     0.06636
            166  C  4 YY      0.00950     0.03649
            167  C  4 ZZ      0.01082     0.03302
            168  C  4 XY     -0.00324     0.06827
            169  C  4 XZ      0.02224     0.03559
            170  C  4 YZ     -0.12422     0.04657
            171  C  4 XXX     0.00100     0.17625
            172  C  4 YYY     0.00032     0.17820
            173  C  4 ZZZ     0.00027     0.18830
            174  C  4 XXY     0.00014     0.09435
            175  C  4 XXZ     0.00130     0.07001
            176  C  4 YYX     0.00019     0.09009
            177  C  4 YYZ     0.00056     0.10072
            178  C  4 ZZX     0.02441     0.06833
            179  C  4 ZZY     0.01988     0.10677
            180  C  4 XYZ     0.01917     0.00150
            181  H  5  S      0.26509     0.22159
            182  H  5  S      0.46489     0.31231
            183  H  5  S      0.09390     0.10957
            184  H  5  S     -0.00173     0.02190
            185  H  5  X      0.00097     0.00103
            186  H  5  Y      0.00277     0.00320
            187  H  5  Z      0.00328     0.00342
            188  H  5  X      0.00559     0.02603
            189  H  5  Y      0.00723     0.03231
            190  H  5  Z      0.00761     0.03380
            191  H  6  S      0.26523     0.22182
            192  H  6  S      0.46391     0.31173
            193  H  6  S      0.09388     0.10991
            194  H  6  S      0.00075     0.02225
            195  H  6  X      0.00124     0.00149
            196  H  6  Y      0.00210     0.00260
            197  H  6  Z      0.00368     0.00359
            198  H  6  X      0.00615     0.02552
            199  H  6  Y      0.00768     0.03204
            200  H  6  Z      0.00729     0.03488
            201  H  7  S      0.26488     0.22296
            202  H  7  S      0.46438     0.31248
            203  H  7  S      0.09248     0.10927
            204  H  7  S     -0.00207     0.02190
            205  H  7  X      0.00106     0.00117
            206  H  7  Y      0.00205     0.00267
            207  H  7  Z      0.00391     0.00389
            208  H  7  X      0.00553     0.02625
            209  H  7  Y      0.00730     0.03093
            210  H  7  Z      0.00771     0.03530
            211  H  8  S      0.26694     0.22863
            212  H  8  S      0.46656     0.31651
            213  H  8  S      0.09830     0.10912
            214  H  8  S      0.00609     0.02264
            215  H  8  X      0.00466     0.00494
            216  H  8  Y      0.00159     0.00220
            217  H  8  Z      0.00095     0.00100
            218  H  8  X      0.00718     0.03442
            219  H  8  Y      0.00599     0.02661
            220  H  8  Z      0.00732     0.02652
            221  H  9  S      0.26496     0.22144
            222  H  9  S      0.46350     0.31105
            223  H  9  S      0.09315     0.10961
            224  H  9  S      0.00193     0.02218
            225  H  9  X      0.00103     0.00117
            226  H  9  Y      0.00246     0.00293
            227  H  9  Z      0.00353     0.00357
            228  H  9  X      0.00608     0.02529
            229  H  9  Y      0.00774     0.03274
            230  H  9  Z      0.00750     0.03423
            231  H 10  S      0.26484     0.22175
            232  H 10  S      0.46577     0.30994
            233  H 10  S      0.05619     0.10771
            234  H 10  S      0.00891     0.02946
            235  H 10  X      0.00252     0.00319
            236  H 10  Y      0.00383     0.00385
            237  H 10  Z      0.00098     0.00108
            238  H 10  X      0.00678     0.02690
            239  H 10  Y      0.00711     0.03416
            240  H 10  Z      0.00733     0.02646

          ----- MULLIKEN ATOMIC OVERLAP POPULATIONS -----
          (OFF-DIAGONAL ELEMENTS NEED TO BE MULTIPLIED BY 2)

             1           2           3           4           5

    1   12.9641762
    2   -0.7288415   9.0438698
    3   -8.4872228   1.0465243  14.6972028
    4    1.8017149  -0.6328321  -2.0039068   5.9664594
    5    0.2527025  -0.0078933   0.1128739   0.0110309   0.4983935
    6   -0.2358238   0.0387424   0.2285309   0.3375935  -0.0004942
    7    0.2381293  -0.0075966   0.1310478   0.0079701  -0.0081677
    8    0.3182697  -0.0151866   0.0310498   0.0455482  -0.0004391
    9   -0.2617144   0.0446447   0.2558862   0.3282792  -0.0076449
   10   -0.0439720   0.0038356   0.0729398   0.3600915  -0.0007624

             6           7           8           9          10

    6    0.5034571
    7   -0.0065353   0.4941085
    8   -0.0035182  -0.0005820   0.4959613
    9   -0.0050300  -0.0003131  -0.0042974   0.5056714
   10   -0.0050127  -0.0008316  -0.0012269  -0.0036107   0.4428016

          TOTAL MULLIKEN AND LOWDIN ATOMIC POPULATIONS
       ATOM         MULL.POP.    CHARGE          LOW.POP.     CHARGE
    1 C             5.817418    0.182582         6.399881   -0.399881
    2 O             8.785267   -0.785267         8.041473   -0.041473
    3 C             6.084926   -0.084926         6.476326   -0.476326
    4 C             6.221949   -0.221949         6.483234   -0.483234
    5 H             0.849599    0.150401         0.765146    0.234854
    6 H             0.851910    0.148090         0.765835    0.234165
    7 H             0.847230    0.152770         0.766809    0.233191
    8 H             0.865579    0.134421         0.772577    0.227423
    9 H             0.851871    0.148129         0.764224    0.235776
   10 H             0.824252    0.175748         0.764495    0.235505

          MULLIKEN SPHERICAL HARMONIC POPULATIONS
       ATOM           S       P       D      F      G      H      I    TOTAL
    1 C             2.91    2.85    0.03   0.02   0.00   0.00   0.00    5.82
    2 O             3.88    4.87    0.04   0.00   0.00   0.00   0.00    8.79
    3 C             2.80    3.18    0.10   0.00   0.00   0.00   0.00    6.08
    4 C             3.04    3.09    0.09   0.00   0.00   0.00   0.00    6.22
    5 H             0.82    0.03    0.00   0.00   0.00   0.00   0.00    0.85
    6 H             0.82    0.03    0.00   0.00   0.00   0.00   0.00    0.85
    7 H             0.82    0.03    0.00   0.00   0.00   0.00   0.00    0.85
    8 H             0.84    0.03    0.00   0.00   0.00   0.00   0.00    0.87
    9 H             0.82    0.03    0.00   0.00   0.00   0.00   0.00    0.85
   10 H             0.80    0.03    0.00   0.00   0.00   0.00   0.00    0.82

          -------------------------------
          BOND ORDER AND VALENCE ANALYSIS     BOND ORDER THRESHOLD=0.050
          -------------------------------

                   BOND                       BOND                       BOND
  ATOM PAIR DIST  ORDER      ATOM PAIR DIST  ORDER      ATOM PAIR DIST  ORDER
    1   2  1.199  1.630        1   3  1.510  0.901        1   4  1.510  1.199
    1   5  2.142  0.067        1   7  2.139  0.065        1   8  2.137  0.072
    2   4  2.372 -0.088        3   4  2.576 -0.258        3   5  1.086  0.905
    3   7  1.086  0.907        3   8  1.081  0.903        4   6  1.086  0.975
    4   9  1.086  0.975        4  10  1.081  0.874

                       TOTAL       BONDED        FREE
      ATOM            VALENCE     VALENCE     VALENCE
    1 C                 3.969       3.969      -0.000
    2 O                 1.600       1.600       0.000
    3 C                 3.340       3.340       0.000
    4 C                 3.667       3.667      -0.000
    5 H                 0.987       0.987      -0.000
    6 H                 0.998       0.998      -0.000
    7 H                 0.986       0.986      -0.000
    8 H                 1.023       1.023      -0.000
    9 H                 1.002       1.002      -0.000
   10 H                 0.990       0.990      -0.000

          ----------------------------
          SOLUTE ELECTROSTATIC MOMENTS
          ----------------------------

 POINT   1           X           Y           Z (BOHR)    CHARGE
                 3.199338    5.321047    2.089530       -0.00 (A.U.)
         DX          DY          DZ         /D/  (DEBYE)
     0.818982    4.084382   -0.247659    4.173037

          ----------------------------------------
          EFFECTIVE FRAGMENT ELECTROSTATIC MOMENTS
          ----------------------------------------

 FRAGMENT   1  H2O   
          X           Y           Z (BOHR)    CHARGE
     6.429363   -0.946559    2.809650       -0.00 (A.U.)
         DX          DY          DZ         /D/  (DEBYE)
    -1.863256   -0.640226   -0.092495    1.972351


          ----------------------------
          SYSTEM ELECTROSTATIC MOMENTS
          ----------------------------

 POINT   1           X           Y           Z (BOHR)    CHARGE
                 3.199338    5.321047    2.089530       -0.00 (A.U.)
         DX          DY          DZ         /D/  (DEBYE)
    -1.323013    3.613265   -0.373532    3.865951
 ...... END OF PROPERTY EVALUATION ......
 STEP CPU TIME =     0.14 TOTAL CPU TIME =      120.1 (    2.0 MIN)
 TOTAL WALL CLOCK TIME=      162.5 SECONDS, CPU UTILIZATION IS  73.90%
              1573225  WORDS OF DYNAMIC MEMORY USED
 EXECUTION OF GAMESS TERMINATED NORMALLY Wed Aug  9 22:11:39 2017
 DDI: 263640 bytes (0.3 MB / 0 MWords) used by master data server.

 ----------------------------------------
 CPU timing information for all processes
 ========================================
 0: 105.948 + 14.123 = 120.72
 ----------------------------------------
 ddikick.x: exited gracefully.
unset echo
----- accounting info -----
Files used on the master node compute-0-7.local were:
-rw-rw-r-- 1 sarom sarom  29K Aug  9 22:08 /scratch/h2o_acetone_efpqm.F05
-rw-rw-r-- 1 sarom sarom 4.1G Aug  9 22:09 /scratch/h2o_acetone_efpqm.F08
-rw-rw-r-- 1 sarom sarom 7.2M Aug  9 22:11 /scratch/h2o_acetone_efpqm.F10
-rw-rw-r-- 1 sarom sarom 2.7M Aug  9 22:09 /scratch/h2o_acetone_efpqm.F25
-rw-rw-r-- 1 sarom sarom 2.4G Aug  9 22:10 /scratch/h2o_acetone_efpqm.F39
rm: No match.
ls: No match.
ls: No match.
ls: No match.
Wed Aug  9 22:11:43 CDT 2017
0.265u 0.917s 2:46.79 0.7%	0+0k 64+440io 0pf+0w
/opt/gridengine/default/spool/compute-0-7/active_jobs/36163.1/pe_hostfile compute-0-7.local
