----- GAMESS execution script 'rungms' -----
This job is running on host compute-3-0
under operating system Linux at Mon Nov 28 20:02:23 CST 2016
Available scratch disk space (Kbyte units) at beginning of the job is
Filesystem            1K-blocks       Used  Available Use% Mounted on
bolt.local:/export/home/sarom
                     9590469632 1552196608 7551105024  18% /home/sarom
Copying input file h2o_meoh_qmefp.inp to your run's scratch directory...
cp h2o_meoh_qmefp.inp .//h2o_meoh_qmefp.F05
unset echo
/home/sarom/gamessGH/ddikick.x /home/sarom/gamessGH/gamess.00.x h2o_meoh_qmefp -ddi 1 1 localhost -scr ./

 Distributed Data Interface kickoff program.
 Initiating 1 compute processes on 1 nodes to run the following command:
 /home/sarom/gamessGH/gamess.00.x h2o_meoh_qmefp 

          ******************************************************
          *         GAMESS VERSION = 18 AUG 2016 (R1)          *
          *             FROM IOWA STATE UNIVERSITY             *
          * M.W.SCHMIDT, K.K.BALDRIDGE, J.A.BOATZ, S.T.ELBERT, *
          *   M.S.GORDON, J.H.JENSEN, S.KOSEKI, N.MATSUNAGA,   *
          *          K.A.NGUYEN, S.J.SU, T.L.WINDUS,           *
          *       TOGETHER WITH M.DUPUIS, J.A.MONTGOMERY       *
          *         J.COMPUT.CHEM.  14, 1347-1363(1993)        *
          **************** 64 BIT LINUX VERSION ****************

  SINCE 1993, STUDENTS AND POSTDOCS WORKING AT IOWA STATE UNIVERSITY
  AND ALSO IN THEIR VARIOUS JOBS AFTER LEAVING ISU HAVE MADE IMPORTANT
  CONTRIBUTIONS TO THE CODE:
     IVANA ADAMOVIC, CHRISTINE AIKENS, YURI ALEXEEV, POOJA ARORA,
     ANDREY ASADCHEV, ROB BELL, PRADIPTA BANDYOPADHYAY, JONATHAN BENTZ,
     BRETT BODE, KURT BRORSEN, CALEB CARLIN, GALINA CHABAN, WEI CHEN,
     CHEOL HO CHOI, PAUL DAY, ALBERT DEFUSCO, NUWAN DESILVA, TIM DUDLEY,
     DMITRI FEDOROV, GRAHAM FLETCHER, MARK FREITAG, KURT GLAESEMANN,
     DAN KEMP, GRANT MERRILL, NORIYUKI MINEZAWA, JONATHAN MULLIN,
     TAKESHI NAGATA, SEAN NEDD, HEATHER NETZLOFF, BOSILJKA NJEGIC, RYAN OLSON,
     MIKE PAK, SPENCER PRUITT, LUKE ROSKOP, JIM SHOEMAKER, LYUDMILA SLIPCHENKO,
     TONY SMITH, SAROM SOK LEANG, JIE SONG, TETSUYA TAKETSUGU, SIMON WEBB,
     PENG XU, SOOHAENG YOO, FEDERICO ZAHARIEV

  ADDITIONAL CODE HAS BEEN PROVIDED BY COLLABORATORS IN OTHER GROUPS:
     IOWA STATE UNIVERSITY:
          JOE IVANIC, AARON WEST, LAIMUTIS BYTAUTAS, KLAUS RUEDENBERG
     UNIVERSITY OF TOKYO: KIMIHIKO HIRAO, TAKAHITO NAKAJIMA,
          TAKAO TSUNEDA, MUNEAKI KAMIYA, SUSUMU YANAGISAWA,
          KIYOSHI YAGI, MAHITO CHIBA, SEIKEN TOKURA, NAOAKI KAWAKAMI
     UNIVERSITY OF AARHUS: FRANK JENSEN
     UNIVERSITY OF IOWA: VISVALDAS KAIRYS, HUI LI
     NATIONAL INST. OF STANDARDS AND TECHNOLOGY: WALT STEVENS, DAVID GARMER
     UNIVERSITY OF PISA: BENEDETTA MENNUCCI, JACOPO TOMASI
     UNIVERSITY OF MEMPHIS: HENRY KURTZ, PRAKASHAN KORAMBATH
     UNIVERSITY OF ALBERTA: TOBY ZENG, MARIUSZ KLOBUKOWSKI
     UNIVERSITY OF NEW ENGLAND: MARK SPACKMAN
     MIE UNIVERSITY: HIROAKI UMEDA
     NAT. INST. OF ADVANCED INDUSTRIAL SCIENCE AND TECHNOLOGY: KAZUO KITAURA
     MICHIGAN STATE UNIVERSITY:
          KAROL KOWALSKI, MARTA WLOCH, JEFFREY GOUR, JESSE LUTZ,
          WEI LI, PIOTR PIECUCH
     UNIVERSITY OF SILESIA: MONIKA MUSIAL, STANISLAW KUCHARSKI
     FACULTES UNIVERSITAIRES NOTRE-DAME DE LA PAIX:
          OLIVIER QUINET, BENOIT CHAMPAGNE
     UNIVERSITY OF CALIFORNIA - SANTA BARBARA: BERNARD KIRTMAN
     INSTITUTE FOR MOLECULAR SCIENCE:
          KAZUYA ISHIMURA, MICHIO KATOUDA, AND SHIGERU NAGASE
     UNIVERSITY OF NOTRE DAME: ANNA POMOGAEVA, DAN CHIPMAN
     KYUSHU UNIVERSITY:
          HARUYUKI NAKANO,
          FENG LONG GU, JACEK KORCHOWIEC, MARCIN MAKOWSKI, AND YURIKO AOKI,
          HIROTOSHI MORI AND EISAKU MIYOSHI
     PENNSYLVANIA STATE UNIVERSITY:
          TZVETELIN IORDANOV, CHET SWALINA, JONATHAN SKONE,
          SHARON HAMMES-SCHIFFER
     WASEDA UNIVERSITY:
          MASATO KOBAYASHI, TOMOKO AKAMA, TSUGUKI TOUMA,
          TAKESHI YOSHIKAWA, YASUHIRO IKABATA, JUNJI SEINO,
          YUYA NAKAJIMA, HIROMI NAKAI
     NANJING UNIVERSITY: SHUHUA LI
     UNIVERSITY OF NEBRASKA:
          PEIFENG SU, DEJUN SI, NANDUN THELLAMUREGE, YALI WANG, HUI LI
     UNIVERSITY OF ZURICH: ROBERTO PEVERATI, KIM BALDRIDGE
     N. COPERNICUS UNIVERSITY AND JACKSON STATE UNIVERSITY:
          MARIA BARYSZ
     UNIVERSITY OF COPENHAGEN: Jimmy Kromann, CASPER STEINMANN
     TOKYO INSTITUTE OF TECHNOLOGY: HIROYA NAKATA
     NAGOYA UNIVERSITY: YOSHIO NISHIMOTO, STEPHAN IRLE
     MOSCOW STATE UNIVERSITY: VLADIMIR MIRONOV

 EXECUTION OF GAMESS BEGUN Mon Nov 28 20:02:23 2016

            ECHO OF THE FIRST FEW INPUT CARDS -
 INPUT CARD>!H2O-Methanol                                                                   
 INPUT CARD>!H2O - Ab initio; Methanol - EFP                                                
 INPUT CARD>!EXCHANGE REPULSION =    0.0074814331                                           
 INPUT CARD>                                                                                
 INPUT CARD> $CONTRL SCFTYP=RHF RUNTYP=energy MAXIT=30 MULT=1 ispher=0 $END                 
 INPUT CARD> $SYSTEM TIMLIM=525600 MWORDS=10 $END                                           
 INPUT CARD> $BASIS GBASIS=N311 NGAUSS=6 NDFUNC=3 NPFUNC=2 NFFUNC=1                         
 INPUT CARD>        DIFFSP=.T. DIFFS=.T. $END                                               
 INPUT CARD> $INTGRL SCHWRZ=.F. $END                                                        
 INPUT CARD> $SCF DIRSCF=.F. $END                                                           
 INPUT CARD> $DATA                                                                          
 INPUT CARD>title                                                                           
 INPUT CARD> C1                                                                             
 INPUT CARD> O           8.0   0.6105398550  -0.6958902898  -1.0927962906                   
 INPUT CARD> H           1.0   0.3582018389   0.0334309320  -0.5414853137                   
 INPUT CARD> H           1.0   0.1531925660  -1.4544244167  -0.7711825583                   
 INPUT CARD> $END                                                                           
 INPUT CARD> $EFRAG                                                                         
 INPUT CARD> ISCRELEC=0 ISCRPOL=1 ISCRDISP=1 COORD=CART QMDISP=1                            
 INPUT CARD> FRAGNAME=MEOH                                                                  
 INPUT CARD> A01O             -0.1589788400   1.6226038153   0.5830954572                   
 INPUT CARD> A02C             -0.8225197362   2.7115179916  -0.0129519789                   
 INPUT CARD> A03H             -1.5524293633   2.3022656601  -0.6966306686                   
 INPUT CARD> A04H             -1.3364376695   3.3128984190   0.7304910526                   
 INPUT CARD> A05H             -0.1338735412   3.3378629402  -0.5710012742                   
 INPUT CARD> A06H              0.5036848903   1.9235049483   1.1826615745                   
 INPUT CARD> $END                                                                           
 INPUT CARD>                                                                                
 INPUT CARD>          RUNTYP=MAKEFP EFFECTIVE FRAGMENT POTENTIAL DATA FOLLOWS...            
 INPUT CARD>          MEOH    EFP GENERATED AT Tue Jun 25 15:13:25 2013                     
 INPUT CARD> $MEOH                                                                          
 INPUT CARD>EFP DATA FOR MEOH     SCFTYP=RHF     ... GENERATED WITH BASIS SET=XXX           
 INPUT CARD> COORDINATES (BOHR)                                                             
 INPUT CARD>A01O      -0.2577697526   1.7383957523   1.3420714045  15.9949100  8.0          
 INPUT CARD>A02C      -1.2611389950   3.7192671675  -0.0888174629  12.0000000  6.0          
 INPUT CARD>A03H      -2.9272072776   4.3886203964   0.8825715746   1.0078250  1.0          
 INPUT CARD>A04H       0.0587652185   5.2807867049  -0.2635100103   1.0078250  1.0          
 INPUT CARD>A05H      -1.8103837247   3.1022271469  -1.9673494344   1.0078250  1.0          
 INPUT CARD>A06H       1.2007974345   1.0962037923   0.5642582716   1.0078250  1.0          
 INPUT CARD>BO21      -0.7594543738   2.7288314599   0.6266269708   0.0000000  0.0          
 INPUT CARD>BO32      -2.0941731363   4.0539437819   0.3968770558   0.0000000  0.0          
 INPUT CARD>BO42      -0.6011868882   4.5000269362  -0.1761637366   0.0000000  0.0          
 INPUT CARD>BO52      -1.5357613599   3.4107471572  -1.0280834487   0.0000000  0.0          
 INPUT CARD>BO61       0.4715138410   1.4172997723   0.9531648380   0.0000000  0.0          
 INPUT CARD> STOP                                                                           
 INPUT CARD> MONOPOLES                                                                      
 INPUT CARD>A01O      -8.2077881065   8.00000                                               
 INPUT CARD>A02C      -4.7423017208   6.00000                                               
 INPUT CARD>A03H      -0.6399996045   1.00000                                               
 INPUT CARD>A04H      -0.6604309203   1.00000                                               
   10000000 WORDS OF MEMORY AVAILABLE

     BASIS OPTIONS
     -------------
     GBASIS=N311         IGAUSS=       6      POLAR=POPN311 
     NDFUNC=       3     NFFUNC=       1     DIFFSP=       T
     NPFUNC=       2      DIFFS=       T     BASNAM=        
     SPLIT2=     2.00000000     0.50000000
     SPLIT3=     4.00000000     1.00000000     0.25000000


     RUN TITLE
     ---------
 title                                                                           

 THE POINT GROUP OF THE MOLECULE IS C1      
 THE ORDER OF THE PRINCIPAL AXIS IS     0

 ATOM      ATOMIC                      COORDINATES (BOHR)
           CHARGE         X                   Y                   Z
 O           8.0     1.1537530305       -1.3150419652       -2.0650855496
 H           1.0     0.6769033238        0.0631753010       -1.0232588693
 H           1.0     0.2894919731       -2.7484636174       -1.4573237217

          INTERNUCLEAR DISTANCES (ANGS.)
          ------------------------------

                1 O          2 H          3 H     

   1 O       0.0000000    0.9484343 *  0.9423248 *
   2 H       0.9484343 *  0.0000000    1.5193759 *
   3 H       0.9423248 *  1.5193759 *  0.0000000  

  * ... LESS THAN  3.000


     ATOMIC BASIS SET
     ----------------
 THE CONTRACTED PRIMITIVE FUNCTIONS HAVE BEEN UNNORMALIZED
 THE CONTRACTED BASIS FUNCTIONS ARE NOW NORMALIZED TO UNITY

  SHELL TYPE  PRIMITIVE        EXPONENT          CONTRACTION COEFFICIENT(S)

 O         

      1   S       1          8588.5000000    0.001895150083
      1   S       2          1297.2300000    0.014385900631
      1   S       3           299.2960000    0.070732003103
      1   S       4            87.3771000    0.240001010530
      1   S       5            25.6789000    0.594797026097
      1   S       6             3.7400400    0.280802012320

      2   L       7            42.1175000    0.113889012440    0.036511397380
      2   L       8             9.6283700    0.920811100576    0.237152982984
      2   L       9             2.8533200   -0.003274470358    0.819701941186

      3   L      10             0.9056610    1.000000000000    1.000000000000

      4   L      11             0.2556110    1.000000000000    1.000000000000

      5   L      12             0.0845000    1.000000000000    1.000000000000

      6   D      13             5.1680000    1.000000000000

      7   D      14             1.2920000    1.000000000000

      8   D      15             0.3230000    1.000000000000

      9   F      16             1.4000000    1.000000000000

 H         

     10   S      17            33.8650000    0.025493814541
     10   S      18             5.0947900    0.190373108582
     10   S      19             1.1587900    0.852161486043

     11   S      20             0.3258400    1.000000000000

     12   S      21             0.1027410    1.000000000000

     13   S      22             0.0360000    1.000000000000

     14   P      23             1.5000000    1.000000000000

     15   P      24             0.3750000    1.000000000000

 H         

     16   S      25            33.8650000    0.025493814541
     16   S      26             5.0947900    0.190373108582
     16   S      27             1.1587900    0.852161486043

     17   S      28             0.3258400    1.000000000000

     18   S      29             0.1027410    1.000000000000

     19   S      30             0.0360000    1.000000000000

     20   P      31             1.5000000    1.000000000000

     21   P      32             0.3750000    1.000000000000

 TOTAL NUMBER OF BASIS SET SHELLS             =   21
 NUMBER OF CARTESIAN GAUSSIAN BASIS FUNCTIONS =   65
 NUMBER OF ELECTRONS                          =   10
 CHARGE OF MOLECULE                           =    0
 SPIN MULTIPLICITY                            =    1
 NUMBER OF OCCUPIED ORBITALS (ALPHA)          =    5
 NUMBER OF OCCUPIED ORBITALS (BETA )          =    5
 TOTAL NUMBER OF ATOMS                        =    3
 THE NUCLEAR REPULSION ENERGY IS        9.3043970984

     $CONTRL OPTIONS
     ---------------
 SCFTYP=RHF          RUNTYP=ENERGY       EXETYP=RUN     
 MPLEVL=       0     CITYP =NONE         CCTYP =NONE         VBTYP =NONE    
 DFTTYP=NONE         TDDFT =NONE    
 MULT  =       1     ICHARG=       0     NZVAR =       0     COORD =UNIQUE  
 PP    =NONE         RELWFN=NONE         LOCAL =NONE         NUMGRD=       F
 ISPHER=       0     NOSYM =       0     MAXIT =      30     UNITS =ANGS    
 PLTORB=       F     MOLPLT=       F     AIMPAC=       F     FRIEND=        
 NPRINT=       7     IREST =       0     GEOM  =INPUT   
 NORMF =       0     NORMP =       0     ITOL  =      20     ICUT  =       9
 INTTYP=BEST         GRDTYP=BEST         QMTTOL= 1.0E-06

     $SYSTEM OPTIONS
     ---------------
  REPLICATED MEMORY=    10000000 WORDS (ON EVERY NODE).
 DISTRIBUTED MEMDDI=           0 MILLION WORDS IN AGGREGATE,
 MEMDDI DISTRIBUTED OVER   1 PROCESSORS IS           0 WORDS/PROCESSOR.
 TOTAL MEMORY REQUESTED ON EACH PROCESSOR=    10000000 WORDS.
 TIMLIM=      525600.00 MINUTES, OR     365.0 DAYS.
 PARALL= F  BALTYP=  DLB     KDIAG=    0  COREFL= F
 MXSEQ2=     300 MXSEQ3=     150  mem10=         0

 READING $EFRAG GROUP
 COORD=CART      POSITION=OPTIMIZE  POLMETHD=FRGSCF   NBUFFMO=0
 READING COORDINATES OF FRAGMENT   1 NAMED   MEOH  
 FINISHED READING $EFRAG GROUP,   1 FRAGMENTS WILL BE USED.

 READING POTENTIAL PARAMETERS FOR FRAGMENT    1 FROM GROUP $MEOH  


     SUMMARY OF THE EFFECTIVE FRAGMENT POTENTIAL MODEL CHOSEN
     --------------------------------------------------------
 TOTAL NUMBER OF MULTIPOLE POINTS   =        11  (EFP1/EFP2 ELECTROSTATICS)
 TOTAL NUMBER OF POLARIZABLE POINTS =         7  (EFP1/EFP2 INDUCTION)
 TOTAL NUMBER OF L-J POINTS         =         0  (REPULSION AND DISPERSION)
 TOTAL NUMBER OF AO CENTERS         =         6  (EFP2 PAULI REPULSION)
 TOTAL NUMBER OF EFP MOS            =         7  (EFP2 PAULI REPULSION)
 TOTAL NO OF DYNAMIC POLARIZABLE PTS=        84  (EFP2 DISPERSION)
 TOTAL NUMBER OF EFP MOS            =        14  (EFP2 CHARGE TRANSFER)

 THIS IS A -EFP2- TYPE RUN, INCLUDING SEPARATE FORMULAE FOR
   PAULI REPULSION=T  DISPERSION=T  CHARGE TRANSFER=T

 OPTIONS FOR EFP SCREENING:
     ELECTROSTATIC AB INITIO-EFP GAUSSIAN SCREENING IS ON
     ELECTROSTATIC EFP-EFP SCREENING CHOICE IS EXPONENTIAL, TO HIGHER ORDER
     POLARIZATION EFP-EFP SCREENING IS TANG-TOENNIS LIKE
     DISPERSION EFP-EFP SCREENING CHOICE IS USING OVERLAP

     $EWALD OPTIONS
     -----------

     IFEWLD   =        F         TINFOIL        =        T
     BETA    =    0.200         ELECTRIC CONST =     1.00
     EPSILON =     1.00         CUT_OFF        = 0.10E+04
     CUTLIST =  1000.00         LEVEL          =    1
     KMAX    =       10         EWLDPL         =        F

            MULTIPOLE COORDINATES, ELECTRONIC AND NUCLEAR CHARGES

                  X              Y              Z           ELEC.   NUC.
 A01O      -0.3004264454   3.0662765975   1.1018906388   -8.20779    8.0
 A02C      -1.5456868774   5.1098307256  -0.0167055050   -4.74230    6.0
 A03H      -2.9275116140   4.3461203180  -1.3108155237   -0.64000    1.0
 A04H      -2.5244056396   6.2612409241   1.3715927425   -0.66043    1.0
 A05H      -0.2554018475   6.3029143594  -1.0764255210   -0.66050    1.0
 A06H       0.9236474655   3.6450258494   2.2471043247   -0.68022    1.0
 BO21      -0.9230566614   4.0880536616   0.5425925669   -0.39764    0.0
 BO32      -2.2365992456   4.7279755218  -0.6637605144   -0.60007    0.0
 BO42      -2.0350462585   5.6855358249   0.6774436188   -0.59610    0.0
 BO52      -0.9005443624   5.7063725426  -0.5465655131   -0.57420    0.0
 BO61       0.3116105101   3.3556512235   1.6744974818   -0.24075    0.0

   CHARGE SCREENING PARAMETERS (COEF AND ZETA)
   ICHGP=   7 AI-FRAGMENT SCREENING= 1   FRAGMENT-FRAGMENT SCREENING= 3

             GAUSSIAN DAMPING    EXPONENTIAL DAMPING
 A01O       1.00000   1.01649      1.00000   1.99918
 A02C       1.00000   3.27682      1.00000   3.25917
 A03H       1.00000   0.90599      1.00000   1.74715
 A04H       1.00000   0.88314      1.00000   1.70372
 A05H       1.00000   0.88350      1.00000   1.70720
 A06H       1.00000  10.00000      1.00000   2.09407
 BO21       1.00000  10.00000      1.00000   2.95938
 BO32       1.00000   0.74553      1.00000   1.64882
 BO42       1.00000   0.74563      1.00000   1.59045
 BO52       1.00000   0.74347      1.00000   1.60414
 BO61       1.00000   0.45670      1.00000   3.50946

   SCREENING FOR POLARIZATION WITH EXPONENTIAL FORMULA  OFF

   SCREENING FOR POLARIZATION WITH TANG-TOENNIS FORMULA   ON

    WITH COEFFICIENTS 

     MEOH    0.60

                  DIPOLE MOMENTS AND THE SECOND MOMENT TENSOR

                  X        Y        Z           XX/XY    YY/XZ    ZZ/YZ
 A01O          0.21745  0.43657  0.20939     -4.20390 -4.30109 -4.29509
                                              0.02711  0.61042  0.03510
 A02C          0.17157 -0.35407  0.15299     -2.72928 -2.50713 -2.75519
                                             -0.21186  0.12333 -0.19012
 A03H         -0.03547 -0.01848 -0.03321     -0.40654 -0.40454 -0.40637
                                             -0.00097 -0.00137 -0.00089
 A04H         -0.02630  0.02860  0.03341     -0.43830 -0.43868 -0.43825
                                              0.00118  0.00122 -0.00176
 A05H          0.03084  0.02964 -0.02824     -0.43810 -0.43888 -0.43853
                                             -0.00168  0.00115  0.00132
 A06H          0.08501  0.01379  0.07907     -0.41289 -0.40282 -0.41320
                                              0.00744  0.00378  0.00715
 BO21         -0.02360  0.20203 -0.01850      0.21785  0.04755  0.23114
                                              0.06929 -0.07268  0.05974
 BO32          0.26662  0.13743  0.24944     -0.47987 -0.40158 -0.47581
                                             -0.02708 -0.03283 -0.02435
 BO42          0.15581 -0.21601 -0.26958     -0.46644 -0.47279 -0.42629
                                              0.04577  0.04117 -0.06535
 BO52         -0.26391 -0.21118  0.18689     -0.37658 -0.43329 -0.42378
                                             -0.06758  0.02821  0.05982
 BO61         -0.22441 -0.23826 -0.21231      0.09490  0.07226  0.08256
                                              0.06329  0.09666  0.06010

                  THE THIRD MOMENT TENSOR

               XXX/XYY  YYY/YYZ  ZZZ/XZZ  XXY/YZZ  XXZ/XYZ
 A01O          0.47585  0.73333  0.45208  0.28743  0.17287
               0.18862  0.17941  0.17771  0.28231  0.04368
 A02C          0.48223 -1.13914  0.40822 -0.40752  0.21968
               0.08138  0.07838  0.23442 -0.44285  0.22540
 A03H         -0.04601 -0.02157 -0.04303 -0.00736 -0.01442
              -0.01524 -0.01425 -0.01540 -0.00735 -0.00005
 A04H         -0.03470  0.03690  0.04230  0.01237  0.01425
              -0.01167  0.01435 -0.01160  0.01244 -0.00013
 A05H          0.03894  0.03826 -0.03718  0.01286 -0.01238
               0.01323 -0.01251  0.01313  0.01284 -0.00013
 A06H          0.14020 -0.00910  0.13038 -0.00586  0.04011
               0.04437  0.04105  0.04394 -0.00544 -0.00377
 BO21          0.07709  0.97140  0.09780  0.31873 -0.02043
              -0.09463 -0.08237 -0.01670  0.31516 -0.01012
 BO32          0.85348  0.43059  0.79662  0.15979  0.27739
               0.29084  0.27179  0.29427  0.15852  0.01110
 BO42          0.41020 -0.65351 -0.83798 -0.21284 -0.29510
               0.13184 -0.27940  0.15968 -0.26074  0.00614
 BO52         -0.84173 -0.60950  0.54712 -0.24357  0.20125
              -0.28785  0.17888 -0.30590 -0.19540  0.00616
 BO61         -0.59699 -0.64715 -0.56232 -0.24427 -0.20835
              -0.19831 -0.18761 -0.21643 -0.24101 -0.02381

                  POLARIZABLE POINTS AND THE POLARIZABILITY TENSOR

              X       Y       Z       XX/YZ    YY/YX    ZZ/ZX    XY/ZY     XZ
 CT1       0.3546  3.4323  1.7157   2.16985  1.09018  1.96895  0.38414  1.38304
                                    0.06126  0.05839  1.37728  0.36323
 CT2      -2.2134  5.9110  0.9461   3.22557  3.46281  4.06828 -0.98220 -1.11011
                                    1.23584 -0.90655 -1.01426  1.11236
 CT3      -0.7374  3.8891  0.7113   1.83708  3.31067  1.64864 -1.58611  0.89691
                                   -1.28501 -1.43299  0.89976 -1.42739
 CT4      -0.6501  5.9399 -0.7406   3.86572  3.53928  3.35317  1.06097 -1.02980
                                   -1.01342  1.19171 -1.12214 -1.08098
 CT5      -2.4904  4.5947 -0.9013   3.95077  2.98678  3.75263  0.83066  1.49085
                                    0.76125  0.80958  1.49030  0.78054
 CT6      -0.7009  2.7930  1.4147   1.86693  2.28080  1.85753  0.36906 -0.24994
                                   -1.00550  0.39684 -0.30845 -0.96341
 CT7      -0.0140  2.8062  0.6739   1.84886  2.23015  1.92635 -0.93387 -0.33060
                                    0.47220 -0.97519 -0.27229  0.44231

                  DYNAMIC POLARIZABLE POINTS AND DYNAMIC TENSOR

              X       Y       Z       XX/YZ    YY/YX    ZZ/ZX    XY/ZY     XZ
 CT        0.3546  3.4323  1.7157   2.16963  1.09021  1.96881  0.38417  1.38274
                                    0.06133  0.05846  1.37699  0.36337
 CT       -2.2134  5.9110  0.9461   3.22561  3.46282  4.06815 -0.98222 -1.10995
                                    1.23600 -0.90637 -1.01435  1.11234
 CT       -0.7374  3.8891  0.7113   1.83676  3.31022  1.64839 -1.58601  0.89653
                                   -1.28475 -1.43270  0.89939 -1.42716
 CT       -0.6501  5.9399 -0.7406   3.86550  3.53919  3.35326  1.06081 -1.02986
                                   -1.01320  1.19178 -1.12193 -1.08088
 CT       -2.4904  4.5947 -0.9013   3.95068  2.98671  3.75267  0.83067  1.49058
                                    0.76113  0.80947  1.49008  0.78071
 CT       -0.7009  2.7930  1.4147   1.86725  2.28085  1.85761  0.36915 -0.24984
                                   -1.00555  0.39684 -0.30865 -0.96353
 CT       -0.0140  2.8062  0.6739   1.84890  2.23021  1.92678 -0.93411 -0.33082
                                    0.47221 -0.97527 -0.27217  0.44255
 CT        0.3546  3.4323  1.7157   2.16856  1.09006  1.96789  0.38394  1.38175
                                    0.06124  0.05837  1.37601  0.36315
 CT       -2.2134  5.9110  0.9461   3.22354  3.46057  4.06531 -0.98113 -1.10875
                                    1.23462 -0.90547 -1.01311  1.11095
 CT       -0.7374  3.8891  0.7113   1.83586  3.30805  1.64761 -1.58486  0.89599
                                   -1.28371 -1.43154  0.89885 -1.42613
 CT       -0.6501  5.9399 -0.7406   3.86289  3.53686  3.35103  1.05948 -1.02861
                                   -1.01218  1.19045 -1.12073 -1.07966
 CT       -2.4904  4.5947 -0.9013   3.94807  2.98509  3.75024  0.82980  1.48918
                                    0.76017  0.80844  1.48868  0.77989
 CT       -0.7009  2.7930  1.4147   1.86643  2.27940  1.85661  0.36865 -0.24959
                                   -1.00456  0.39664 -0.30834 -0.96242
 CT       -0.0140  2.8062  0.6739   1.84791  2.22881  1.92591 -0.93303 -0.33049
                                    0.47193 -0.97429 -0.27188  0.44196
 CT        0.3546  3.4323  1.7157   2.16236  1.08918  1.96252  0.38258  1.37600
                                    0.06077  0.05787  1.37027  0.36187
 CT       -2.2134  5.9110  0.9461   3.21145  3.44746  4.04876 -0.97476 -1.10175
                                    1.22660 -0.90024 -1.00589  1.10289
 CT       -0.7374  3.8891  0.7113   1.83058  3.29538  1.64304 -1.57814  0.89283
                                   -1.27767 -1.42482  0.89569 -1.42009
 CT       -0.6501  5.9399 -0.7406   3.84770  3.52325  3.33807  1.05175 -1.02138
                                   -1.00623  1.18268 -1.11374 -1.07258
 CT       -2.4904  4.5947 -0.9013   3.93283  2.97563  3.73605  0.82470  1.48101
                                    0.75453  0.80241  1.48049  0.77512
 CT       -0.7009  2.7930  1.4147   1.86168  2.27096  1.85080  0.36574 -0.24816
                                   -0.99878  0.39552 -0.30659 -0.95594
 CT       -0.0140  2.8062  0.6739   1.84214  2.22067  1.92081 -0.92679 -0.32852
                                    0.47035 -0.96859 -0.27022  0.43854
 CT        0.3546  3.4323  1.7157   2.14087  1.08602  1.94393  0.37783  1.35609
                                    0.05921  0.05625  1.35042  0.35742
 CT       -2.2134  5.9110  0.9461   3.16983  3.40233  3.99177 -0.95306 -1.07776
                                    1.19913 -0.88232 -0.98133  1.07546
 CT       -0.7374  3.8891  0.7113   1.81229  3.25172  1.62722 -1.55492  0.88186
                                   -1.25690 -1.40169  0.88472 -1.39922
 CT       -0.6501  5.9399 -0.7406   3.79534  3.47640  3.29349  1.02546 -0.99675
                                   -0.98586  1.15606 -1.08974 -1.04846
 CT       -2.4904  4.5947 -0.9013   3.88023  2.94290  3.68706  0.80721  1.45294
                                    0.73535  0.78190  1.45237  0.75873
 CT       -0.7009  2.7930  1.4147   1.84529  2.24194  1.83080  0.35600 -0.24332
                                   -0.97899  0.39164 -0.30067 -0.93392
 CT       -0.0140  2.8062  0.6739   1.82227  2.19268  1.90327 -0.90553 -0.32189
                                    0.46490 -0.94909 -0.26461  0.42705
 CT        0.3546  3.4323  1.7157   2.08223  1.07667  1.89315  0.36471  1.30206
                                    0.05565  0.05257  1.29655  0.34510
 CT       -2.2134  5.9110  0.9461   3.05822  3.28119  3.83872 -0.89648 -1.01421
                                    1.12656 -0.83504 -0.91758  1.00436
 CT       -0.7374  3.8891  0.7113   1.76241  3.13427  1.58409 -1.49186  0.85160
                                   -1.20131 -1.33981  0.85442 -1.34252
 CT       -0.6501  5.9399 -0.7406   3.65442  3.35076  3.17411  0.95731 -0.93272
                                   -0.93212  1.08572 -1.02611 -0.98560
 CT       -2.4904  4.5947 -0.9013   3.73818  2.85377  3.55468  0.76061  1.37808
                                    0.68543  0.72854  1.37741  0.71509
 CT       -0.7009  2.7930  1.4147   1.80097  2.16444  1.77704  0.33183 -0.23102
                                   -0.92670  0.38110 -0.28559 -0.87686
 CT       -0.0140  2.8062  0.6739   1.76877  2.11785  1.85599 -0.85039 -0.30496
                                    0.45019 -0.89758 -0.25028  0.39833
 CT        0.3546  3.4323  1.7157   1.94513  1.05054  1.77421  0.33332  1.17756
                                    0.05055  0.04750  1.17252  0.31558
 CT       -2.2134  5.9110  0.9461   2.80650  3.00796  3.49376 -0.77702 -0.87599
                                    0.96950 -0.73259 -0.78459  0.85659
 CT       -0.7374  3.8891  0.7113   1.64587  2.86851  1.48338 -1.34659  0.77956
                                   -1.07730 -1.20168  0.78223 -1.21185
 CT       -0.6501  5.9399 -0.7406   3.33534  3.06799  2.90582  0.81570 -0.79871
                                   -0.81582  0.93343 -0.88734 -0.85299
 CT       -2.4904  4.5947 -0.9013   3.41422  2.64621  3.25220  0.65804  1.21244
                                    0.58112  0.61712  1.21165  0.61900
 CT       -0.7009  2.7930  1.4147   1.69844  1.99163  1.65490  0.28646 -0.20638
                                   -0.81327  0.35672 -0.25513 -0.75806
 CT       -0.0140  2.8062  0.6739   1.64696  1.95066  1.74751 -0.73514 -0.27055
                                    0.41674 -0.78594 -0.22143  0.34343
 CT        0.3546  3.4323  1.7157   1.67199  0.98011  1.53585  0.26994  0.93957
                                    0.04935  0.04721  0.93565  0.25588
 CT       -2.2134  5.9110  0.9461   2.33237  2.49528  2.85205 -0.57863 -0.63895
                                    0.70262 -0.55537 -0.57021  0.62065
 CT       -0.7374  3.8891  0.7113   1.41394  2.37115  1.28263 -1.06915  0.63457
                                   -0.85217 -0.95073  0.63674 -0.96209
 CT       -0.6501  5.9399 -0.7406   2.73670  2.53942  2.40415  0.58994 -0.58165
                                   -0.61532  0.67474 -0.64853 -0.63340
 CT       -2.4904  4.5947 -0.9013   2.80052  2.23546  2.67708  0.47904  0.91792
                                    0.41457  0.43950  0.91718  0.45119
 CT       -0.7009  2.7930  1.4147   1.49245  1.67328  1.42034  0.22661 -0.16889
                                   -0.61778  0.30871 -0.20703 -0.56573
 CT       -0.0140  2.8062  0.6739   1.41240  1.64152  1.53225 -0.54749 -0.21611
                                    0.35318 -0.59395 -0.17734  0.26810
 CT        0.3546  3.4323  1.7157   1.23449  0.81429  1.14862  0.17431  0.59604
                                    0.05556  0.05574  0.59396  0.16550
 CT       -2.2134  5.9110  0.9461   1.62414  1.73376  1.92783 -0.33476 -0.34981
                                    0.38162 -0.32705 -0.32160  0.35133
 CT       -0.7374  3.8891  0.7113   1.04372  1.64753  0.95903 -0.67029  0.41241
                                   -0.54330 -0.60616  0.41357 -0.60281
 CT       -0.6501  5.9399 -0.7406   1.86375  1.75876  1.66348  0.33325 -0.32868
                                   -0.35935  0.36456 -0.35621 -0.36520
 CT       -2.4904  4.5947 -0.9013   1.90040  1.58716  1.82800  0.25859  0.53394
                                    0.22837  0.24157  0.53362  0.24414
 CT       -0.7009  2.7930  1.4147   1.14402  1.20583  1.05434  0.16999 -0.12540
                                   -0.37021  0.23080 -0.14805 -0.33746
 CT       -0.0140  2.8062  0.6739   1.04611  1.18544  1.17272 -0.32363 -0.15043
                                    0.25600 -0.35211 -0.12723  0.19329
 CT        0.3546  3.4323  1.7157   0.70897  0.52870  0.67128  0.08089  0.26514
                                    0.05019  0.05214  0.26464  0.07684
 CT       -2.2134  5.9110  0.9461   0.85179  0.90328  0.97603 -0.13046 -0.12708
                                    0.13784 -0.12864 -0.12734  0.14178
 CT       -0.7374  3.8891  0.7113   0.60306  0.87915  0.56504 -0.29020  0.18603
                                   -0.24800 -0.27664  0.18628 -0.26058
 CT       -0.6501  5.9399 -0.7406   0.95166  0.91293  0.86660  0.13473 -0.13048
                                   -0.14026  0.13092 -0.13024 -0.14237
 CT       -2.4904  4.5947 -0.9013   0.96194  0.84706  0.93368  0.09222  0.20746
                                    0.09080  0.09596  0.20752  0.08733
 CT       -0.7009  2.7930  1.4147   0.68575  0.67882  0.61689  0.11016 -0.08000
                                   -0.15889  0.13205 -0.08841 -0.14884
 CT       -0.0140  2.8062  0.6739   0.60967  0.66877  0.70304 -0.13966 -0.08745
                                    0.14164 -0.14816 -0.07882  0.11921
 CT        0.3546  3.4323  1.7157   0.27077  0.22302  0.26064  0.02442  0.07274
                                    0.02344  0.02470  0.07274  0.02317
 CT       -2.2134  5.9110  0.9461   0.29354  0.30642  0.32676 -0.02878 -0.02766
                                    0.02969 -0.02834 -0.03133  0.03558
 CT       -0.7374  3.8891  0.7113   0.23671  0.31613  0.22651 -0.07549  0.04988
                                   -0.06907 -0.07705  0.04985 -0.06762
 CT       -0.6501  5.9399 -0.7406   0.32107  0.30862  0.29705  0.03415 -0.03236
                                   -0.03088  0.02824 -0.02879 -0.03171
 CT       -2.4904  4.5947 -0.9013   0.31990  0.29632  0.31357  0.02075  0.04692
                                    0.02395  0.02535  0.04699  0.01969
 CT       -0.7009  2.7930  1.4147   0.27225  0.25777  0.24433  0.04541 -0.03485
                                   -0.04544  0.04813 -0.03628 -0.04468
 CT       -0.0140  2.8062  0.6739   0.24059  0.25444  0.27933 -0.04075 -0.03546
                                    0.05038 -0.04132 -0.03399  0.04764
 CT        0.3546  3.4323  1.7157   0.05213  0.04598  0.05075  0.00378  0.01009
                                    0.00429  0.00453  0.01010  0.00359
 CT       -2.2134  5.9110  0.9461   0.05185  0.05333  0.05680 -0.00320 -0.00325
                                    0.00338 -0.00312 -0.00408  0.00464
 CT       -0.7374  3.8891  0.7113   0.04736  0.05908  0.04599 -0.01006  0.00670
                                   -0.00961 -0.01073  0.00669 -0.00899
 CT       -0.6501  5.9399 -0.7406   0.05609  0.05358  0.05230  0.00451 -0.00427
                                   -0.00342  0.00325 -0.00346 -0.00358
 CT       -2.4904  4.5947 -0.9013   0.05520  0.05294  0.05447  0.00266  0.00553
                                    0.00344  0.00364  0.00555  0.00253
 CT       -0.7009  2.7930  1.4147   0.05495  0.05113  0.04972  0.00876 -0.00725
                                   -0.00742  0.00882 -0.00730 -0.00746
 CT       -0.0140  2.8062  0.6739   0.04889  0.05055  0.05636 -0.00668 -0.00711
                                    0.00913 -0.00663 -0.00706  0.00907
 CT        0.3546  3.4323  1.7157   0.00198  0.00179  0.00193  0.00013  0.00033
                                    0.00015  0.00016  0.00033  0.00012
 CT       -2.2134  5.9110  0.9461   0.00187  0.00191  0.00204 -0.00010 -0.00010
                                    0.00010 -0.00009 -0.00013  0.00015
 CT       -0.7374  3.8891  0.7113   0.00183  0.00223  0.00179 -0.00033  0.00022
                                   -0.00032 -0.00036  0.00022 -0.00029
 CT       -0.6501  5.9399 -0.7406   0.00202  0.00192  0.00188  0.00015 -0.00014
                                   -0.00010  0.00010 -0.00011 -0.00011
 CT       -2.4904  4.5947 -0.9013   0.00198  0.00192  0.00195  0.00009  0.00017
                                    0.00012  0.00012  0.00017  0.00008
 CT       -0.7009  2.7930  1.4147   0.00216  0.00200  0.00196  0.00033 -0.00028
                                   -0.00027  0.00033 -0.00028 -0.00027
 CT       -0.0140  2.8062  0.6739   0.00193  0.00198  0.00221 -0.00024 -0.00027
                                    0.00034 -0.00024 -0.00027  0.00034

                    AO EXPANSION POINTS                             LMO CENTROIDS

                X          Y          Z                         X          Y          Z

  A01O       -0.30043    3.06628    1.10189       CT1         0.35463    3.43233    1.71573
  A02C       -1.54569    5.10983   -0.01671       CT2        -2.21342    5.91104    0.94610
  A03H       -2.92751    4.34612   -1.31082       CT3        -0.73742    3.88906    0.71128
  A04H       -2.52441    6.26124    1.37159       CT4        -0.65014    5.93985   -0.74057
  A05H       -0.25540    6.30291   -1.07643       CT5        -2.49041    4.59474   -0.90127
  A06H        0.92365    3.64503    2.24710       CT6        -0.70087    2.79305    1.41473
                                                  CT7        -0.01400    2.80617    0.67391

          ----------------
          PROPERTIES INPUT
          ----------------

     MOMENTS            FIELD           POTENTIAL          DENSITY
 IEMOM =       1   IEFLD =       0   IEPOT =       0   IEDEN =       0
 WHERE =COMASS     WHERE =NUCLEI     WHERE =NUCLEI     WHERE =NUCLEI  
 OUTPUT=BOTH       OUTPUT=BOTH       OUTPUT=BOTH       OUTPUT=BOTH    
 IEMINT=       0   IEFINT=       0                     IEDINT=       0
                                                       MORB  =       0
          EXTRAPOLATION IN EFFECT
          SOSCF IN EFFECT
 ORBITAL PRINTING OPTION: NPREO=     1    65     2     1

     -------------------------------
     INTEGRAL TRANSFORMATION OPTIONS
     -------------------------------
     NWORD  =            0
     CUTOFF = 1.0E-09     MPTRAN =       0
     DIRTRF =       F     AOINTS =DUP     

          -----------------------------
          LOCALIZATION INPUT PARAMETERS
          -----------------------------
           LOCAL=BOYS          NOUTA=       1
          PRTLOC=       F      NOUTB=       0
          MAXLOC=     250     CVGLOC=1.00E-06
           FCORE=       T     SYMLOC=       F
          MOIDON=       F     EDCOMP=       F
          DIPDCM=       F      NPROT=       0
          QADDCM=       F     DEPRNT=       F
          POLNUM=       F     ORIENT=       F
          POLDYN=       F      VMTOL=1.50E-01
          NPRDTL=       2
          MOOUTA =      1

          ----------------------
          INTEGRAL INPUT OPTIONS
          ----------------------
 NOPK  =       1 NORDER=       0 SCHWRZ=       F

     ------------------------------------------
     THE POINT GROUP IS C1 , NAXIS= 0, ORDER= 1
     ------------------------------------------

     DIMENSIONS OF THE SYMMETRY SUBSPACES ARE
 A   =   65

 ..... DONE SETTING UP THE RUN .....
 STEP CPU TIME =     0.15 TOTAL CPU TIME =        0.1 (    0.0 MIN)
 TOTAL WALL CLOCK TIME=        0.2 SECONDS, CPU UTILIZATION IS  83.33%

          ********************
          1 ELECTRON INTEGRALS
          ********************
 TIME TO DO ORDINARY INTEGRALS=      0.00
 TIME TO DO FRAGMENT INTEGRALS=      0.03
 ...... END OF ONE-ELECTRON INTEGRALS ......
 STEP CPU TIME =     0.03 TOTAL CPU TIME =        0.2 (    0.0 MIN)
 TOTAL WALL CLOCK TIME=        0.3 SECONDS, CPU UTILIZATION IS  62.07%

          -------------
          GUESS OPTIONS
          -------------
          GUESS =HUCKEL            NORB  =       0          NORDER=       0
          MIX   =       F          PRTMO =       F          PUNMO =       F
          TOLZ  = 1.0E-08          TOLE  = 1.0E-05
          SYMDEN=       F          PURIFY=       F

 INITIAL GUESS ORBITALS GENERATED BY HUCKEL   ROUTINE.
 HUCKEL GUESS REQUIRES     33070 WORDS.

 SYMMETRIES FOR INITIAL GUESS ORBITALS FOLLOW.   BOTH SET(S).
     5 ORBITALS ARE OCCUPIED (    1 CORE ORBITALS).
     2=A        3=A        4=A        5=A        6=A        7=A        8=A   
     9=A       10=A       11=A       12=A       13=A       14=A       15=A   
 ...... END OF INITIAL ORBITAL SELECTION ......
 STEP CPU TIME =     0.01 TOTAL CPU TIME =        0.2 (    0.0 MIN)
 TOTAL WALL CLOCK TIME=        0.3 SECONDS, CPU UTILIZATION IS  63.33%

                    ----------------------
                    AO INTEGRAL TECHNOLOGY
                    ----------------------
     S,P,L SHELL ROTATED AXIS INTEGRALS, REPROGRAMMED BY
        KAZUYA ISHIMURA (IMS) AND JOSE SIERRA (SYNSTAR).
     S,P,D,L SHELL ROTATED AXIS INTEGRALS PROGRAMMED BY
        KAZUYA ISHIMURA (INSTITUTE FOR MOLECULAR SCIENCE).
     S,P,D,F,G SHELL TO TOTAL QUARTET ANGULAR MOMENTUM SUM 5,
        ERIC PROGRAM BY GRAHAM FLETCHER (ELORET AND NASA ADVANCED
        SUPERCOMPUTING DIVISION, AMES RESEARCH CENTER).
     S,P,D,F,G,L SHELL GENERAL RYS QUADRATURE PROGRAMMED BY
        MICHEL DUPUIS (PACIFIC NORTHWEST NATIONAL LABORATORY).

          --------------------
          2 ELECTRON INTEGRALS
          --------------------

 THE -PK- OPTION IS OFF, THE INTEGRALS ARE NOT IN SUPERMATRIX FORM.
 STORING   15000 INTEGRALS/RECORD ON DISK, USING 12 BYTES/INTEGRAL.
 TWO ELECTRON INTEGRAL EVALUATION REQUIRES   99331 WORDS OF MEMORY.
 II,JST,KST,LST =  1  1  1  1 NREC =         1 INTLOC =    1
 II,JST,KST,LST =  2  1  1  1 NREC =         1 INTLOC =    2
 II,JST,KST,LST =  3  1  1  1 NREC =         1 INTLOC =   34
 II,JST,KST,LST =  4  1  1  1 NREC =         1 INTLOC =  214
 II,JST,KST,LST =  5  1  1  1 NREC =         1 INTLOC =  776
 II,JST,KST,LST =  6  1  1  1 NREC =         1 INTLOC = 2074
 II,JST,KST,LST =  7  1  1  1 NREC =         1 INTLOC = 5929
 II,JST,KST,LST =  8  1  1  1 NREC =         1 INTLOC =14065
 II,JST,KST,LST =  9  1  1  1 NREC =         2 INTLOC =14002
 II,JST,KST,LST = 10  1  1  1 NREC =         5 INTLOC =12962
 II,JST,KST,LST = 11  1  1  1 NREC =         9 INTLOC = 1653
 II,JST,KST,LST = 12  1  1  1 NREC =        12 INTLOC = 8588
 II,JST,KST,LST = 13  1  1  1 NREC =        16 INTLOC = 3908
 II,JST,KST,LST = 14  1  1  1 NREC =        20 INTLOC = 2689
 II,JST,KST,LST = 15  1  1  1 NREC =        33 INTLOC = 6613
 II,JST,KST,LST = 16  1  1  1 NREC =        49 INTLOC = 2122
 II,JST,KST,LST = 17  1  1  1 NREC =        54 INTLOC =14958
 II,JST,KST,LST = 18  1  1  1 NREC =        61 INTLOC = 2583
 II,JST,KST,LST = 19  1  1  1 NREC =        67 INTLOC =10168
 II,JST,KST,LST = 20  1  1  1 NREC =        74 INTLOC = 7821
 II,JST,KST,LST = 21  1  1  1 NREC =        97 INTLOC = 3281
 TOTAL NUMBER OF NONZERO TWO-ELECTRON INTEGRALS =             1835854
        123 INTEGRAL RECORDS WERE STORED ON DISK FILE  8.
  ...... END OF TWO-ELECTRON INTEGRALS .....
 STEP CPU TIME =     0.15 TOTAL CPU TIME =        0.3 (    0.0 MIN)
 TOTAL WALL CLOCK TIME=        0.5 SECONDS, CPU UTILIZATION IS  70.83%

 EFP ADDITIVE CONTRIBUTIONS TO THE "NUCLEAR ENERGY":
   -- NUCLEAR CHARGE - NUCLEAR CHARGE   =        9.3043970984
   -- NUCLEAR CHARGE - EFP CHARGE       =       -0.2221146168
   -- NUCLEAR CHARGE - EFP DIPOLE       =        0.0018339759
   -- NUCLEAR CHARGE - EFP QUADRUPOLE   =       -0.0119758462
   -- NUCLEAR CHARGE - EFP OCTUPOLE     =        0.0009651734
 THE TOTAL NUCLEAR CHARGE/EFP ENERGY    =        9.0731057847

          --------------------------
                 RHF SCF CALCULATION
          --------------------------

     NUCLEAR ENERGY =         9.0731057847
     MAXIT =   30     NPUNCH=    2
     EXTRAP=T  DAMP=F  SHIFT=F  RSTRCT=F  DIIS=F  DEM=F  SOSCF=T
     DENSITY MATRIX CONV=  1.00E-05
     SOSCF WILL OPTIMIZE     300 ORBITAL ROTATIONS, SOGTOL=   0.250
     MEMORY REQUIRED FOR RHF ITERS=     85148 WORDS.

 ITER EX DEM     TOTAL ENERGY        E CHANGE  DENSITY CHANGE     ORB. GRAD
   1  0  0      -75.7339119697   -75.7339119697   0.458169005   0.000000000
          ---------------START SECOND ORDER SCF---------------
   2  1  0      -76.0423771412    -0.3084651715   0.144987569   0.031972522
   3  2  0      -76.0727558107    -0.0303786696   0.136871464   0.011555836
   4  3  0      -76.0464040839     0.0263517268   0.053966532   0.004549106
   5  4  0      -76.0748806774    -0.0284765935   0.017151324   0.001237576
   6  5  0      -76.0749082285    -0.0000275511   0.018591685   0.000423187
   7  6  0      -76.0749128133    -0.0000045848   0.005232441   0.000131883
   8  7  0      -76.0440363752     0.0308764381   0.002248544   0.000059618
   9  8  0      -76.0749132937    -0.0308769185   0.000290975   0.000018245
  10  9  0      -76.0749133032    -0.0000000095   0.000271769   0.000011815
  11 10  0      -76.0749133070    -0.0000000038   0.000176010   0.000005595
  12 11  0      -76.0439311858     0.0309821212   0.000079099   0.000003516
  13 12  0      -76.0749133085    -0.0309821227   0.000024955   0.000001651
  14 13  0      -76.0749133086    -0.0000000000   0.000006851   0.000000381
  15 14  0      -76.0749133086    -0.0000000000   0.000000988   0.000000070

          -----------------
          DENSITY CONVERGED
          -----------------
     TIME TO FORM FOCK OPERATORS=       1.7 SECONDS (       0.1 SEC/ITER)
     TIME TO SOLVE SCF EQUATIONS=       0.0 SECONDS (       0.0 SEC/ITER)

          -------------------------
          BOYS ORBITAL LOCALIZATION
          -------------------------
          S.F.BOYS, IN "QUANTUM THEORY OF ATOMS, MOLECULES, AND SOLIDS"
          P.O.LOWDIN, ED. ACADEMIC PRESS, NY, 1966 PP253-266.

          THIS LOCALIZATION REQUIRES     11020 WORDS OF MEMORY.
          THIS LOCALIZATION HAS    5 ORBITALS, OF WHICH   1 ARE FROZEN.

          THE INITIAL LOCALIZATION SUM IS    170.520446 DEBYE**2
          BOYS ITERATION  10 ORBITAL CHANGE=    1.0985101526E-04
          BOYS ITERATION  20 ORBITAL CHANGE=    3.3522913351E-08
          LOCALIZATION CONVERGED IN  24 ITERATIONS
            THE FINAL LOCALIZATION SUM IS    185.254054 DEBYE**2

          THE BOYS LOCALIZED ORBITALS ARE

                      1          2          3          4          5

    1  O  1  S    0.551332  -0.050382  -0.050207  -0.066403   0.066321
    2  O  1  S    0.472643  -0.089411  -0.087841  -0.123147   0.123115
    3  O  1  X   -0.001936  -0.100904  -0.059412  -0.071312  -0.240327
    4  O  1  Y   -0.000208  -0.165600   0.157017   0.046647   0.034311
    5  O  1  Z    0.002332   0.071408   0.123554  -0.228617  -0.024206
    6  O  1  S    0.000997   0.238120   0.240938   0.334097  -0.333307
    7  O  1  X    0.003984  -0.152559  -0.090921  -0.110765  -0.354921
    8  O  1  Y    0.000438  -0.246689   0.232580   0.070005   0.050880
    9  O  1  Z   -0.004795   0.109163   0.186470  -0.336214  -0.041588
   10  O  1  S   -0.005836   0.122164   0.056657   0.515920  -0.518850
   11  O  1  X    0.000147  -0.092654  -0.047234  -0.138462  -0.304422
   12  O  1  Y    0.000043  -0.113269   0.098716   0.066334   0.050587
   13  O  1  Z   -0.000170   0.078043   0.089565  -0.280323  -0.080725
   14  O  1  S   -0.000691  -0.017465  -0.319460   0.240050  -0.264394
   15  O  1  X    0.000119  -0.012585   0.024305  -0.048315  -0.034502
   16  O  1  Y    0.000006  -0.006313  -0.063761   0.051466  -0.035424
   17  O  1  Z   -0.000145   0.013617  -0.052594  -0.013709  -0.061065
   18  O  1 XX    0.001117  -0.004052  -0.003789  -0.006475   0.007753
   19  O  1 YY    0.001218  -0.003536  -0.003132  -0.007260   0.007273
   20  O  1 ZZ    0.001135  -0.004560  -0.002849  -0.007832   0.006739
   21  O  1 XY    0.000025   0.001640  -0.001074  -0.000242   0.000167
   22  O  1 XZ   -0.000047  -0.000758  -0.000621   0.000478  -0.000732
   23  O  1 YZ    0.000021  -0.001502   0.001653   0.000159   0.000120
   24  O  1 XX    0.002170  -0.011454  -0.014282  -0.017145   0.032623
   25  O  1 YY    0.002030  -0.007150  -0.006064  -0.020406   0.020367
   26  O  1 ZZ    0.002147  -0.014864  -0.003882  -0.034237   0.019569
   27  O  1 XY   -0.000031   0.014427  -0.009561  -0.000859  -0.000654
   28  O  1 XZ    0.000061  -0.009074  -0.009524   0.003961  -0.007519
   29  O  1 YZ   -0.000032  -0.012700   0.016659   0.002003   0.001397
   30  O  1 XX    0.001362  -0.020615  -0.002169  -0.038603   0.066799
   31  O  1 YY    0.001066  -0.033284  -0.029748  -0.026664   0.026736
   32  O  1 ZZ    0.001314  -0.016100  -0.007655  -0.064415   0.039380
   33  O  1 XY   -0.000084  -0.005570   0.003176   0.000924  -0.003922
   34  O  1 XZ    0.000140  -0.006288   0.001884  -0.001337  -0.004295
   35  O  1 YZ   -0.000050   0.003403  -0.014443   0.009477  -0.003450
   36  O  1 XXX  -0.001936  -0.000034  -0.000184  -0.002461  -0.004279
   37  O  1 YYY  -0.000220  -0.006109   0.005715   0.002863   0.002693
   38  O  1 ZZZ   0.002335   0.000912   0.001213  -0.005488  -0.001981
   39  O  1 XXY  -0.000118  -0.000926  -0.000915  -0.000632  -0.001218
   40  O  1 XXZ   0.001048   0.001914   0.001124  -0.000380   0.002838
   41  O  1 YYX  -0.000942  -0.004025  -0.000878  -0.003743  -0.005072
   42  O  1 YYZ   0.001132   0.001451   0.004453  -0.004351  -0.002698
   43  O  1 ZZX  -0.000875  -0.001881  -0.002575   0.002012  -0.002162
   44  O  1 ZZY  -0.000066   0.000484   0.001685  -0.000661  -0.000225
   45  O  1 XYZ   0.000003   0.001455  -0.001227  -0.001695  -0.001707
   46  H  2  S    0.000158  -0.017110   0.191485  -0.011974   0.011180
   47  H  2  S    0.000937  -0.059194   0.298318  -0.078783   0.076601
   48  H  2  S    0.000239  -0.025019   0.328204  -0.179445   0.199616
   49  H  2  S    0.000056   0.003170   0.074153  -0.047156   0.056625
   50  H  2  X   -0.000014  -0.003776   0.003745  -0.002898  -0.010095
   51  H  2  Y   -0.000009  -0.004529  -0.012419   0.001400   0.002219
   52  H  2  Z    0.000014   0.003206  -0.008728  -0.009714  -0.000555
   53  H  2  X    0.000121  -0.008150   0.020857  -0.013483  -0.004213
   54  H  2  Y   -0.000375   0.005607  -0.070337   0.032268  -0.028451
   55  H  2  Z   -0.000273   0.012094  -0.049739   0.008421  -0.023399
   56  H  3  S    0.000162   0.192884  -0.015263  -0.012821   0.012772
   57  H  3  S    0.001070   0.297852  -0.036408  -0.091555   0.093900
   58  H  3  S    0.000228   0.068434   0.037148  -0.071158   0.075604
   59  H  3  S    0.000056  -0.002280  -0.035913   0.021116  -0.025909
   60  H  3  X   -0.000013   0.008317  -0.002286  -0.003685  -0.009297
   61  H  3  Y    0.000005   0.014608   0.004388   0.001167   0.002204
   62  H  3  Z    0.000018  -0.005589   0.004192  -0.008892  -0.001666
   63  H  3  X    0.000252   0.026167  -0.007559  -0.018195  -0.004041
   64  H  3  Y    0.000430   0.043123   0.006413  -0.020052   0.026722
   65  H  3  Z   -0.000173  -0.018484   0.011352  -0.007963  -0.010423
 ...... END OF ORBITAL LOCALIZATION ......
 STEP CPU TIME =     1.88 TOTAL CPU TIME =        2.2 (    0.0 MIN)
 TOTAL WALL CLOCK TIME=        6.9 SECONDS, CPU UTILIZATION IS  32.22%

 FINAL RHF ENERGY IS      -76.0700409829 AFTER  15 ITERATIONS

          ------------
          EIGENVECTORS
          ------------

                      1          2          3          4          5
                  -20.5437    -1.3374    -0.7068    -0.5613    -0.4918
                     A          A          A          A          A   
    1  O  1  S    0.551332  -0.112455  -0.002476  -0.034855  -0.000119
    2  O  1  S    0.472643  -0.203266  -0.003803  -0.068566  -0.000336
    3  O  1  X   -0.001936  -0.022861   0.035952   0.160446   0.221350
    4  O  1  Y   -0.000208  -0.002418   0.228202   0.002175  -0.057827
    5  O  1  Z    0.002332   0.027654   0.029967  -0.200245   0.177357
    6  O  1  S    0.000997   0.550064   0.015317   0.186176   0.000402
    7  O  1  X    0.003984  -0.039870   0.053278   0.236550   0.330749
    8  O  1  Y    0.000438  -0.004044   0.339043   0.004252  -0.086334
    9  O  1  Z   -0.004795   0.048255   0.044594  -0.294762   0.265057
   10  O  1  S   -0.005836   0.529139  -0.020233   0.522576   0.005370
   11  O  1  X    0.000147  -0.012363   0.038693   0.149562   0.314073
   12  O  1  Y    0.000043  -0.003589   0.150120   0.009785  -0.083003
   13  O  1  Z   -0.000170   0.014258   0.001854  -0.185624   0.254062
   14  O  1  S   -0.000691   0.016229  -0.196581   0.436526   0.020621
   15  O  1  X    0.000119   0.000791   0.025735  -0.014155   0.058401
   16  O  1  Y    0.000006  -0.004090  -0.037619   0.080388  -0.010710
   17  O  1  Z   -0.000145  -0.002382  -0.045000   0.044698   0.053290
   18  O  1 XX    0.001117  -0.010365  -0.000123  -0.004947  -0.000932
   19  O  1 YY    0.001218  -0.009817  -0.000041  -0.005615  -0.000042
   20  O  1 ZZ    0.001135  -0.010269   0.000891  -0.005373   0.000739
   21  O  1 XY    0.000025   0.000179  -0.001933  -0.000394   0.000055
   22  O  1 XZ   -0.000047  -0.000296   0.000143   0.001258   0.000188
   23  O  1 YZ    0.000021   0.000078   0.002228  -0.000124  -0.000204
   24  O  1 XX    0.002170  -0.035260  -0.003116  -0.017848  -0.011040
   25  O  1 YY    0.002030  -0.024384  -0.000200  -0.018013  -0.000081
   26  O  1 ZZ    0.002147  -0.033002   0.006522  -0.023563   0.010213
   27  O  1 XY   -0.000031   0.002902  -0.016998  -0.001471   0.001103
   28  O  1 XZ    0.000061  -0.005965   0.000174   0.014242   0.002612
   29  O  1 YZ   -0.000032   0.002294   0.020715  -0.002067  -0.002473
   30  O  1 XX    0.001362  -0.056627   0.010372  -0.051541  -0.020283
   31  O  1 YY    0.001066  -0.058244   0.001668  -0.004835  -0.000062
   32  O  1 ZZ    0.001314  -0.056429   0.003456  -0.050194   0.017384
   33  O  1 XY   -0.000084   0.000550   0.006337   0.003515   0.002127
   34  O  1 XZ    0.000140  -0.001377   0.005905   0.003261   0.003989
   35  O  1 YZ   -0.000050  -0.000890  -0.012168   0.012484  -0.004147
   36  O  1 XXX  -0.001936   0.000625  -0.000043   0.001107   0.004774
   37  O  1 YYY  -0.000220  -0.000251   0.008352  -0.000037  -0.003951
   38  O  1 ZZZ   0.002335  -0.000221   0.000112  -0.002932   0.005262
   39  O  1 XXY  -0.000118  -0.000817   0.000044   0.001085   0.001315
   40  O  1 XXZ   0.001048   0.000428  -0.000678  -0.003065  -0.001757
   41  O  1 YYX  -0.000942  -0.002294   0.002322   0.002653   0.006246
   42  O  1 YYZ   0.001132   0.002693   0.002034  -0.003494   0.004954
   43  O  1 ZZX  -0.000875  -0.000839  -0.000336   0.004250   0.000136
   44  O  1 ZZY  -0.000066   0.001059   0.000818  -0.001180   0.000616
   45  O  1 XYZ   0.000003   0.000159  -0.001891  -0.000030   0.002410
   46  H  2  S    0.000158   0.089097   0.145096  -0.090755  -0.000458
   47  H  2  S    0.000937   0.070745   0.246149  -0.197428  -0.000442
   48  H  2  S    0.000239   0.015564   0.236467  -0.352044  -0.017226
   49  H  2  S    0.000056   0.001194   0.046614  -0.093323  -0.007437
   50  H  2  X   -0.000014   0.002888   0.005531   0.003879   0.009198
   51  H  2  Y   -0.000009  -0.010021  -0.005441   0.006736  -0.002496
   52  H  2  Z    0.000014  -0.006847  -0.008606  -0.002711   0.007269
   53  H  2  X    0.000121   0.003269   0.020158  -0.011429   0.012383
   54  H  2  Y   -0.000375  -0.011638  -0.051418   0.063605  -0.002137
   55  H  2  Z   -0.000273  -0.008061  -0.042446   0.035387   0.010940
   56  H  3  S    0.000162   0.093233  -0.149443  -0.082091  -0.000162
   57  H  3  S    0.001070   0.076637  -0.243637  -0.204946  -0.002419
   58  H  3  S    0.000228   0.000560  -0.027056  -0.126866  -0.003917
   59  H  3  S    0.000056  -0.002345  -0.022128   0.043623   0.003738
   60  H  3  X   -0.000013   0.005864  -0.007374   0.000972   0.009203
   61  H  3  Y    0.000005   0.010575  -0.007436  -0.008116  -0.002423
   62  H  3  Z    0.000018  -0.003850   0.006749  -0.003893   0.007424
   63  H  3  X    0.000252   0.005147  -0.024344  -0.014968   0.015686
   64  H  3  Y    0.000430   0.009521  -0.027676  -0.046214  -0.004956
   65  H  3  Z   -0.000173  -0.003318   0.021248   0.003446   0.012970

                      6          7          8          9         10
                   -0.2217     0.0624     0.1752     0.2493     0.2577
                     A          A          A          A          A   
    1  O  1  S    0.001109   0.011911  -0.000392  -0.016712   0.006279
    2  O  1  S   -0.025682   0.028300   0.002237  -0.012422   0.006202
    3  O  1  X   -0.017923   0.017366   0.015429   0.051264  -0.074620
    4  O  1  Y    0.024922   0.022590  -0.021289   0.006093   0.023175
    5  O  1  Z    0.027445  -0.014310  -0.027677  -0.060432  -0.075422
    6  O  1  S   -0.073841  -0.041942  -0.007124   0.162589  -0.057687
    7  O  1  X   -0.025416   0.025622   0.024545   0.059203  -0.075203
    8  O  1  Y    0.055454   0.035172  -0.043595   0.009920   0.026910
    9  O  1  Z    0.047580  -0.020306  -0.045842  -0.069034  -0.085574
   10  O  1  S    0.860822   0.006433  -0.998531  -1.107086  -0.165804
   11  O  1  X   -0.296178  -0.052876   0.326690   0.653851  -0.386955
   12  O  1  Y   -0.084234  -0.246112  -0.616072   0.056217   0.088359
   13  O  1  Z    0.324923  -0.015405  -0.615815  -0.787513  -0.439054
   14  O  1  S    5.016211  -0.804748  -4.957058   1.660839   0.194387
   15  O  1  X   -0.563991   0.095332   0.729547  -1.214861   0.987086
   16  O  1  Y    1.299050   0.365359  -1.254483   0.154417  -0.012819
   17  O  1  Z    1.142964   0.002601  -1.293693   1.545198   0.824138
   18  O  1 XX   -0.017507   0.004601   0.002373   0.009646  -0.002847
   19  O  1 YY   -0.015355   0.004827   0.001089   0.010058  -0.002696
   20  O  1 ZZ   -0.016220   0.004667   0.001516   0.009778  -0.002676
   21  O  1 XY   -0.000794  -0.000054   0.000511   0.000082  -0.000031
   22  O  1 XZ   -0.001387  -0.000028   0.000986  -0.000303   0.000042
   23  O  1 YZ    0.002087   0.000153  -0.001330   0.000142   0.000005
   24  O  1 XX   -0.056140   0.018299  -0.003327   0.044835  -0.006229
   25  O  1 YY   -0.072325   0.017608   0.015683   0.033247  -0.011002
   26  O  1 ZZ   -0.063529   0.018044   0.005285   0.040734  -0.017535
   27  O  1 XY    0.003737  -0.001075  -0.005694  -0.002446   0.000852
   28  O  1 XZ    0.007745   0.001696  -0.007961   0.009531  -0.001024
   29  O  1 YZ   -0.012353   0.000543   0.015807  -0.004053  -0.000123
   30  O  1 XX   -0.296472   0.086967   0.063060   0.184442  -0.064700
   31  O  1 YY   -0.151990   0.099003  -0.125632   0.020286  -0.075253
   32  O  1 ZZ   -0.249121   0.066208  -0.046046   0.155908  -0.063238
   33  O  1 XY    0.030298   0.047571   0.068115  -0.045352   0.002560
   34  O  1 XZ   -0.110017  -0.009311   0.116071   0.079058   0.009569
   35  O  1 YZ    0.047227  -0.048125  -0.179459  -0.029886  -0.008874
   36  O  1 XXX   0.000005   0.000357  -0.000813  -0.006521   0.010732
   37  O  1 YYY  -0.001241   0.001386   0.003111   0.000562  -0.001850
   38  O  1 ZZZ   0.000749  -0.000224   0.002583   0.006335   0.008673
   39  O  1 XXY   0.000261   0.000926   0.001387   0.002334  -0.002275
   40  O  1 XXZ   0.002148  -0.000198   0.000066   0.001277   0.005661
   41  O  1 YYX  -0.001304   0.001173  -0.001471   0.003789   0.002499
   42  O  1 YYZ  -0.001029  -0.001357   0.003287  -0.004606   0.002747
   43  O  1 ZZX  -0.000437   0.000638  -0.000169   0.000554   0.005906
   44  O  1 ZZY  -0.001049   0.000020   0.003216  -0.002837  -0.001819
   45  O  1 XYZ   0.003586   0.000238  -0.002285  -0.000165  -0.000663
   46  H  2  S   -0.030310   0.006358   0.057811  -0.035172  -0.001277
   47  H  2  S    0.035871   0.142138   0.564095   0.636380   0.101523
   48  H  2  S   -3.887972   0.049465   6.295510  -1.646329  -0.133219
   49  H  2  S   -2.113511  -0.994494  -2.042781   0.077876  -0.056974
   50  H  2  X    0.007620   0.000738  -0.010081  -0.002502   0.002340
   51  H  2  Y   -0.028007   0.001859   0.035530  -0.002972   0.001759
   52  H  2  Z   -0.018865  -0.000263   0.024574   0.002060   0.003611
   53  H  2  X   -0.051669   0.013906   0.123944   0.053652   0.006490
   54  H  2  Y    0.251584  -0.030966  -0.458101  -0.202506  -0.023490
   55  H  2  Z    0.148645  -0.027663  -0.306588  -0.132273  -0.018234
   56  H  3  S   -0.002113  -0.001026  -0.009245  -0.027157   0.008032
   57  H  3  S   -0.401457  -0.230288   0.119857   0.651824   0.032484
   58  H  3  S   -0.972361  -0.079714   0.692053  -1.025946   0.474914
   59  H  3  S    1.081310   2.344891   1.065642   0.039687  -0.183277
   60  H  3  X   -0.004916   0.000612   0.003490  -0.002934  -0.000564
   61  H  3  Y    0.003326   0.001471  -0.001221  -0.000058  -0.004366
   62  H  3  Z    0.007345  -0.000262  -0.004625   0.003595   0.003343
   63  H  3  X   -0.054634  -0.066260  -0.000989   0.118018   0.015023
   64  H  3  Y   -0.156189  -0.111383   0.052199   0.236698   0.018643
   65  H  3  Z    0.016550   0.046075   0.018021  -0.069646   0.000240

                     11         12         13         14         15
                    0.2598     0.2946     0.3097     0.6671     0.7189
                     A          A          A          A          A   
    1  O  1  S    0.035529   0.020431  -0.008417  -0.014990  -0.029485
    2  O  1  S    0.035758   0.001979  -0.008991  -0.038494  -0.070715
    3  O  1  X    0.058504  -0.006901  -0.020680  -0.016441  -0.068886
    4  O  1  Y    0.011985  -0.061022  -0.095708   0.139955  -0.072434
    5  O  1  Z   -0.037720  -0.009238  -0.004105   0.065833   0.061992
    6  O  1  S   -0.326067  -0.238370   0.076680   0.022129   0.067843
    7  O  1  X    0.089257  -0.008895  -0.031398  -0.022011  -0.088808
    8  O  1  Y    0.027323  -0.095229  -0.134368   0.184262  -0.093500
    9  O  1  Z   -0.068375  -0.017280  -0.002933   0.087024   0.079824
   10  O  1  S   -0.948331   0.052494   0.199731  -0.674905  -1.195433
   11  O  1  X    0.407681  -0.103813  -0.297924   0.241460   0.460478
   12  O  1  Y   -0.121740  -0.419096  -1.835843  -0.082037  -0.050467
   13  O  1  Z   -0.379621   0.002126  -0.220558  -0.327368  -0.589331
   14  O  1  S    0.544713   7.854556  -1.202611  -0.150227  -2.914184
   15  O  1  X    0.101062  -1.496808   0.500221  -0.010252   0.775993
   16  O  1  Y    1.369232  -1.211477   2.345345  -0.914895   0.821763
   17  O  1  Z   -0.040370   1.445781   0.128475  -0.284174  -0.697151
   18  O  1 XX   -0.015188  -0.019742   0.003431  -0.004436  -0.008828
   19  O  1 YY   -0.014955  -0.019654   0.003163  -0.010190  -0.017145
   20  O  1 ZZ   -0.015209  -0.019652   0.003193  -0.007266  -0.008026
   21  O  1 XY   -0.000152   0.000215   0.000329   0.003300  -0.003843
   22  O  1 XZ    0.000225  -0.000450   0.000065   0.000883   0.000989
   23  O  1 YZ    0.000210  -0.000101  -0.000504  -0.006215   0.001077
   24  O  1 XX   -0.065776  -0.075085   0.015190  -0.023848  -0.039578
   25  O  1 YY   -0.058731  -0.091207   0.015628  -0.037934  -0.062998
   26  O  1 ZZ   -0.067747  -0.074816   0.011383  -0.027438  -0.035623
   27  O  1 XY    0.008012  -0.010517   0.008464   0.006110  -0.008661
   28  O  1 XZ    0.000394   0.008738  -0.001736  -0.002918  -0.003640
   29  O  1 YZ   -0.007139   0.003811  -0.009190  -0.011628   0.002166
   30  O  1 XX   -0.341162  -0.384503   0.145392  -0.065541  -0.182511
   31  O  1 YY   -0.421331  -0.353633   0.112507  -0.332610  -0.571791
   32  O  1 ZZ   -0.372738  -0.394576   0.000135  -0.211939  -0.216517
   33  O  1 XY   -0.001658   0.060494   0.259166   0.116076  -0.163950
   34  O  1 XZ    0.050495  -0.044343  -0.002397   0.119243   0.183889
   35  O  1 YZ   -0.041593  -0.046714  -0.311753  -0.265969  -0.004206
   36  O  1 XXX  -0.003563  -0.000182   0.001737  -0.001781  -0.002123
   37  O  1 YYY  -0.000888   0.000630   0.001906   0.010781  -0.005443
   38  O  1 ZZZ   0.000156   0.001286   0.001208   0.002403   0.002703
   39  O  1 XXY  -0.000028   0.001688   0.005304  -0.000045  -0.000308
   40  O  1 XXZ   0.000058   0.000256   0.002003  -0.000170   0.001574
   41  O  1 YYX  -0.003651  -0.000091  -0.002589   0.001038  -0.005135
   42  O  1 YYZ   0.001866  -0.000272  -0.002119   0.005125   0.002667
   43  O  1 ZZX  -0.000674  -0.000249   0.001768  -0.000989  -0.000218
   44  O  1 ZZY   0.000068   0.001805   0.003496   0.001886   0.000518
   45  O  1 XYZ   0.002276  -0.000982   0.004497  -0.002873   0.001754
   46  H  2  S   -0.003242   0.005158  -0.025366  -0.151481  -0.053534
   47  H  2  S    0.527515   0.199339   1.011689  -0.429478   0.484841
   48  H  2  S   -0.399788  -1.393020  -0.068274   2.998999   1.151956
   49  H  2  S   -0.452390  -0.658377  -1.707406  -0.852923  -0.061073
   50  H  2  X   -0.002822  -0.007569  -0.001704  -0.007872  -0.001198
   51  H  2  Y    0.014567   0.006429   0.014829   0.033655   0.012606
   52  H  2  Z    0.007408   0.011600   0.007165   0.020875   0.005569
   53  H  2  X    0.042122   0.014929   0.119776   0.180861  -0.048005
   54  H  2  Y   -0.131075  -0.016169  -0.307666  -0.626393  -0.496869
   55  H  2  Z   -0.096156  -0.024942  -0.251103  -0.428839  -0.101326
   56  H  3  S    0.048679  -0.054968   0.024239   0.037121  -0.159030
   57  H  3  S    0.204808  -0.060448  -1.171107   0.625678  -0.354506
   58  H  3  S    3.058590  -5.781735   0.655401  -1.522754   4.493629
   59  H  3  S   -0.997617   0.009907   2.108169   0.405020  -0.630431
   60  H  3  X   -0.014864   0.005188   0.009599   0.005522  -0.015142
   61  H  3  Y   -0.023240   0.011860   0.018703   0.008569  -0.034975
   62  H  3  Z    0.010239  -0.002610  -0.005847  -0.004094   0.007448
   63  H  3  X    0.056818  -0.066477  -0.224293  -0.139155   0.315511
   64  H  3  Y    0.124653  -0.137357  -0.328196   0.035881   0.802242
   65  H  3  Z   -0.032533   0.037887   0.171747   0.184794  -0.131082

                     16         17         18         19         20
                    0.8250     0.8389     0.8979     1.0650     1.0781
                     A          A          A          A          A   
    1  O  1  S    0.012223   0.000115   0.000025  -0.036165   0.005201
    2  O  1  S    0.033287   0.000346   0.000109  -0.206259   0.033833
    3  O  1  X    0.057908  -0.004924  -0.042542  -0.013094  -0.032867
    4  O  1  Y    0.001229   0.001380   0.011054  -0.013800  -0.169590
    5  O  1  Z   -0.071605  -0.005253  -0.034037   0.011898  -0.014391
    6  O  1  S    0.002052   0.000310  -0.000077  -0.361717   0.061169
    7  O  1  X    0.097479  -0.010840  -0.085997  -0.026745  -0.060285
    8  O  1  Y    0.000348   0.002985   0.022346  -0.025747  -0.314953
    9  O  1  Z   -0.121134  -0.010910  -0.068841   0.025206  -0.027705
   10  O  1  S    0.367739   0.003931  -0.005260   0.815777  -0.978846
   11  O  1  X    0.158246  -0.037336  -0.269422   0.804561   1.049812
   12  O  1  Y    0.078760   0.017495   0.070059   0.727116   6.217209
   13  O  1  Z   -0.170945  -0.033081  -0.219453  -0.762864   0.720225
   14  O  1  S   -0.457386  -0.005415   0.000032   5.138286  -0.743110
   15  O  1  X    0.122127  -0.016450  -0.109778  -0.740908  -0.173837
   16  O  1  Y   -0.094782   0.002854   0.028998  -0.285782  -1.664629
   17  O  1  Z   -0.183234  -0.016525  -0.087586   0.827712  -0.325641
   18  O  1 XX    0.007495  -0.002988  -0.011044  -0.086819   0.015220
   19  O  1 YY    0.002943   0.004086  -0.000259  -0.078644   0.014923
   20  O  1 ZZ    0.010632  -0.000840   0.011416  -0.084476   0.013143
   21  O  1 XY    0.000782  -0.008467   0.002357   0.002817   0.003599
   22  O  1 XZ   -0.008769  -0.002229   0.003039  -0.006654   0.000125
   23  O  1 YZ   -0.000092  -0.007006  -0.001594   0.001555  -0.004312
   24  O  1 XX    0.034384   0.000120   0.006190  -0.349336   0.064266
   25  O  1 YY    0.018252   0.001434   0.000053  -0.326442   0.056860
   26  O  1 ZZ    0.033906  -0.000478  -0.005812  -0.348436   0.054725
   27  O  1 XY   -0.002104  -0.002643  -0.000725   0.007382   0.015342
   28  O  1 XZ   -0.000067  -0.000799  -0.001476  -0.005751   0.000614
   29  O  1 YZ   -0.003557  -0.002083   0.001320   0.001536  -0.020621
   30  O  1 XX    0.100109  -0.096534  -0.466790  -2.035633   0.060318
   31  O  1 YY    0.284659   0.134344  -0.013403  -1.711810   0.146472
   32  O  1 ZZ    0.219158  -0.030285   0.481114  -1.866215   0.611352
   33  O  1 XY    0.059528  -0.276022   0.101718  -0.016722  -1.041636
   34  O  1 XZ   -0.287106  -0.072801   0.129150  -0.274068   0.076821
   35  O  1 YZ    0.082912  -0.224427  -0.065927   0.213212   1.217786
   36  O  1 XXX   0.001227   0.000109   0.001284  -0.008500  -0.004038
   37  O  1 YYY   0.000008   0.000294   0.002647  -0.003378  -0.017997
   38  O  1 ZZZ  -0.001655  -0.000460   0.002797   0.012027  -0.004276
   39  O  1 XXY   0.001239   0.000813  -0.001177  -0.005462  -0.012995
   40  O  1 XXZ  -0.000633  -0.000135  -0.004034   0.007533  -0.005662
   41  O  1 YYX   0.005516  -0.000672  -0.004247  -0.015126   0.005683
   42  O  1 YYZ  -0.006581  -0.000208  -0.003342   0.018757  -0.000061
   43  O  1 ZZX   0.000262  -0.000356  -0.002088  -0.009269  -0.003440
   44  O  1 ZZY  -0.001827  -0.000998  -0.001154   0.003649  -0.010195
   45  O  1 XYZ  -0.000483  -0.000355  -0.000340  -0.000263  -0.010724
   46  H  2  S    0.015794  -0.000030   0.000210  -0.015369  -0.000529
   47  H  2  S    0.019432  -0.004355   0.002281   0.628246  -4.616052
   48  H  2  S   -0.210814  -0.005349   0.002702  -1.369743   0.316988
   49  H  2  S    0.195386   0.003921  -0.002287  -0.237878   1.102439
   50  H  2  X    0.024911   0.023109  -0.028495  -0.006033  -0.006537
   51  H  2  Y    0.011148  -0.005969   0.007547   0.016019  -0.033938
   52  H  2  Z   -0.028115   0.018009  -0.022834   0.012807  -0.002972
   53  H  2  X   -0.432629  -0.367740   0.408720   0.030158  -0.310688
   54  H  2  Y   -0.156089   0.094869  -0.108277  -0.099404   1.542369
   55  H  2  Z    0.498045  -0.284919   0.327529  -0.071516   0.889635
   56  H  3  S    0.019825   0.000140   0.000010  -0.007043   0.002061
   57  H  3  S    0.190654   0.007128   0.001041   1.750332   5.094483
   58  H  3  S   -0.473887  -0.003432  -0.000269  -1.564234   0.283717
   59  H  3  S    0.177255   0.000569   0.001144  -0.576355  -1.042773
   60  H  3  X    0.024195  -0.029246  -0.024425  -0.012086  -0.003327
   61  H  3  Y   -0.011227   0.007582   0.006406  -0.023420  -0.032086
   62  H  3  Z   -0.033082  -0.024134  -0.019571   0.007425  -0.006237
   63  H  3  X   -0.414156   0.465731   0.354513   0.240820   0.883079
   64  H  3  Y    0.180221  -0.119160  -0.092466   0.458677   1.838669
   65  H  3  Z    0.563232   0.383765   0.283766  -0.150369  -0.501025

                     21         22         23         24         25
                    1.0963     1.2174     1.2406     1.2900     1.3518
                     A          A          A          A          A   
    1  O  1  S   -0.021740  -0.000203   0.000006  -0.006212   0.000031
    2  O  1  S   -0.142550   0.000094   0.000014  -0.054225   0.000213
    3  O  1  X    0.106259  -0.002429  -0.189273  -0.054050   0.025330
    4  O  1  Y   -0.011477  -0.027967   0.049600  -0.009504  -0.006453
    5  O  1  Z   -0.135718  -0.006850  -0.152605   0.062801   0.020221
    6  O  1  S   -0.229302   0.004240  -0.000420  -0.073850   0.000416
    7  O  1  X    0.219775  -0.004458  -0.467826  -0.154988   0.066994
    8  O  1  Y   -0.023849  -0.059297   0.122566  -0.023328  -0.016839
    9  O  1  Z   -0.280645  -0.015605  -0.377274   0.181791   0.053423
   10  O  1  S    7.659231   0.019582   0.013985  -5.721410   0.014443
   11  O  1  X   -2.305492   0.538758   0.610622   2.998479  -0.393774
   12  O  1  Y    0.376825   4.292245  -0.174018   0.405469   0.085277
   13  O  1  Z    2.989082   0.727156   0.504423  -3.587129  -0.300416
   14  O  1  S    0.367524  -0.073345   0.004836   1.224597  -0.001838
   15  O  1  X    0.508351  -0.056130  -0.513385  -0.389020   0.053107
   16  O  1  Y   -0.163447  -0.519050   0.137289  -0.045214  -0.012006
   17  O  1  Z   -0.685306  -0.101634  -0.413132   0.465707   0.041993
   18  O  1 XX   -0.057119   0.001186   0.007102  -0.020295   0.004358
   19  O  1 YY   -0.065911  -0.000110  -0.000192  -0.033401  -0.004694
   20  O  1 ZZ   -0.060096  -0.000280  -0.006903  -0.022235   0.000611
   21  O  1 XY   -0.002321   0.002606  -0.000599  -0.003338   0.009967
   22  O  1 XZ    0.007387  -0.000423  -0.001655   0.005326   0.002337
   23  O  1 YZ   -0.002540  -0.003418   0.001696  -0.002383   0.008378
   24  O  1 XX   -0.253939   0.001600  -0.003726  -0.108463  -0.010826
   25  O  1 YY   -0.227606   0.001571  -0.000013  -0.086021   0.011483
   26  O  1 ZZ   -0.254209   0.000327   0.003692  -0.101383   0.000462
   27  O  1 XY    0.005969   0.001728   0.000557   0.006183  -0.022835
   28  O  1 XZ   -0.000530   0.000970   0.000987  -0.018223  -0.005076
   29  O  1 YZ    0.003089  -0.002196  -0.000652   0.005898  -0.019735
   30  O  1 XX   -1.056318  -0.063289   0.558683  -0.118891   0.509685
   31  O  1 YY   -0.546073  -0.083743  -0.012984  -2.622358  -0.540434
   32  O  1 ZZ   -0.961756   0.188790  -0.543149  -0.503743   0.041454
   33  O  1 XY    0.019677  -0.437960  -0.042930  -0.675408   1.136364
   34  O  1 XZ   -0.109376  -0.041480  -0.131445   1.093381   0.260050
   35  O  1 YZ    0.199029   0.507895   0.133752  -0.437829   0.955463
   36  O  1 XXX   0.016881  -0.002291  -0.061839  -0.033059   0.008535
   37  O  1 YYY  -0.004078  -0.000212   0.017245   0.002027  -0.002234
   38  O  1 ZZZ  -0.021210  -0.004944  -0.051871   0.034209   0.012629
   39  O  1 XXY  -0.005383  -0.010792   0.005487   0.010155  -0.013046
   40  O  1 XXZ  -0.009386  -0.002856  -0.016649   0.009470   0.005152
   41  O  1 YYX  -0.003657   0.004889  -0.029068   0.021100   0.006836
   42  O  1 YYZ   0.004631   0.002975  -0.023454  -0.023664  -0.000476
   43  O  1 ZZX   0.005783  -0.002301  -0.024238  -0.003526   0.008792
   44  O  1 ZZY   0.003218  -0.009460   0.007148  -0.014360   0.008864
   45  O  1 XYZ  -0.000818  -0.002588  -0.002017  -0.003488   0.001949
   46  H  2  S   -0.007272  -0.005034   0.000310  -0.009292  -0.000214
   47  H  2  S   -3.568878  -3.117629  -0.004161   5.228516   0.002296
   48  H  2  S    0.057200   0.115276   0.000608  -0.657742  -0.005334
   49  H  2  S    0.098535   0.293302  -0.005902  -0.034906   0.001920
   50  H  2  X    0.006283   0.039166  -0.027157   0.007734   0.031273
   51  H  2  Y   -0.009517   0.031553   0.007164  -0.017352  -0.008393
   52  H  2  Z   -0.010810  -0.038826  -0.021510  -0.014974   0.025016
   53  H  2  X   -0.376834  -0.935771   0.403114   0.216986  -0.732797
   54  H  2  Y    1.410679   0.094305  -0.103725  -0.868316   0.193992
   55  H  2  Z    0.927049   1.201598   0.320332  -0.560015  -0.589096
   56  H  3  S   -0.006633   0.000912   0.000055  -0.021615   0.000258
   57  H  3  S   -2.834128   3.050750  -0.020235   5.746443  -0.030986
   58  H  3  S   -0.063250  -0.031989  -0.000824  -0.707630   0.005287
   59  H  3  S   -0.136881  -0.292452   0.003307  -0.060491  -0.001055
   60  H  3  X    0.009487  -0.031855  -0.027995   0.015479  -0.046949
   61  H  3  Y    0.004605   0.030249   0.007219   0.022887   0.012091
   62  H  3  Z   -0.010310   0.049310  -0.022668  -0.012038  -0.037489
   63  H  3  X   -0.665665   1.004610   0.421692   0.494838   1.149819
   64  H  3  Y   -1.188299   0.108610  -0.114272   0.942271  -0.306093
   65  H  3  Z    0.441303  -1.211406   0.346245  -0.304052   0.925434

                     26         27         28         29         30
                    1.3827     1.4025     1.5716     1.8428     1.8936
                     A          A          A          A          A   
    1  O  1  S    0.000028   0.000207  -0.002412  -0.026501   0.002106
    2  O  1  S    0.000164  -0.001840  -0.000471  -0.051157   0.003364
    3  O  1  X   -0.096995   0.008258   0.010375  -0.144838   0.048224
    4  O  1  Y    0.026026   0.056945   0.001337   0.011270   0.267379
    5  O  1  Z   -0.078210   0.009859  -0.012390   0.183641   0.027014
    6  O  1  S    0.000326  -0.007160   0.041956   0.274967  -0.018670
    7  O  1  X   -0.264309   0.026798   0.036918  -0.410364   0.136761
    8  O  1  Y    0.071383   0.197537   0.003311   0.028842   0.749811
    9  O  1  Z   -0.213081   0.035398  -0.044543   0.519401   0.073968
   10  O  1  S    0.013789  -0.267347   3.234640  13.162598  -1.230506
   11  O  1  X    1.638701  -0.855764  -2.401883  -3.484307   1.513515
   12  O  1  Y   -0.493081  -7.058210  -0.189263   0.331882   8.498120
   13  O  1  Z    1.331965  -1.264499   2.922189   4.440920   0.886109
   14  O  1  S    0.003001  -0.080269   0.621035   1.087549  -0.314354
   15  O  1  X   -0.192317   0.112019  -0.097955  -0.155918   0.037149
   16  O  1  Y    0.058430   0.755438  -0.017529  -0.056106  -0.073866
   17  O  1  Z   -0.153716   0.109467   0.116311   0.175036  -0.070637
   18  O  1 XX   -0.007097   0.000938   0.006432  -0.002980  -0.001288
   19  O  1 YY   -0.000860  -0.001005  -0.010202  -0.000658  -0.000871
   20  O  1 ZZ    0.008157  -0.003879   0.010407  -0.001742   0.001256
   21  O  1 XY    0.003226   0.007955  -0.001096   0.000602  -0.004867
   22  O  1 XZ    0.002465   0.000063  -0.011332  -0.002932   0.000420
   23  O  1 YZ    0.000039  -0.010055  -0.002037   0.000943   0.005679
   24  O  1 XX    0.023574  -0.007915   0.004161   0.038394   0.009514
   25  O  1 YY    0.002374  -0.004761   0.030281  -0.046264   0.004822
   26  O  1 ZZ   -0.025124  -0.002358  -0.002783   0.026887  -0.019672
   27  O  1 XY   -0.008309  -0.007785   0.001955  -0.012584   0.053155
   28  O  1 XZ   -0.007362  -0.000926   0.019162   0.020895  -0.001570
   29  O  1 YZ    0.001084   0.010585   0.002583  -0.022729  -0.062881
   30  O  1 XX   -0.904782   0.545336   0.754606  -0.449991  -0.487995
   31  O  1 YY   -0.099272   0.060809  -1.271053   2.074732  -0.353339
   32  O  1 ZZ    1.012760  -0.766555   1.383006   0.069280   0.731436
   33  O  1 XY    0.391060   2.230929  -0.053880   0.459150  -2.301557
   34  O  1 XZ    0.302236   0.007995  -1.795763  -1.113865   0.150653
   35  O  1 YZ   -0.028663  -2.778384  -0.231126   0.709318   2.676480
   36  O  1 XXX  -0.049874   0.000422   0.016035  -0.068119   0.021755
   37  O  1 YYY   0.011179  -0.007334   0.001490   0.003328   0.100774
   38  O  1 ZZZ  -0.036003  -0.003005  -0.016283   0.083255   0.007825
   39  O  1 XXY   0.005842   0.001699  -0.000153   0.006053   0.048611
   40  O  1 XXZ  -0.025763   0.011350  -0.002528   0.036093   0.006940
   41  O  1 YYX  -0.019345  -0.013383   0.009649  -0.013339   0.003261
   42  O  1 YYZ  -0.016606  -0.009028  -0.011591   0.017272   0.002156
   43  O  1 ZZX  -0.026183   0.009828  -0.001736  -0.026966   0.011837
   44  O  1 ZZY   0.008415  -0.014339  -0.000323  -0.006260   0.045615
   45  O  1 XYZ   0.003964   0.041123   0.000809  -0.000002   0.010632
   46  H  2  S   -0.000565  -0.052763  -0.014256  -0.202382  -0.186976
   47  H  2  S    0.047989   7.270736  -2.329094  -8.120231  -7.818105
   48  H  2  S   -0.016179  -1.131006  -0.392454  -1.540282  -1.005921
   49  H  2  S    0.000290   0.054483   0.026159   0.285717   0.539331
   50  H  2  X    0.045781   0.008259  -0.039559   0.024194   0.031170
   51  H  2  Y   -0.012521  -0.048123  -0.047726  -0.092821  -0.061049
   52  H  2  Z    0.036455  -0.027041   0.033593  -0.060222  -0.058545
   53  H  2  X   -1.175824   0.420121   0.988243  -0.954037  -0.930560
   54  H  2  Y    0.305415  -0.825529   1.765638   2.990777   2.458560
   55  H  2  Z   -0.951782  -0.762778  -0.649888   2.160917   1.958481
   56  H  3  S    0.000481   0.055683  -0.009620  -0.165778   0.208133
   57  H  3  S   -0.073506  -6.757699  -2.443128  -7.149843   9.233320
   58  H  3  S    0.011262   1.223193  -0.459070  -1.516776   1.502674
   59  H  3  S   -0.000182  -0.049106   0.025489   0.175441  -0.562324
   60  H  3  X    0.028009  -0.022308  -0.026066   0.042602  -0.055723
   61  H  3  Y   -0.007845  -0.049606   0.044201   0.086861  -0.078525
   62  H  3  Z    0.023014   0.011320   0.046820  -0.024670   0.043694
   63  H  3  X   -0.764648  -0.567305   0.465587  -1.580131   1.908435
   64  H  3  Y    0.188829  -0.738447  -1.692923  -2.762789   3.082725
   65  H  3  Z   -0.609290   0.472837  -1.130413   1.064941  -1.368802

                     31         32         33         34         35
                    2.8109     2.9323     3.1629     3.4117     3.4422
                     A          A          A          A          A   
    1  O  1  S    0.123750   0.002579   0.087400  -0.000022   0.022447
    2  O  1  S   -0.081880  -0.003883  -0.133432   0.000030  -0.031697
    3  O  1  X   -0.060840   0.004374   0.002661   0.003479  -0.042402
    4  O  1  Y   -0.004433   0.038067  -0.001193  -0.000889  -0.000977
    5  O  1  Z    0.074222   0.006997  -0.003721   0.002671   0.052434
    6  O  1  S   -3.073591  -0.061358  -2.066594   0.000330  -0.345390
    7  O  1  X   -0.136374   0.036398   0.078908   0.001842  -0.033305
    8  O  1  Y   -0.013723   0.263015   0.001153  -0.000477  -0.001459
    9  O  1  Z    0.165119   0.040460  -0.097735   0.001396   0.040954
   10  O  1  S   19.059194   0.162382  -2.350944  -0.000668   1.158286
   11  O  1  X   -3.041403   0.855106   2.906092  -0.003815  -0.090378
   12  O  1  Y   -0.228915   6.197576   0.058268   0.000306  -0.053014
   13  O  1  Z    3.707339   0.955098  -3.594377  -0.003205   0.095132
   14  O  1  S    0.628430   0.192209   3.376716   0.000335   0.031265
[...]
   57  H  3  S   -0.000001   0.239717  -0.602650   0.449538  -0.166837
   58  H  3  S    0.000060  -0.171176  -0.225987  -0.313443  -0.352322
   59  H  3  S   -0.000028   0.017749  -0.130896   0.135473  -0.015185
   60  H  3  X   -0.368613   0.325964  -0.202969   0.442760   0.484380
   61  H  3  Y    0.096497  -0.109631  -0.263063   0.876197   0.740342
   62  H  3  Z   -0.296304  -0.441250   0.166697  -0.265139  -0.361156
   63  H  3  X    0.050434  -0.037002  -0.112259  -0.104340  -0.204816
   64  H  3  Y   -0.013235   0.147888  -0.198624  -0.247283  -0.356468
   65  H  3  Z    0.040497   0.094212   0.074890   0.049187   0.138572

                     56         57         58         59         60
                   15.0435    15.0750    15.1140    15.4898    15.8445
                     A          A          A          A          A   
    1  O  1  S    0.000003  -0.000002   0.004365  -0.034163  -0.001605
    2  O  1  S   -0.000037  -0.000019  -0.013467   0.111227   0.004841
    3  O  1  X   -0.027957   0.001137  -0.002773  -0.128595  -0.074900
    4  O  1  Y    0.007296  -0.000307   0.000102  -0.004103  -0.484203
    5  O  1  Z   -0.022443   0.000898   0.003524   0.158520  -0.064523
    6  O  1  S    0.000189   0.000120   0.030725  -0.164761  -0.016270
    7  O  1  X    0.103017  -0.004012   0.017970   0.402081   0.251044
    8  O  1  Y   -0.026902   0.001094  -0.000303   0.016366   1.608738
    9  O  1  Z    0.082742  -0.003148  -0.022576  -0.494504   0.211628
   10  O  1  S   -0.000148   0.000736  -0.429150  -1.056585  -0.019458
   11  O  1  X    0.059735  -0.003154   0.276176   0.025916  -0.085456
   12  O  1  Y   -0.015652   0.000684   0.014011   0.012937  -0.597703
   13  O  1  Z    0.047864  -0.001704  -0.338885  -0.028029  -0.088420
   14  O  1  S   -0.000004   0.000290  -0.176233   0.270016   0.008246
   15  O  1  X    0.009536  -0.000376   0.037391  -0.070584  -0.010031
   16  O  1  Y   -0.002502   0.000078   0.001926  -0.003477  -0.060699
   17  O  1  Z    0.007666  -0.000183  -0.045871   0.086627  -0.007295
   18  O  1 XX   -0.948025   0.241199  -0.083315  -0.455516   0.170864
   19  O  1 YY   -0.001661  -0.390155   0.485613   1.090706   0.081868
   20  O  1 ZZ    0.949601   0.148927  -0.448587  -0.265319  -0.235997
   21  O  1 XY    0.147602   0.821878  -0.060186   0.316301   0.737237
   22  O  1 XZ    0.242011   0.216912   1.010645  -0.443427  -0.023816
   23  O  1 YZ   -0.175265   0.662209   0.021869   0.331471  -0.881138
   24  O  1 XX    0.521922  -0.135297   0.018747   0.580655  -0.129794
   25  O  1 YY    0.000806   0.218728  -0.306196  -0.508533  -0.058598
   26  O  1 ZZ   -0.522953  -0.083569   0.228209   0.445960   0.204987
   27  O  1 XY   -0.081297  -0.460865   0.034873  -0.224665  -0.607780
   28  O  1 XZ   -0.133257  -0.121614  -0.579690   0.316143   0.020439
   29  O  1 YZ    0.096510  -0.371304  -0.012394  -0.232324   0.725359
   30  O  1 XX   -0.193990   0.054127  -0.087019   0.210714   0.060455
   31  O  1 YY   -0.000539  -0.088337   0.105469   0.539760   0.029486
   32  O  1 ZZ    0.194498   0.034396  -0.202177   0.226292  -0.066625
   33  O  1 XY    0.030685   0.186149  -0.017609   0.053712   0.227932
   34  O  1 XZ    0.049719   0.049108   0.320036  -0.022978  -0.005293
   35  O  1 YZ   -0.035519   0.149804   0.009619   0.067593  -0.274254
   36  O  1 XXX  -0.058654   0.007743  -0.014778  -0.224893  -0.114073
   37  O  1 YYY   0.020984  -0.001574  -0.000523   0.011639  -0.639155
   38  O  1 ZZZ  -0.049335  -0.003908   0.019181   0.254557  -0.071841
   39  O  1 XXY   0.003445   0.017064  -0.004259   0.054450  -0.311061
   40  O  1 XXZ  -0.016107   0.001901   0.009080   0.098260  -0.081751
   41  O  1 YYX  -0.034955  -0.002017  -0.020002   0.089863   0.015356
   42  O  1 YYZ  -0.027893   0.007635   0.024693  -0.104088  -0.010132
   43  O  1 ZZX  -0.023469  -0.002830  -0.007927  -0.060688  -0.084264
   44  O  1 ZZY   0.004261  -0.016423   0.004856  -0.079470  -0.257532
   45  O  1 XYZ  -0.004442  -0.003725   0.000760  -0.005538  -0.157029
   46  H  2  S   -0.000005   0.000037  -0.043518   0.254125  -0.308914
   47  H  2  S    0.000148  -0.000528   0.374501  -0.033628   0.553916
   48  H  2  S    0.000001  -0.000174   0.110678  -0.234208   0.173772
   49  H  2  S    0.000006   0.000001  -0.002770   0.020938  -0.040499
   50  H  2  X    0.052048   0.064175   0.041237   0.108424  -0.067882
   51  H  2  Y   -0.013604  -0.016918   0.076537  -0.178391   0.281464
   52  H  2  Z    0.041823   0.051721  -0.026178  -0.192925   0.176068
   53  H  2  X   -0.075932  -0.082756  -0.084276  -0.067467   0.049517
   54  H  2  Y    0.019796   0.022026  -0.219890  -0.018264  -0.195002
   55  H  2  Z   -0.061028  -0.066715   0.032958   0.077948  -0.125068
   56  H  3  S    0.000038   0.000080  -0.043637   0.252908   0.332134
   57  H  3  S    0.000081  -0.000582   0.379463  -0.006811  -0.562192
   58  H  3  S   -0.000006  -0.000180   0.112290  -0.233274  -0.187232
   59  H  3  S   -0.000002   0.000003  -0.002596   0.019056   0.041251
   60  H  3  X    0.048464  -0.069381   0.021341   0.157463   0.156392
   61  H  3  Y   -0.012666   0.018295  -0.073966   0.183621   0.305043
   62  H  3  Z    0.038909  -0.055705  -0.050880  -0.136003  -0.095102
   63  H  3  X   -0.070627   0.089226  -0.024086  -0.058747  -0.106539
   64  H  3  Y    0.018549  -0.023698   0.216481   0.022101  -0.202967
   65  H  3  Z   -0.056736   0.071583   0.100790   0.080271   0.066361

                     61         62         63         64         65
                   17.2368    17.3815    17.5172    19.3716    62.9452
                     A          A          A          A          A   
    1  O  1  S   -0.000004  -0.044895   0.002273   0.802632  -2.208909
    2  O  1  S    0.000018   0.174798  -0.008775  -3.681507   1.613290
    3  O  1  X   -2.646076   2.180862  -0.534233   0.161816   0.002257
    4  O  1  Y    0.693638   0.012535  -3.407320   0.012876   0.000142
    5  O  1  Z   -2.126257  -2.709907  -0.446703  -0.197149  -0.002757
    6  O  1  S   -0.000038  -0.865143   0.042408  16.676156   5.263274
    7  O  1  X    9.784710  -8.077340   1.983610  -0.624480  -0.010138
    8  O  1  Y   -2.564952  -0.045745  12.655955  -0.048770  -0.000568
    9  O  1  Z    7.862518  10.037009   1.660096   0.761118   0.012409
   10  O  1  S   -0.000763   1.467264  -0.069855   6.554571   0.265276
   11  O  1  X   -0.581478   0.021059   0.062081  -0.141274  -0.013587
   12  O  1  Y    0.152237  -0.002828   0.396740  -0.013053  -0.000636
   13  O  1  Z   -0.467654  -0.027606   0.051772   0.171387   0.016687
   14  O  1  S   -0.000268   0.133163  -0.000736   0.954953   0.041999
   15  O  1  X    0.139088  -0.108408   0.029164  -0.071567  -0.001147
   16  O  1  Y   -0.036507   0.002450   0.195580  -0.003494   0.000033
   17  O  1  Z    0.111709   0.135714   0.027495   0.087843   0.001436
   18  O  1 XX    0.010982   0.143611  -0.034892  -3.426961  -1.199924
   19  O  1 YY   -0.000157   0.237611  -0.022243  -3.328333  -1.197879
   20  O  1 ZZ   -0.010794   0.155056   0.029903  -3.412588  -1.199581
   21  O  1 XY   -0.001326   0.018659  -0.118163   0.024364   0.000473
   22  O  1 XZ   -0.002659  -0.025990   0.004307  -0.038341  -0.000858
   23  O  1 YZ    0.002231   0.020555   0.140483   0.018911   0.000445
   24  O  1 XX   -0.009317   0.307134   0.022350  -6.403259  -1.555538
   25  O  1 YY    0.000191   0.185708   0.006166  -6.571297  -1.561401
   26  O  1 ZZ    0.009269   0.290248  -0.065640  -6.427690  -1.556525
   27  O  1 XY    0.001141  -0.025490   0.161113  -0.042424  -0.001380
   28  O  1 XZ    0.002267   0.039889  -0.006400   0.066270   0.002487
   29  O  1 YZ   -0.001868  -0.026598  -0.191001  -0.031419  -0.001257
   30  O  1 XX    0.009737  -0.021721  -0.063075  -1.793206  -0.081902
   31  O  1 YY   -0.000079   0.234300  -0.031490  -1.694478  -0.076061
   32  O  1 ZZ   -0.009584   0.028984   0.084625  -1.774586  -0.080339
   33  O  1 XY   -0.001335   0.057473  -0.268824   0.025577   0.001591
   34  O  1 XZ   -0.002363  -0.121890   0.009784  -0.049125  -0.004015
   35  O  1 YZ    0.001782   0.061657   0.320643   0.020373   0.001406
   36  O  1 XXX  -5.280151   4.335659  -1.071613   0.319388   0.004324
   37  O  1 YYY   1.382076   0.029163  -6.865597   0.037964   0.000708
   38  O  1 ZZZ  -4.241912  -5.391324  -0.907532  -0.398894  -0.005763
   39  O  1 XXY   0.620435   0.024714  -3.065576   0.040164   0.001426
   40  O  1 XXZ  -1.899881  -2.412386  -0.385767  -0.186860  -0.002918
   41  O  1 YYX  -2.358224   1.986744  -0.505127   0.234059   0.006222
   42  O  1 YYZ  -1.894947  -2.466570  -0.410785  -0.281309  -0.007483
   43  O  1 ZZX  -2.362746   1.943875  -0.465869   0.161807   0.002784
   44  O  1 ZZY   0.619890  -0.007972  -3.086252  -0.022569  -0.001565
   45  O  1 XYZ   0.001743  -0.001100   0.063865  -0.005142  -0.000157
   46  H  2  S   -0.000055   0.071328   0.116809   0.086154   0.007869
   47  H  2  S    0.000618  -0.926678  -1.090733  -0.338831  -0.032014
   48  H  2  S    0.000219  -0.166074  -0.168910  -0.234675  -0.003211
   49  H  2  S    0.000106   0.008501  -0.059215  -0.082046  -0.005163
   50  H  2  X   -0.013078   0.046130   0.045082   0.052831   0.002037
   51  H  2  Y    0.003501  -0.091842  -0.172435  -0.139124  -0.005422
   52  H  2  Z   -0.010427  -0.087286  -0.112227  -0.111011  -0.004300
   53  H  2  X    0.015619  -0.118723  -0.143396  -0.066785  -0.003275
   54  H  2  Y   -0.004324   0.365088   0.411703   0.205438   0.012440
   55  H  2  Z    0.012308   0.266555   0.312412   0.149968   0.008124
   56  H  3  S   -0.000002   0.072469  -0.131667   0.096089   0.008096
   57  H  3  S    0.000132  -0.902718   1.181807  -0.359061  -0.032476
   58  H  3  S    0.000076  -0.154995   0.175446  -0.235115  -0.002640
   59  H  3  S   -0.000064   0.013994   0.058453  -0.084824  -0.005388
   60  H  3  X   -0.012743   0.069862  -0.101673   0.096199   0.003489
   61  H  3  Y    0.003336   0.092514  -0.190095   0.152314   0.005521
   62  H  3  Z   -0.010233  -0.056746   0.064500  -0.070007  -0.002540
   63  H  3  X    0.015074  -0.213298   0.278258  -0.128913  -0.006710
   64  H  3  Y   -0.003879  -0.366453   0.460829  -0.220616  -0.012763
   65  H  3  Z    0.012079   0.145875  -0.195887   0.088439   0.004186
 ...... END OF RHF CALCULATION ......
 STEP CPU TIME =     0.01 TOTAL CPU TIME =        2.2 (    0.0 MIN)
 TOTAL WALL CLOCK TIME=        7.0 SECONDS, CPU UTILIZATION IS  31.86%

     ----------------------------------------------------------------
     PROPERTY VALUES FOR THE RHF   SELF-CONSISTENT FIELD WAVEFUNCTION
     ----------------------------------------------------------------

          -----------------
          ENERGY COMPONENTS
          -----------------

         WAVEFUNCTION NORMALIZATION =       1.0000000000

                ONE ELECTRON ENERGY =    -122.9679595592
                TWO ELECTRON ENERGY =      37.8700474371
           NUCLEAR REPULSION ENERGY =       9.3043970984
          EFFECTIVE FRAGMENT ENERGY =      -0.2765259592
                                      ------------------
                       TOTAL ENERGY =     -76.0700409829

 ELECTRON-ELECTRON POTENTIAL ENERGY =      37.8700474371
  NUCLEUS-ELECTRON POTENTIAL ENERGY =    -199.1804113943
   NUCLEUS-NUCLEUS POTENTIAL ENERGY =       9.3043970984
 ELECTRON-FRAGMENT MULTIPOLE ENERGY =       0.2110243894
 ELECTRON-FRAGMENT REMAINDER ENERGY =       0.0000000000
            FRAGMENT-NUCLEAR ENERGY =      -0.2312913137
    TOTAL FRAGMENT INDUCTION ENERGY =       0.0000000000
 ELECTRON-FRAGMENT DISPERSION ENERGY =     -0.0026091075
 ELECTRON-FRAGMENT EXCHANGE REPULSION =      0.0074814331
                                      ------------------
             TOTAL POTENTIAL ENERGY =    -152.0714684287
                                      ------------------
            SOLUTE POTENTIAL ENERGY =    -151.7949424695
              SOLUTE KINETIC ENERGY =      76.0014274458
                 VIRIAL RATIO (V/T) =       1.9972643616

          ---------------------------------------
          MULLIKEN AND LOWDIN POPULATION ANALYSES
          ---------------------------------------

     ATOMIC MULLIKEN POPULATION IN EACH MOLECULAR ORBITAL

                      1          2          3          4          5

                  2.000000   2.000000   2.000000   2.000000   2.000000

    1             1.999319   1.616710   1.084765   1.600266   1.952798
    2             0.000322   0.195775   0.505001   0.237416   0.021272
    3             0.000359   0.187514   0.410234   0.162318   0.025930

               ----- POPULATIONS IN EACH AO -----
                             MULLIKEN      LOWDIN
              1  O  1  S      1.08317     1.01568
              2  O  1  S      0.91397     0.90303
              3  O  1  X      0.34715     0.33522
              4  O  1  Y      0.26369     0.24752
              5  O  1  Z      0.33386     0.32105
              6  O  1  S      0.99180     0.32551
              7  O  1  X      0.74149     0.40723
              8  O  1  Y      0.60333     0.33573
              9  O  1  Z      0.71813     0.39722
             10  O  1  S      1.13238     0.26836
             11  O  1  X      0.56540     0.41336
             12  O  1  Y      0.27543     0.33714
             13  O  1  Z      0.50088     0.40283
             14  O  1  S      0.08224     0.07004
             15  O  1  X      0.03982     0.11084
             16  O  1  Y     -0.03740     0.07705
             17  O  1  Z     -0.00976     0.10843
             18  O  1 XX      0.00002     0.07435
             19  O  1 YY      0.00001     0.07602
             20  O  1 ZZ      0.00008     0.07439
             21  O  1 XY      0.00004     0.00010
             22  O  1 XZ      0.00011     0.00007
             23  O  1 YZ     -0.02451     0.00015
             24  O  1 XX      0.00094     0.17635
             25  O  1 YY      0.00070     0.18858
             26  O  1 ZZ      0.00332     0.17736
             27  O  1 XY      0.00183     0.00398
             28  O  1 XZ      0.00474     0.00151
             29  O  1 YZ     -0.14295     0.00531
             30  O  1 XX      0.00105     0.04275
             31  O  1 YY     -0.00237     0.05224
             32  O  1 ZZ     -0.00207     0.04361
             33  O  1 XY      0.00079     0.01189
             34  O  1 XZ     -0.00506     0.00241
             35  O  1 YZ     -0.17810     0.01668
             36  O  1 XXX     0.00029     0.23330
             37  O  1 YYY     0.00019     0.20604
             38  O  1 ZZZ     0.00006     0.22826
             39  O  1 XXY     0.00015     0.09045
             40  O  1 XXZ     0.00006     0.10406
             41  O  1 YYX     0.00019     0.11740
             42  O  1 YYZ     0.00011     0.11814
             43  O  1 ZZX     0.01776     0.10772
             44  O  1 ZZY     0.01387     0.09488
             45  O  1 XYZ     0.01702     0.00092
             46  H  2  S      0.25716     0.21342
             47  H  2  S      0.42841     0.25421
             48  H  2  S      0.21030     0.08839
             49  H  2  S      0.01659     0.01709
             50  H  2  X      0.00474     0.00804
             51  H  2  Y      0.00713     0.01311
             52  H  2  Z      0.00645     0.01204
             53  H  2  X      0.01050     0.07963
             54  H  2  Y      0.01391     0.06396
             55  H  2  Z      0.00460     0.08642
             56  H  3  S      0.26428     0.22609
             57  H  3  S      0.42939     0.26101
             58  H  3  S      0.03440     0.07203
             59  H  3  S     -0.00128     0.01176
             60  H  3  X      0.00609     0.01131
             61  H  3  Y      0.00827     0.01298
             62  H  3  Z      0.00473     0.00890
             63  H  3  X      0.01273     0.08757
             64  H  3  Y      0.01398     0.06685
             65  H  3  Z      0.01377     0.08004

          ----- MULLIKEN ATOMIC OVERLAP POPULATIONS -----
          (OFF-DIAGONAL ELEMENTS NEED TO BE MULTIPLIED BY 2)

             1           2           3

    1    8.8113799
    2   -0.6753737   1.5804496
    3    0.1178526   0.0547101   0.6137924

          TOTAL MULLIKEN AND LOWDIN ATOMIC POPULATIONS
       ATOM         MULL.POP.    CHARGE          LOW.POP.     CHARGE
    1 O             8.253859   -0.253859         8.325161   -0.325161
    2 H             0.959786    0.040214         0.836314    0.163686
    3 H             0.786355    0.213645         0.838525    0.161475

          MULLIKEN SPHERICAL HARMONIC POPULATIONS
       ATOM           S       P       D      F      G      H      I    TOTAL
    1 O             3.86    4.39    0.00   0.00   0.00   0.00   0.00    8.25
    2 H             0.91    0.05    0.00   0.00   0.00   0.00   0.00    0.96
    3 H             0.73    0.06    0.00   0.00   0.00   0.00   0.00    0.79

          -------------------------------
          BOND ORDER AND VALENCE ANALYSIS     BOND ORDER THRESHOLD=0.050
          -------------------------------

                   BOND                       BOND                       BOND
  ATOM PAIR DIST  ORDER      ATOM PAIR DIST  ORDER      ATOM PAIR DIST  ORDER
    1   2  0.948  0.908        1   3  0.942  0.952

                       TOTAL       BONDED        FREE
      ATOM            VALENCE     VALENCE     VALENCE
    1 O                 1.859       1.859       0.000
    2 H                 0.921       0.921       0.000
    3 H                 0.965       0.965       0.000

          ----------------------------
          SOLUTE ELECTROSTATIC MOMENTS
          ----------------------------

 POINT   1           X           Y           Z (BOHR)    CHARGE
                 1.078708   -1.318131   -1.972779       -0.00 (A.U.)
         DX          DY          DZ         /D/  (DEBYE)
    -1.227266   -0.107761    1.498039    1.939566

          ----------------------------------------
          EFFECTIVE FRAGMENT ELECTROSTATIC MOMENTS
          ----------------------------------------

 FRAGMENT   1  MEOH  
          X           Y           Z (BOHR)    CHARGE
    -0.879737    4.092864    0.582812       -0.00 (A.U.)
         DX          DY          DZ         /D/  (DEBYE)
     0.340294    1.676090    0.345153    1.744766


          ----------------------------
          SYSTEM ELECTROSTATIC MOMENTS
          ----------------------------

 POINT   1           X           Y           Z (BOHR)    CHARGE
                 1.078708   -1.318131   -1.972779       -0.00 (A.U.)
         DX          DY          DZ         /D/  (DEBYE)
    -0.997671    1.881456    1.906276    2.858167
 ...... END OF PROPERTY EVALUATION ......
 STEP CPU TIME =     0.00 TOTAL CPU TIME =        2.2 (    0.0 MIN)
 TOTAL WALL CLOCK TIME=        7.0 SECONDS, CPU UTILIZATION IS  31.68%
               580000  WORDS OF DYNAMIC MEMORY USED
 EXECUTION OF GAMESS TERMINATED NORMALLY Mon Nov 28 20:02:30 2016
 DDI: 263640 bytes (0.3 MB / 0 MWords) used by master data server.

 ----------------------------------------
 CPU timing information for all processes
 ========================================
 0: 1.913 + 0.331 = 2.245
 ----------------------------------------
 ddikick.x: exited gracefully.
unset echo
----- accounting info -----
Files used on the master node compute-3-0 were:
-rw-rw-r-- 1 sarom sarom     75736 Nov 29  2016 .//h2o_meoh_qmefp.dat
-rw-rw-r-- 1 sarom sarom     75503 Nov 29  2016 .//h2o_meoh_qmefp.F05
-rw-rw-r-- 1 sarom sarom  22141968 Nov 29  2016 .//h2o_meoh_qmefp.F08
-rw-rw-r-- 1 sarom sarom   1897760 Nov 29  2016 .//h2o_meoh_qmefp.F10
-rw-rw-r-- 1 sarom sarom    360528 Nov 29  2016 .//h2o_meoh_qmefp.F25
-rw-rw-r-- 1 sarom sarom 140052448 Nov 29  2016 .//h2o_meoh_qmefp.F39
-rw-rw-r-- 1 sarom sarom     75503 Nov 28 17:27 .//h2o_meoh_qmefp.inp
-rw-rw-r-- 1 sarom sarom    121589 Nov 29  2016 .//h2o_meoh_qmefp.log
Mon Nov 28 20:02:42 CST 2016
0.188u 0.342s 0:20.43 2.5%	0+0k 184+272io 1pf+0w
