-catch_rsh /opt/gridengine/default/spool/compute-0-6/active_jobs/35910.1/pe_hostfile
compute-0-6
The primary node assigned by SGE to this run is compute-0-6
Warning: no access to tty (Bad file descriptor).
Thus no job control in this shell.
source /home/sarom/dir.git.branch.saromleang-travis-ci/install.info
setenv GMS_PATH /home/sarom/dir.git.branch.saromleang-travis-ci
setenv GMS_BUILD_DIR /home/sarom/dir.git.branch.saromleang-travis-ci
setenv GMS_TARGET linux64
setenv GMS_FORTRAN gfortran
setenv GMS_GFORTRAN_VERNO 4.4
setenv GMS_MATHLIB mkl-so
setenv GMS_MATHLIB none
setenv GMS_MATHLIB_PATH /share/apps/intel/compilers_and_libraries_2017.1.132/linux/mkl/lib/intel64
setenv GMS_MKL_VERNO 12
setenv GMS_DDI_COMM sockets
setenv GMS_LIBCCHEM false
setenv GMS_EIGEN_PATH
setenv GMS_PHI false
setenv GMS_SHMTYPE sysv
setenv GMS_OPENMP false
unset echo
mc-diab-lifh
/home/sarom/dir.git.branch.saromleang-travis-ci/tests/mcscf/diabat/parallel
----- GAMESS execution script 'rungms' -----
This job is running on host compute-0-6.local
under operating system Linux at Wed Aug 9 20:38:11 CDT 2017
Available scratch disk space (Kbyte units) at beginning of the job is
Filesystem           1K-blocks      Used Available Use% Mounted on
/dev/sda1             16126920   3962040  11345680  26% /
GAMESS temporary binary files will be written to /scratch
GAMESS supplementary output files will be written to /home/sarom/restart
Copying input file mc-diab-lifh.inp to your run's scratch directory...
cp /home/sarom/dir.git.branch.saromleang-travis-ci/tests/mcscf/diabat/parallel/mc-diab-lifh.inp /scratch/mc-diab-lifh.F05
unset echo
The generated host list is
compute-0-6.local
/home/sarom/dir.git.branch.saromleang-travis-ci/ddikick.x /home/sarom/dir.git.branch.saromleang-travis-ci/gamess.00.x mc-diab-lifh -ddi 1 1 compute-0-6.local -scr /scratch

 Distributed Data Interface kickoff program.
 Initiating 1 compute processes on 1 nodes to run the following command:
 /home/sarom/dir.git.branch.saromleang-travis-ci/gamess.00.x mc-diab-lifh 

          ******************************************************
          *         GAMESS VERSION = 20 APR 2017 (R1)          *
          *             FROM IOWA STATE UNIVERSITY             *
          * M.W.SCHMIDT, K.K.BALDRIDGE, J.A.BOATZ, S.T.ELBERT, *
          *   M.S.GORDON, J.H.JENSEN, S.KOSEKI, N.MATSUNAGA,   *
          *          K.A.NGUYEN, S.J.SU, T.L.WINDUS,           *
          *       TOGETHER WITH M.DUPUIS, J.A.MONTGOMERY       *
          *         J.COMPUT.CHEM.  14, 1347-1363(1993)        *
          **************** 64 BIT LINUX VERSION ****************

  SINCE 1993, STUDENTS AND POSTDOCS WORKING AT IOWA STATE UNIVERSITY
  AND ALSO IN THEIR VARIOUS JOBS AFTER LEAVING ISU HAVE MADE IMPORTANT
  CONTRIBUTIONS TO THE CODE:
     IVANA ADAMOVIC, CHRISTINE AIKENS, YURI ALEXEEV, POOJA ARORA,
     ANDREY ASADCHEV, ROB BELL, PRADIPTA BANDYOPADHYAY, JONATHAN BENTZ,
     BRETT BODE, KURT BRORSEN, CALEB CARLIN, GALINA CHABAN, WEI CHEN,
     CHEOL HO CHOI, PAUL DAY, ALBERT DEFUSCO, NUWAN DESILVA, TIM DUDLEY,
     DMITRI FEDOROV, GRAHAM FLETCHER, MARK FREITAG, KURT GLAESEMANN,
     DAN KEMP, GRANT MERRILL, NORIYUKI MINEZAWA, JONATHAN MULLIN,
     TAKESHI NAGATA, SEAN NEDD, HEATHER NETZLOFF, BOSILJKA NJEGIC, RYAN OLSON,
     MIKE PAK, SPENCER PRUITT, LUKE ROSKOP, JIM SHOEMAKER, LYUDMILA SLIPCHENKO,
     TONY SMITH, SAROM SOK LEANG, JIE SONG, TETSUYA TAKETSUGU, SIMON WEBB,
     PENG XU, SOOHAENG YOO, FEDERICO ZAHARIEV

  ADDITIONAL CODE HAS BEEN PROVIDED BY COLLABORATORS IN OTHER GROUPS:
     IOWA STATE UNIVERSITY:
          JOE IVANIC, AARON WEST, LAIMUTIS BYTAUTAS, KLAUS RUEDENBERG
     UNIVERSITY OF TOKYO: KIMIHIKO HIRAO, TAKAHITO NAKAJIMA,
          TAKAO TSUNEDA, MUNEAKI KAMIYA, SUSUMU YANAGISAWA,
          KIYOSHI YAGI, MAHITO CHIBA, SEIKEN TOKURA, NAOAKI KAWAKAMI
     UNIVERSITY OF AARHUS: FRANK JENSEN
     UNIVERSITY OF IOWA: VISVALDAS KAIRYS, HUI LI
     NATIONAL INST. OF STANDARDS AND TECHNOLOGY: WALT STEVENS, DAVID GARMER
     UNIVERSITY OF PISA: BENEDETTA MENNUCCI, JACOPO TOMASI
     UNIVERSITY OF MEMPHIS: HENRY KURTZ, PRAKASHAN KORAMBATH
     UNIVERSITY OF ALBERTA: TOBY ZENG, MARIUSZ KLOBUKOWSKI
     UNIVERSITY OF NEW ENGLAND: MARK SPACKMAN
     MIE UNIVERSITY: HIROAKI UMEDA
     NAT. INST. OF ADVANCED INDUSTRIAL SCIENCE AND TECHNOLOGY: KAZUO KITAURA
     MICHIGAN STATE UNIVERSITY:
          KAROL KOWALSKI, MARTA WLOCH, JEFFREY GOUR, JESSE LUTZ,
          WEI LI, PIOTR PIECUCH
     UNIVERSITY OF SILESIA: MONIKA MUSIAL, STANISLAW KUCHARSKI
     FACULTES UNIVERSITAIRES NOTRE-DAME DE LA PAIX:
          OLIVIER QUINET, BENOIT CHAMPAGNE
     UNIVERSITY OF CALIFORNIA - SANTA BARBARA: BERNARD KIRTMAN
     INSTITUTE FOR MOLECULAR SCIENCE:
          KAZUYA ISHIMURA, MICHIO KATOUDA, AND SHIGERU NAGASE
     UNIVERSITY OF NOTRE DAME: ANNA POMOGAEVA, DAN CHIPMAN
     KYUSHU UNIVERSITY:
          HARUYUKI NAKANO,
          FENG LONG GU, JACEK KORCHOWIEC, MARCIN MAKOWSKI, AND YURIKO AOKI,
          HIROTOSHI MORI AND EISAKU MIYOSHI
     PENNSYLVANIA STATE UNIVERSITY:
          TZVETELIN IORDANOV, CHET SWALINA, JONATHAN SKONE,
          SHARON HAMMES-SCHIFFER
     WASEDA UNIVERSITY:
          MASATO KOBAYASHI, TOMOKO AKAMA, TSUGUKI TOUMA,
          TAKESHI YOSHIKAWA, YASUHIRO IKABATA, JUNJI SEINO,
          YUYA NAKAJIMA, HIROMI NAKAI
     NANJING UNIVERSITY: SHUHUA LI
     UNIVERSITY OF NEBRASKA:
          PEIFENG SU, DEJUN SI, NANDUN THELLAMUREGE, YALI WANG, HUI LI
     UNIVERSITY OF ZURICH: ROBERTO PEVERATI, KIM BALDRIDGE
     N. COPERNICUS UNIVERSITY AND JACKSON STATE UNIVERSITY:
          MARIA BARYSZ
     UNIVERSITY OF COPENHAGEN: Jimmy Kromann, CASPER STEINMANN
     TOKYO INSTITUTE OF TECHNOLOGY: HIROYA NAKATA
     NAGOYA UNIVERSITY: YOSHIO NISHIMOTO, STEPHAN IRLE
     MOSCOW STATE UNIVERSITY: VLADIMIR MIRONOV

 EXECUTION OF GAMESS BEGUN Wed Aug  9 20:38:11 2017

            ECHO OF THE FIRST FEW INPUT CARDS -
 INPUT CARD>!   test of MCSCF diabatic state generation: HONDO+ test case test D3_01        
 INPUT CARD>!      H.Nakamura, D.G.Truhlar  J.Chem.Phys. 115, 10353-10372(2001)             
 INPUT CARD>!      H.Nakamura, D.G.Truhlar  J.Chem.Phys. 117, 5576-5593(2002)               
 INPUT CARD>!   LiFH...114 AOs, 114 MOs, 7e- in 8 orbs, 2 states                            
 INPUT CARD>!                                                                               
 INPUT CARD>!   expected results for diabatizing the two states in the MCSCF are:           
 INPUT CARD>!        STATE            ENERGY    WEIGHT IN MCSCF   WEIGHT IN DMO             
 INPUT CARD>!           1      -107.5935620901      0.500              0.500                
 INPUT CARD>!           2      -107.5387910632      0.500              0.500                
 INPUT CARD>!        --- DIABATIC ENERGIES (DIAGONAL ELEMENT) ---                           
 INPUT CARD>!        STATE #  1's CAS-level diabatic ENERGY=    -107.539673554              
 INPUT CARD>!        STATE #  2's CAS-level diabatic ENERGY=    -107.592679599              
 INPUT CARD>!        --- DIABATIC COUPLINGS (OFF DIAGONAL ELEMENTS)---                      
 INPUT CARD>!        STATE #  1 &  2's CAS-level COUPLING  =       0.006896097              
 INPUT CARD>!                 - Diabatic States -                                           
 INPUT CARD>!        State #  1                                                             
 INPUT CARD>!        ----------                                                             
 INPUT CARD>!           <CSF>      <Coefficient>                                            
 INPUT CARD>!              3         0.953564                                               
 INPUT CARD>!            408        -0.000945                                               
 INPUT CARD>!            410         0.012231                                               
 INPUT CARD>!        State #  2                                                             
 INPUT CARD>!        ----------                                                             
 INPUT CARD>!           <CSF>      <Coefficient>                                            
 INPUT CARD>!            414         0.966997                                               
 INPUT CARD>!         - rotation to diabatic states -                                       
 INPUT CARD>!           1   -0.1269345   0.9919111                                          
 INPUT CARD>!           2    0.9919111   0.1269345                                          
 INPUT CARD>!                                                                               
 INPUT CARD>!   This run takes 8 seconds on 2.66 GHz Cloverton (28 Apr 2015)                
 INPUT CARD>!   only precision changes since 2012.                                          
 INPUT CARD>!                                                                               
 INPUT CARD> $contrl scftyp=mcscf runtyp=energy mult=2 units=bohr $end                      
 INPUT CARD> $system mwords=5 memddi=5 $end                                                 
 INPUT CARD> $guess  guess=moread norb=114 $end                                             
 INPUT CARD> $basis  basnam(1)=libas,fbas,hbas $end                                         
 INPUT CARD>                                                                                
 INPUT CARD> $mcscf  cistep=guga diabat=.true. $end                                         
 INPUT CARD>                                                                                
 INPUT CARD> $drt    group=Cs stsym=Ap fors=.true. nmcc=3 ndoc=3 nalp=1 nval=4 $end         
 INPUT CARD> $gugdia nstate=2 cvgtol=1d-7 $end                                              
 INPUT CARD> $gugdm2 wstate(1)=1,1 $end                                                     
 INPUT CARD>                                                                                
 INPUT CARD> $diabat dmosym=.true. refmos=.true. refgrp=.true.                              
 INPUT CARD>         nmlap=1 ndlap=0 orient=.false. $end                                    
 INPUT CARD>                                                                                
 INPUT CARD>x$det    stsym=Ap ncore=3 nact=8 nels=7                                         
 INPUT CARD>x        nstate=2 cvgtol=1d-7 wstate(1)=1,1 $end                                
 INPUT CARD>                                                                                
 INPUT CARD> $data                                                                          
    5000000 WORDS OF MEMORY AVAILABLE

     BASIS OPTIONS
     -------------
     GBASIS=             IGAUSS=       0      POLAR=NONE    
     NDFUNC=       0     NFFUNC=       0     DIFFSP=       F
     NPFUNC=       0      DIFFS=       F     BASNAM=LIBAS   

 USING BASNAM FOR ATOM CUSTOMIZED BASIS CONSTRUCTION
     ----------------
     ATOM  BASIS NAME
     ----------------
       1   LIBAS   
       2   FBAS    
       3   HBAS    
 NOW LOCATING ALL    3 BASIS SETS IN YOUR INPUT FILE...
 FOUND BASIS SET  $LIBAS 
     S    6                    
     1    900.4600000  0.002287
     2    134.4330000  0.017635
     3     30.4365000  0.087343
     4      8.6263900  0.280977
     5      2.4833200  0.658741
     6      0.3031790  0.118712
     L    3                    
     1      4.8689000  0.093329
     2      0.8569240  0.943045
     3      0.2432270 -0.002798
     L    1                    
     1      0.0635070  1.000000
     L    1                    
     1      0.0243683  1.000000
     D    1                    
     1      0.8000000  1.000000
     D    1                    
     1      0.2000000  1.000000
     D    1                    
     1      0.0500000  1.000000
     F    1                    
     1      0.1500000  1.000000
     S    1                    
     1      0.0052000  1.000000
     P    1                    
     1      0.0097000  1.000000
                               
  $end                         
 FOUND BASIS SET  $FBAS  
     S   6                     
     1  11427.1000000  0.001800
     2   1722.3500000  0.013741
     3    395.7460000  0.068133
     4    115.1390000  0.233325
     5     33.6026000  0.589086
     6      4.9190100  0.299505
     L   3                     
     1     55.4441000  0.114536
     2     12.6323000  0.920512
     3      3.7175600 -0.003378
     L   1                     
     1      1.1654500  1.000000
     L   1                     
     1      0.3218920  1.000000
     D   1                     
     1      7.0000000  1.000000
     D   1                     
     1      1.7500000  1.000000
     D   1                     
     1      0.4375000  1.000000
     F   1                     
     1      1.8500000  1.000000
     S   1                     
     1      0.0890000  1.000000
     P   1                     
     1      0.0830000  1.000000
     S   1                     
     1      0.0000100  1.000000
                               
  $end                         
 FOUND BASIS SET  $HBAS  
     S   3                     
     1     33.8650000  0.025493
     2      5.0947900  0.190373
     3      1.1587900  0.852161
     S   1                     
     1      0.3258400  1.000000
     S   1                     
     1      0.1027400  1.000000
     P   1                     
     1      3.0000000  1.000000
     P   1                     
     1      0.7500000  1.000000
     P   1                     
     1      0.1875000  1.000000
     D   1                     
     1      1.0000000  1.000000
     S   1                     
     1      0.037000   1.000000
     S   1                     
     1      0.012000   1.000000
     P   1                     
     1      0.055000   1.000000
                               
  $end                         
    3 UNIQUE ATOM CUSTOMIZED BASIS SETS WERE FOUND.

     SEARCHING FOR $MCP
     $MCP GROUP NOT FOUND


     RUN TITLE
     ---------
 LiFH...geometry used for real 4-fold diabatization                              

 THE POINT GROUP OF THE MOLECULE IS CS      
 THE ORDER OF THE PRINCIPAL AXIS IS     0

 ATOM      ATOMIC                      COORDINATES (BOHR)
           CHARGE         X                   Y                   Z
 LITHIUM     3.0    -4.0013421550        0.0000000000        0.0000000000
 FLUORINE    9.0     0.0000000000        0.0000000000        0.0000000000
 HYDROGEN    1.0    -0.0000193198        1.7570510396        0.0000000000

          INTERNUCLEAR DISTANCES (ANGS.)
          ------------------------------

                1 LITH       2 FLUO       3 HYDR  

   1 LITH    0.0000000    2.1174192 *  2.3125598 *
   2 FLUO    2.1174192 *  0.0000000    0.9297914 *
   3 HYDR    2.3125598 *  0.9297914 *  0.0000000  

  * ... LESS THAN  3.000


     ATOMIC BASIS SET
     ----------------
 THE CONTRACTED PRIMITIVE FUNCTIONS HAVE BEEN UNNORMALIZED
 THE CONTRACTED BASIS FUNCTIONS ARE NOW NORMALIZED TO UNITY

  SHELL TYPE  PRIMITIVE        EXPONENT          CONTRACTION COEFFICIENT(S)

 LITHIUM   

      1   S       1           900.4600000    0.002287040374
      1   S       2           134.4330000    0.017635002886
      1   S       3            30.4365000    0.087343414295
      1   S       4             8.6263900    0.280977045987
      1   S       5             2.4833200    0.658741107814
      1   S       6             0.3031790    0.118712019429

      2   L       7             4.8689000    0.093329299515    0.032766096583
      2   L       8             0.8569240    0.943044995097    0.159791983337
      2   L       9             0.2432270   -0.002798269985    0.885666907644

      3   L      10             0.0635070    1.000000000000    1.000000000000

      4   L      11             0.0243683    1.000000000000    1.000000000000

      5   D      12             0.8000000    1.000000000000

      6   D      13             0.2000000    1.000000000000

      7   D      14             0.0500000    1.000000000000

      8   F      15             0.1500000    1.000000000000

      9   S      16             0.0052000    1.000000000000

     10   P      17             0.0097000    1.000000000000

 FLUORINE  

     11   S      18         11427.1000000    0.001800930156
     11   S      19          1722.3500000    0.013741901192
     11   S      20           395.7460000    0.068133405910
     11   S      21           115.1390000    0.233325020240
     11   S      22            33.6026000    0.589086051102
     11   S      23             4.9190100    0.299505025981

     12   L      24            55.4441000    0.114536015543    0.035460887379
     12   L      25            12.6323000    0.920512124917    0.237450915490
     12   L      26             3.7175600   -0.003378040458    0.820457707996

     13   L      27             1.1654500    1.000000000000    1.000000000000

     14   L      28             0.3218920    1.000000000000    1.000000000000

     15   D      29             7.0000000    1.000000000000

     16   D      30             1.7500000    1.000000000000

     17   D      31             0.4375000    1.000000000000

     18   F      32             1.8500000    1.000000000000

     19   S      33             0.0890000    1.000000000000

     20   P      34             0.0830000    1.000000000000

     21   S      35             0.0000100    1.000000000000

 HYDROGEN  

     22   S      36            33.8650000    0.025493814541
     22   S      37             5.0947900    0.190373108582
     22   S      38             1.1587900    0.852161486043

     23   S      39             0.3258400    1.000000000000

     24   S      40             0.1027400    1.000000000000

     25   P      41             3.0000000    1.000000000000

     26   P      42             0.7500000    1.000000000000

     27   P      43             0.1875000    1.000000000000

     28   D      44             1.0000000    1.000000000000

     29   S      45             0.0370000    1.000000000000

     30   S      46             0.0120000    1.000000000000

     31   P      47             0.0550000    1.000000000000

 TOTAL NUMBER OF BASIS SET SHELLS             =   31
 NUMBER OF CARTESIAN GAUSSIAN BASIS FUNCTIONS =  114
 NUMBER OF ELECTRONS                          =   13
 CHARGE OF MOLECULE                           =    0
 SPIN MULTIPLICITY                            =    2
 NUMBER OF OCCUPIED ORBITALS (ALPHA)          =    7
 NUMBER OF OCCUPIED ORBITALS (BETA )          =    6
 TOTAL NUMBER OF ATOMS                        =    3
 THE NUCLEAR REPULSION ENERGY IS       12.5564371981

     $CONTRL OPTIONS
     ---------------
 SCFTYP=MCSCF        RUNTYP=ENERGY       EXETYP=RUN     
 MPLEVL=       0     CITYP =NONE         CCTYP =NONE         VBTYP =NONE    
 DFTTYP=NONE         TDDFT =NONE    
 MULT  =       2     ICHARG=       0     NZVAR =       0     COORD =UNIQUE  
 PP    =NONE         RELWFN=NONE         LOCAL =NONE         NUMGRD=       F
 ISPHER=      -1     NOSYM =       0     MAXIT =      30     UNITS =BOHR    
 PLTORB=       F     MOLPLT=       F     AIMPAC=       F     FRIEND=        
 NPRINT=       7     IREST =       0     GEOM  =INPUT   
 NORMF =       0     NORMP =       0     ITOL  =      20     ICUT  =       9
 INTTYP=BEST         GRDTYP=BEST         QMTTOL= 1.0E-06

     $SYSTEM OPTIONS
     ---------------
  REPLICATED MEMORY=     5000000 WORDS (ON EVERY NODE).
 DISTRIBUTED MEMDDI=           5 MILLION WORDS IN AGGREGATE,
 MEMDDI DISTRIBUTED OVER   1 PROCESSORS IS     5000000 WORDS/PROCESSOR.
 TOTAL MEMORY REQUESTED ON EACH PROCESSOR=    10000000 WORDS.
 TIMLIM=      525600.00 MINUTES, OR     365.0 DAYS.
 PARALL= F  BALTYP=  DLB     KDIAG=    0  COREFL= F
 MXSEQ2=     300 MXSEQ3=     150  mem10=         0

          ----------------
          PROPERTIES INPUT
          ----------------

     MOMENTS            FIELD           POTENTIAL          DENSITY
 IEMOM =       1   IEFLD =       0   IEPOT =       0   IEDEN =       0
 WHERE =COMASS     WHERE =NUCLEI     WHERE =NUCLEI     WHERE =NUCLEI  
 OUTPUT=BOTH       OUTPUT=BOTH       OUTPUT=BOTH       OUTPUT=BOTH    
 IEMINT=       0   IEFINT=       0                     IEDINT=       0
                                                       MORB  =       0

     -------------------------------
     INTEGRAL TRANSFORMATION OPTIONS
     -------------------------------
     NWORD  =            0
     CUTOFF = 1.0E-09     MPTRAN =       0
     DIRTRF =       F     AOINTS =DUP     

          ----------------------
          MCSCF INPUT PARAMETERS
          ----------------------
 CONVERGER SELECTION: FOCAS = F  SOSCF = T  FULLNR = F  QUD = F  JACOBI = F
 SECULAR EQUATION METHOD CISTEP = GUGA    
 --- GENERAL INPUT OPTIONS:
 MAXIT =      60  MICIT =       5  ACURCY= 1.000E-05
 DAMP  =   0.000  CANONC=       T  ENGTOL= 1.000E-10
 EKT   =       F  NPUNCH=       2  NWORD =         0
 REGENERATE CI AFTER CONVERGENCE = NONE    
 DIABATIZATION AFTER CONVERGENCE =        T
 --- INPUT FOR SOSCF CONVERGER:
 FORS  =       T  NOFO  =       1

          ----------------------
          INTEGRAL INPUT OPTIONS
          ----------------------
 NOPK  =       1 NORDER=       0 SCHWRZ=       F

     ------------------------------------------
     THE POINT GROUP IS CS , NAXIS= 0, ORDER= 2
     ------------------------------------------

     DIMENSIONS OF THE SYMMETRY SUBSPACES ARE
 A'  =   80     A'' =   34

 ..... DONE SETTING UP THE RUN .....
 STEP CPU TIME =     0.17 TOTAL CPU TIME =        0.2 (    0.0 MIN)
 TOTAL WALL CLOCK TIME=        0.2 SECONDS, CPU UTILIZATION IS 100.00%

          ********************
          1 ELECTRON INTEGRALS
          ********************
 TIME TO DO   DIPOLE INTEGRALS=      0.00
 ...... END OF ONE-ELECTRON INTEGRALS ......
 STEP CPU TIME =     0.00 TOTAL CPU TIME =        0.2 (    0.0 MIN)
 TOTAL WALL CLOCK TIME=        0.2 SECONDS, CPU UTILIZATION IS 100.00%

          -------------
          GUESS OPTIONS
          -------------
          GUESS =MOREAD            NORB  =     114          NORDER=       0
          MIX   =       F          PRTMO =       F          PUNMO =       F
          TOLZ  = 1.0E-08          TOLE  = 1.0E-05
          SYMDEN=       F          PURIFY=       F

 INITIAL GUESS ORBITALS GENERATED BY MOREAD   ROUTINE.

 SYMMETRIES FOR INITIAL GUESS ORBITALS FOLLOW.   BOTH SET(S).
    11 ORBITALS ARE OCCUPIED (    2 CORE ORBITALS).
     1=A'       2=A'       3=A'       4=A'       5=A'       6=A''      7=A'  
     8=A'       9=A'      10=A'      11=A''     12=A'      13=A'      14=A'' 
    15=A'      16=A'      17=A'      18=A''     19=A'      20=A'      21=A'  
    22=A'      23=A''     24=A'      25=A''     26=A'      27=A'      28=A'' 
    29=A'      30=A''     31=A'      32=A'      33=A'      34=A'      35=A'  
    36=A''     37=A''     38=A'      39=A'      40=A'      41=A'      42=A'  
    43=A''     44=A''     45=A'      46=A'      47=A''     48=A''     49=A'  
    50=A'      51=A''     52=A'      53=A'      54=A'      55=A''     56=A'  
    57=A'      58=A''     59=A'      60=A'      61=A'      62=A''     63=A'  
    64=A'      65=A''     66=A'      67=A'      68=A'      69=A''     70=A'  
    71=A'      72=A''     73=A'      74=A''     75=A'      76=A'      77=A'  
    78=A''     79=A'      80=A''     81=A'      82=A'      83=A'      84=A'  
    85=A''     86=A'      87=A''     88=A'      89=A'      90=A''     91=A'  
    92=A'      93=A''     94=A''     95=A'      96=A'      97=A'      98=A'' 
    99=A'     100=A'     101=A''    102=A'     103=A'     104=A'     105=A'' 
   106=A'     107=A''    108=A'     109=A'     110=A''    111=A'     112=A'  
   113=A'     114=A'  
 ...... END OF INITIAL ORBITAL SELECTION ......
 STEP CPU TIME =     0.03 TOTAL CPU TIME =        0.2 (    0.0 MIN)
 TOTAL WALL CLOCK TIME=        0.2 SECONDS, CPU UTILIZATION IS 105.26%

                    ----------------------
                    AO INTEGRAL TECHNOLOGY
                    ----------------------
     S,P,L SHELL ROTATED AXIS INTEGRALS, REPROGRAMMED BY
        KAZUYA ISHIMURA (IMS) AND JOSE SIERRA (SYNSTAR).
     S,P,D,L SHELL ROTATED AXIS INTEGRALS PROGRAMMED BY
        KAZUYA ISHIMURA (INSTITUTE FOR MOLECULAR SCIENCE).
     S,P,D,F,G SHELL TO TOTAL QUARTET ANGULAR MOMENTUM SUM 5,
        ERIC PROGRAM BY GRAHAM FLETCHER (ELORET AND NASA ADVANCED
        SUPERCOMPUTING DIVISION, AMES RESEARCH CENTER).
     S,P,D,F,G,L SHELL GENERAL RYS QUADRATURE PROGRAMMED BY
        MICHEL DUPUIS (PACIFIC NORTHWEST NATIONAL LABORATORY).

          --------------------
          2 ELECTRON INTEGRALS
          --------------------

 THE -PK- OPTION IS OFF, THE INTEGRALS ARE NOT IN SUPERMATRIX FORM.
 STORING   15000 INTEGRALS/RECORD ON DISK, USING 12 BYTES/INTEGRAL.
 TWO ELECTRON INTEGRAL EVALUATION REQUIRES   99596 WORDS OF MEMORY.
 II,JST,KST,LST =  1  1  1  1 NREC =         1 INTLOC =    1
 II,JST,KST,LST =  2  1  1  1 NREC =         1 INTLOC =    2
 II,JST,KST,LST =  3  1  1  1 NREC =         1 INTLOC =   34
 II,JST,KST,LST =  4  1  1  1 NREC =         1 INTLOC =  214
 II,JST,KST,LST =  5  1  1  1 NREC =         1 INTLOC =  776
 II,JST,KST,LST =  6  1  1  1 NREC =         1 INTLOC = 2864
 II,JST,KST,LST =  7  1  1  1 NREC =         1 INTLOC = 7967
 II,JST,KST,LST =  8  1  1  1 NREC =         2 INTLOC = 3425
 II,JST,KST,LST =  9  1  1  1 NREC =         4 INTLOC = 5324
 II,JST,KST,LST = 10  1  1  1 NREC =         4 INTLOC =10916
 II,JST,KST,LST = 11  1  1  1 NREC =         5 INTLOC =12962
 II,JST,KST,LST = 12  1  1  1 NREC =         6 INTLOC =11558
 II,JST,KST,LST = 13  1  1  1 NREC =        10 INTLOC =11888
 II,JST,KST,LST = 14  1  1  1 NREC =        15 INTLOC =14527
 II,JST,KST,LST = 15  1  1  1 NREC =        22 INTLOC = 6494
 II,JST,KST,LST = 16  1  1  1 NREC =        34 INTLOC = 5873
 II,JST,KST,LST = 17  1  1  1 NREC =        50 INTLOC = 3545
 II,JST,KST,LST = 18  1  1  1 NREC =        70 INTLOC = 7832
 II,JST,KST,LST = 19  1  1  1 NREC =       114 INTLOC =10756
 II,JST,KST,LST = 20  1  1  1 NREC =       120 INTLOC = 7928
 II,JST,KST,LST = 21  1  1  1 NREC =       137 INTLOC =11315
 II,JST,KST,LST = 22  1  1  1 NREC =       144 INTLOC = 2618
 II,JST,KST,LST = 23  1  1  1 NREC =       157 INTLOC =13043
 II,JST,KST,LST = 24  1  1  1 NREC =       172 INTLOC = 1140
 II,JST,KST,LST = 25  1  1  1 NREC =       186 INTLOC =10361
 II,JST,KST,LST = 26  1  1  1 NREC =       231 INTLOC = 3651
 II,JST,KST,LST = 27  1  1  1 NREC =       280 INTLOC = 8581
 II,JST,KST,LST = 28  1  1  1 NREC =       334 INTLOC = 2487
 II,JST,KST,LST = 29  1  1  1 NREC =       456 INTLOC = 9381
 II,JST,KST,LST = 30  1  1  1 NREC =       479 INTLOC =10532
 II,JST,KST,LST = 31  1  1  1 NREC =       503 INTLOC = 2237
 TOTAL NUMBER OF NONZERO TWO-ELECTRON INTEGRALS =             8611584
        575 INTEGRAL RECORDS WERE STORED ON DISK FILE  8.
  ...... END OF TWO-ELECTRON INTEGRALS .....
 STEP CPU TIME =     0.60 TOTAL CPU TIME =        0.8 (    0.0 MIN)
 TOTAL WALL CLOCK TIME=        0.8 SECONDS, CPU UTILIZATION IS 100.00%

          -----------------
          MCSCF CALCULATION
          -----------------

 ----- NUCLEAR ENERGY ----- =        12.5564371981

          -----------------------     ----------------------------
          GUGA DISTINCT ROW TABLE     WRITTEN BY B.R.BROOKS,P.SAXE
          -----------------------     ----------------------------

      GROUP=CS           NPRT=       0
       FORS=       T   INTACT=       F
       FOCI=       F   MXNINT=   50000
       SOCI=       F   MXNEME=   10000
     IEXCIT=       0

      -CORE-    -INTERNAL-  -EXTERNAL-
     NFZC=   0   NDOC=   3   NEXT=   0
     NMCC=   3   NAOS=   0   NFZV=   0
                 NBOS=   0
                 NALP=   1
                 NVAL=   4

 THE MAXIMUM ELECTRON EXCITATION WILL BE   7

 SYMMETRIES FOR THE   3 CORE,   8 ACTIVE,   0 EXTERNAL MO-S ARE
     CORE= A'    A'    A'  
   ACTIVE= A'    A'    A''   A'    A'    A'    A'    A'' 
           DOC   DOC   DOC   ALP   VAL   VAL   VAL   VAL 

 MOLECULAR CHARGE          =    0
 NUMBER OF ALPHA ELECTRONS =    7
 NUMBER OF  BETA ELECTRONS =    6

 THE ELECTRONIC STATE IS  2-A'  

 THE DISTINCT ROW TABLE HAS        71 ROWS.
  THE WAVEFUNCTION CONTAINS      1204 WALKS (CSF-S).

 TOTAL NUMBER OF INTEGRALS =        469
 NUMBER OF INTEGRALS/GROUP =        469
 NUMBER OF INTEGRAL GROUPS =          1
 MAXIMUM RECORD SIZES ARE    1204 FOR UNIT 11    1204 FOR UNIT 12
                            30001 FOR UNIT 15   30001 FOR UNIT 16
 ...... END OF -DRT- GENERATION ...... 
 STEP CPU TIME =     0.01 TOTAL CPU TIME =        0.8 (    0.0 MIN)
 TOTAL WALL CLOCK TIME=        0.8 SECONDS, CPU UTILIZATION IS  98.78%
 OPENING FILE DAFL30 WITH      81 LOGICAL RECORDS OF   12996 WORDS
 WITH A MAXIMUM OF         567 PHYSICAL RECORDS OF    2048 WORDS

          ------------------------------
          CASSCF INTEGRAL TRANSFORMATION
          ------------------------------
 AO INTEGRALS WILL BE READ IN FROM DISK...

 NUMBER OF CORE MOLECULAR ORBITALS     =     3
 NUMBER OF OCCUPIED MOLECULAR ORBITALS =    11
 TOTAL NUMBER OF MOLECULAR ORBITALS    =   114
 TOTAL NUMBER OF ATOMIC ORBITALS       =   114
 MEMORY WHICH WOULD BE NEEDED FOR SINGLE PASS TRANSFORMATION =    6306916

 ----- CHOOSING THREE STEPS TRANSFORMATION -----
 NUMBER OF WORDS USED      =    3436300
 NUMBER OF WORDS AVAILABLE =    5000000
 NUMBER OF PASSES          =          2
 PASS #   1 COMPLETED IN         0.3 SECONDS.
 PASS #   2 COMPLETED IN         0.2 SECONDS.

 ----- NUCLEAR REPULSION ENERGY =     12.55643720
 ----- FROZEN CORE ENERGY       =   -102.56397270

 ... SYMMETRY ...           CPU =    0.01
 ... (PQ|RS) -> (PQ|KL) ... CPU =    0.48
 ... (PQ|KL) -> (IJ|KL) ... CPU =    0.01

 NUMBER OF (PQ|KL) INTEGRALS WRITTEN     124653
 NUMBER OF (IJ|KL) INTEGRALS WRITTEN        378
 ..... END OF CAS INTEGRAL TRANSFORMATION .....
 STEP CPU TIME =     0.50 TOTAL CPU TIME =        1.3 (    0.0 MIN)
 TOTAL WALL CLOCK TIME=        1.3 SECONDS, CPU UTILIZATION IS 100.00%

          ------------------------
          GUGA-CI INTEGRAL SORTING
          ------------------------

     80177 WORDS NEEDED TO SORT            469 GUGA INTEGRALS IN MEMORY
   5000000 WORDS ARE AVAILABLE
 CHOOSING IN-MEMORY SORTING...
 IN CORE ALGORITHM SORTED             24 NON-ZERO 1E- INTEGRALS
 IN CORE ALGORITHM SORTED            378 NON-ZERO 2E- INTEGRALS
 ...... END OF INTEGRAL SORTING ...... 
 STEP CPU TIME =     0.00 TOTAL CPU TIME =        1.3 (    0.0 MIN)
 TOTAL WALL CLOCK TIME=        1.3 SECONDS, CPU UTILIZATION IS 100.00%

 -------------------------     ---------------------------------------
 ENERGY MATRIX CALCULATION     WRITTEN BY B.R.BROOKS,W.D.LAIDIG,P.SAXE
 -------------------------     ---------------------------------------

 COMPUTING THE HAMILTONIAN FOR THE      1204 CSF-S...

      165704 IS THE TOTAL NUMBER OF GENERATED LOOPS
      165704 WERE CREATED BY THE LOOP-DRIVEN ALGORITHM
           0 WERE CREATED IMPLICITLY

      160464 IS THE TOTAL NUMBER OF PROCESSED LOOPS
        4523     DIAGONAL LOOPS ARE STORED ON WORK15 IN     1 BUFFERS OF  10000 ELEMENTS.
      155941 OFF DIAGONAL LOOPS ARE STORED ON WORK16 IN    16 BUFFERS OF  10000 ELEMENTS.
 ...... END OF ENERGY MATRIX CALCULATION ...... 
 STEP CPU TIME =     0.02 TOTAL CPU TIME =        1.3 (    0.0 MIN)
 TOTAL WALL CLOCK TIME=        1.3 SECONDS, CPU UTILIZATION IS 100.00%

          -----------------------------------------
          DAVIDSON METHOD CI-MATRIX DIAGONALIZATION
                   WRITTEN BY STEVE ELBERT
          -----------------------------------------
 NUMBER OF STATES REQUESTED =     2
 MAX. NUMB. OF EXPAN. VEC   =    30
 MAX. NUMB. IMPROVED STATES =     2
 MAX. NUMB. OF ITERATIONS   =    50
 CONVERGENCE CRITERION      =    1.0E-07

 CHOOSING TO SOLVE SECULAR EQUATION IN MEMORY
 NUMBER OF WORDS AVAILABLE =    5000000
 NUMBER OF WORDS USED      =     847964
 ENERGY MATRIX BUFFER SIZE =      10000

 ITER. NO.JUST IMPROVED    ENERGY AND STATE
   0  50(MAX.TOL.STATE)   -107.528727317  1   -106.995937229  2
   1   7  0.92065988  4   -107.590954011  1   -107.074369755  2
   2   6  0.81184740  3   -107.593417350  1   -107.089233277  2
   3   5  0.32357677  3   -107.593551208  1   -107.092477353  2
   4   4  0.18705524  3   -107.593558532  1   -107.092985668  2
   5   3  0.58491869  2   -107.593560361  1   -107.449478317  2
   6   2  0.15328565  2   -107.593561968  1   -107.535551718  2
   7   2  0.02809543  2   -107.593562090  1   -107.538682505  2
   8   2  0.00507853  2   -107.593562093  1   -107.538783405  2
   9   2  0.00146878  2   -107.593562093  1   -107.538790653  2
  10   2  0.00029852  2   -107.593562093  1   -107.538791037  2
  11   2  0.00008036  2   -107.593562093  1   -107.538791058  2
  12   2  0.00001846  2   -107.593562093  1   -107.538791059  2
  13   1  0.00000384  2   -107.593562093  1   -107.538791059  2
  14   1  0.00000121  2   -107.593562093  1   -107.538791059  2
  15   1  0.00000042  2   -107.593562093  1   -107.538791059  2
  16   1  0.00000010  2   -107.593562093  1   -107.538791059  2
 SOLUTION FOUND WITH INDIRECT METHOD

 STATE #    1  ENERGY =    -107.593562093

      CSF      COEF    OCCUPANCY (IGNORING CORE)
      ---      ----    --------- --------- -----
        3    0.986616  22210000
       12   -0.051243  22010002
       74   -0.050481  20210020
      306   -0.068164  02210200

 STATE #    2  ENERGY =    -107.538791059

      CSF      COEF    OCCUPANCY (IGNORING CORE)
      ---      ----    --------- --------- -----
      414    0.986540  22201000
      444   -0.051240  22001002
      556   -0.050565  20201020
      866   -0.068004  02201200
 ...... END OF CI-MATRIX DIAGONALIZATION ......
 STEP CPU TIME =     0.04 TOTAL CPU TIME =        1.4 (    0.0 MIN)
 TOTAL WALL CLOCK TIME=        1.4 SECONDS, CPU UTILIZATION IS 100.00%

          -------------------------------------
          2-PARTICLE DENSITY MATRIX CALCULATION
          -------------------------------------
 2 BODY DENSITY IS AN AVERAGE OF  2 STATE(S).
   STATE    WEIGHT          ENERGY
     1    0.500000     -107.5935620931
     2    0.500000     -107.5387910594
       165704 -DM2- LOOPS WERE GENERATED
       165704 WERE CREATED BY THE LOOP-DRIVEN ALGORITHM
            0 WERE CREATED IMPLICITLY
          1 RECORDS OF LENGTH 50000 WRITTEN TO FILE 15
 ...... END OF 2-PARTICLE DENSITY MATRIX CALCULATION ......
 STEP CPU TIME =     0.02 TOTAL CPU TIME =        1.4 (    0.0 MIN)
 TOTAL WALL CLOCK TIME=        1.4 SECONDS, CPU UTILIZATION IS 100.00%

          ----------------------------------
          2-PARTICLE DENSITY MATRIX LABELING
          ----------------------------------
      96558 WORDS NEEDED TO LABEL DM2 MATRIX
          1 RECORDS OF LENGTH 50000  READ FROM FILE 15
          1 RECORDS OF LENGTH 15000 WRITTEN TO FILE 16
 ...... END OF 2-PARTICLE DENSITY MATRIX LABELING ......
 STEP CPU TIME =     0.00 TOTAL CPU TIME =        1.4 (    0.0 MIN)
 TOTAL WALL CLOCK TIME=        1.4 SECONDS, CPU UTILIZATION IS 100.00%

          --------------
          -DM2- ORDERING
          --------------
      30703 WORDS NEEDED (   5000000 AVAILABLE) TO ORDER DM2 IN MEMORY
 CHOOSING IN MEMORY ORDERING...
                               1 RECORDS OF LENGTH 15000  READ FROM FILE 16
        378 DM2 VALUES IN      1 RECORDS OF LENGTH 15000 WRITTEN TO FILE 15
 ...... END OF -DM2- ORDERING ...... 
 STEP CPU TIME =     0.00 TOTAL CPU TIME =        1.4 (    0.0 MIN)
 TOTAL WALL CLOCK TIME=        1.4 SECONDS, CPU UTILIZATION IS 100.00%

          --------------------------------------
          APPROXIMATE SECOND-ORDER MCSCF PROGRAM
          --------------------------------------
          PROGRAM WRITTEN BY G.CHABAN, A.MARQUEZ, AND M.DUPUIS

  NUMBER OF WORDS NEEDED     =     339901
  NUMBER AVAILABLE           =    5000000

 ----- GAMMA(IJKL)*(PQ|KL) PRODUCTS ----- CPU TIME =      0.010
 ----- ORBITAL SYMMETRY             ----- CPU TIME =      0.000
 ----- FOCK OPERATORS CONSTRUCTION  ----- CPU TIME =      0.090
     MICIT =   1 ASYMM =    0.000002 ROTMAX =    0.000004
 ----- EFFECTIVE FOCK + ROTATE ORBS ----- CPU TIME =      0.010
 ..... DONE WITH CASSCF ORBITAL UPDATE .....
 STEP CPU TIME =     0.11 TOTAL CPU TIME =        1.5 (    0.0 MIN)
 TOTAL WALL CLOCK TIME=        1.5 SECONDS, CPU UTILIZATION IS  99.34%

 ITER     TOTAL ENERGY      DEL(E)  LAGRANGIAN ASYMMETRY   SQCDF  MICIT   DAMP
   1     -107.566176576 -0.566176576  0.000002   20    8 4.420E-06  1   0.0000
       ----------START APPROXIMATE SECOND ORDER MCSCF----------
   2     -107.566176576 -0.000000000  0.000002   20    8 1.754E-09  1   0.0000

          --------------------
          LAGRANGIAN CONVERGED
          --------------------

 FINAL MCSCF ENERGY IS     -107.5661765763 AFTER   2 ITERATIONS

 -MCCI- BASED ON OPTIMIZED ORBITALS
 ----------------------------------

 PLEASE NOTE: IF THE ACTIVE ORBITALS ARE CANONICALIZED BELOW,
 THE FOLLOWING CI EXPANSION COEFFICIENTS AND THE DENSITY DO NOT
 CORRESPOND TO THE PRINTED ORBITALS.  THE PRINTED EXPANSIONS MATCH
 THE ORBITALS USED DURING THE LAST ITERATION.  IF YOU WISH TO SEE
 CI EXPANSIONS BASED ON THE CANONICAL (OR NATURAL) ORBITALS, YOU
 MUST RUN A CI CALCULATION WITH THAT ORBITAL CHOICE READ IN $VEC.

 STATE #    1  ENERGY =    -107.593562089

      CSF      COEF    OCCUPANCY (IGNORING CORE)
      ---      ----    --------- --------- -----
        3    0.986616  22210000
       12   -0.051243  22010002
       74   -0.050481  20210020
      306   -0.068163  02210200

 STATE #    2  ENERGY =    -107.538791064

      CSF      COEF    OCCUPANCY (IGNORING CORE)
      ---      ----    --------- --------- -----
      414    0.986540  22201000
      444   -0.051240  22001002
      556   -0.050565  20201020
      866   -0.068004  02201200

 DENSITY MATRIX OVER ACTIVE MO-S

             1           2           3           4           5

    1    1.9787201
    2   -0.0008708   1.9837089
    3    0.0000000   0.0000000   1.9844825
    4    0.0041919  -0.0064640   0.0000000   0.5006703
    5    0.0049138   0.0011459   0.0000000   0.0005407   0.5007685
    6    0.0015457  -0.0004820   0.0000000  -0.0016224  -0.0045765
    7   -0.0003218   0.0040392   0.0000000  -0.0032619  -0.0017843
    8    0.0000000   0.0000000   0.0047767   0.0000000   0.0000000

             6           7           8

    6    0.0207107
    7   -0.0000308   0.0156251
    8    0.0000000   0.0000000   0.0153139

 FORMING THE "STANDARD FOCK OPERATOR" USING INTEGRALS FROM DISK...
     3 FILLED,    8 ACTIVE, AND  103 VIRTUAL ORBITALS  WILL BE CANONICALIZED

          ----------------------
          MCSCF NATURAL ORBITALS
          ----------------------

                      1          2          3          4          5
                  -26.3637    -2.4970    -1.5375     1.9845     1.9839
                     A'         A'         A'         A''        A'  
    1  LI 1  S   -0.000006   0.617313  -0.004368  -0.000000   0.021507
    2  LI 1  S    0.000006   0.429273  -0.003421  -0.000000   0.023521
    3  LI 1  X   -0.000067  -0.000004   0.000718  -0.000000  -0.031514
    4  LI 1  Y    0.000019   0.000329  -0.002654  -0.000000  -0.002299
    5  LI 1  Z   -0.000000   0.000000   0.000000   0.009875  -0.000000
    6  LI 1  S    0.000094   0.003919   0.007242  -0.000000   0.023871
    7  LI 1  X    0.000150   0.000607   0.008356  -0.000000   0.021485
    8  LI 1  Y    0.000039   0.000115   0.000499  -0.000000   0.007705
    9  LI 1  Z   -0.000000   0.000000   0.000000   0.001108  -0.000000
   10  LI 1  S    0.000032   0.005905  -0.003001  -0.000000  -0.019849
   11  LI 1  X    0.000013   0.000284  -0.000621  -0.000000   0.011427
   12  LI 1  Y    0.000018   0.000051   0.000362  -0.000000   0.004314
   13  LI 1  Z   -0.000000   0.000000   0.000000  -0.002973  -0.000000
   14  LI 1 XX   -0.000016  -0.000963   0.000711  -0.000000  -0.004218
   15  LI 1 YY   -0.000004  -0.000660   0.000053  -0.000000  -0.001852
   16  LI 1 ZZ   -0.000001  -0.000425   0.000044  -0.000000  -0.001923
   17  LI 1 XY   -0.000002  -0.000023  -0.000184  -0.000000   0.000199
   18  LI 1 XZ   -0.000000   0.000000   0.000000   0.000625  -0.000000
   19  LI 1 YZ   -0.000000   0.000000   0.000000  -0.000045  -0.000000
   20  LI 1 XX   -0.000108  -0.001429   0.001952  -0.000000  -0.003192
   21  LI 1 YY    0.000015  -0.001775  -0.000942  -0.000000  -0.005063
   22  LI 1 ZZ   -0.000004  -0.002172  -0.000253  -0.000000  -0.004256
   23  LI 1 XY    0.000021   0.000392  -0.002186  -0.000000  -0.003042
   24  LI 1 XZ   -0.000000   0.000000   0.000000   0.007619  -0.000000
   25  LI 1 YZ   -0.000000   0.000000   0.000000   0.000705  -0.000000
   26  LI 1 XX    0.000034  -0.001479   0.003829  -0.000000   0.022291
   27  LI 1 YY    0.000031  -0.002122   0.000260  -0.000000   0.012002
   28  LI 1 ZZ    0.000004  -0.002322   0.000761  -0.000000   0.010094
   29  LI 1 XY    0.000029   0.000229  -0.000054  -0.000000   0.002223
   30  LI 1 XZ   -0.000000   0.000000   0.000000   0.000406  -0.000000
   31  LI 1 YZ   -0.000000   0.000000   0.000000   0.000722  -0.000000
   32  LI 1 XXX  -0.000123   0.000639  -0.000238  -0.000000   0.003459
   33  LI 1 YYY   0.000009  -0.000016  -0.000618  -0.000000  -0.001947
   34  LI 1 ZZZ  -0.000000   0.000000   0.000000   0.001761  -0.000000
   35  LI 1 XXY   0.000004   0.000255  -0.001150  -0.000000  -0.003768
   36  LI 1 XXZ  -0.000000   0.000000   0.000000   0.003327  -0.000000
   37  LI 1 YYX   0.000008   0.000131  -0.001659  -0.000000  -0.005545
   38  LI 1 YYZ  -0.000000   0.000000   0.000000   0.000708  -0.000000
   39  LI 1 ZZX  -0.000018  -0.000137  -0.000789  -0.000000  -0.004919
   40  LI 1 ZZY   0.000014  -0.000053  -0.000446  -0.000000  -0.000846
   41  LI 1 XYZ  -0.000000   0.000000   0.000000   0.001207  -0.000000
   42  LI 1  S    0.000007   0.000105   0.000251  -0.000000  -0.001393
   43  LI 1  X    0.000005   0.000345   0.000159  -0.000000  -0.004010
   44  LI 1  Y   -0.000001   0.000157  -0.000009  -0.000000  -0.001174
   45  LI 1  Z   -0.000000   0.000000   0.000000   0.000677  -0.000000
   46  F  2  S    0.547470  -0.000391  -0.120189  -0.000000   0.014250
   47  F  2  S    0.474261  -0.000732  -0.224438  -0.000000   0.025667
   48  F  2  X   -0.000283  -0.000099   0.042587  -0.000000   0.302975
   49  F  2  Y    0.002361  -0.000306  -0.074464  -0.000000   0.015052
   50  F  2  Z   -0.000000   0.000000   0.000000   0.309671  -0.000000
   51  F  2  S    0.003264   0.002013   0.626951  -0.000000  -0.077788
   52  F  2  X    0.000716  -0.000243   0.063252  -0.000000   0.446352
   53  F  2  Y   -0.003522  -0.000441  -0.106615  -0.000000   0.021740
   54  F  2  Z   -0.000000   0.000000   0.000000   0.458257  -0.000000
   55  F  2  S   -0.005655   0.002535   0.697702  -0.000000  -0.057298
   56  F  2  X   -0.000137  -0.000289   0.050795  -0.000000   0.413465
   57  F  2  Y    0.001008   0.000263  -0.094212  -0.000000   0.020699
   58  F  2  Z   -0.000000   0.000000   0.000000   0.405960  -0.000000
   59  F  2 XX    0.000893  -0.000033  -0.013475  -0.000000   0.000657
   60  F  2 YY    0.001000  -0.000070  -0.014169  -0.000000   0.001386
   61  F  2 ZZ    0.000884  -0.000063  -0.013417  -0.000000   0.001248
   62  F  2 XY    0.000000   0.000001   0.000152  -0.000000   0.000836
   63  F  2 XZ   -0.000000   0.000000   0.000000  -0.000264  -0.000000
   64  F  2 YZ   -0.000000   0.000000   0.000000   0.000888  -0.000000
   65  F  2 XX    0.001925  -0.000130  -0.045769  -0.000000   0.002071
   66  F  2 YY    0.001710  -0.000167  -0.044410  -0.000000   0.004674
   67  F  2 ZZ    0.001951  -0.000190  -0.046048  -0.000000   0.003761
   68  F  2 XY   -0.000004  -0.000001   0.001213  -0.000000   0.006397
   69  F  2 XZ   -0.000000   0.000000   0.000000  -0.000984  -0.000000
   70  F  2 YZ   -0.000000   0.000000   0.000000   0.006516  -0.000000
   71  F  2 XX    0.001927   0.000253  -0.073919  -0.000000  -0.019240
   72  F  2 YY    0.001827  -0.000153  -0.079707  -0.000000   0.005128
   73  F  2 ZZ    0.001878  -0.000383  -0.075455  -0.000000   0.002032
   74  F  2 XY   -0.000017  -0.000226   0.003338  -0.000000   0.013454
   75  F  2 XZ   -0.000000   0.000000   0.000000  -0.007996  -0.000000
   76  F  2 YZ   -0.000000   0.000000   0.000000   0.012618  -0.000000
   77  F  2 XXX  -0.000327   0.000039  -0.000202  -0.000000  -0.001310
   78  F  2 YYY   0.001960   0.000027   0.001222  -0.000000   0.000406
   79  F  2 ZZZ  -0.000000   0.000000   0.000000  -0.002187  -0.000000
   80  F  2 XXY   0.000859   0.000013  -0.000173  -0.000000  -0.000040
   81  F  2 XXZ  -0.000000   0.000000   0.000000  -0.000231  -0.000000
   82  F  2 YYX  -0.000142   0.000019   0.000422  -0.000000   0.001849
   83  F  2 YYZ  -0.000000   0.000000   0.000000   0.002018  -0.000000
   84  F  2 ZZX  -0.000143   0.000078   0.000038  -0.000000  -0.001500
   85  F  2 ZZY   0.000858  -0.000005  -0.000010  -0.000000  -0.000024
   86  F  2 XYZ  -0.000000   0.000000   0.000000   0.000005  -0.000000
   87  F  2  S    0.000750   0.001419   0.008959  -0.000000  -0.006479
   88  F  2  X   -0.000028   0.000447   0.010168  -0.000000   0.047668
   89  F  2  Y    0.000221   0.000639  -0.007571  -0.000000   0.008630
   90  F  2  Z   -0.000000   0.000000   0.000000   0.052384  -0.000000
   91  F  2  S   -0.000000   0.000001  -0.000002  -0.000000   0.000002
   92  H  3  S    0.000621   0.000001   0.014317  -0.000000   0.002087
   93  H  3  S   -0.000072  -0.000875  -0.017501  -0.000000   0.005305
   94  H  3  S   -0.000995  -0.003000  -0.011208  -0.000000  -0.009964
   95  H  3  X   -0.000001  -0.000040   0.000434  -0.000000   0.003599
   96  H  3  Y   -0.000001  -0.000036  -0.003360  -0.000000   0.000242
   97  H  3  Z   -0.000000   0.000000   0.000000   0.003485  -0.000000
   98  H  3  X    0.000008   0.000195   0.003480  -0.000000   0.020309
   99  H  3  Y   -0.000471   0.000272  -0.004144  -0.000000   0.001041
  100  H  3  Z   -0.000000   0.000000   0.000000   0.022671  -0.000000
  101  H  3  X    0.000026   0.000620   0.002268  -0.000000   0.011807
  102  H  3  Y    0.000491   0.000690  -0.005857  -0.000000   0.002994
  103  H  3  Z   -0.000000   0.000000   0.000000   0.016994  -0.000000
  104  H  3 XX    0.000061  -0.000092  -0.001236  -0.000000   0.000369
  105  H  3 YY    0.000245  -0.000079   0.000094  -0.000000  -0.000707
  106  H  3 ZZ    0.000065   0.000045  -0.000960  -0.000000  -0.000224
  107  H  3 XY   -0.000003  -0.000119  -0.001346  -0.000000  -0.007699
  108  H  3 XZ   -0.000000   0.000000   0.000000   0.000065  -0.000000
  109  H  3 YZ   -0.000000   0.000000   0.000000  -0.008949  -0.000000
  110  H  3  S   -0.000125  -0.000722  -0.001979  -0.000000  -0.040278
  111  H  3  S   -0.000019  -0.001050  -0.000166  -0.000000   0.007929
  112  H  3  X    0.000092   0.000008   0.000225  -0.000000   0.014583
  113  H  3  Y    0.000047   0.000417   0.001421  -0.000000   0.005820
  114  H  3  Z   -0.000000   0.000000   0.000000   0.001136  -0.000000

                      6          7          8          9         10
                    1.9786     0.5013     0.5002     0.0207     0.0156
                     A'         A'         A'         A'         A'  
    1  LI 1  S   -0.000933  -0.041942  -0.075707  -0.008754   0.029569
    2  LI 1  S   -0.001012  -0.066635  -0.116307  -0.014063   0.024887
    3  LI 1  X   -0.001755   0.015261  -0.085663   0.017249  -0.084970
    4  LI 1  Y    0.006563   0.126299  -0.067522   0.030340   0.006291
    5  LI 1  Z   -0.000000  -0.000000  -0.000000  -0.000000   0.000000
    6  LI 1  S    0.009940   0.306712   0.505745   0.024717   0.191193
    7  LI 1  X    0.008181   0.105826  -0.160977   0.003624   0.080127
    8  LI 1  Y    0.003930   0.279006  -0.135372   0.082488   0.041863
    9  LI 1  Z   -0.000000  -0.000000  -0.000000  -0.000000   0.000000
   10  LI 1  S    0.004920   0.159111   0.256727   0.031544   0.003461
   11  LI 1  X    0.007375   0.134840  -0.166642   0.033702   0.029475
   12  LI 1  Y    0.001843   0.315815  -0.196418   0.098525   0.038511
   13  LI 1  Z   -0.000000  -0.000000  -0.000000  -0.000000   0.000000
   14  LI 1 XX   -0.000292  -0.002405   0.000646  -0.000220  -0.012556
   15  LI 1 YY   -0.000247  -0.001310   0.000380  -0.000162  -0.005852
   16  LI 1 ZZ   -0.000199  -0.001327   0.000639  -0.000005  -0.005783
   17  LI 1 XY    0.000496  -0.000321   0.000012  -0.001438   0.000027
   18  LI 1 XZ   -0.000000  -0.000000  -0.000000  -0.000000   0.000000
   19  LI 1 YZ   -0.000000  -0.000000  -0.000000  -0.000000   0.000000
   20  LI 1 XX   -0.002017  -0.001516   0.024363   0.003750  -0.008872
   21  LI 1 YY    0.000906   0.022083   0.026487   0.003935  -0.010890
   22  LI 1 ZZ   -0.001130   0.007221   0.029554   0.001606  -0.011843
   23  LI 1 XY    0.005179  -0.000621   0.002041  -0.007460  -0.007166
   24  LI 1 XZ   -0.000000  -0.000000  -0.000000  -0.000000   0.000000
   25  LI 1 YZ   -0.000000  -0.000000  -0.000000  -0.000000   0.000000
   26  LI 1 XX    0.005217   0.004193   0.051057  -0.021643   0.066279
   27  LI 1 YY    0.003339   0.067851   0.032544   0.010613   0.038316
   28  LI 1 ZZ    0.000349  -0.002981   0.062226  -0.007458   0.026334
   29  LI 1 XY    0.002425   0.009310   0.006967  -0.000376   0.006482
   30  LI 1 XZ   -0.000000  -0.000000  -0.000000  -0.000000   0.000000
   31  LI 1 YZ   -0.000000  -0.000000  -0.000000  -0.000000   0.000000
   32  LI 1 XXX  -0.002194  -0.000519  -0.026819   0.009720   0.002912
   33  LI 1 YYY   0.001074   0.038522  -0.018758   0.011022   0.000236
   34  LI 1 ZZZ  -0.000000  -0.000000  -0.000000  -0.000000   0.000000
   35  LI 1 XXY   0.001870   0.011902  -0.007505   0.001933  -0.006435
   36  LI 1 XXZ  -0.000000  -0.000000  -0.000000  -0.000000   0.000000
   37  LI 1 YYX   0.000647   0.011206  -0.013677   0.005316  -0.015776
   38  LI 1 YYZ  -0.000000  -0.000000  -0.000000  -0.000000   0.000000
   39  LI 1 ZZX  -0.001732   0.000320  -0.010898   0.004418  -0.016756
   40  LI 1 ZZY   0.000951   0.012400  -0.006721   0.002714  -0.000534
   41  LI 1 XYZ  -0.000000  -0.000000  -0.000000  -0.000000   0.000000
   42  LI 1  S   -0.000763  -0.005732   0.004439  -0.000467  -0.005117
   43  LI 1  X   -0.001362   0.005152  -0.018296   0.005471  -0.010700
   44  LI 1  Y   -0.000306   0.028540  -0.033468   0.010594  -0.002213
   45  LI 1  Z   -0.000000  -0.000000  -0.000000  -0.000000   0.000000
   46  F  2  S   -0.021716   0.012205   0.003178  -0.039250  -0.021690
   47  F  2  S   -0.036362   0.023012   0.006114  -0.084889  -0.051877
   48  F  2  X   -0.005843   0.022285   0.017474   0.025019  -0.491796
   49  F  2  Y    0.259472  -0.057432   0.015001   0.435783   0.001810
   50  F  2  Z   -0.000000  -0.000000  -0.000000  -0.000000   0.000000
   51  F  2  S    0.102686  -0.077206  -0.019530   0.382776   0.278838
   52  F  2  X   -0.008776   0.032723   0.025409   0.024163  -0.611454
   53  F  2  Y    0.377841  -0.085939   0.022350   0.640333   0.015765
   54  F  2  Z   -0.000000  -0.000000  -0.000000  -0.000000   0.000000
   55  F  2  S   -0.014503  -0.105799  -0.033811   0.212634  -0.112814
   56  F  2  X   -0.008461   0.039139   0.024888  -0.018180   0.757976
   57  F  2  Y    0.287503  -0.085305   0.018413  -0.270879  -0.001030
   58  F  2  Z   -0.000000  -0.000000  -0.000000  -0.000000   0.000000
   59  F  2 XX   -0.002077   0.001156   0.000310  -0.008921  -0.000511
   60  F  2 YY    0.000874   0.001024   0.000441  -0.002418  -0.008105
   61  F  2 ZZ   -0.002092   0.001183   0.000357  -0.008491  -0.007583
   62  F  2 XY   -0.000211   0.000038   0.000102  -0.002597  -0.005024
   63  F  2 XZ   -0.000000  -0.000000  -0.000000  -0.000000   0.000000
   64  F  2 YZ   -0.000000  -0.000000  -0.000000  -0.000000   0.000000
   65  F  2 XX   -0.009785   0.004545   0.001253  -0.053136  -0.018320
   66  F  2 YY    0.011333   0.002497   0.001439   0.001637  -0.040893
   67  F  2 ZZ   -0.009735   0.004218   0.001090  -0.052104  -0.043098
   68  F  2 XY   -0.000928  -0.000775   0.000971  -0.009370  -0.003975
   69  F  2 XZ   -0.000000  -0.000000  -0.000000  -0.000000   0.000000
   70  F  2 YZ   -0.000000  -0.000000  -0.000000  -0.000000   0.000000
   71  F  2 XX    0.001385   0.001252   0.000947  -0.037054  -0.062797
   72  F  2 YY    0.019955   0.002328   0.001333  -0.072334  -0.001356
   73  F  2 ZZ    0.000481   0.002694   0.002095  -0.037531  -0.004150
   74  F  2 XY   -0.006024   0.001563   0.001963   0.009439   0.066957
   75  F  2 XZ   -0.000000  -0.000000  -0.000000  -0.000000   0.000000
   76  F  2 YZ   -0.000000  -0.000000  -0.000000  -0.000000   0.000000
   77  F  2 XXX   0.000103  -0.000867  -0.000557  -0.002911   0.124025
   78  F  2 YYY   0.003436   0.000383  -0.000142  -0.069913  -0.002554
   79  F  2 ZZZ  -0.000000  -0.000000  -0.000000  -0.000000   0.000000
   80  F  2 XXY  -0.002317   0.001074  -0.000280  -0.043178  -0.003194
   81  F  2 XXZ  -0.000000  -0.000000  -0.000000  -0.000000   0.000000
   82  F  2 YYX  -0.000084  -0.000160  -0.000072  -0.000361   0.053970
   83  F  2 YYZ  -0.000000  -0.000000  -0.000000  -0.000000   0.000000
   84  F  2 ZZX   0.000094  -0.000470  -0.000322  -0.001338   0.055288
   85  F  2 ZZY  -0.002884   0.001014  -0.000207  -0.043261  -0.001612
   86  F  2 XYZ  -0.000000  -0.000000  -0.000000  -0.000000   0.000000
   87  F  2  S    0.029190  -0.115814  -0.070307  -0.029201  -0.072597
   88  F  2  X   -0.003116   0.076248   0.001722   0.005448   0.146403
   89  F  2  Y    0.033896  -0.071411   0.019357  -0.076674   0.017597
   90  F  2  Z   -0.000000  -0.000000  -0.000000  -0.000000   0.000000
   91  F  2  S    0.000003   0.000006  -0.000028  -0.000001   0.000008
   92  H  3  S    0.190671   0.013607   0.000597  -0.349296  -0.018816
   93  H  3  S    0.172200   0.043455   0.002174  -0.420438  -0.000281
   94  H  3  S   -0.025955   0.115419   0.026816   0.046092  -0.009352
   95  H  3  X   -0.000147  -0.000149   0.000169  -0.000133   0.007058
   96  H  3  Y   -0.006308   0.002397  -0.000236   0.003780   0.000872
   97  H  3  Z   -0.000000  -0.000000  -0.000000  -0.000000   0.000000
   98  H  3  X   -0.000695  -0.004455   0.001408   0.000993   0.057427
   99  H  3  Y   -0.045423   0.013511  -0.002572   0.119273   0.012775
  100  H  3  Z   -0.000000  -0.000000  -0.000000  -0.000000   0.000000
  101  H  3  X   -0.001484  -0.022696   0.000055  -0.003142   0.037813
  102  H  3  Y    0.023987   0.038179  -0.014158   0.002869   0.010057
  103  H  3  Z   -0.000000  -0.000000  -0.000000  -0.000000   0.000000
  104  H  3 XX    0.003732   0.001207   0.000017  -0.012000  -0.000991
  105  H  3 YY    0.014736  -0.001196   0.000125  -0.061597  -0.005163
  106  H  3 ZZ    0.002784  -0.000076   0.000065  -0.010714  -0.000616
  107  H  3 XY    0.000065  -0.000136  -0.000303  -0.000533  -0.024593
  108  H  3 XZ   -0.000000  -0.000000  -0.000000  -0.000000   0.000000
  109  H  3 YZ   -0.000000  -0.000000  -0.000000  -0.000000   0.000000
  110  H  3  S   -0.023904   0.072304  -0.034941   0.071875  -0.098290
  111  H  3  S    0.002388   0.064467   0.000816   0.012755   0.032840
  112  H  3  X    0.008224  -0.060149   0.023159  -0.032022   0.019734
  113  H  3  Y    0.006173   0.115186  -0.055818   0.023384   0.029173
  114  H  3  Z   -0.000000  -0.000000  -0.000000  -0.000000   0.000000

                     11
                    0.0153
                     A'' 
    1  LI 1  S    0.000000
    2  LI 1  S    0.000000
    3  LI 1  X    0.000000
    4  LI 1  Y    0.000000
    5  LI 1  Z    0.024610
    6  LI 1  S    0.000000
    7  LI 1  X    0.000000
    8  LI 1  Y    0.000000
    9  LI 1  Z   -0.000469
   10  LI 1  S    0.000000
   11  LI 1  X    0.000000
   12  LI 1  Y    0.000000
   13  LI 1  Z   -0.006465
   14  LI 1 XX    0.000000
   15  LI 1 YY    0.000000
   16  LI 1 ZZ    0.000000
   17  LI 1 XY    0.000000
   18  LI 1 XZ    0.001673
   19  LI 1 YZ   -0.000041
   20  LI 1 XX    0.000000
   21  LI 1 YY    0.000000
   22  LI 1 ZZ    0.000000
   23  LI 1 XY    0.000000
   24  LI 1 XZ    0.020007
   25  LI 1 YZ    0.001890
   26  LI 1 XX    0.000000
   27  LI 1 YY    0.000000
   28  LI 1 ZZ    0.000000
   29  LI 1 XY    0.000000
   30  LI 1 XZ    0.000193
   31  LI 1 YZ    0.003401
   32  LI 1 XXX   0.000000
   33  LI 1 YYY   0.000000
   34  LI 1 ZZZ   0.005260
   35  LI 1 XXY   0.000000
   36  LI 1 XXZ   0.010227
   37  LI 1 YYX   0.000000
   38  LI 1 YYZ   0.001871
   39  LI 1 ZZX   0.000000
   40  LI 1 ZZY   0.000000
   41  LI 1 XYZ   0.003543
   42  LI 1  S    0.000000
   43  LI 1  X    0.000000
   44  LI 1  Y    0.000000
   45  LI 1  Z    0.001729
   46  F  2  S    0.000000
   47  F  2  S    0.000000
   48  F  2  X    0.000000
   49  F  2  Y    0.000000
   50  F  2  Z   -0.502699
   51  F  2  S    0.000000
   52  F  2  X    0.000000
   53  F  2  Y    0.000000
   54  F  2  Z   -0.607241
   55  F  2  S    0.000000
   56  F  2  X    0.000000
   57  F  2  Y    0.000000
   58  F  2  Z    0.753723
   59  F  2 XX    0.000000
   60  F  2 YY    0.000000
   61  F  2 ZZ    0.000000
   62  F  2 XY    0.000000
   63  F  2 XZ    0.004315
   64  F  2 YZ   -0.005187
   65  F  2 XX    0.000000
   66  F  2 YY    0.000000
   67  F  2 ZZ    0.000000
   68  F  2 XY    0.000000
   69  F  2 XZ    0.013042
   70  F  2 YZ   -0.003638
   71  F  2 XX    0.000000
   72  F  2 YY    0.000000
   73  F  2 ZZ    0.000000
   74  F  2 XY    0.000000
   75  F  2 XZ   -0.026051
   76  F  2 YZ    0.065972
   77  F  2 XXX   0.000000
   78  F  2 YYY   0.000000
   79  F  2 ZZZ   0.127086
   80  F  2 XXY   0.000000
   81  F  2 XXZ   0.056866
   82  F  2 YYX   0.000000
   83  F  2 YYZ   0.054430
   84  F  2 ZZX   0.000000
   85  F  2 ZZY   0.000000
   86  F  2 XYZ  -0.000818
   87  F  2  S    0.000000
   88  F  2  X    0.000000
   89  F  2  Y    0.000000
   90  F  2  Z    0.140321
   91  F  2  S    0.000000
   92  H  3  S    0.000000
   93  H  3  S    0.000000
   94  H  3  S    0.000000
   95  H  3  X    0.000000
   96  H  3  Y    0.000000
   97  H  3  Z    0.007149
   98  H  3  X    0.000000
   99  H  3  Y    0.000000
  100  H  3  Z    0.064566
  101  H  3  X    0.000000
  102  H  3  Y    0.000000
  103  H  3  Z    0.055133
  104  H  3 XX    0.000000
  105  H  3 YY    0.000000
  106  H  3 ZZ    0.000000
  107  H  3 XY    0.000000
  108  H  3 XZ   -0.000613
  109  H  3 YZ   -0.028024
  110  H  3  S    0.000000
  111  H  3  S    0.000000
  112  H  3  X    0.000000
  113  H  3  Y    0.000000
  114  H  3  Z   -0.005472

          ------------------------
          MCSCF OPTIMIZED ORBITALS
          ------------------------

                      1          2          3          4          5
                  -26.3637    -2.4970    -1.5375    -0.9558    -0.7337
                     A'         A'         A'         A'         A'  
    1  LI 1  S   -0.000006   0.617313  -0.004368  -0.004378   0.020591
    2  LI 1  S    0.000006   0.429273  -0.003421  -0.004689   0.022359
    3  LI 1  X   -0.000067  -0.000004   0.000718   0.003518  -0.031467
    4  LI 1  Y    0.000019   0.000329  -0.002654   0.006279  -0.001121
    5  LI 1  Z   -0.000000   0.000000   0.000000   0.000000   0.000000
    6  LI 1  S    0.000094   0.003919   0.007242   0.004447   0.027455
    7  LI 1  X    0.000150   0.000607   0.008356   0.003954   0.022034
    8  LI 1  Y    0.000039   0.000115   0.000499   0.001279   0.008330
    9  LI 1  Z   -0.000000   0.000000   0.000000   0.000000   0.000000
   10  LI 1  S    0.000032   0.005905  -0.003001   0.007512  -0.017384
   11  LI 1  X    0.000013   0.000284  -0.000621   0.004708   0.012142
   12  LI 1  Y    0.000018   0.000051   0.000362  -0.000381   0.004499
   13  LI 1  Z   -0.000000   0.000000   0.000000   0.000000   0.000000
   14  LI 1 XX   -0.000016  -0.000963   0.000711   0.000436  -0.004184
   15  LI 1 YY   -0.000004  -0.000660   0.000053   0.000076  -0.001857
   16  LI 1 ZZ   -0.000001  -0.000425   0.000044   0.000136  -0.001917
   17  LI 1 XY   -0.000002  -0.000023  -0.000184   0.000458   0.000279
   18  LI 1 XZ   -0.000000   0.000000   0.000000   0.000000   0.000000
   19  LI 1 YZ   -0.000000   0.000000   0.000000   0.000000   0.000000
   20  LI 1 XX   -0.000108  -0.001429   0.001952  -0.001443  -0.003380
   21  LI 1 YY    0.000015  -0.001775  -0.000942   0.001652  -0.004661
   22  LI 1 ZZ   -0.000004  -0.002172  -0.000253  -0.000424  -0.004233
   23  LI 1 XY    0.000021   0.000392  -0.002186   0.005628  -0.002100
   24  LI 1 XZ   -0.000000   0.000000   0.000000   0.000000   0.000000
   25  LI 1 YZ   -0.000000   0.000000   0.000000   0.000000   0.000000
   26  LI 1 XX    0.000034  -0.001479   0.003829   0.001372   0.022916
   27  LI 1 YY    0.000031  -0.002122   0.000260   0.000957   0.012600
   28  LI 1 ZZ    0.000004  -0.002322   0.000761  -0.001342   0.010181
   29  LI 1 XY    0.000029   0.000229  -0.000054   0.001974   0.002637
   30  LI 1 XZ   -0.000000   0.000000   0.000000   0.000000   0.000000
   31  LI 1 YZ   -0.000000   0.000000   0.000000   0.000000   0.000000
   32  LI 1 XXX  -0.000123   0.000639  -0.000238  -0.002756   0.002931
   33  LI 1 YYY   0.000009  -0.000016  -0.000618   0.001211  -0.001716
   34  LI 1 ZZZ  -0.000000   0.000000   0.000000   0.000000   0.000000
   35  LI 1 XXY   0.000004   0.000255  -0.001150   0.002427  -0.003383
   36  LI 1 XXZ  -0.000000   0.000000   0.000000   0.000000   0.000000
   37  LI 1 YYX   0.000008   0.000131  -0.001659   0.001522  -0.005347
   38  LI 1 YYZ  -0.000000   0.000000   0.000000   0.000000   0.000000
   39  LI 1 ZZX  -0.000018  -0.000137  -0.000789  -0.000881  -0.005147
   40  LI 1 ZZY   0.000014  -0.000053  -0.000446   0.001024  -0.000667
   41  LI 1 XYZ  -0.000000   0.000000   0.000000   0.000000   0.000000
   42  LI 1  S    0.000007   0.000105   0.000251  -0.000491  -0.001488
   43  LI 1  X    0.000005   0.000345   0.000159  -0.000691  -0.004217
   44  LI 1  Y   -0.000001   0.000157  -0.000009  -0.000239  -0.001262
   45  LI 1  Z   -0.000000   0.000000   0.000000   0.000000   0.000000
   46  F  2  S    0.547470  -0.000391  -0.120189  -0.023842   0.010433
   47  F  2  S    0.474261  -0.000732  -0.224438  -0.040225   0.019286
   48  F  2  X   -0.000283  -0.000099   0.042587  -0.057324   0.298713
   49  F  2  Y    0.002361  -0.000306  -0.074464   0.253052   0.058883
   50  F  2  Z   -0.000000   0.000000   0.000000   0.000000   0.000000
   51  F  2  S    0.003264   0.002013   0.626951   0.114448  -0.059957
   52  F  2  X    0.000716  -0.000243   0.063252  -0.084592   0.439810
   53  F  2  Y   -0.003522  -0.000441  -0.106615   0.368529   0.085541
   54  F  2  Z   -0.000000   0.000000   0.000000   0.000000   0.000000
   55  F  2  S   -0.005655   0.002535   0.697702  -0.004305  -0.059013
   56  F  2  X   -0.000137  -0.000289   0.050795  -0.078518   0.404676
   57  F  2  Y    0.001008   0.000263  -0.094212   0.280420   0.068963
   58  F  2  Z   -0.000000   0.000000   0.000000   0.000000   0.000000
   59  F  2 XX    0.000893  -0.000033  -0.013475  -0.002156   0.000298
   60  F  2 YY    0.001000  -0.000070  -0.014169   0.000622   0.001534
   61  F  2 ZZ    0.000884  -0.000063  -0.013417  -0.002272   0.000892
   62  F  2 XY    0.000000   0.000001   0.000152  -0.000348   0.000798
   63  F  2 XZ   -0.000000   0.000000   0.000000   0.000000   0.000000
   64  F  2 YZ   -0.000000   0.000000   0.000000   0.000000   0.000000
   65  F  2 XX    0.001925  -0.000130  -0.045769  -0.009973   0.000419
   66  F  2 YY    0.001710  -0.000167  -0.044410   0.010358   0.006623
   67  F  2 ZZ    0.001951  -0.000190  -0.046048  -0.010213   0.002142
   68  F  2 XY   -0.000004  -0.000001   0.001213  -0.001989   0.006154
   69  F  2 XZ   -0.000000   0.000000   0.000000   0.000000   0.000000
   70  F  2 YZ   -0.000000   0.000000   0.000000   0.000000   0.000000
   71  F  2 XX    0.001927   0.000253  -0.073919   0.004645  -0.018603
   72  F  2 YY    0.001827  -0.000153  -0.079707   0.018845   0.008432
   73  F  2 ZZ    0.001878  -0.000383  -0.075455   0.000148   0.002096
   74  F  2 XY   -0.000017  -0.000226   0.003338  -0.008224   0.012114
   75  F  2 XZ   -0.000000   0.000000   0.000000   0.000000   0.000000
   76  F  2 YZ   -0.000000   0.000000   0.000000   0.000000   0.000000
   77  F  2 XXX  -0.000327   0.000039  -0.000202   0.000346  -0.001530
   78  F  2 YYY   0.001960   0.000027   0.001222   0.003372   0.000970
   79  F  2 ZZZ  -0.000000   0.000000   0.000000   0.000000   0.000000
   80  F  2 XXY   0.000859   0.000013  -0.000173  -0.002247  -0.000437
   81  F  2 XXZ  -0.000000   0.000000   0.000000   0.000000   0.000000
   82  F  2 YYX  -0.000142   0.000019   0.000422  -0.000388   0.001698
   83  F  2 YYZ  -0.000000   0.000000   0.000000   0.000000   0.000000
   84  F  2 ZZX  -0.000143   0.000078   0.000038   0.000357  -0.001577
   85  F  2 ZZY   0.000858  -0.000005  -0.000010  -0.002807  -0.000520
   86  F  2 XYZ  -0.000000   0.000000   0.000000   0.000000   0.000000
   87  F  2  S    0.000750   0.001419   0.008959   0.030381  -0.001829
   88  F  2  X   -0.000028   0.000447   0.010168  -0.011473   0.046335
   89  F  2  Y    0.000221   0.000639  -0.007571   0.032319   0.014105
   90  F  2  Z   -0.000000   0.000000   0.000000   0.000000   0.000000
   91  F  2  S   -0.000000   0.000001  -0.000002   0.000003   0.000002
   92  H  3  S    0.000621   0.000001   0.014317   0.187778   0.034373
   93  H  3  S   -0.000072  -0.000875  -0.017501   0.168960   0.034430
   94  H  3  S   -0.000995  -0.003000  -0.011208  -0.024430  -0.013821
   95  H  3  X   -0.000001  -0.000040   0.000434  -0.000754   0.003507
   96  H  3  Y   -0.000001  -0.000036  -0.003360  -0.006271  -0.000827
   97  H  3  Z   -0.000000   0.000000   0.000000   0.000000   0.000000
   98  H  3  X    0.000008   0.000195   0.003480  -0.004103   0.019775
   99  H  3  Y   -0.000471   0.000272  -0.004144  -0.045097  -0.006650
  100  H  3  Z   -0.000000   0.000000   0.000000   0.000000   0.000000
  101  H  3  X    0.000026   0.000620   0.002268  -0.003359   0.011254
  102  H  3  Y    0.000491   0.000690  -0.005857   0.022963   0.007034
  103  H  3  Z   -0.000000   0.000000   0.000000   0.000000   0.000000
  104  H  3 XX    0.000061  -0.000092  -0.001236   0.003619   0.000998
  105  H  3 YY    0.000245  -0.000079   0.000094   0.014697   0.001794
  106  H  3 ZZ    0.000065   0.000045  -0.000960   0.002790   0.000249
  107  H  3 XY   -0.000003  -0.000119  -0.001346   0.001368  -0.007528
  108  H  3 XZ   -0.000000   0.000000   0.000000   0.000000   0.000000
  109  H  3 YZ   -0.000000   0.000000   0.000000   0.000000   0.000000
  110  H  3  S   -0.000125  -0.000722  -0.001979  -0.017116  -0.043495
  111  H  3  S   -0.000019  -0.001050  -0.000166   0.000721   0.008308
  112  H  3  X    0.000092   0.000008   0.000225   0.005925   0.015666
  113  H  3  Y    0.000047   0.000417   0.001421   0.004575   0.006784
  114  H  3  Z   -0.000000   0.000000   0.000000   0.000000   0.000000

                      6          7          8          9         10
                   -0.7152    -0.0369     0.0084     0.9647     1.2988
                     A''        A'         A'         A'         A'  
    1  LI 1  S   -0.000000  -0.084480   0.018532  -0.008318   0.030207
    2  LI 1  S   -0.000000  -0.131332   0.026734  -0.013601   0.025872
    3  LI 1  X   -0.000000  -0.054616   0.067858   0.015834  -0.085110
    4  LI 1  Y   -0.000000   0.032863   0.139756   0.028973   0.005212
    5  LI 1  Z    0.009816   0.000000   0.000000  -0.000000   0.000000
    6  LI 1  S   -0.000000   0.583579  -0.102683   0.025889   0.187436
    7  LI 1  X   -0.000000  -0.050535   0.186135   0.002926   0.079782
    8  LI 1  Y   -0.000000   0.083109   0.299847   0.079821   0.039290
    9  LI 1  Z    0.001109   0.000000   0.000000  -0.000000   0.000000
   10  LI 1  S   -0.000000   0.298079  -0.049739   0.031060   0.001256
   11  LI 1  X   -0.000000  -0.035825   0.211750   0.032139   0.028580
   12  LI 1  Y   -0.000000   0.061617   0.367930   0.095243   0.035643
   13  LI 1  Z   -0.002957   0.000000   0.000000  -0.000000   0.000000
   14  LI 1 XX   -0.000000  -0.001169  -0.002284  -0.000335  -0.012545
   15  LI 1 YY   -0.000000  -0.000612  -0.001259  -0.000213  -0.005845
   16  LI 1 ZZ   -0.000000  -0.000427  -0.001441  -0.000055  -0.005778
   17  LI 1 XY   -0.000000  -0.000207  -0.000261  -0.001435   0.000046
   18  LI 1 XZ    0.000621   0.000000   0.000000  -0.000000   0.000000
   19  LI 1 YZ   -0.000045   0.000000   0.000000  -0.000000   0.000000
   20  LI 1 XX   -0.000000   0.017257  -0.017232   0.003755  -0.008973
   21  LI 1 YY   -0.000000   0.034438  -0.000912   0.003707  -0.011171
   22  LI 1 ZZ   -0.000000   0.026905  -0.014129   0.001516  -0.011997
   23  LI 1 XY   -0.000000   0.001075  -0.001895  -0.007521  -0.007087
   24  LI 1 XZ    0.007571   0.000000   0.000000  -0.000000   0.000000
   25  LI 1 YZ    0.000700   0.000000   0.000000  -0.000000   0.000000
   26  LI 1 XX   -0.000000   0.041387  -0.030501  -0.020745   0.066402
   27  LI 1 YY   -0.000000   0.069484   0.029716   0.010527   0.037647
   28  LI 1 ZZ   -0.000000   0.044863  -0.043299  -0.006902   0.026297
   29  LI 1 XY   -0.000000   0.011416   0.002420  -0.000363   0.006405
   30  LI 1 XZ    0.000406   0.000000   0.000000  -0.000000   0.000000
   31  LI 1 YZ    0.000714   0.000000   0.000000  -0.000000   0.000000
   32  LI 1 XXX  -0.000000  -0.020451   0.017417   0.009653   0.002882
   33  LI 1 YYY  -0.000000   0.011401   0.041421   0.010592  -0.000120
   34  LI 1 ZZZ   0.001748   0.000000   0.000000  -0.000000   0.000000
   35  LI 1 XXY  -0.000000   0.002208   0.013893   0.001723  -0.006530
   36  LI 1 XXZ   0.003302   0.000000   0.000000  -0.000000   0.000000
   37  LI 1 YYX  -0.000000  -0.002931   0.017438   0.004984  -0.015891
   38  LI 1 YYZ   0.000704   0.000000   0.000000  -0.000000   0.000000
   39  LI 1 ZZX  -0.000000  -0.008050   0.007409   0.004186  -0.016789
   40  LI 1 ZZY  -0.000000   0.003153   0.013776   0.002566  -0.000638
   41  LI 1 XYZ   0.001198   0.000000   0.000000  -0.000000   0.000000
   42  LI 1  S   -0.000000  -0.000482  -0.007262  -0.000454  -0.005085
   43  LI 1  X   -0.000000  -0.010374   0.015956   0.005233  -0.010759
   44  LI 1  Y   -0.000000  -0.006261   0.043621   0.010174  -0.002453
   45  LI 1  Z    0.000673   0.000000   0.000000  -0.000000   0.000000
   46  F  2  S   -0.000000   0.010057   0.006540  -0.039614  -0.021313
   47  F  2  S   -0.000000   0.018960   0.012121  -0.085693  -0.051044
   48  F  2  X   -0.000000   0.023151   0.003611   0.019209  -0.491615
   49  F  2  Y   -0.000000  -0.024748  -0.048000   0.436532  -0.002680
   50  F  2  Z    0.310890   0.000000   0.000000  -0.000000   0.000000
   51  F  2  S   -0.000000  -0.061924  -0.040052   0.386632   0.274935
   52  F  2  X   -0.000000   0.034502   0.005767   0.016879  -0.611053
   53  F  2  Y   -0.000000  -0.037073  -0.071859   0.641595   0.009176
   54  F  2  Z    0.459728   0.000000   0.000000  -0.000000   0.000000
   55  F  2  S   -0.000000  -0.095065  -0.055582   0.212215  -0.114488
   56  F  2  X   -0.000000   0.047581   0.015699  -0.010063   0.758614
   57  F  2  Y   -0.000000  -0.042913  -0.077804  -0.269787   0.002700
   58  F  2  Z    0.404131   0.000000   0.000000  -0.000000   0.000000
   59  F  2 XX   -0.000000   0.000956   0.000569  -0.008938  -0.000418
   60  F  2 YY   -0.000000   0.000940   0.000428  -0.002517  -0.008082
   61  F  2 ZZ   -0.000000   0.000960   0.000536  -0.008588  -0.007493
   62  F  2 XY   -0.000000   0.000055  -0.000083  -0.002654  -0.004993
   63  F  2 XZ   -0.000275   0.000000   0.000000  -0.000000   0.000000
   64  F  2 YZ    0.000901   0.000000   0.000000  -0.000000   0.000000
   65  F  2 XX   -0.000000   0.003613   0.001978  -0.053382  -0.017750
   66  F  2 YY   -0.000000   0.002460   0.000825   0.001164  -0.040918
   67  F  2 ZZ   -0.000000   0.003104   0.001757  -0.052628  -0.042530
   68  F  2 XY   -0.000000   0.000128  -0.001329  -0.009406  -0.003852
   69  F  2 XZ   -0.001016   0.000000   0.000000  -0.000000   0.000000
   70  F  2 YZ    0.006525   0.000000   0.000000  -0.000000   0.000000
   71  F  2 XX   -0.000000   0.001088  -0.000273  -0.037758  -0.062421
   72  F  2 YY   -0.000000   0.002307   0.000246  -0.072345  -0.000542
   73  F  2 ZZ   -0.000000   0.003191   0.000270  -0.037591  -0.003744
   74  F  2 XY   -0.000000   0.002911   0.000202   0.010177   0.066854
   75  F  2 XZ   -0.007933   0.000000   0.000000  -0.000000   0.000000
   76  F  2 YZ    0.012458   0.000000   0.000000  -0.000000   0.000000
   77  F  2 XXX  -0.000000  -0.000159   0.000158  -0.001505   0.124051
   78  F  2 YYY  -0.000000  -0.000097  -0.000280  -0.069935  -0.001762
   79  F  2 ZZZ  -0.002495   0.000000   0.000000  -0.000000   0.000000
   80  F  2 XXY  -0.000000   0.000330   0.000561  -0.043222  -0.002711
   81  F  2 XXZ  -0.000369   0.000000   0.000000  -0.000000   0.000000
   82  F  2 YYX  -0.000000   0.000193   0.000128   0.000249   0.053974
   83  F  2 YYZ   0.001886   0.000000   0.000000  -0.000000   0.000000
   84  F  2 ZZX  -0.000000  -0.000177   0.000056  -0.000710   0.055299
   85  F  2 ZZY  -0.000000   0.000355   0.000471  -0.043287  -0.001129
   86  F  2 XYZ   0.000007   0.000000   0.000000  -0.000000   0.000000
   87  F  2  S   -0.000000  -0.129765  -0.040985  -0.029170  -0.071255
   88  F  2  X   -0.000000   0.052411   0.056719   0.006369   0.145874
   89  F  2  Y   -0.000000  -0.032726  -0.066947  -0.075702   0.018950
   90  F  2  Z    0.052043   0.000000   0.000000  -0.000000   0.000000
   91  F  2  S   -0.000000  -0.000018   0.000023  -0.000001   0.000008
   92  H  3  S   -0.000000   0.008535   0.007086  -0.349455  -0.014915
   93  H  3  S   -0.000000   0.029265   0.027789  -0.420670   0.004210
   94  H  3  S   -0.000000   0.096435   0.069267   0.044983  -0.010796
   95  H  3  X   -0.000000   0.000058  -0.000197  -0.000052   0.007067
   96  H  3  Y   -0.000000   0.001410   0.001974   0.003761   0.000812
   97  H  3  Z    0.003467   0.000000   0.000000  -0.000000   0.000000
   98  H  3  X   -0.000000  -0.001593  -0.004047   0.001679   0.057480
   99  H  3  Y   -0.000000   0.007372   0.012869   0.119233   0.011325
  100  H  3  Z    0.022515   0.000000   0.000000  -0.000000   0.000000
  101  H  3  X   -0.000000  -0.014761  -0.016968  -0.002508   0.038032
  102  H  3  Y   -0.000000   0.014691   0.038164   0.002587   0.009797
  103  H  3  Z    0.016861   0.000000   0.000000  -0.000000   0.000000
  104  H  3 XX   -0.000000   0.000769   0.000790  -0.012019  -0.000862
  105  H  3 YY   -0.000000  -0.000900  -0.001535  -0.061626  -0.004455
  106  H  3 ZZ   -0.000000  -0.000034  -0.000194  -0.010716  -0.000494
  107  H  3 XY   -0.000000  -0.000448  -0.000001  -0.000807  -0.024599
  108  H  3 XZ    0.000066   0.000000   0.000000  -0.000000   0.000000
  109  H  3 YZ   -0.008881   0.000000   0.000000  -0.000000   0.000000
  110  H  3  S   -0.000000   0.021226   0.077586   0.069945  -0.099611
  111  H  3  S   -0.000000   0.043412   0.048122   0.012520   0.032244
  112  H  3  X   -0.000000  -0.022353  -0.060655  -0.031144   0.020498
  113  H  3  Y   -0.000000   0.034405   0.123704   0.022420   0.028237
  114  H  3  Z    0.001149   0.000000   0.000000  -0.000000   0.000000

                     11         12         13         14         15
                    1.3352     0.0000     0.0104     0.0196     0.0200
                     A''        A'         A'         A''        A'  
    1  LI 1  S    0.000000   0.000089   0.007078  -0.000000  -0.006194
    2  LI 1  S    0.000000   0.000133   0.016311  -0.000000  -0.015260
    3  LI 1  X    0.000000   0.000142   0.027874  -0.000000  -0.021481
    4  LI 1  Y    0.000000  -0.000091   0.001130  -0.000000   0.004425
    5  LI 1  Z    0.024634  -0.000000   0.000000  -0.027327  -0.000000
    6  LI 1  S    0.000000   0.000291  -0.476072  -0.000000   0.039265
    7  LI 1  X    0.000000   0.001000  -0.199185  -0.000000   0.320634
    8  LI 1  Y    0.000000  -0.000170  -0.132209  -0.000000  -0.177577
    9  LI 1  Z   -0.000466  -0.000000   0.000000   0.373390  -0.000000
   10  LI 1  S    0.000000  -0.002409   0.005292  -0.000000   0.023603
   11  LI 1  X    0.000000  -0.000082  -0.374009  -0.000000  -0.568968
   12  LI 1  Y    0.000000  -0.000309  -0.123502  -0.000000   0.196055
   13  LI 1  Z   -0.006472  -0.000000   0.000000  -0.593507  -0.000000
   14  LI 1 XX    0.000000   0.000000   0.003261  -0.000000  -0.002896
   15  LI 1 YY    0.000000  -0.000002   0.002894  -0.000000  -0.002478
   16  LI 1 ZZ    0.000000  -0.000001   0.002955  -0.000000  -0.002558
   17  LI 1 XY    0.000000   0.000001  -0.000174  -0.000000   0.000214
   18  LI 1 XZ    0.001674  -0.000000   0.000000  -0.000307  -0.000000
   19  LI 1 YZ   -0.000041  -0.000000   0.000000   0.000016  -0.000000
   20  LI 1 XX    0.000000   0.000002   0.007698  -0.000000  -0.009622
   21  LI 1 YY    0.000000  -0.000053   0.007769  -0.000000  -0.009653
   22  LI 1 ZZ    0.000000  -0.000057   0.007815  -0.000000  -0.008793
   23  LI 1 XY    0.000000   0.000004   0.002192  -0.000000  -0.002384
   24  LI 1 XZ    0.020026  -0.000000   0.000000  -0.003349  -0.000000
   25  LI 1 YZ    0.001892  -0.000000   0.000000  -0.000343  -0.000000
   26  LI 1 XX    0.000000   0.000276  -0.197263  -0.000000  -0.058052
   27  LI 1 YY    0.000000   0.000036  -0.059614  -0.000000  -0.036778
   28  LI 1 ZZ    0.000000   0.000101  -0.035057  -0.000000  -0.023023
   29  LI 1 XY    0.000000   0.000029  -0.059087  -0.000000  -0.019124
   30  LI 1 XZ    0.000194  -0.000000   0.000000  -0.018189  -0.000000
   31  LI 1 YZ    0.003402  -0.000000   0.000000  -0.000105  -0.000000
   32  LI 1 XXX   0.000000  -0.000084   0.019514  -0.000000  -0.076548
   33  LI 1 YYY   0.000000  -0.000028   0.019119  -0.000000   0.035738
   34  LI 1 ZZZ   0.005264  -0.000000   0.000000  -0.087362  -0.000000
   35  LI 1 XXY   0.000000  -0.000012   0.006447  -0.000000   0.011465
   36  LI 1 XXZ   0.010235  -0.000000   0.000000  -0.043330  -0.000000
   37  LI 1 YYX   0.000000  -0.000059   0.011578  -0.000000  -0.033152
   38  LI 1 YYZ   0.001873  -0.000000   0.000000  -0.039150  -0.000000
   39  LI 1 ZZX   0.000000  -0.000045   0.014040  -0.000000  -0.029187
   40  LI 1 ZZY   0.000000  -0.000010   0.008097  -0.000000   0.016334
   41  LI 1 XYZ   0.003546  -0.000000   0.000000  -0.000392  -0.000000
   42  LI 1  S    0.000000  -0.009427   2.308336  -0.000000  -0.715724
   43  LI 1  X    0.000000   0.000355   1.055330  -0.000000   0.912445
   44  LI 1  Y    0.000000  -0.000951   0.252518  -0.000000  -0.630412
   45  LI 1  Z    0.001731  -0.000000   0.000000   1.339276  -0.000000
   46  F  2  S    0.000000   0.000010   0.001230  -0.000000   0.003688
   47  F  2  S    0.000000   0.000018   0.002685  -0.000000   0.006611
   48  F  2  X    0.000000   0.000021   0.001229  -0.000000  -0.001539
   49  F  2  Y    0.000000   0.000006   0.001145  -0.000000   0.005632
   50  F  2  Z   -0.501947  -0.000000   0.000000   0.004506  -0.000000
   51  F  2  S    0.000000  -0.000075  -0.005859  -0.000000  -0.024034
   52  F  2  X    0.000000   0.000048   0.002651  -0.000000  -0.001585
   53  F  2  Y    0.000000   0.000008   0.001505  -0.000000   0.009408
   54  F  2  Z   -0.606128  -0.000000   0.000000   0.009487  -0.000000
   55  F  2  S    0.000000  -0.000044  -0.029405  -0.000000  -0.019789
   56  F  2  X    0.000000  -0.000081  -0.006120  -0.000000  -0.007836
   57  F  2  Y    0.000000   0.000045  -0.007911  -0.000000   0.008824
   58  F  2  Z    0.754706  -0.000000   0.000000  -0.011729  -0.000000
   59  F  2 XX    0.000000  -0.000000   0.000332  -0.000000   0.000140
   60  F  2 YY    0.000000   0.000000   0.000336  -0.000000   0.000164
   61  F  2 ZZ    0.000000   0.000000   0.000287  -0.000000   0.000183
   62  F  2 XY    0.000000  -0.000000  -0.000014  -0.000000   0.000005
   63  F  2 XZ    0.004315  -0.000000   0.000000  -0.000016  -0.000000
   64  F  2 YZ   -0.005185  -0.000000   0.000000  -0.000023  -0.000000
   65  F  2 XX    0.000000  -0.000000   0.000978  -0.000000   0.000766
[...]
   50  F  2  Z    0.309671   0.000000   0.000000   0.000000   0.000000
   51  F  2  S    0.000000  -0.053216  -0.050039   0.323770   0.343345
   52  F  2  X    0.000000   0.014625   0.016608   0.140906  -0.591381
   53  F  2  Y    0.000000  -0.081860   0.014106   0.625925   0.139030
   54  F  2  Z    0.458256   0.000000   0.000000   0.000000   0.000000
   55  F  2  S    0.000000  -0.069164  -0.061563   0.233921  -0.075250
   56  F  2  X    0.000000   0.017055  -0.089759  -0.165292   0.739410
   57  F  2  Y    0.000000  -0.082399  -0.016983  -0.263938  -0.056181
   58  F  2  Z    0.405961   0.000000   0.000000   0.000000   0.000000
   59  F  2 XX    0.000000   0.000767   0.000420  -0.008684  -0.002182
   60  F  2 YY    0.000000   0.000627   0.001369  -0.000843  -0.008327
   61  F  2 ZZ    0.000000   0.000781   0.000973  -0.006898  -0.009009
   62  F  2 XY    0.000000  -0.000023   0.000305  -0.001578  -0.005415
   63  F  2 XZ   -0.000264   0.000000   0.000000   0.000000   0.000000
   64  F  2 YZ    0.000888   0.000000   0.000000   0.000000   0.000000
   65  F  2 XX    0.000000   0.002973   0.002539  -0.048697  -0.028059
   66  F  2 YY    0.000000   0.001406   0.006114   0.009393  -0.039452
   67  F  2 ZZ    0.000000   0.002846   0.004042  -0.042884  -0.052109
   68  F  2 XY    0.000000  -0.001209  -0.000629  -0.008418  -0.005714
   69  F  2 XZ   -0.000984   0.000000   0.000000   0.000000   0.000000
   70  F  2 YZ    0.006516   0.000000   0.000000   0.000000   0.000000
   71  F  2 XX    0.000000   0.000563   0.008981  -0.024292  -0.068467
   72  F  2 YY    0.000000   0.000975   0.001463  -0.070756  -0.015287
   73  F  2 ZZ    0.000000   0.000990   0.002290  -0.036123  -0.011160
   74  F  2 XY    0.000000   0.000106  -0.005551  -0.003754   0.067446
   75  F  2 XZ   -0.007996   0.000000   0.000000   0.000000   0.000000
   76  F  2 YZ    0.012618   0.000000   0.000000   0.000000   0.000000
   77  F  2 XXX   0.000000  -0.000714  -0.011067  -0.026770   0.120606
   78  F  2 YYY   0.000000   0.000159  -0.001206  -0.068051  -0.016174
   79  F  2 ZZZ  -0.002187   0.000000   0.000000   0.000000   0.000000
   80  F  2 XXY   0.000000   0.000906  -0.000635  -0.041728  -0.011552
   81  F  2 XXZ  -0.000231   0.000000   0.000000   0.000000   0.000000
   82  F  2 YYX   0.000000  -0.000221  -0.004940  -0.010767   0.052672
   83  F  2 YYZ   0.002018   0.000000   0.000000   0.000000   0.000000
   84  F  2 ZZX   0.000000  -0.000347  -0.004887  -0.011970   0.053750
   85  F  2 ZZY   0.000000   0.000812  -0.000789  -0.042116  -0.010021
   86  F  2 XYZ   0.000005   0.000000   0.000000   0.000000   0.000000
   87  F  2  S    0.000000  -0.058622  -0.110855  -0.009446  -0.086147
   88  F  2  X    0.000000   0.062602   0.022133  -0.024846   0.147456
   89  F  2  Y    0.000000  -0.070713  -0.024230  -0.077374   0.000351
   90  F  2  Z    0.052384   0.000000   0.000000   0.000000   0.000000
   91  F  2  S    0.000000   0.000020  -0.000021  -0.000002   0.000006
   92  H  3  S    0.000000   0.009957   0.015900  -0.339286  -0.085863
   93  H  3  S    0.000000   0.033807   0.027823  -0.413400  -0.080316
   94  H  3  S    0.000000   0.082280   0.085077   0.043200   0.006601
   95  H  3  X    0.000000  -0.000237  -0.001125  -0.001489   0.006867
   96  H  3  Y    0.000000   0.002147   0.000555   0.003488   0.001671
   97  H  3  Z    0.003485   0.000000   0.000000   0.000000   0.000000
   98  H  3  X    0.000000  -0.004647  -0.009315  -0.010014   0.056166
   99  H  3  Y    0.000000   0.013100   0.003113   0.114231   0.036190
  100  H  3  Z    0.022671   0.000000   0.000000   0.000000   0.000000
  101  H  3  X    0.000000  -0.019159  -0.017328  -0.009787   0.035329
  102  H  3  Y    0.000000   0.039714   0.009464   0.000339   0.011176
  103  H  3  Z    0.016994   0.000000   0.000000   0.000000   0.000000
  104  H  3 XX    0.000000   0.000963   0.000689  -0.011606  -0.003260
  105  H  3 YY    0.000000  -0.001271  -0.000309  -0.059373  -0.017127
  106  H  3 ZZ    0.000000  -0.000134   0.000063  -0.010386  -0.002694
  107  H  3 XY    0.000000   0.000113   0.002961   0.004228  -0.024148
  108  H  3 XZ    0.000065   0.000000   0.000000   0.000000   0.000000
  109  H  3 YZ   -0.008949   0.000000   0.000000   0.000000   0.000000
  110  H  3  S    0.000000   0.080162   0.024434   0.088668  -0.081019
  111  H  3  S    0.000000   0.053546   0.031595   0.004507   0.037433
  112  H  3  X    0.000000  -0.063211  -0.017226  -0.034394   0.011857
  113  H  3  Y    0.000000   0.126998   0.013390   0.016146   0.034525
  114  H  3  Z    0.001136   0.000000   0.000000   0.000000   0.000000

                     11
                    0.0153
                     A'' 
    1  LI 1  S    0.000000
    2  LI 1  S    0.000000
    3  LI 1  X    0.000000
    4  LI 1  Y    0.000000
    5  LI 1  Z    0.024610
    6  LI 1  S    0.000000
    7  LI 1  X    0.000000
    8  LI 1  Y    0.000000
    9  LI 1  Z   -0.000469
   10  LI 1  S    0.000000
   11  LI 1  X    0.000000
   12  LI 1  Y    0.000000
   13  LI 1  Z   -0.006465
   14  LI 1 XX    0.000000
   15  LI 1 YY    0.000000
   16  LI 1 ZZ    0.000000
   17  LI 1 XY    0.000000
   18  LI 1 XZ    0.001673
   19  LI 1 YZ   -0.000041
   20  LI 1 XX    0.000000
   21  LI 1 YY    0.000000
   22  LI 1 ZZ    0.000000
   23  LI 1 XY    0.000000
   24  LI 1 XZ    0.020007
   25  LI 1 YZ    0.001890
   26  LI 1 XX    0.000000
   27  LI 1 YY    0.000000
   28  LI 1 ZZ    0.000000
   29  LI 1 XY    0.000000
   30  LI 1 XZ    0.000193
   31  LI 1 YZ    0.003401
   32  LI 1 XXX   0.000000
   33  LI 1 YYY   0.000000
   34  LI 1 ZZZ   0.005260
   35  LI 1 XXY   0.000000
   36  LI 1 XXZ   0.010227
   37  LI 1 YYX   0.000000
   38  LI 1 YYZ   0.001871
   39  LI 1 ZZX   0.000000
   40  LI 1 ZZY   0.000000
   41  LI 1 XYZ   0.003543
   42  LI 1  S    0.000000
   43  LI 1  X    0.000000
   44  LI 1  Y    0.000000
   45  LI 1  Z    0.001729
   46  F  2  S    0.000000
   47  F  2  S    0.000000
   48  F  2  X    0.000000
   49  F  2  Y    0.000000
   50  F  2  Z   -0.502700
   51  F  2  S    0.000000
   52  F  2  X    0.000000
   53  F  2  Y    0.000000
   54  F  2  Z   -0.607241
   55  F  2  S    0.000000
   56  F  2  X    0.000000
   57  F  2  Y    0.000000
   58  F  2  Z    0.753723
   59  F  2 XX    0.000000
   60  F  2 YY    0.000000
   61  F  2 ZZ    0.000000
   62  F  2 XY    0.000000
   63  F  2 XZ    0.004315
   64  F  2 YZ   -0.005187
   65  F  2 XX    0.000000
   66  F  2 YY    0.000000
   67  F  2 ZZ    0.000000
   68  F  2 XY    0.000000
   69  F  2 XZ    0.013042
   70  F  2 YZ   -0.003638
   71  F  2 XX    0.000000
   72  F  2 YY    0.000000
   73  F  2 ZZ    0.000000
   74  F  2 XY    0.000000
   75  F  2 XZ   -0.026051
   76  F  2 YZ    0.065972
   77  F  2 XXX   0.000000
   78  F  2 YYY   0.000000
   79  F  2 ZZZ   0.127086
   80  F  2 XXY   0.000000
   81  F  2 XXZ   0.056866
   82  F  2 YYX   0.000000
   83  F  2 YYZ   0.054430
   84  F  2 ZZX   0.000000
   85  F  2 ZZY   0.000000
   86  F  2 XYZ  -0.000818
   87  F  2  S    0.000000
   88  F  2  X    0.000000
   89  F  2  Y    0.000000
   90  F  2  Z    0.140321
   91  F  2  S    0.000000
   92  H  3  S    0.000000
   93  H  3  S    0.000000
   94  H  3  S    0.000000
   95  H  3  X    0.000000
   96  H  3  Y    0.000000
   97  H  3  Z    0.007149
   98  H  3  X    0.000000
   99  H  3  Y    0.000000
  100  H  3  Z    0.064566
  101  H  3  X    0.000000
  102  H  3  Y    0.000000
  103  H  3  Z    0.055133
  104  H  3 XX    0.000000
  105  H  3 YY    0.000000
  106  H  3 ZZ    0.000000
  107  H  3 XY    0.000000
  108  H  3 XZ   -0.000613
  109  H  3 YZ   -0.028024
  110  H  3  S    0.000000
  111  H  3  S    0.000000
  112  H  3  X    0.000000
  113  H  3  Y    0.000000
  114  H  3  Z   -0.005472

 .... DONE PREPARING DIABATIC MOLECULAR ORBITALS ....
 STEP CPU TIME =     0.01 TOTAL CPU TIME =        2.9 (    0.0 MIN)
 TOTAL WALL CLOCK TIME=        2.9 SECONDS, CPU UTILIZATION IS  99.65%

   ---- REGENERATING CAS-CI STATES OVER DMO'S ----


     --------------------------------------------
     PARTIAL TWO ELECTRON INTEGRAL TRANSFORMATION
     --------------------------------------------

 NUMBER OF CORE MOLECULAR ORBITALS     =    3
 NUMBER OF OCCUPIED MOLECULAR ORBITALS =   11
 TOTAL NUMBER OF MOLECULAR ORBITALS    =   11
 TOTAL NUMBER OF ATOMIC ORBITALS       =  114
 THRESHOLD FOR KEEPING TRANSFORMED 2E- INTEGRALS = 1.000E-09
 AO INTEGRALS WILL BE READ IN FROM DISK...

 PLAN A: REQUIREMENTS FOR FULLY IN-MEMORY TRANSFORMATION:
 # OF WORDS AVAILABLE =              5000000
 # OF WORDS NEEDED    =              8345180

 PLAN B: REQUIREMENTS FOR THE SEGMENTED TRANSFORMATION:
       MINIMUM=         872480 WORDS FOR 1 MOLECULAR ORBITAL PER PASS
       MAXIMUM=        8345180 WORDS FOR ALL MOLECULAR ORBITALS IN 1 PASS
              (         747270 EXTRA WORDS INCLUDES 1 EXTRA ORBITAL/PASS)
 THIS RUN USES=        4608830 WORDS,
 DISTRIBUTING   2 PASSES EACH CONTAINING     6 ORBITALS OVER   1 PROCESSORS.

 CHOOSING SEGMENTED PARTIAL TRANSFORMATION...
 PASS #   1 TOOK        0.34 SECONDS.
 PASS #   2 TOOK        0.26 SECONDS.
 TOTAL NUMBER OF TRANSFORMED 2E- INTEGRALS KEPT =         1218
 ----- FROZEN CORE ENERGY =      -102.5639754927
 ... END OF INTEGRAL TRANSFORMATION ...
 STEP CPU TIME =     0.60 TOTAL CPU TIME =        3.5 (    0.1 MIN)
 TOTAL WALL CLOCK TIME=        3.5 SECONDS, CPU UTILIZATION IS  99.71%

          -----------------------     ----------------------------
          GUGA DISTINCT ROW TABLE     WRITTEN BY B.R.BROOKS,P.SAXE
          -----------------------     ----------------------------

      GROUP=CS           NPRT=       0
       FORS=       T   INTACT=       F
       FOCI=       F   MXNINT=   50000
       SOCI=       F   MXNEME=   10000
     IEXCIT=       0

      -CORE-    -INTERNAL-  -EXTERNAL-
     NFZC=   0   NDOC=   3   NEXT=   0
     NMCC=   3   NAOS=   0   NFZV=   0
                 NBOS=   0
                 NALP=   1
                 NVAL=   4

 THE MAXIMUM ELECTRON EXCITATION WILL BE   7

 SYMMETRIES FOR THE   3 CORE,   8 ACTIVE,   0 EXTERNAL MO-S ARE
     CORE= A'    A'    A'  
   ACTIVE= A'    A'    A''   A'    A'    A'    A'    A'' 
           DOC   DOC   DOC   ALP   VAL   VAL   VAL   VAL 

 MOLECULAR CHARGE          =    0
 NUMBER OF ALPHA ELECTRONS =    7
 NUMBER OF  BETA ELECTRONS =    6

 THE ELECTRONIC STATE IS  2-A'  

 THE DISTINCT ROW TABLE HAS        71 ROWS.
  THE WAVEFUNCTION CONTAINS      1204 WALKS (CSF-S).

 TOTAL NUMBER OF INTEGRALS =        469
 NUMBER OF INTEGRALS/GROUP =        469
 NUMBER OF INTEGRAL GROUPS =          1
 MAXIMUM RECORD SIZES ARE    1204 FOR UNIT 11    1204 FOR UNIT 12
                            30001 FOR UNIT 15   30001 FOR UNIT 16
 ...... END OF -DRT- GENERATION ...... 
 STEP CPU TIME =     0.01 TOTAL CPU TIME =        3.5 (    0.1 MIN)
 TOTAL WALL CLOCK TIME=        3.5 SECONDS, CPU UTILIZATION IS  99.71%

          ------------------------
          GUGA-CI INTEGRAL SORTING
          ------------------------

     80177 WORDS NEEDED TO SORT            469 GUGA INTEGRALS IN MEMORY
   5000000 WORDS ARE AVAILABLE
 CHOOSING IN-MEMORY SORTING...
 IN CORE ALGORITHM SORTED             24 NON-ZERO 1E- INTEGRALS
 IN CORE ALGORITHM SORTED            378 NON-ZERO 2E- INTEGRALS
 ...... END OF INTEGRAL SORTING ...... 
 STEP CPU TIME =     0.00 TOTAL CPU TIME =        3.5 (    0.1 MIN)
 TOTAL WALL CLOCK TIME=        3.5 SECONDS, CPU UTILIZATION IS  99.43%

 -------------------------     ---------------------------------------
 ENERGY MATRIX CALCULATION     WRITTEN BY B.R.BROOKS,W.D.LAIDIG,P.SAXE
 -------------------------     ---------------------------------------

 COMPUTING THE HAMILTONIAN FOR THE      1204 CSF-S...

      165704 IS THE TOTAL NUMBER OF GENERATED LOOPS
      165704 WERE CREATED BY THE LOOP-DRIVEN ALGORITHM
           0 WERE CREATED IMPLICITLY

      160464 IS THE TOTAL NUMBER OF PROCESSED LOOPS
        4523     DIAGONAL LOOPS ARE STORED ON WORK15 IN     1 BUFFERS OF  10000 ELEMENTS.
      155941 OFF DIAGONAL LOOPS ARE STORED ON WORK16 IN    16 BUFFERS OF  10000 ELEMENTS.
 ...... END OF ENERGY MATRIX CALCULATION ...... 
 STEP CPU TIME =     0.02 TOTAL CPU TIME =        3.5 (    0.1 MIN)
 TOTAL WALL CLOCK TIME=        3.5 SECONDS, CPU UTILIZATION IS  99.43%

          -----------------------------------------
          DAVIDSON METHOD CI-MATRIX DIAGONALIZATION
                   WRITTEN BY STEVE ELBERT
          -----------------------------------------
 NUMBER OF STATES REQUESTED =     2
 MAX. NUMB. OF EXPAN. VEC   =    30
 MAX. NUMB. IMPROVED STATES =     2
 MAX. NUMB. OF ITERATIONS   =    50
 CONVERGENCE CRITERION      =    1.0E-07

 CHOOSING TO SOLVE SECULAR EQUATION IN MEMORY
 NUMBER OF WORDS AVAILABLE =    5000000
 NUMBER OF WORDS USED      =     847964
 ENERGY MATRIX BUFFER SIZE =      10000

 ITER. NO.JUST IMPROVED    ENERGY AND STATE
   0  50(MAX.TOL.STATE)   -107.437162601  1   -106.906168662  2
   1   2  0.36954093  2   -107.520368798  1   -107.011044737  2
   2   2  0.51554794  2   -107.534536937  1   -107.101693564  2
   3   2  0.39933314  1   -107.543438176  1   -107.537881252  2
   4   2  0.12043341  1   -107.590328882  1   -107.538693910  2
   5   2  0.02675653  1   -107.593437228  1   -107.538781393  2
   6   2  0.00581194  1   -107.593555785  1   -107.538790059  2
   7   2  0.00125872  1   -107.593561508  1   -107.538790991  2
   8   2  0.00042613  1   -107.593562032  1   -107.538791058  2
   9   2  0.00014214  1   -107.593562083  1   -107.538791063  2
  10   2  0.00004618  1   -107.593562089  1   -107.538791063  2
  11   2  0.00001461  1   -107.593562090  1   -107.538791063  2
  12   2  0.00000371  1   -107.593562090  1   -107.538791063  2
  13   2  0.00000083  1   -107.593562090  1   -107.538791063  2
  14   2  0.00000022  1   -107.593562090  1   -107.538791063  2
  15   1  0.00000005  1   -107.593562090  1   -107.538791063  2
 SOLUTION FOUND WITH INDIRECT METHOD

 STATE #    1  ENERGY =    -107.593562090

      CSF      COEF    OCCUPANCY (IGNORING CORE)
      ---      ----    --------- --------- -----
        3   -0.121252  22210000
       30    0.079038  22200010
      414    0.959209  22201000
      861   -0.062745  20201200
      965   -0.173410  12202000

 STATE #    2  ENERGY =    -107.538791063

      CSF      COEF    OCCUPANCY (IGNORING CORE)
      ---      ----    --------- --------- -----
        3    0.945823  22210000
      301   -0.061901  20210200
      413   -0.250258  12211000
      414    0.122481  22201000
 ...... END OF CI-MATRIX DIAGONALIZATION ......
 STEP CPU TIME =     0.03 TOTAL CPU TIME =        3.5 (    0.1 MIN)
 TOTAL WALL CLOCK TIME=        3.6 SECONDS, CPU UTILIZATION IS  99.44%

   BEGINNING DIABATIZATION OF CAS-CI ADIABATIC STATES,
       WHICH WERE JUST REGENERATED USING THE DMO'S.

 READING MCSCF-LEVEL DOMINANT CSF INFORMATION FROM THE $REFCSF INPUT GROUP.
 TOTAL NO. OF IMPORTANT CSF'S IN ALL STATES=    4
 CSF       3 IS DOMINANT IN STATE    1
 CSF     408 IS DOMINANT IN STATE    1
 CSF     410 IS DOMINANT IN STATE    1
 CSF     414 IS DOMINANT IN STATE    2

 ---------------------------------------------------
 CSF EXPANSION BASED ON DMO'S AS THE ACTIVE ORBITALS
 ---------------------------------------------------
 PRINTING ALL CI COEFFICIENTS LARGER THAN SLCTTH=   2.0E-01,
 EVEN IF THEY AREN'T IN THE DOMINANT CSF INPUT.

 ADIABATIC STATE #    1  ENERGY =    -107.593562090
      CSF    COEFFICIENT    OCCUPANCY
      ---    -----------    ---------
      414       0.959209    22201000

 ADIABATIC STATE #    2  ENERGY =    -107.538791063
      CSF    COEFFICIENT    OCCUPANCY
      ---    -----------    ---------
        3       0.945823    22210000
      413      -0.250258    12211000

 -----------------------------------------------
 CI COEFFICIENTS OF DOMINANT CSFS FOR ALL GROUPS
 -----------------------------------------------
 ONLY CONFIGURATIONS ENTERED IN $REFCSF WILL BE PRINTED BELOW.
 IF THE TOTAL WEIGHT OF THE DOMINANT CSF LIST IN ANY ADIABATIC STATE IS SMALL,
 THE LIST OF DOMINANT CSF'S GIVEN IN THE INPUT SHOULD BE RECONSIDERED.

 ADIABATIC STATE #    1 ENERGY =    -107.593562090
      CSF   GROUP #   COEFFICIENT
        3       1      -0.121252
      408       1       0.000799
      410       1      -0.005623
      414       2       0.959209
 TOTAL WEIGHT OF ALL DOMINANT CSFS IN THIS STATE IS 93.5%

 ADIABATIC STATE #    2 ENERGY =    -107.538791063
      CSF   GROUP #   COEFFICIENT
        3       1       0.945823
      408       1      -0.000850
      410       1       0.011409
      414       2       0.122481
 TOTAL WEIGHT OF ALL DOMINANT CSFS IN THIS STATE IS 91.0%


 -------------------------------------------
   - DIABATIC HAMILTONIAN MATRIX ELEMENTS - 
 -------------------------------------------
                                            
 --- DIABATIC ENERGIES (DIAGONAL ELEMENT) ---
 STATE #  1'S CAS-LEVEL DIABATIC ENERGY=    -107.539673554
 STATE #  2'S CAS-LEVEL DIABATIC ENERGY=    -107.592679599

 --- DIABATIC COUPLINGS (OFF DIAGONAL ELEMENTS)---
 STATE #  1 &  2'S CAS-LEVEL COUPLING  =       0.006896097

 ---------------------------------------
          - DIABATIC STATES -           
 ---------------------------------------
 STATE #  1
 ----------
    <CSF>      <COEFFICIENT>
        3         0.953564
      408        -0.000945
      410         0.012031
 STATE #  2
 ----------
    <CSF>      <COEFFICIENT>
      414         0.966997

 ---------------------------------------
     - ROTATION TO DIABATIC STATES -    
 ---------------------------------------
 ROWS=ADIABATIC, COLUMNS=DIABATIC STATES

             1           2

    1   -0.1269345   0.9919111
    2    0.9919111   0.1269345

 ..... FINISHED WITH CAS DIABATIZATION .....
 STEP CPU TIME =     0.00 TOTAL CPU TIME =        3.5 (    0.1 MIN)
 TOTAL WALL CLOCK TIME=        3.6 SECONDS, CPU UTILIZATION IS  99.44%
 .... DONE WITH DIABATIZATION ....
 STEP CPU TIME =     0.00 TOTAL CPU TIME =        3.5 (    0.1 MIN)
 TOTAL WALL CLOCK TIME=        3.6 SECONDS, CPU UTILIZATION IS  99.44%

     ----------------------------------------------------------------
     PROPERTY VALUES FOR THE MCSCF SELF-CONSISTENT FIELD WAVEFUNCTION
     ----------------------------------------------------------------

 THIS MCSCF AVERAGED   2 ROOTS OF DIFFERENT ENERGY.
 SINCE NO STATE-SPECIFIC DENSITY MATRIX IS AVAILABLE,
 PROPERTIES WILL NOT BE COMPUTED.

              4608830  WORDS OF DYNAMIC MEMORY USED
 EXECUTION OF GAMESS TERMINATED NORMALLY Wed Aug  9 20:38:15 2017
 DDI: 263640 bytes (0.3 MB / 0 MWords) used by master data server.

 ----------------------------------------
 CPU timing information for all processes
 ========================================
 0: 3.341 + 0.215 = 3.557
 ----------------------------------------
 ddikick.x: exited gracefully.
unset echo
----- accounting info -----
Files used on the master node compute-0-6.local were:
-rw-rw-r-- 1 sarom sarom 228K Aug  9 20:38 /scratch/mc-diab-lifh.F05
-rw-rw-r-- 1 sarom sarom  99M Aug  9 20:38 /scratch/mc-diab-lifh.F08
-rw-rw-r-- 1 sarom sarom 228K Aug  9 20:38 /scratch/mc-diab-lifh.F09
-rw-rw-r-- 1 sarom sarom 3.1M Aug  9 20:38 /scratch/mc-diab-lifh.F10
-rw-rw-r-- 1 sarom sarom 287K Aug  9 20:38 /scratch/mc-diab-lifh.F11
-rw-rw-r-- 1 sarom sarom  20K Aug  9 20:38 /scratch/mc-diab-lifh.F12
-rw-rw-r-- 1 sarom sarom 1.2M Aug  9 20:38 /scratch/mc-diab-lifh.F13
-rw-rw-r-- 1 sarom sarom 391K Aug  9 20:38 /scratch/mc-diab-lifh.F14
-rw-rw-r-- 1 sarom sarom 166K Aug  9 20:38 /scratch/mc-diab-lifh.F15
-rw-rw-r-- 1 sarom sarom 3.1M Aug  9 20:38 /scratch/mc-diab-lifh.F16
-rw-rw-r-- 1 sarom sarom 1.6K Aug  9 20:38 /scratch/mc-diab-lifh.F21
-rw-rw-r-- 1 sarom sarom    0 Aug  9 20:38 /scratch/mc-diab-lifh.F23
rm: No match.
ls: No match.
ls: No match.
ls: No match.
Wed Aug  9 20:38:18 CDT 2017
0.258u 0.182s 0:07.09 6.0%	0+0k 456+808io 0pf+0w
/opt/gridengine/default/spool/compute-0-6/active_jobs/35910.1/pe_hostfile compute-0-6.local
