-catch_rsh /opt/gridengine/default/spool/compute-0-7/active_jobs/35907.1/pe_hostfile
compute-0-7
The primary node assigned by SGE to this run is compute-0-7
Warning: no access to tty (Bad file descriptor).
Thus no job control in this shell.
source /home/sarom/dir.git.branch.saromleang-travis-ci/install.info
setenv GMS_PATH /home/sarom/dir.git.branch.saromleang-travis-ci
setenv GMS_BUILD_DIR /home/sarom/dir.git.branch.saromleang-travis-ci
setenv GMS_TARGET linux64
setenv GMS_FORTRAN gfortran
setenv GMS_GFORTRAN_VERNO 4.4
setenv GMS_MATHLIB mkl-so
setenv GMS_MATHLIB none
setenv GMS_MATHLIB_PATH /share/apps/intel/compilers_and_libraries_2017.1.132/linux/mkl/lib/intel64
setenv GMS_MKL_VERNO 12
setenv GMS_DDI_COMM sockets
setenv GMS_LIBCCHEM false
setenv GMS_EIGEN_PATH
setenv GMS_PHI false
setenv GMS_SHMTYPE sysv
setenv GMS_OPENMP false
unset echo
mc-diab-brac
/home/sarom/dir.git.branch.saromleang-travis-ci/tests/mcscf/diabat/parallel
----- GAMESS execution script 'rungms' -----
This job is running on host compute-0-7.local
under operating system Linux at Wed Aug 9 20:37:41 CDT 2017
Available scratch disk space (Kbyte units) at beginning of the job is
Filesystem           1K-blocks      Used Available Use% Mounted on
/dev/sda1             16126920   3962060  11345660  26% /
GAMESS temporary binary files will be written to /scratch
GAMESS supplementary output files will be written to /home/sarom/restart
Copying input file mc-diab-brac.inp to your run's scratch directory...
cp /home/sarom/dir.git.branch.saromleang-travis-ci/tests/mcscf/diabat/parallel/mc-diab-brac.inp /scratch/mc-diab-brac.F05
unset echo
The generated host list is
compute-0-7.local
/home/sarom/dir.git.branch.saromleang-travis-ci/ddikick.x /home/sarom/dir.git.branch.saromleang-travis-ci/gamess.00.x mc-diab-brac -ddi 1 1 compute-0-7.local -scr /scratch

 Distributed Data Interface kickoff program.
 Initiating 1 compute processes on 1 nodes to run the following command:
 /home/sarom/dir.git.branch.saromleang-travis-ci/gamess.00.x mc-diab-brac 

          ******************************************************
          *         GAMESS VERSION = 20 APR 2017 (R1)          *
          *             FROM IOWA STATE UNIVERSITY             *
          * M.W.SCHMIDT, K.K.BALDRIDGE, J.A.BOATZ, S.T.ELBERT, *
          *   M.S.GORDON, J.H.JENSEN, S.KOSEKI, N.MATSUNAGA,   *
          *          K.A.NGUYEN, S.J.SU, T.L.WINDUS,           *
          *       TOGETHER WITH M.DUPUIS, J.A.MONTGOMERY       *
          *         J.COMPUT.CHEM.  14, 1347-1363(1993)        *
          **************** 64 BIT LINUX VERSION ****************

  SINCE 1993, STUDENTS AND POSTDOCS WORKING AT IOWA STATE UNIVERSITY
  AND ALSO IN THEIR VARIOUS JOBS AFTER LEAVING ISU HAVE MADE IMPORTANT
  CONTRIBUTIONS TO THE CODE:
     IVANA ADAMOVIC, CHRISTINE AIKENS, YURI ALEXEEV, POOJA ARORA,
     ANDREY ASADCHEV, ROB BELL, PRADIPTA BANDYOPADHYAY, JONATHAN BENTZ,
     BRETT BODE, KURT BRORSEN, CALEB CARLIN, GALINA CHABAN, WEI CHEN,
     CHEOL HO CHOI, PAUL DAY, ALBERT DEFUSCO, NUWAN DESILVA, TIM DUDLEY,
     DMITRI FEDOROV, GRAHAM FLETCHER, MARK FREITAG, KURT GLAESEMANN,
     DAN KEMP, GRANT MERRILL, NORIYUKI MINEZAWA, JONATHAN MULLIN,
     TAKESHI NAGATA, SEAN NEDD, HEATHER NETZLOFF, BOSILJKA NJEGIC, RYAN OLSON,
     MIKE PAK, SPENCER PRUITT, LUKE ROSKOP, JIM SHOEMAKER, LYUDMILA SLIPCHENKO,
     TONY SMITH, SAROM SOK LEANG, JIE SONG, TETSUYA TAKETSUGU, SIMON WEBB,
     PENG XU, SOOHAENG YOO, FEDERICO ZAHARIEV

  ADDITIONAL CODE HAS BEEN PROVIDED BY COLLABORATORS IN OTHER GROUPS:
     IOWA STATE UNIVERSITY:
          JOE IVANIC, AARON WEST, LAIMUTIS BYTAUTAS, KLAUS RUEDENBERG
     UNIVERSITY OF TOKYO: KIMIHIKO HIRAO, TAKAHITO NAKAJIMA,
          TAKAO TSUNEDA, MUNEAKI KAMIYA, SUSUMU YANAGISAWA,
          KIYOSHI YAGI, MAHITO CHIBA, SEIKEN TOKURA, NAOAKI KAWAKAMI
     UNIVERSITY OF AARHUS: FRANK JENSEN
     UNIVERSITY OF IOWA: VISVALDAS KAIRYS, HUI LI
     NATIONAL INST. OF STANDARDS AND TECHNOLOGY: WALT STEVENS, DAVID GARMER
     UNIVERSITY OF PISA: BENEDETTA MENNUCCI, JACOPO TOMASI
     UNIVERSITY OF MEMPHIS: HENRY KURTZ, PRAKASHAN KORAMBATH
     UNIVERSITY OF ALBERTA: TOBY ZENG, MARIUSZ KLOBUKOWSKI
     UNIVERSITY OF NEW ENGLAND: MARK SPACKMAN
     MIE UNIVERSITY: HIROAKI UMEDA
     NAT. INST. OF ADVANCED INDUSTRIAL SCIENCE AND TECHNOLOGY: KAZUO KITAURA
     MICHIGAN STATE UNIVERSITY:
          KAROL KOWALSKI, MARTA WLOCH, JEFFREY GOUR, JESSE LUTZ,
          WEI LI, PIOTR PIECUCH
     UNIVERSITY OF SILESIA: MONIKA MUSIAL, STANISLAW KUCHARSKI
     FACULTES UNIVERSITAIRES NOTRE-DAME DE LA PAIX:
          OLIVIER QUINET, BENOIT CHAMPAGNE
     UNIVERSITY OF CALIFORNIA - SANTA BARBARA: BERNARD KIRTMAN
     INSTITUTE FOR MOLECULAR SCIENCE:
          KAZUYA ISHIMURA, MICHIO KATOUDA, AND SHIGERU NAGASE
     UNIVERSITY OF NOTRE DAME: ANNA POMOGAEVA, DAN CHIPMAN
     KYUSHU UNIVERSITY:
          HARUYUKI NAKANO,
          FENG LONG GU, JACEK KORCHOWIEC, MARCIN MAKOWSKI, AND YURIKO AOKI,
          HIROTOSHI MORI AND EISAKU MIYOSHI
     PENNSYLVANIA STATE UNIVERSITY:
          TZVETELIN IORDANOV, CHET SWALINA, JONATHAN SKONE,
          SHARON HAMMES-SCHIFFER
     WASEDA UNIVERSITY:
          MASATO KOBAYASHI, TOMOKO AKAMA, TSUGUKI TOUMA,
          TAKESHI YOSHIKAWA, YASUHIRO IKABATA, JUNJI SEINO,
          YUYA NAKAJIMA, HIROMI NAKAI
     NANJING UNIVERSITY: SHUHUA LI
     UNIVERSITY OF NEBRASKA:
          PEIFENG SU, DEJUN SI, NANDUN THELLAMUREGE, YALI WANG, HUI LI
     UNIVERSITY OF ZURICH: ROBERTO PEVERATI, KIM BALDRIDGE
     N. COPERNICUS UNIVERSITY AND JACKSON STATE UNIVERSITY:
          MARIA BARYSZ
     UNIVERSITY OF COPENHAGEN: Jimmy Kromann, CASPER STEINMANN
     TOKYO INSTITUTE OF TECHNOLOGY: HIROYA NAKATA
     NAGOYA UNIVERSITY: YOSHIO NISHIMOTO, STEPHAN IRLE
     MOSCOW STATE UNIVERSITY: VLADIMIR MIRONOV

 EXECUTION OF GAMESS BEGUN Wed Aug  9 20:37:41 2017

            ECHO OF THE FIRST FEW INPUT CARDS -
 INPUT CARD>!   test of MCSCF diabatic state generation: HONDO+ test case sampleS11         
 INPUT CARD>!     R.Valero, D.G.Truhlar  J.Chem.Phys. 125, 194305/1-22(2006)                
 INPUT CARD>!   (CH2Br)ClC=O...bromo-acetylchloride                                         
 INPUT CARD>!   104 AOs, 98 MOs, 16e- in 11 orbs, 6 states, lowest is not diabatized.       
 INPUT CARD>!                                                                               
 INPUT CARD>!   expected results for diabatizing the top five of six states are:            
 INPUT CARD>!        state            energy    weight in MCSCF   weight in DMO             
 INPUT CARD>!           1     -3180.8504638910      0.167              0.167                
 INPUT CARD>!           2     -3180.7198700206      0.167              0.167                
 INPUT CARD>!           3     -3180.6192632276      0.167              0.167                
 INPUT CARD>!           4     -3180.6119404693      0.167              0.167                
 INPUT CARD>!           5     -3180.6098782201      0.167              0.167                
 INPUT CARD>!           6     -3180.6081726896      0.167              0.167                
 INPUT CARD>!        --- DIABATIC ENERGIES (DIAGONAL ELEMENT) ---                           
 INPUT CARD>!      STATE #  2'S CAS-LEVEL DIABATIC ENERGY=   -3180.609773503                
 INPUT CARD>!      STATE #  3'S CAS-LEVEL DIABATIC ENERGY=   -3180.718783581                
 INPUT CARD>!      STATE #  4'S CAS-LEVEL DIABATIC ENERGY=   -3180.609363847                
 INPUT CARD>!      STATE #  5'S CAS-LEVEL DIABATIC ENERGY=   -3180.613235649                
 INPUT CARD>!      STATE #  6'S CAS-LEVEL DIABATIC ENERGY=   -3180.617968048                
 INPUT CARD>!        --- DIABATIC COUPLINGS (OFF DIAGONAL ELEMENTS)---                      
 INPUT CARD>!      STATE #  2 &  3'S CAS-LEVEL COUPLING  =      -0.000142476                
 INPUT CARD>!      STATE #  2 &  4'S CAS-LEVEL COUPLING  =      -0.000397486                
 INPUT CARD>!      STATE #  2 &  5'S CAS-LEVEL COUPLING  =       0.000000101                
 INPUT CARD>!      STATE #  2 &  6'S CAS-LEVEL COUPLING  =       0.000000055                
 INPUT CARD>!      STATE #  3 &  4'S CAS-LEVEL COUPLING  =       0.010956626                
 INPUT CARD>!      STATE #  3 &  5'S CAS-LEVEL COUPLING  =       0.000001391                
 INPUT CARD>!      STATE #  3 &  6'S CAS-LEVEL COUPLING  =      -0.000000017                
 INPUT CARD>!      STATE #  4 &  5'S CAS-LEVEL COUPLING  =      -0.000000148                
 INPUT CARD>!      STATE #  4 &  6'S CAS-LEVEL COUPLING  =       0.000000298                
 INPUT CARD>!      STATE #  5 &  6'S CAS-LEVEL COUPLING  =      -0.002794065                
 INPUT CARD>!             - Diabatic States -                                               
 INPUT CARD>!        State #  2                                                             
 INPUT CARD>!        ----------                                                             
 INPUT CARD>!          <CSF>      <Coefficient>                                             
 INPUT CARD>!           826        -0.000016                                                
 INPUT CARD>!           292        -0.000014                                                
 INPUT CARD>!          1071         0.108440                                                
 INPUT CARD>!             2        -0.072413                                                
 INPUT CARD>!          4131        -0.000199                                                
 INPUT CARD>!            46         0.897448                                                
 INPUT CARD>!          4143         0.000000                                                
 INPUT CARD>!             9         0.000000                                                
 INPUT CARD>!          ....skipping states 3,4,5....                                        
 INPUT CARD>!        State #  6                                                             
 INPUT CARD>!        ----------                                                             
 INPUT CARD>!          <CSF>      <Coefficient>                                             
 INPUT CARD>!            47         0.875981                                                
 INPUT CARD>!           827        -0.000013                                                
 INPUT CARD>!             6        -0.054954                                                
 INPUT CARD>!            50        -0.217078                                                
   15000000 WORDS OF MEMORY AVAILABLE


     RUN TITLE
     ---------
 bracetylchloride                                                                

 THE POINT GROUP OF THE MOLECULE IS C1      
 THE ORDER OF THE PRINCIPAL AXIS IS     0
 *** WARNING! ATOM   1 SHELL    3 TYPE S HAS NORMALIZATION   1.00000511
 *** WARNING! ATOM   5 SHELL   18 TYPE S HAS NORMALIZATION   0.95591086
 *** WARNING! ATOM   5 SHELL   19 TYPE S HAS NORMALIZATION   0.60747259
 *** WARNING! ATOM   5 SHELL   24 TYPE P HAS NORMALIZATION   1.01374853
 *** WARNING! ATOM   5 SHELL   25 TYPE P HAS NORMALIZATION   1.07182450
 *** WARNING! ATOM   5 SHELL   28 TYPE D HAS NORMALIZATION   1.00311032

 ATOM      ATOMIC                      COORDINATES (BOHR)
           CHARGE         X                   Y                   Z
 CHL        17.0     0.0000000000        0.0000000000        0.0000000000
 CAR         6.0     0.0000000000        0.0000000000        3.3627674000
 CAR         6.0     2.5502306000        0.0000000000        4.5682559000
 OXY         8.0    -2.0016811000        0.0000000000        4.9266521000
 BRO        35.0     5.2333603000        0.0000000000        1.9223308000
 HYD         1.0     2.8043390000       -1.6500798000        5.7421191000
 HYD         1.0     2.8043390000        1.6500798000        5.7421191000

          INTERNUCLEAR DISTANCES (ANGS.)
          ------------------------------

                1 CHL        2 CAR        3 CAR        4 OXY        5 BRO   

   1 CHL     0.0000000    1.7795000 *  2.7685954 *  2.8140404 *  2.9502956 *
   2 CAR     1.7795000 *  0.0000000    1.4927000 *  1.3442001 *  2.8723611 *
   3 CAR     2.7685954 *  1.4927000 *  0.0000000    2.4162229 *  1.9941000 *
   4 OXY     2.8140404 *  1.3442001 *  2.4162229 *  0.0000000    4.1455818  
   5 BRO     2.9502956 *  2.8723611 *  1.9941000 *  4.1455818    0.0000000  
   6 HYD     3.4925302    2.1330763 *  1.0800000 *  2.7233653 *  2.5496071 *
   7 HYD     3.4925302    2.1330763 *  1.0800000 *  2.7233653 *  2.5496071 *

                6 HYD        7 HYD   

   1 CHL     3.4925302    3.4925302  
   2 CAR     2.1330763 *  2.1330763 *
   3 CAR     1.0800000 *  1.0800000 *
   4 OXY     2.7233653 *  2.7233653 *
   5 BRO     2.5496071 *  2.5496071 *
   6 HYD     0.0000000    1.7463694 *
   7 HYD     1.7463694 *  0.0000000  

  * ... LESS THAN  3.000


     ATOMIC BASIS SET
     ----------------
 THE CONTRACTED PRIMITIVE FUNCTIONS HAVE BEEN UNNORMALIZED
 THE CONTRACTED BASIS FUNCTIONS ARE NOW NORMALIZED TO UNITY

  SHELL TYPE  PRIMITIVE        EXPONENT          CONTRACTION COEFFICIENT(S)

 CHL       

      1   S       1         25180.1000000    0.001833000312
      1   S       2          3780.3500000    0.014034002387
      1   S       3           860.4740000    0.069097011753
      1   S       4           242.1450000    0.237452040390
      1   S       5            77.3349000    0.483034082163
      1   S       6            26.2470000    0.339856057808

      2   L       7           491.7650000   -0.002297401989    0.003989400548
      2   L       8           116.9840000   -0.030714026590    0.030318004163
      2   L       9            37.4153000   -0.112528097418    0.129880017834
      2   L      10            13.7834000    0.045016038971    0.327951045030
      2   L      11             5.4521500    0.589353510217    0.453527062273
      2   L      12             2.2258800    0.465206402740    0.252154034623

      3   L      13             3.1864900   -0.251831288046   -0.014299012714
      3   L      14             1.1442700    0.061589315012    0.323572287711
      3   L      15             0.4203770    1.060185422549    0.743507661105

      4   L      16             0.1426570    1.000000000000    1.000000000000

      5   D      17             0.7500000    1.000000000000

 CAR       

      6   S      18          3047.5249000    0.001834700163
      6   S      19           457.3695100    0.014037301247
      6   S      20           103.9486900    0.068842606114
      6   S      21            29.2101550    0.232184420621
      6   S      22             9.2866630    0.467941341559
      6   S      23             3.1639270    0.362312032178

      7   L      24             7.8682724   -0.119332408615    0.068999095585
      7   L      25             1.8812885   -0.160854211613    0.316423979753
      7   L      26             0.5442493    1.143456482552    0.744308252374

      8   L      27             0.1687144    1.000000000000    1.000000000000

      9   D      28             0.8000000    1.000000000000

 CAR       

     10   S      29          3047.5249000    0.001834700163
     10   S      30           457.3695100    0.014037301247
     10   S      31           103.9486900    0.068842606114
     10   S      32            29.2101550    0.232184420621
     10   S      33             9.2866630    0.467941341559
     10   S      34             3.1639270    0.362312032178

     11   L      35             7.8682724   -0.119332408615    0.068999095585
     11   L      36             1.8812885   -0.160854211613    0.316423979753
     11   L      37             0.5442493    1.143456482552    0.744308252374

     12   L      38             0.1687144    1.000000000000    1.000000000000

     13   D      39             0.8000000    1.000000000000

 OXY       

     14   S      40          5484.6717000    0.001831099806
     14   S      41           825.2349500    0.013950098518
     14   S      42           188.0469600    0.068445092731
     14   S      43            52.9645000    0.232714275284
     14   S      44            16.8975700    0.470192950063
     14   S      45             5.7996353    0.358520861923

     15   L      46            15.5396160   -0.110777503825    0.070874299543
     15   L      47             3.5999336   -0.148026305111    0.339752797811
     15   L      48             1.0137618    1.130767039045    0.727158595314

     16   L      49             0.2700058    1.000000000000    1.000000000000

     17   D      50             0.8000000    1.000000000000

 BRO       

     18   S      51        574300.0000000    0.000210682753
     18   S      52         89070.0000000    0.001612717209
     18   S      53         20210.0000000    0.008360109593
     18   S      54          5736.0000000    0.034027558820
     18   S      55          1899.0000000    0.108515000624
     18   S      56           698.7000000    0.267396944367
     18   S      57           277.8000000    0.429567221462
     18   S      58           115.2000000    0.286993116960

     19   S      59            35.9700000    0.277772914382
     19   S      60            15.5000000    0.747057636025

     20   S      61             4.7710000    1.000000000000

     21   S      62             2.0770000    1.000000000000

     22   S      63             0.4211000    1.000000000000

     23   S      64             0.1610000    1.000000000000

     24   P      65          4406.0000000    0.001395526229
     24   P      66          1042.0000000    0.012374828328
     24   P      67           332.1000000    0.061017524128
     24   P      68           121.9000000    0.226775546561
     24   P      69            49.2400000    0.405975874525
     24   P      70            21.1600000    0.450692322262

     25   P      71             8.8360000    0.292018584918
     25   P      72             3.8290000    0.530220861711
     25   P      73             1.6430000    0.275287404479

     26   P      74             0.4650000    1.000000000000

     27   P      75             0.1427000    1.000000000000

     28   D      76           108.4000000    0.021587937136
     28   D      77            30.7100000    0.134176036024
     28   D      78            10.6600000    0.367870646615
     28   D      79             3.8510000    0.491895206230
     28   D      80             1.3170000    0.268321978739

     29   D      81             0.3380000    1.000000000000

 HYD       

     30   S      82            18.7311370    0.033494599523
     30   S      83             2.8253937    0.234726946658
     30   S      84             0.6401217    0.813757318413

     31   S      85             0.1612778    1.000000000000

     32   P      86             1.1000000    1.000000000000

 HYD       

     33   S      87            18.7311370    0.033494599523
     33   S      88             2.8253937    0.234726946658
     33   S      89             0.6401217    0.813757318413

     34   S      90             0.1612778    1.000000000000

     35   P      91             1.1000000    1.000000000000

 TOTAL NUMBER OF BASIS SET SHELLS             =   35
 NUMBER OF CARTESIAN GAUSSIAN BASIS FUNCTIONS =  104
 NOTE: THIS RUN WILL RESTRICT THE MO VARIATION SPACE TO SPHERICAL HARMONICS.
 THE NUMBER OF ORBITALS KEPT IN THE VARIATIONAL SPACE WILL BE PRINTED LATER.
 NUMBER OF ELECTRONS                          =   74
 CHARGE OF MOLECULE                           =    0
 SPIN MULTIPLICITY                            =    1
 NUMBER OF OCCUPIED ORBITALS (ALPHA)          =   37
 NUMBER OF OCCUPIED ORBITALS (BETA )          =   37
 TOTAL NUMBER OF ATOMS                        =    7
 THE NUCLEAR REPULSION ENERGY IS      386.4025322329

     $CONTRL OPTIONS
     ---------------
 SCFTYP=MCSCF        RUNTYP=ENERGY       EXETYP=RUN     
 MPLEVL=       0     CITYP =NONE         CCTYP =NONE         VBTYP =NONE    
 DFTTYP=NONE         TDDFT =NONE    
 MULT  =       1     ICHARG=       0     NZVAR =      15     COORD =UNIQUE  
 PP    =NONE         RELWFN=NONE         LOCAL =NONE         NUMGRD=       F
 ISPHER=       1     NOSYM =       0     MAXIT =      30     UNITS =BOHR    
 PLTORB=       F     MOLPLT=       F     AIMPAC=       F     FRIEND=        
 NPRINT=       7     IREST =       0     GEOM  =INPUT   
 NORMF =       0     NORMP =       0     ITOL  =      20     ICUT  =       9
 INTTYP=BEST         GRDTYP=BEST         QMTTOL= 1.0E-06

     $SYSTEM OPTIONS
     ---------------
  REPLICATED MEMORY=    15000000 WORDS (ON EVERY NODE).
 DISTRIBUTED MEMDDI=           5 MILLION WORDS IN AGGREGATE,
 MEMDDI DISTRIBUTED OVER   1 PROCESSORS IS     5000000 WORDS/PROCESSOR.
 TOTAL MEMORY REQUESTED ON EACH PROCESSOR=    20000000 WORDS.
 TIMLIM=      525600.00 MINUTES, OR     365.0 DAYS.
 PARALL= F  BALTYP=  DLB     KDIAG=    0  COREFL= F
 MXSEQ2=     300 MXSEQ3=     150  mem10=         0

          ----------------
          PROPERTIES INPUT
          ----------------

     MOMENTS            FIELD           POTENTIAL          DENSITY
 IEMOM =       1   IEFLD =       0   IEPOT =       0   IEDEN =       0
 WHERE =COMASS     WHERE =NUCLEI     WHERE =NUCLEI     WHERE =NUCLEI  
 OUTPUT=BOTH       OUTPUT=BOTH       OUTPUT=BOTH       OUTPUT=BOTH    
 IEMINT=       0   IEFINT=       0                     IEDINT=       0
                                                       MORB  =       0

     -------------------------------
     INTEGRAL TRANSFORMATION OPTIONS
     -------------------------------
     NWORD  =            0
     CUTOFF = 1.0E-09     MPTRAN =       0
     DIRTRF =       F     AOINTS =DUP     

          ----------------------
          MCSCF INPUT PARAMETERS
          ----------------------
 CONVERGER SELECTION: FOCAS = F  SOSCF = T  FULLNR = F  QUD = F  JACOBI = F
 SECULAR EQUATION METHOD CISTEP = GUGA    
 --- GENERAL INPUT OPTIONS:
 MAXIT =      60  MICIT =       5  ACURCY= 1.000E-05
 DAMP  =   0.000  CANONC=       T  ENGTOL= 1.000E-10
 EKT   =       F  NPUNCH=       2  NWORD =         0
 REGENERATE CI AFTER CONVERGENCE = NONE    
 DIABATIZATION AFTER CONVERGENCE =        T
 --- INPUT FOR SOSCF CONVERGER:
 FORS  =       T  NOFO  =       1

          ----------------------
          INTEGRAL INPUT OPTIONS
          ----------------------
 NOPK  =       1 NORDER=       0 SCHWRZ=       T

   --- ENCODED Z MATRIX ---
 COORD  TYPE   I   J   K   L   M   N
    1      1    1   2
    2      1    2   4
    3      2    1   2   4
    4      1    3   2
    5      2    3   2   4
    6      3    3   2   4   1
    7      1    5   3
    8      2    5   3   2
    9      3    5   3   2   1
   10      1    6   3
   11      2    6   3   2
   12      3    6   3   2   4
   13      1    7   3
   14      2    7   3   2
   15      3    7   3   2   4

 THE DETERMINANT OF THE G MATRIX IS 10**(   -15)


                     --------------------
                     INTERNAL COORDINATES
                     --------------------

                 - - ATOMS - -         COORDINATE      COORDINATE
 NO.   TYPE    I  J  K  L  M  N        (BOHR,RAD)       (ANG,DEG)
 ----------------------------------------------------------------
   1 STRETCH   1  2                     3.3627674       1.7795000
   2 STRETCH   2  4                     2.5401698       1.3442001
   3 BEND      1  2  4                  2.2340215     128.0000005
   4 STRETCH   3  2                     2.8207940       1.4927000
   5 BEND      3  2  4                  2.0367992     116.6999992
   6 TORSION   3  2  4  1               3.1415927     180.0000000
   7 STRETCH   5  3                     3.7683026       1.9941000
   8 BEND      5  3  2                  1.9216075     110.1000015
   9 TORSION   5  3  2  1               0.0000000       0.0000000
  10 STRETCH   6  3                     2.0409040       1.0800000
  11 BEND      6  3  2                  1.9373155     111.0000016
  12 TORSION   6  3  2  4               1.0471976      60.0000002
  13 STRETCH   7  3                     2.0409040       1.0800000
  14 BEND      7  3  2                  1.9373155     111.0000016
  15 TORSION   7  3  2  4              -1.0471976     -60.0000002

     ------------------------------------------
     THE POINT GROUP IS C1 , NAXIS= 0, ORDER= 1
     ------------------------------------------

 -- VARIATIONAL SPACE WILL BE RESTRICTED TO PURE SPHERICAL HARMONICS ONLY --
 AFTER EXCLUDING CONTAMINANT COMBINATIONS FROM THE CARTESIAN GAUSSIAN BASIS
 SET, THE NUMBER OF SPHERICAL HARMONICS KEPT IN THE VARIATION SPACE IS   98

     DIMENSIONS OF THE SYMMETRY SUBSPACES ARE
 A   =   98

 ..... DONE SETTING UP THE RUN .....
 STEP CPU TIME =     0.17 TOTAL CPU TIME =        0.2 (    0.0 MIN)
 TOTAL WALL CLOCK TIME=        0.2 SECONDS, CPU UTILIZATION IS 100.00%

          ********************
          1 ELECTRON INTEGRALS
          ********************
 TIME TO DO   DIPOLE INTEGRALS=      0.00
 ...... END OF ONE-ELECTRON INTEGRALS ......
 STEP CPU TIME =     0.00 TOTAL CPU TIME =        0.2 (    0.0 MIN)
 TOTAL WALL CLOCK TIME=        0.2 SECONDS, CPU UTILIZATION IS 100.00%

          -------------
          GUESS OPTIONS
          -------------
          GUESS =MOREAD            NORB  =      98          NORDER=       0
          MIX   =       F          PRTMO =       F          PUNMO =       F
          TOLZ  = 1.0E-08          TOLE  = 1.0E-05
          SYMDEN=       F          PURIFY=       F

 INITIAL GUESS ORBITALS GENERATED BY MOREAD   ROUTINE.

 STATISTICS FOR GENERATION OF SYMMETRY ORBITAL -Q- MATRIX
 NUMBER OF CARTESIAN ATOMIC ORBITALS=        104
 NUMBER OF SPHERICAL CONTAMINANTS DROPPED=     6
 NUMBER OF LINEARLY DEPENDENT MOS DROPPED=     0
 TOTAL NUMBER OF MOS IN VARIATION SPACE=      98

 SYMMETRIES FOR INITIAL GUESS ORBITALS FOLLOW.   BOTH SET(S).
    40 ORBITALS ARE OCCUPIED (   22 CORE ORBITALS).
     1=A        2=A        3=A        4=A        5=A        6=A        7=A   
     8=A        9=A       10=A       11=A       12=A       13=A       14=A   
    15=A       16=A       17=A       18=A       19=A       20=A       21=A   
    22=A       23=A       24=A       25=A       26=A       27=A       28=A   
    29=A       30=A       31=A       32=A       33=A       34=A       35=A   
    36=A       37=A       38=A       39=A       40=A       41=A       42=A   
    43=A       44=A       45=A       46=A       47=A       48=A       49=A   
    50=A       51=A       52=A       53=A       54=A       55=A       56=A   
    57=A       58=A       59=A       60=A       61=A       62=A       63=A   
    64=A       65=A       66=A       67=A       68=A       69=A       70=A   
    71=A       72=A       73=A       74=A       75=A       76=A       77=A   
    78=A       79=A       80=A       81=A       82=A       83=A       84=A   
    85=A       86=A       87=A       88=A       89=A       90=A       91=A   
    92=A       93=A       94=A       95=A       96=A       97=A       98=A   
 ...... END OF INITIAL ORBITAL SELECTION ......
 STEP CPU TIME =     0.02 TOTAL CPU TIME =        0.2 (    0.0 MIN)
 TOTAL WALL CLOCK TIME=        0.2 SECONDS, CPU UTILIZATION IS 100.00%

                    ----------------------
                    AO INTEGRAL TECHNOLOGY
                    ----------------------
     S,P,L SHELL ROTATED AXIS INTEGRALS, REPROGRAMMED BY
        KAZUYA ISHIMURA (IMS) AND JOSE SIERRA (SYNSTAR).
     S,P,D,L SHELL ROTATED AXIS INTEGRALS PROGRAMMED BY
        KAZUYA ISHIMURA (INSTITUTE FOR MOLECULAR SCIENCE).
     S,P,D,F,G SHELL TO TOTAL QUARTET ANGULAR MOMENTUM SUM 5,
        ERIC PROGRAM BY GRAHAM FLETCHER (ELORET AND NASA ADVANCED
        SUPERCOMPUTING DIVISION, AMES RESEARCH CENTER).
     S,P,D,F,G,L SHELL GENERAL RYS QUADRATURE PROGRAMMED BY
        MICHEL DUPUIS (PACIFIC NORTHWEST NATIONAL LABORATORY).

          --------------------
          2 ELECTRON INTEGRALS
          --------------------

 THE -PK- OPTION IS OFF, THE INTEGRALS ARE NOT IN SUPERMATRIX FORM.
 STORING   15000 INTEGRALS/RECORD ON DISK, USING 12 BYTES/INTEGRAL.
 TWO ELECTRON INTEGRAL EVALUATION REQUIRES   91026 WORDS OF MEMORY.
 SCHWARZ INEQUALITY OVERHEAD:      5304 INTEGRALS, T=        0.01
 II,JST,KST,LST =  1  1  1  1 NREC =         1 INTLOC =    1
 II,JST,KST,LST =  2  1  1  1 NREC =         1 INTLOC =    2
 II,JST,KST,LST =  3  1  1  1 NREC =         1 INTLOC =   34
 II,JST,KST,LST =  4  1  1  1 NREC =         1 INTLOC =  214
 II,JST,KST,LST =  5  1  1  1 NREC =         1 INTLOC =  776
 II,JST,KST,LST =  6  1  1  1 NREC =         1 INTLOC = 2864
 II,JST,KST,LST =  7  1  1  1 NREC =         1 INTLOC = 3958
 II,JST,KST,LST =  8  1  1  1 NREC =         1 INTLOC =10499
 II,JST,KST,LST =  9  1  1  1 NREC =         2 INTLOC = 6068
 II,JST,KST,LST = 10  1  1  1 NREC =         4 INTLOC =  923
 II,JST,KST,LST = 11  1  1  1 NREC =         4 INTLOC = 9594
 II,JST,KST,LST = 12  1  1  1 NREC =         8 INTLOC = 2888
 II,JST,KST,LST = 13  1  1  1 NREC =        13 INTLOC = 2408
 II,JST,KST,LST = 14  1  1  1 NREC =        22 INTLOC = 9563
 II,JST,KST,LST = 15  1  1  1 NREC =        24 INTLOC = 1681
 II,JST,KST,LST = 16  1  1  1 NREC =        32 INTLOC = 7322
 II,JST,KST,LST = 17  1  1  1 NREC =        44 INTLOC = 8137
 II,JST,KST,LST = 18  1  1  1 NREC =        65 INTLOC =11949
 II,JST,KST,LST = 19  1  1  1 NREC =        67 INTLOC = 2494
 II,JST,KST,LST = 20  1  1  1 NREC =        69 INTLOC =  940
 II,JST,KST,LST = 21  1  1  1 NREC =        71 INTLOC = 6676
 II,JST,KST,LST = 22  1  1  1 NREC =        74 INTLOC = 6428
 II,JST,KST,LST = 23  1  1  1 NREC =        79 INTLOC = 2900
 II,JST,KST,LST = 24  1  1  1 NREC =        84 INTLOC =14278
 II,JST,KST,LST = 25  1  1  1 NREC =        91 INTLOC = 6799
 II,JST,KST,LST = 26  1  1  1 NREC =       102 INTLOC = 7192
 II,JST,KST,LST = 27  1  1  1 NREC =       119 INTLOC =14955
 II,JST,KST,LST = 28  1  1  1 NREC =       142 INTLOC =11929
 II,JST,KST,LST = 29  1  1  1 NREC =       179 INTLOC = 7552
 II,JST,KST,LST = 30  1  1  1 NREC =       239 INTLOC = 4177
 II,JST,KST,LST = 31  1  1  1 NREC =       258 INTLOC =10123
 II,JST,KST,LST = 32  1  1  1 NREC =       283 INTLOC =  441
 II,JST,KST,LST = 33  1  1  1 NREC =       340 INTLOC =14646
 II,JST,KST,LST = 34  1  1  1 NREC =       363 INTLOC =11780
 II,JST,KST,LST = 35  1  1  1 NREC =       392 INTLOC = 2960
 SCHWARZ INEQUALITY TEST SKIPPED       55922 INTEGRAL BLOCKS.
 TOTAL NUMBER OF NONZERO TWO-ELECTRON INTEGRALS =             6887304
        460 INTEGRAL RECORDS WERE STORED ON DISK FILE  8.
  ...... END OF TWO-ELECTRON INTEGRALS .....
 STEP CPU TIME =     0.67 TOTAL CPU TIME =        0.9 (    0.0 MIN)
 TOTAL WALL CLOCK TIME=        0.9 SECONDS, CPU UTILIZATION IS  98.85%

          -----------------
          MCSCF CALCULATION
          -----------------

 ----- NUCLEAR ENERGY ----- =       386.4025322329

          -----------------------     ----------------------------
          GUGA DISTINCT ROW TABLE     WRITTEN BY B.R.BROOKS,P.SAXE
          -----------------------     ----------------------------

      GROUP=C1           NPRT=       0
       FORS=       T   INTACT=       F
       FOCI=       F   MXNINT=   50000
       SOCI=       F   MXNEME=   10000
     IEXCIT=       0

      -CORE-    -INTERNAL-  -EXTERNAL-
     NFZC=   0   NDOC=   8   NEXT=   0
     NMCC=  29   NAOS=   0   NFZV=   0
                 NBOS=   0
                 NALP=   0
                 NVAL=   3

 THE MAXIMUM ELECTRON EXCITATION WILL BE   6

 SYMMETRIES FOR THE  29 CORE,  11 ACTIVE,   0 EXTERNAL MO-S ARE
     CORE= A     A     A     A     A     A     A     A     A     A   
           A     A     A     A     A     A     A     A     A     A   
           A     A     A     A     A     A     A     A     A   
   ACTIVE= A     A     A     A     A     A     A     A     A     A   
           DOC   DOC   DOC   DOC   DOC   DOC   DOC   DOC   VAL   VAL 
   ACTIVE= A   
           VAL 

 MOLECULAR CHARGE          =    0
 NUMBER OF ALPHA ELECTRONS =   37
 NUMBER OF  BETA ELECTRONS =   37

 THE ELECTRONIC STATE IS  1-A   

 THE DISTINCT ROW TABLE HAS        80 ROWS.
  THE WAVEFUNCTION CONTAINS      9075 WALKS (CSF-S).

 TOTAL NUMBER OF INTEGRALS =       2607
 NUMBER OF INTEGRALS/GROUP =       2607
 NUMBER OF INTEGRAL GROUPS =          1
 MAXIMUM RECORD SIZES ARE    9075 FOR UNIT 11    9075 FOR UNIT 12
                            30001 FOR UNIT 15   30001 FOR UNIT 16
 ...... END OF -DRT- GENERATION ...... 
 STEP CPU TIME =     0.02 TOTAL CPU TIME =        0.9 (    0.0 MIN)
 TOTAL WALL CLOCK TIME=        0.9 SECONDS, CPU UTILIZATION IS  98.88%
 OPENING FILE DAFL30 WITH      81 LOGICAL RECORDS OF   10816 WORDS
 WITH A MAXIMUM OF         486 PHYSICAL RECORDS OF    2048 WORDS

          ------------------------------
          CASSCF INTEGRAL TRANSFORMATION
          ------------------------------
 AO INTEGRALS WILL BE READ IN FROM DISK...

 NUMBER OF CORE MOLECULAR ORBITALS     =    29
 NUMBER OF OCCUPIED MOLECULAR ORBITALS =    40
 TOTAL NUMBER OF MOLECULAR ORBITALS    =    98
 TOTAL NUMBER OF ATOMIC ORBITALS       =    98

 ----- CHOOSING THREE STEPS TRANSFORMATION -----
 NUMBER OF WORDS USED      =    6693901
 NUMBER OF WORDS AVAILABLE =   15000000
 NUMBER OF PASSES          =          1

 ----- NUCLEAR REPULSION ENERGY =    386.40253223
 ----- FROZEN CORE ENERGY       =  -3527.04223072

 ... SYMMETRY ...           CPU =    0.01
 ... (PQ|RS) -> (PQ|KL) ... CPU =    0.38
 ... (PQ|KL) -> (IJ|KL) ... CPU =    0.01

 NUMBER OF (PQ|KL) INTEGRALS WRITTEN     268367
 NUMBER OF (IJ|KL) INTEGRALS WRITTEN       2209
 ..... END OF CAS INTEGRAL TRANSFORMATION .....
 STEP CPU TIME =     0.40 TOTAL CPU TIME =        1.3 (    0.0 MIN)
 TOTAL WALL CLOCK TIME=        1.3 SECONDS, CPU UTILIZATION IS 100.00%

          ------------------------
          GUGA-CI INTEGRAL SORTING
          ------------------------

     80287 WORDS NEEDED TO SORT           2607 GUGA INTEGRALS IN MEMORY
  15000000 WORDS ARE AVAILABLE
 CHOOSING IN-MEMORY SORTING...
 IN CORE ALGORITHM SORTED             66 NON-ZERO 1E- INTEGRALS
 IN CORE ALGORITHM SORTED           2209 NON-ZERO 2E- INTEGRALS
 ...... END OF INTEGRAL SORTING ...... 
 STEP CPU TIME =     0.00 TOTAL CPU TIME =        1.3 (    0.0 MIN)
 TOTAL WALL CLOCK TIME=        1.3 SECONDS, CPU UTILIZATION IS 100.00%

 -------------------------     ---------------------------------------
 ENERGY MATRIX CALCULATION     WRITTEN BY B.R.BROOKS,W.D.LAIDIG,P.SAXE
 -------------------------     ---------------------------------------

 COMPUTING THE HAMILTONIAN FOR THE      9075 CSF-S...

     3909763 IS THE TOTAL NUMBER OF GENERATED LOOPS
     3909763 WERE CREATED BY THE LOOP-DRIVEN ALGORITHM
           0 WERE CREATED IMPLICITLY

     3739780 IS THE TOTAL NUMBER OF PROCESSED LOOPS
       77137     DIAGONAL LOOPS ARE STORED ON WORK15 IN     8 BUFFERS OF  10000 ELEMENTS.
     3662643 OFF DIAGONAL LOOPS ARE STORED ON WORK16 IN   367 BUFFERS OF  10000 ELEMENTS.
 ...... END OF ENERGY MATRIX CALCULATION ...... 
 STEP CPU TIME =     0.34 TOTAL CPU TIME =        1.6 (    0.0 MIN)
 TOTAL WALL CLOCK TIME=        1.6 SECONDS, CPU UTILIZATION IS  99.39%

          -----------------------------------------
          DAVIDSON METHOD CI-MATRIX DIAGONALIZATION
                   WRITTEN BY STEVE ELBERT
          -----------------------------------------
 NUMBER OF STATES REQUESTED =     6
 MAX. NUMB. OF EXPAN. VEC   =    30
 MAX. NUMB. IMPROVED STATES =     6
 MAX. NUMB. OF ITERATIONS   =    50
 CONVERGENCE CRITERION      =    1.0E-07

 CHOOSING OUT OF MEMORY STORAGE OF HAMILTONIAN,
 AND IN MEMORY STORAGE OF TRIAL VECTORS.

 NUMBER OF WORDS AVAILABLE =   15000000
 NUMBER OF WORDS USED      =     703606
 ENERGY MATRIX BUFFER SIZE =      10000

 ITER. NO.JUST IMPROVED    ENERGY AND STATE
   0  12(MAX.TOL.STATE)  -3180.741921569  1  -3180.620026724  2  -3180.503079511  3  -3180.497592290  4  -3180.488793703  5
                         -3180.466775982  6
   1  11  0.65028333 10  -3180.828537077  1  -3180.700407150  2  -3180.579565766  3  -3180.579017423  4  -3180.567361627  5
                         -3180.554802768  6
   2  10  0.99956572  7  -3180.844756430  1  -3180.718248078  2  -3180.606506767  3  -3180.601262825  4  -3180.599930658  5
                         -3180.594533577  6
   3   9  0.47066570  8  -3180.849835661  1  -3180.719703914  2  -3180.615341348  3  -3180.608538843  4  -3180.607979616  5
                         -3180.606725942  6
   4   8  0.99973648  7  -3180.850326883  1  -3180.719819027  2  -3180.617554288  3  -3180.610412437  4  -3180.609464483  5
                         -3180.607612687  6
   5   7  0.04382241  3  -3180.850442569  1  -3180.719825850  2  -3180.618703287  3  -3180.611442087  4  -3180.609766917  5
                         -3180.607864562  6
   6   6  0.02553034  3  -3180.850461448  1  -3180.719861472  2  -3180.619148168  3  -3180.611855162  4  -3180.609852577  5
                         -3180.608079184  6
   7   6  0.00833511  3  -3180.850463349  1  -3180.719867043  2  -3180.619210839  3  -3180.611910903  4  -3180.609866928  5
                         -3180.608121987  6
   8   6  0.00758774  3  -3180.850463849  1  -3180.719867281  2  -3180.619242227  3  -3180.611930539  4  -3180.609873513  5
                         -3180.608140268  6
   9   6  0.00545933  6  -3180.850463958  1  -3180.719868819  2  -3180.619255794  3  -3180.611937531  4  -3180.609876270  5
                         -3180.608154346  6
  10   6  0.00431122  6  -3180.850463975  1  -3180.719869487  2  -3180.619261415  3  -3180.611939908  4  -3180.609877603  5
                         -3180.608167120  6
  11   6  0.00196457  6  -3180.850463977  1  -3180.719869568  2  -3180.619262496  3  -3180.611940316  4  -3180.609877926  5
                         -3180.608170256  6
  12   6  0.00152054  6  -3180.850463977  1  -3180.719869583  2  -3180.619262964  3  -3180.611940523  4  -3180.609878104  5
                         -3180.608171447  6
  13   6  0.00113977  6  -3180.850463977  1  -3180.719869585  2  -3180.619263140  3  -3180.611940591  4  -3180.609878186  5
                         -3180.608172026  6
  14   6  0.00095549  6  -3180.850463977  1  -3180.719869590  2  -3180.619263204  3  -3180.611940623  4  -3180.609878215  5
                         -3180.608172499  6
  15   6  0.00037386  6  -3180.850463977  1  -3180.719869591  2  -3180.619263225  3  -3180.611940634  4  -3180.609878224  5
                         -3180.608172658  6
  16   6  0.00040867  6  -3180.850463977  1  -3180.719869591  2  -3180.619263237  3  -3180.611940639  4  -3180.609878229  5
                         -3180.608172728  6
  17   6  0.00028959  6  -3180.850463977  1  -3180.719869592  2  -3180.619263242  3  -3180.611940641  4  -3180.609878231  5
                         -3180.608172769  6
  18   6  0.00023820  6  -3180.850463977  1  -3180.719869592  2  -3180.619263244  3  -3180.611940642  4  -3180.609878232  5
                         -3180.608172803  6
  19   5  0.00012175  6  -3180.850463977  1  -3180.719869592  2  -3180.619263244  3  -3180.611940642  4  -3180.609878232  5
                         -3180.608172816  6
  20   5  0.00010184  6  -3180.850463977  1  -3180.719869592  2  -3180.619263245  3  -3180.611940643  4  -3180.609878232  5
                         -3180.608172821  6
  21   5  0.00007584  6  -3180.850463977  1  -3180.719869592  2  -3180.619263245  3  -3180.611940643  4  -3180.609878232  5
                         -3180.608172824  6
  22   5  0.00006492  6  -3180.850463977  1  -3180.719869592  2  -3180.619263245  3  -3180.611940643  4  -3180.609878232  5
                         -3180.608172827  6
  23   5  0.00002717  6  -3180.850463977  1  -3180.719869592  2  -3180.619263245  3  -3180.611940643  4  -3180.609878232  5
                         -3180.608172827  6
  24   5  0.00002626  6  -3180.850463977  1  -3180.719869592  2  -3180.619263245  3  -3180.611940643  4  -3180.609878232  5
                         -3180.608172828  6
  25   5  0.00001903  6  -3180.850463977  1  -3180.719869592  2  -3180.619263245  3  -3180.611940643  4  -3180.609878232  5
                         -3180.608172828  6
  26   5  0.00001511  6  -3180.850463977  1  -3180.719869592  2  -3180.619263245  3  -3180.611940643  4  -3180.609878232  5
                         -3180.608172828  6
  27   5  0.00000837  6  -3180.850463977  1  -3180.719869592  2  -3180.619263245  3  -3180.611940643  4  -3180.609878232  5
                         -3180.608172828  6
  28   5  0.00000690  6  -3180.850463977  1  -3180.719869592  2  -3180.619263245  3  -3180.611940643  4  -3180.609878232  5
                         -3180.608172828  6
  29   4  0.00000411  6  -3180.850463977  1  -3180.719869592  2  -3180.619263245  3  -3180.611940643  4  -3180.609878232  5
                         -3180.608172828  6
  30   4  0.00000587  6  -3180.850463977  1  -3180.719869592  2  -3180.619263245  3  -3180.611940643  4  -3180.609878232  5
                         -3180.608172828  6
  31   4  0.00000532  6  -3180.850463977  1  -3180.719869592  2  -3180.619263245  3  -3180.611940643  4  -3180.609878232  5
                         -3180.608172828  6
  32   4  0.00000142  6  -3180.850463977  1  -3180.719869592  2  -3180.619263245  3  -3180.611940643  4  -3180.609878232  5
                         -3180.608172828  6
  33   1  0.00000055  6  -3180.850463977  1  -3180.719869592  2  -3180.619263245  3  -3180.611940643  4  -3180.609878232  5
                         -3180.608172828  6
  34   1  0.00000057  6  -3180.850463977  1  -3180.719869592  2  -3180.619263245  3  -3180.611940643  4  -3180.609878232  5
                         -3180.608172828  6
  35   1  0.00000018  6  -3180.850463977  1  -3180.719869592  2  -3180.619263245  3  -3180.611940643  4  -3180.609878232  5
                         -3180.608172828  6
  36   1  0.00000009  6  -3180.850463977  1  -3180.719869592  2  -3180.619263245  3  -3180.611940643  4  -3180.609878232  5
                         -3180.608172828  6

 STATE #    1  ENERGY =   -3180.850463977

      CSF      COEF    OCCUPANCY (IGNORING CORE)
      ---      ----    --------- --------- -----
        1    0.914695  22222222000
        9   -0.065809  12222222001
       45   -0.067410  02222222002
       52   -0.089703  21222222010
      319   -0.106176  20222222020
      829    0.151605  22221222100
      831   -0.163119  22122222100
      847    0.081040  22221122101
      894   -0.054228  12122222101
     4147   -0.115023  22220222200
     4149    0.115604  22121222200
     4156   -0.090551  22022222200

 STATE #    2  ENERGY =   -3180.719869592

      CSF      COEF    OCCUPANCY (IGNORING CORE)
      ---      ----    --------- --------- -----
      826   -0.345724  22222221100
      828    0.859555  22222122100
      832    0.086871  21222222100
      833    0.091301  12222222100
      851    0.076735  12222122101
      877    0.060689  22222022101
      882    0.076458  12222122101
     1025    0.079808  02222122102
     1082    0.075177  21222122110
     1711    0.066283  22222022110
     2361    0.104432  20222122120
     4142   -0.154376  22221122200
     4144    0.140934  22122122200
     4151   -0.055161  12221222200

 STATE #    3  ENERGY =   -3180.619263245

      CSF      COEF    OCCUPANCY (IGNORING CORE)
      ---      ----    --------- --------- -----
        1    0.055297  22222222000
        4   -0.169588  22222122001
        6    0.093842  22212222001
       46    0.808171  22222221010
       48    0.083505  22222122010
       50   -0.196383  22212222010
      173    0.059980  02222221012
      292    0.125628  21222221020
      314   -0.059395  21212222020
      827    0.137449  22222212100
      829   -0.271155  22221222100
      847    0.052566  22221122101
     1068    0.117847  22221221110
     1070   -0.108322  22122221110
     1079    0.057643  22221122110
     1100   -0.057382  22221121111
     1699    0.067356  22221221110
     1701   -0.059313  22122221110
     4149   -0.070287  22121222200
     4707   -0.088882  22220221210
     4709    0.101809  22121221210
     4716   -0.085954  22022221210

 STATE #    4  ENERGY =   -3180.611940643

      CSF      COEF    OCCUPANCY (IGNORING CORE)
      ---      ----    --------- --------- -----
        1   -0.109510  22222222000
        2   -0.195011  22222221001
        4    0.346919  22222122001
       25    0.061016  22222022002
       46    0.269566  22222221010
       48    0.347963  22222122010
       50   -0.095931  22212222010
       97    0.063125  22222022011
      292    0.067565  21222221020
      447   -0.053862  20222122021
      827   -0.300492  22222212100
      829    0.593433  22221222100
      847   -0.127604  22221122101
      849   -0.086075  22122122101
      878   -0.087976  22221122101
     1068    0.074387  22221221110
     1073   -0.057081  22222112110
     1081   -0.054790  22122122110
     2381    0.066978  20221222120
     4149    0.155973  22121222200
     4284   -0.065380  22022122201
     4788   -0.050797  22022122210

 STATE #    5  ENERGY =   -3180.609878232

      CSF      COEF    OCCUPANCY (IGNORING CORE)
      ---      ----    --------- --------- -----
        3   -0.120094  22222212001
        5   -0.066678  22221222001
       47    0.860452  22222212010
       49    0.154308  22221222010
      215    0.066221  02222212012
      299    0.154566  21222212020
      826    0.176187  22222221100
      828    0.070516  22222122100
      830    0.110118  22212222100
     1074    0.141903  22221212110
     1076   -0.120827  22122212110
     1115   -0.068537  22221112111
     1706    0.062473  22221212110
     1708   -0.061037  22122212110
     4749   -0.109599  22220212210
     4751    0.113556  22121212210
     4758   -0.087794  22022212210

 STATE #    6  ENERGY =   -3180.608172828

      CSF      COEF    OCCUPANCY (IGNORING CORE)
      ---      ----    --------- --------- -----
       47   -0.219937  22222212010
      826    0.680067  22222221100
      828    0.276923  22222122100
      830    0.440308  22212222100
      835    0.117685  22222121101
      837    0.055473  22212221101
      848   -0.154865  22212122101
      864   -0.056057  22222121101
      869    0.051475  12222221101
      879   -0.088505  22212122101
     1067    0.182301  22222121110
     1696    0.060207  22222220110
     1698   -0.122092  22222121110
     2289    0.068819  20222221120
     2393    0.052173  20212222120
     4127   -0.051051  22222211200
     4129    0.133180  22221221200
     4148    0.098899  22211222200
 ...... END OF CI-MATRIX DIAGONALIZATION ......
 STEP CPU TIME =     3.78 TOTAL CPU TIME =        5.4 (    0.1 MIN)
 TOTAL WALL CLOCK TIME=        5.4 SECONDS, CPU UTILIZATION IS  99.82%

          -------------------------------------
          2-PARTICLE DENSITY MATRIX CALCULATION
          -------------------------------------
 2 BODY DENSITY IS AN AVERAGE OF  6 STATE(S).
   STATE    WEIGHT          ENERGY
     1    0.166667    -3180.8504639770
     2    0.166667    -3180.7198695919
     3    0.166667    -3180.6192632449
     4    0.166667    -3180.6119406428
     5    0.166667    -3180.6098782323
     6    0.166667    -3180.6081728282
      3909763 -DM2- LOOPS WERE GENERATED
      3909763 WERE CREATED BY THE LOOP-DRIVEN ALGORITHM
            0 WERE CREATED IMPLICITLY
          1 RECORDS OF LENGTH 50000 WRITTEN TO FILE 15
 ...... END OF 2-PARTICLE DENSITY MATRIX CALCULATION ......
 STEP CPU TIME =     0.37 TOTAL CPU TIME =        5.8 (    0.1 MIN)
 TOTAL WALL CLOCK TIME=        5.8 SECONDS, CPU UTILIZATION IS  99.83%

          ----------------------------------
          2-PARTICLE DENSITY MATRIX LABELING
          ----------------------------------
      97362 WORDS NEEDED TO LABEL DM2 MATRIX
          1 RECORDS OF LENGTH 50000  READ FROM FILE 15
          1 RECORDS OF LENGTH 15000 WRITTEN TO FILE 16
 ...... END OF 2-PARTICLE DENSITY MATRIX LABELING ......
 STEP CPU TIME =     0.01 TOTAL CPU TIME =        5.8 (    0.1 MIN)
 TOTAL WALL CLOCK TIME=        5.8 SECONDS, CPU UTILIZATION IS  99.83%

          --------------
          -DM2- ORDERING
          --------------
      32278 WORDS NEEDED (  15000000 AVAILABLE) TO ORDER DM2 IN MEMORY
 CHOOSING IN MEMORY ORDERING...
                               1 RECORDS OF LENGTH 15000  READ FROM FILE 16
       2202 DM2 VALUES IN      1 RECORDS OF LENGTH 15000 WRITTEN TO FILE 15
 ...... END OF -DM2- ORDERING ...... 
 STEP CPU TIME =     0.00 TOTAL CPU TIME =        5.8 (    0.1 MIN)
 TOTAL WALL CLOCK TIME=        5.8 SECONDS, CPU UTILIZATION IS  99.83%

          --------------------------------------
          APPROXIMATE SECOND-ORDER MCSCF PROGRAM
          --------------------------------------
          PROGRAM WRITTEN BY G.CHABAN, A.MARQUEZ, AND M.DUPUIS

  NUMBER OF WORDS NEEDED     =     463721
  NUMBER AVAILABLE           =   15000000

 ----- GAMMA(IJKL)*(PQ|KL) PRODUCTS ----- CPU TIME =      0.060
 ----- ORBITAL SYMMETRY             ----- CPU TIME =      0.000
 ----- FOCK OPERATORS CONSTRUCTION  ----- CPU TIME =      0.070
 ----- WARNING : CORE-ACTIVE GAP    =    0.12489
     MICIT =   1 ASYMM =    0.000002 ROTMAX =    0.000003
 ----- EFFECTIVE FOCK + ROTATE ORBS ----- CPU TIME =      0.010
 ..... DONE WITH CASSCF ORBITAL UPDATE .....
 STEP CPU TIME =     0.14 TOTAL CPU TIME =        5.9 (    0.1 MIN)
 TOTAL WALL CLOCK TIME=        5.9 SECONDS, CPU UTILIZATION IS 100.00%

 ITER     TOTAL ENERGY      DEL(E)  LAGRANGIAN ASYMMETRY   SQCDF  MICIT   DAMP
   1    -3180.669931420 -0.669931420  0.000002   39   29 2.693E-06  1   0.0000
       ----------START APPROXIMATE SECOND ORDER MCSCF----------
   2    -3180.669931420  0.000000000  0.000002   39   29 6.885E-10  1   0.0000

          --------------------
          LAGRANGIAN CONVERGED
          --------------------

 FINAL MCSCF ENERGY IS    -3180.6699314195 AFTER   2 ITERATIONS

 -MCCI- BASED ON OPTIMIZED ORBITALS
 ----------------------------------

 PLEASE NOTE: IF THE ACTIVE ORBITALS ARE CANONICALIZED BELOW,
 THE FOLLOWING CI EXPANSION COEFFICIENTS AND THE DENSITY DO NOT
 CORRESPOND TO THE PRINTED ORBITALS.  THE PRINTED EXPANSIONS MATCH
 THE ORBITALS USED DURING THE LAST ITERATION.  IF YOU WISH TO SEE
 CI EXPANSIONS BASED ON THE CANONICAL (OR NATURAL) ORBITALS, YOU
 MUST RUN A CI CALCULATION WITH THAT ORBITAL CHOICE READ IN $VEC.

 STATE #    1  ENERGY =   -3180.850463954

      CSF      COEF    OCCUPANCY (IGNORING CORE)
      ---      ----    --------- --------- -----
        1    0.914695  22222222000
        9   -0.065808  12222222001
       45   -0.067410  02222222002
       52   -0.089703  21222222010
      319   -0.106176  20222222020
      829    0.151605  22221222100
      831   -0.163119  22122222100
      847    0.081040  22221122101
      894   -0.054228  12122222101
     4147   -0.115023  22220222200
     4149    0.115605  22121222200
     4156   -0.090551  22022222200

 STATE #    2  ENERGY =   -3180.719869690

      CSF      COEF    OCCUPANCY (IGNORING CORE)
      ---      ----    --------- --------- -----
      826   -0.345723  22222221100
      828    0.859555  22222122100
      832    0.086870  21222222100
      833    0.091302  12222222100
      851    0.076735  12222122101
      877    0.060689  22222022101
      882    0.076458  12222122101
     1025    0.079808  02222122102
     1082    0.075177  21222122110
     1711    0.066283  22222022110
     2361    0.104432  20222122120
     4142   -0.154376  22221122200
     4144    0.140934  22122122200
     4151   -0.055161  12221222200

 STATE #    3  ENERGY =   -3180.619263245

      CSF      COEF    OCCUPANCY (IGNORING CORE)
      ---      ----    --------- --------- -----
        1    0.055297  22222222000
        4   -0.169588  22222122001
        6    0.093842  22212222001
       46    0.808171  22222221010
       48    0.083505  22222122010
       50   -0.196383  22212222010
      173    0.059980  02222221012
      292    0.125628  21222221020
      314   -0.059395  21212222020
      827    0.137448  22222212100
      829   -0.271154  22221222100
      847    0.052566  22221122101
     1068    0.117847  22221221110
     1070   -0.108322  22122221110
     1079    0.057643  22221122110
     1100   -0.057382  22221121111
     1699    0.067357  22221221110
     1701   -0.059313  22122221110
     4149   -0.070287  22121222200
     4707   -0.088882  22220221210
     4709    0.101809  22121221210
     4716   -0.085954  22022221210

 STATE #    4  ENERGY =   -3180.611940601

      CSF      COEF    OCCUPANCY (IGNORING CORE)
      ---      ----    --------- --------- -----
        1   -0.109510  22222222000
        2   -0.195011  22222221001
        4    0.346919  22222122001
       25    0.061016  22222022002
       46    0.269564  22222221010
       48    0.347963  22222122010
       50   -0.095930  22212222010
       97    0.063125  22222022011
      292    0.067565  21222221020
      447   -0.053862  20222122021
      827   -0.300492  22222212100
      829    0.593433  22221222100
      847   -0.127604  22221122101
      849   -0.086075  22122122101
      878   -0.087976  22221122101
     1068    0.074387  22221221110
     1073   -0.057081  22222112110
     1081   -0.054790  22122122110
     2381    0.066978  20221222120
     4149    0.155973  22121222200
     4284   -0.065381  22022122201
     4788   -0.050797  22022122210

 STATE #    5  ENERGY =   -3180.609878236

      CSF      COEF    OCCUPANCY (IGNORING CORE)
      ---      ----    --------- --------- -----
        3   -0.120094  22222212001
        5   -0.066678  22221222001
       47    0.860453  22222212010
       49    0.154308  22221222010
      215    0.066221  02222212012
      299    0.154566  21222212020
      826    0.176183  22222221100
      828    0.070514  22222122100
      830    0.110115  22212222100
     1074    0.141903  22221212110
     1076   -0.120827  22122212110
     1115   -0.068537  22221112111
     1706    0.062473  22221212110
     1708   -0.061037  22122212110
     4749   -0.109600  22220212210
     4751    0.113556  22121212210
     4758   -0.087794  22022212210

 STATE #    6  ENERGY =   -3180.608172791

      CSF      COEF    OCCUPANCY (IGNORING CORE)
      ---      ----    --------- --------- -----
       47   -0.219931  22222212010
      826    0.680069  22222221100
      828    0.276923  22222122100
      830    0.440308  22212222100
      835    0.117685  22222121101
      837    0.055473  22212221101
      848   -0.154865  22212122101
      864   -0.056057  22222121101
      869    0.051475  12222221101
      879   -0.088505  22212122101
     1067    0.182302  22222121110
     1696    0.060207  22222220110
     1698   -0.122093  22222121110
     2289    0.068819  20222221120
     2393    0.052173  20212222120
     4127   -0.051051  22222211200
     4129    0.133180  22221221200
     4148    0.098899  22211222200

 DENSITY MATRIX OVER ACTIVE MO-S

             1           2           3           4           5

    1    1.9666497
    2    0.0022259   1.9574381
    3   -0.0000005  -0.0000020   1.9445538
    4    0.0018684  -0.0010435   0.0000002   1.9395970
    5   -0.0000002   0.0000063   0.0358655  -0.0000001   1.8501176
    6    0.0224010  -0.0186651   0.0000046  -0.0124368  -0.0000002
    7    0.0000008  -0.0000028  -0.0095584  -0.0000003   0.0265548
    8   -0.0065279   0.0064095  -0.0000015  -0.0264928  -0.0000002
    9    0.0000001   0.0000067   0.0396875  -0.0000003  -0.0290575
   10    0.0078663   0.0031712   0.0000002   0.0035741  -0.0000000
   11    0.0219443  -0.0001330   0.0000003  -0.0007501   0.0000003

             6           7           8           9          10

    6    1.7412474
    7   -0.0000017   1.8132856
    8    0.0118040   0.0000002   1.7161990
    9    0.0000002   0.0067132   0.0000001   0.5581146
   10   -0.0365623  -0.0000009   0.0141290  -0.0000019   0.4039029
   11   -0.0401906  -0.0000010   0.0087070   0.0000005  -0.0037193

            11

   11    0.1088942

 FORMING THE "STANDARD FOCK OPERATOR" USING INTEGRALS FROM DISK...
    29 FILLED,   11 ACTIVE, AND   58 VIRTUAL ORBITALS  WILL BE CANONICALIZED

          ----------------------
          MCSCF NATURAL ORBITALS
          ----------------------

                      1          2          3          4          5
                 -489.8718  -104.8673   -64.4168   -58.5826   -58.5817
                     A          A          A          A          A   
    1  CL 1  S    0.000003   0.996532   0.000026  -0.000015  -0.000033
    2  CL 1  S    0.000009   0.012587   0.000063  -0.000018  -0.000109
    3  CL 1  X   -0.000006   0.000021  -0.000046  -0.000021   0.000021
    4  CL 1  Y   -0.000000   0.000000   0.000000   0.000000  -0.000000
    5  CL 1  Z    0.000001   0.000080   0.000005   0.000075  -0.000039
    6  CL 1  S    0.000126  -0.004118   0.000915  -0.000505  -0.001260
    7  CL 1  X    0.000041  -0.000111   0.000302   0.000054  -0.000279
    8  CL 1  Y   -0.000000   0.000000  -0.000000  -0.000000   0.000000
    9  CL 1  Z    0.000003  -0.000213   0.000019  -0.000479   0.000126
   10  CL 1  S   -0.000327   0.002704  -0.002389  -0.000237   0.003012
   11  CL 1  X   -0.000141   0.000195  -0.001027  -0.000289   0.001960
   12  CL 1  Y   -0.000000   0.000000  -0.000000  -0.000000  -0.000000
   13  CL 1  Z   -0.000156   0.000663  -0.001142  -0.000000   0.000776
   14  CL 1 XX   -0.000011   0.000005  -0.000080   0.000217   0.000289
   15  CL 1 YY    0.000024  -0.000043   0.000170  -0.000051  -0.000258
   16  CL 1 ZZ   -0.000012   0.000038  -0.000091  -0.000166  -0.000032
   17  CL 1 XY   -0.000000   0.000000  -0.000000  -0.000000  -0.000000
   18  CL 1 XZ   -0.000011  -0.000010  -0.000080  -0.000099   0.000201
   19  CL 1 YZ   -0.000000   0.000000  -0.000000  -0.000000   0.000000
   20  C  2  S   -0.000004  -0.000000  -0.000030  -0.000108   0.000027
   21  C  2  S   -0.000009   0.000089  -0.000071  -0.001248   0.000188
   22  C  2  X    0.000010  -0.000024   0.000071  -0.000162  -0.000021
   23  C  2  Y   -0.000000   0.000000  -0.000000  -0.000000   0.000000
   24  C  2  Z    0.000010  -0.000046   0.000071   0.000237   0.000007
   25  C  2  S    0.000266  -0.000901   0.001944   0.004176  -0.002725
   26  C  2  X    0.000008   0.000440   0.000061   0.004851  -0.001028
   27  C  2  Y   -0.000000   0.000000  -0.000000   0.000000   0.000000
   28  C  2  Z   -0.000127   0.000143  -0.000934  -0.001458   0.000021
   29  C  2 XX    0.000004  -0.000107   0.000028   0.000160   0.000078
   30  C  2 YY   -0.000004  -0.000062  -0.000033  -0.000171   0.000020
   31  C  2 ZZ    0.000001   0.000169   0.000005   0.000010  -0.000098
   32  C  2 XY   -0.000000   0.000000   0.000000   0.000000  -0.000000
   33  C  2 XZ   -0.000014   0.000053  -0.000101   0.000044  -0.000093
   34  C  2 YZ   -0.000000   0.000000  -0.000000   0.000000   0.000000
   35  C  3  S    0.000014   0.000004   0.000104   0.000287  -0.000070
   36  C  3  S    0.000110   0.000099   0.000813   0.002488  -0.000457
   37  C  3  X    0.000007   0.000001   0.000042   0.000219   0.000146
   38  C  3  Y   -0.000000   0.000000   0.000000  -0.000000   0.000000
   39  C  3  Z   -0.000003  -0.000047  -0.000015  -0.000060  -0.000070
   40  C  3  S   -0.000506  -0.000157  -0.003719  -0.006874   0.003030
   41  C  3  X   -0.000237   0.000075  -0.001745   0.000467  -0.001414
   42  C  3  Y   -0.000000   0.000000   0.000000  -0.000000  -0.000000
   43  C  3  Z    0.000300   0.000137   0.002208   0.003039  -0.001005
   44  C  3 XX    0.000004  -0.000004   0.000019  -0.000492  -0.000006
   45  C  3 YY    0.000004   0.000011   0.000039   0.000896  -0.000004
   46  C  3 ZZ   -0.000007  -0.000006  -0.000058  -0.000404   0.000011
   47  C  3 XY   -0.000000   0.000000  -0.000000   0.000000   0.000000
   48  C  3 XZ    0.000007  -0.000008   0.000072   0.001005  -0.000023
   49  C  3 YZ   -0.000000   0.000000   0.000000   0.000000  -0.000000
   50  O  4  S    0.000002  -0.000007   0.000011  -0.000024   0.000001
   51  O  4  S    0.000029  -0.000075   0.000211  -0.000450   0.000006
   52  O  4  X    0.000004  -0.000003   0.000031   0.000048   0.000012
   53  O  4  Y   -0.000000   0.000000  -0.000000  -0.000000   0.000000
   54  O  4  Z   -0.000001  -0.000022  -0.000005   0.000107   0.000017
   55  O  4  S   -0.000076   0.000452  -0.000547   0.002306   0.000005
   56  O  4  X   -0.000040   0.000135  -0.000292   0.000155   0.000020
   57  O  4  Y   -0.000000   0.000000  -0.000000   0.000000   0.000000
   58  O  4  Z    0.000031  -0.000125   0.000225  -0.000845  -0.000029
   59  O  4 XX   -0.000006  -0.000020  -0.000042  -0.000091  -0.000007
   60  O  4 YY    0.000008   0.000004   0.000061  -0.000002   0.000026
   61  O  4 ZZ   -0.000003   0.000016  -0.000019   0.000093  -0.000019
   62  O  4 XY   -0.000000   0.000000  -0.000000   0.000000   0.000000
   63  O  4 XZ    0.000008  -0.000040   0.000057  -0.000034  -0.000002
   64  O  4 YZ   -0.000000   0.000000   0.000000   0.000000  -0.000000
   65  BR 5  S    0.992361   0.000004  -0.442631  -0.000271   0.000022
   66  BR 5  S    0.022319  -0.000028   1.080803   0.000597  -0.000117
   67  BR 5  S   -0.012214   0.000121  -0.015745   0.000540   0.000450
   68  BR 5  S    0.006816  -0.000199   0.042629  -0.000884  -0.000738
   69  BR 5  S   -0.002458   0.000433  -0.017388   0.000997   0.001592
   70  BR 5  S    0.001561  -0.000512   0.011271   0.000533  -0.002038
   71  BR 5  X    0.000001  -0.000004  -0.000414   0.713365   0.666962
   72  BR 5  Y   -0.000000  -0.000000  -0.000000   0.000000   0.000003
   73  BR 5  Z    0.000002  -0.000001   0.000429  -0.666933   0.713424
   74  BR 5  X   -0.000013   0.000018  -0.000151   0.045737   0.042626
   75  BR 5  Y   -0.000000   0.000000   0.000000   0.000000   0.000000
   76  BR 5  Z    0.000001   0.000005   0.000068  -0.042715   0.045545
   77  BR 5  X    0.000087  -0.000134   0.000650  -0.013839  -0.012632
   78  BR 5  Y   -0.000000   0.000000  -0.000000  -0.000000  -0.000000
   79  BR 5  Z   -0.000025  -0.000035  -0.000203   0.012689  -0.013162
   80  BR 5  X   -0.000395   0.000384  -0.002901   0.005637   0.006845
   81  BR 5  Y   -0.000000   0.000000  -0.000000   0.000000   0.000000
   82  BR 5  Z    0.000245   0.000123   0.001811  -0.004890   0.005967
   83  BR 5 XX   -0.000009   0.000019  -0.000059   0.000019   0.000067
   84  BR 5 YY    0.000011  -0.000013   0.000075   0.000006  -0.000048
   85  BR 5 ZZ   -0.000003  -0.000007  -0.000016  -0.000025  -0.000019
   86  BR 5 XY   -0.000000   0.000000  -0.000000  -0.000000  -0.000000
   87  BR 5 XZ    0.000012   0.000011   0.000077   0.000065   0.000024
   88  BR 5 YZ   -0.000000   0.000000  -0.000000   0.000000  -0.000000
   89  BR 5 XX    0.000070  -0.000135   0.000513  -0.000043  -0.000668
   90  BR 5 YY   -0.000096   0.000087  -0.000709  -0.000105   0.000335
   91  BR 5 ZZ    0.000026   0.000048   0.000196   0.000148   0.000334
   92  BR 5 XY   -0.000000   0.000000  -0.000000  -0.000000  -0.000000
   93  BR 5 XZ   -0.000115  -0.000086  -0.000852  -0.000535  -0.000112
   94  BR 5 YZ   -0.000000   0.000000  -0.000000   0.000000   0.000000
   95  H  6  S    0.000041  -0.000002   0.000296  -0.000179  -0.000004
   96  H  6  S   -0.000061  -0.000016  -0.000440   0.001030  -0.000476
   97  H  6  X    0.000011  -0.000004   0.000080   0.000240   0.000006
   98  H  6  Y   -0.000007  -0.000010  -0.000056  -0.000251  -0.000012
   99  H  6  Z   -0.000007  -0.000011  -0.000053  -0.000250   0.000130
  100  H  7  S    0.000041  -0.000002   0.000296  -0.000179  -0.000004
  101  H  7  S   -0.000061  -0.000016  -0.000440   0.001030  -0.000476
  102  H  7  X    0.000011  -0.000004   0.000080   0.000240   0.000006
  103  H  7  Y    0.000007   0.000010   0.000056   0.000251   0.000012
  104  H  7  Z   -0.000007  -0.000011  -0.000053  -0.000250   0.000130

                      6          7          8          9         10
                  -58.5815   -20.6216   -11.3552   -11.2880   -10.6068
                     A          A          A          A          A   
    1  CL 1  S    0.000000   0.000003  -0.000072  -0.000001  -0.286831
    2  CL 1  S    0.000000   0.000013   0.000180  -0.000023   1.031179
    3  CL 1  X    0.000000  -0.000036  -0.000092  -0.000014   0.000049
    4  CL 1  Y   -0.000048  -0.000000  -0.000000   0.000000   0.000000
    5  CL 1  Z   -0.000000  -0.000023   0.000581  -0.000014   0.003051
    6  CL 1  S    0.000000   0.000140  -0.000294  -0.000216   0.023000
    7  CL 1  X    0.000000   0.000149   0.000254   0.000016   0.000248
    8  CL 1  Y    0.000261   0.000000   0.000000  -0.000000  -0.000000
    9  CL 1  Z    0.000000   0.000139  -0.001114  -0.000096   0.002413
   10  CL 1  S   -0.000000   0.000708   0.004069   0.000040  -0.007993
   11  CL 1  X   -0.000000   0.000477   0.000403  -0.000196  -0.000522
   12  CL 1  Y   -0.000662   0.000000  -0.000000  -0.000000  -0.000000
   13  CL 1  Z   -0.000000   0.000401   0.001851   0.000213  -0.001302
   14  CL 1 XX   -0.000000  -0.000011   0.000092   0.000036  -0.000214
   15  CL 1 YY    0.000000  -0.000005   0.000155  -0.000016  -0.000126
   16  CL 1 ZZ    0.000000   0.000015  -0.000247  -0.000020   0.000340
   17  CL 1 XY   -0.000105   0.000000  -0.000000  -0.000000   0.000000
   18  CL 1 XZ   -0.000000   0.000278   0.000140  -0.000042   0.000021
   19  CL 1 YZ   -0.000048   0.000000  -0.000000  -0.000000   0.000000
   20  C  2  S   -0.000000   0.000044   0.996483  -0.005061  -0.000461
   21  C  2  S    0.000000   0.000256   0.023646  -0.000638   0.000166
   22  C  2  X   -0.000000  -0.000272  -0.000296  -0.000005  -0.000135
   23  C  2  Y    0.000031   0.000000  -0.000000   0.000000  -0.000000
   24  C  2  Z   -0.000000   0.000095   0.000673  -0.000069  -0.000592
   25  C  2  S    0.000000   0.004956  -0.011413   0.005085   0.002685
   26  C  2  X    0.000000  -0.003810  -0.003005   0.002774  -0.001067
   27  C  2  Y    0.000217   0.000000   0.000000   0.000000   0.000000
   28  C  2  Z    0.000000   0.003866   0.003673   0.000806  -0.000405
   29  C  2 XX   -0.000000   0.000041   0.000505  -0.000293   0.000207
   30  C  2 YY   -0.000000  -0.000070  -0.000419   0.000182   0.000166
   31  C  2 ZZ    0.000000   0.000030  -0.000087   0.000111  -0.000373
   32  C  2 XY    0.000009   0.000000   0.000000   0.000000  -0.000000
   33  C  2 XZ    0.000000   0.000075  -0.000537  -0.000272  -0.000108
   34  C  2 YZ    0.000046   0.000000   0.000000   0.000000   0.000000
   35  C  3  S    0.000000  -0.000001   0.004818   0.996344   0.000044
   36  C  3  S    0.000000  -0.000268  -0.000255   0.026137  -0.000298
   37  C  3  X   -0.000000   0.000162   0.000017  -0.000455   0.000147
   38  C  3  Y    0.000162   0.000000   0.000000   0.000000  -0.000000
   39  C  3  Z    0.000000   0.000005   0.000038   0.000250   0.000182
   40  C  3  S   -0.000000   0.000254   0.002992  -0.018872   0.000167
   41  C  3  X    0.000000   0.000369  -0.001047   0.000697   0.000021
   42  C  3  Y   -0.000853   0.000000   0.000000   0.000000  -0.000000
   43  C  3  Z    0.000000  -0.000589  -0.002113   0.001675  -0.000307
   44  C  3 XX    0.000000  -0.000224  -0.000337  -0.000309  -0.000023
   45  C  3 YY   -0.000000   0.000019   0.000193   0.000415  -0.000023
   46  C  3 ZZ    0.000000   0.000206   0.000144  -0.000106   0.000046
   47  C  3 XY    0.000043   0.000000  -0.000000  -0.000000   0.000000
   48  C  3 XZ   -0.000000   0.000088  -0.000162   0.000355   0.000042
   49  C  3 YZ    0.000033   0.000000   0.000000   0.000000  -0.000000
   50  O  4  S    0.000000   0.995936  -0.000129   0.000009   0.000039
   51  O  4  S    0.000000   0.022442   0.000686  -0.000267   0.000097
   52  O  4  X   -0.000000   0.001337   0.000317  -0.000080  -0.000124
   53  O  4  Y   -0.000030   0.000000  -0.000000   0.000000   0.000000
   54  O  4  Z   -0.000000  -0.001078   0.000251   0.000140  -0.000092
   55  O  4  S   -0.000000  -0.011877  -0.002211   0.000367  -0.001162
   56  O  4  X   -0.000000  -0.003338  -0.001270   0.000039  -0.000435
   57  O  4  Y    0.000043   0.000000  -0.000000   0.000000   0.000000
   58  O  4  Z    0.000000   0.002474   0.001057  -0.000102   0.000170
   59  O  4 XX    0.000000  -0.000165  -0.000323   0.000047   0.000010
   60  O  4 YY   -0.000000   0.000173   0.000445  -0.000099  -0.000022
   61  O  4 ZZ   -0.000000  -0.000008  -0.000122   0.000052   0.000012
   62  O  4 XY    0.000006  -0.000000  -0.000000  -0.000000   0.000000
   63  O  4 XZ    0.000000   0.000379   0.000626   0.000055   0.000061
   64  O  4 YZ    0.000015   0.000000  -0.000000   0.000000  -0.000000
   65  BR 5  S   -0.000000  -0.000002  -0.000002  -0.000001  -0.000004
   66  BR 5  S    0.000000   0.000016   0.000009   0.000016   0.000028
   67  BR 5  S   -0.000000  -0.000083  -0.000030  -0.000128  -0.000174
   68  BR 5  S    0.000000   0.000150   0.000044   0.000217   0.000357
   69  BR 5  S   -0.000000  -0.000343  -0.000010  -0.000985  -0.000969
   70  BR 5  S    0.000000   0.000240  -0.000486   0.003392   0.001154
   71  BR 5  X   -0.000002   0.000008  -0.000016   0.000068   0.000014
   72  BR 5  Y    0.976667  -0.000000  -0.000000  -0.000000   0.000000
   73  BR 5  Z   -0.000002  -0.000008  -0.000008  -0.000077   0.000002
   74  BR 5  X   -0.000000  -0.000027   0.000045  -0.000200  -0.000047
   75  BR 5  Y    0.062262   0.000000   0.000000   0.000000  -0.000000
   76  BR 5  Z   -0.000000   0.000025   0.000027   0.000229  -0.000006
   77  BR 5  X    0.000000   0.000169   0.000043   0.000143   0.000314
   78  BR 5  Y   -0.017642  -0.000000  -0.000000  -0.000000   0.000000
   79  BR 5  Z    0.000000  -0.000115  -0.000136  -0.000181   0.000073
   80  BR 5  X   -0.000000  -0.000320   0.000019  -0.001255  -0.000885
   81  BR 5  Y    0.007684  -0.000000  -0.000000  -0.000000   0.000000
   82  BR 5  Z   -0.000000   0.000048  -0.000059   0.000925  -0.000365
   83  BR 5 XX   -0.000000  -0.000031  -0.000029   0.000011  -0.000042
   84  BR 5 YY   -0.000000   0.000013   0.000013  -0.000034   0.000027
   85  BR 5 ZZ    0.000000   0.000018   0.000016   0.000022   0.000015
   86  BR 5 XY    0.000007   0.000000  -0.000000   0.000000  -0.000000
   87  BR 5 XZ   -0.000000   0.000009   0.000004  -0.000045  -0.000029
   88  BR 5 YZ   -0.000002  -0.000000  -0.000000  -0.000000   0.000000
   89  BR 5 XX    0.000000   0.000223   0.000129   0.000160   0.000314
   90  BR 5 YY   -0.000000  -0.000079  -0.000028  -0.000154  -0.000192
   91  BR 5 ZZ   -0.000000  -0.000144  -0.000101  -0.000006  -0.000122
   92  BR 5 XY   -0.000207  -0.000000  -0.000000  -0.000000   0.000000
   93  BR 5 XZ    0.000000  -0.000040   0.000069  -0.000362   0.000229
   94  BR 5 YZ    0.000178   0.000000   0.000000   0.000000  -0.000000
   95  H  6  S   -0.000230  -0.000004  -0.000179  -0.000028   0.000030
   96  H  6  S    0.000460  -0.000159   0.000536   0.002931   0.000106
   97  H  6  X    0.000126   0.000070  -0.000044   0.000024   0.000009
   98  H  6  Y    0.000072  -0.000014   0.000048  -0.000378   0.000023
   99  H  6  Z   -0.000135   0.000058   0.000042   0.000178   0.000029
  100  H  7  S    0.000230  -0.000004  -0.000179  -0.000028   0.000029
  101  H  7  S   -0.000460  -0.000159   0.000536   0.002931   0.000106
  102  H  7  X   -0.000126   0.000070  -0.000044   0.000024   0.000009
  103  H  7  Y    0.000072   0.000014  -0.000048   0.000378  -0.000023
  104  H  7  Z    0.000135   0.000058   0.000042   0.000178   0.000029

                     11         12         13         14         15
                   -9.6954    -8.0742    -8.0715    -8.0713    -7.5080
                     A          A          A          A          A   
    1  CL 1  S    0.000038   0.001176   0.000022   0.000000   0.000009
    2  CL 1  S    0.000073  -0.004366   0.000011  -0.000000  -0.000008
    3  CL 1  X   -0.000030   0.021382   0.992825  -0.000008   0.000038
    4  CL 1  Y   -0.000000   0.000000   0.000008   0.992990  -0.000000
    5  CL 1  Z    0.000006   0.991521  -0.021248  -0.000000  -0.000039
    6  CL 1  S    0.001251   0.001210   0.000603  -0.000000   0.000226
    7  CL 1  X    0.000324   0.000340   0.021870  -0.000000  -0.000101
    8  CL 1  Y    0.000000   0.000000   0.000000   0.021903   0.000000
    9  CL 1  Z    0.000027   0.025638  -0.000625   0.000000   0.000190
   10  CL 1  S   -0.003188   0.000963  -0.001245   0.000000   0.000099
   11  CL 1  X   -0.001442  -0.000016  -0.004760   0.000000   0.000111
   12  CL 1  Y   -0.000000  -0.000000  -0.000000  -0.004152   0.000000
   13  CL 1  Z   -0.001470  -0.003472  -0.000587   0.000000  -0.000020
   14  CL 1 XX   -0.000136  -0.000605   0.000048  -0.000000  -0.000094
   15  CL 1 YY    0.000219  -0.000575   0.000070   0.000000   0.000021
   16  CL 1 ZZ   -0.000083   0.001181  -0.000119   0.000000   0.000073
   17  CL 1 XY   -0.000000   0.000000   0.000000   0.000025   0.000000
   18  CL 1 XZ   -0.000111   0.000084   0.000323  -0.000000   0.000023
   19  CL 1 YZ   -0.000000   0.000000   0.000000   0.000288   0.000000
   20  C  2  S   -0.000041  -0.000375   0.000044  -0.000000   0.000009
   21  C  2  S    0.000011   0.001151   0.000005   0.000000   0.000548
   22  C  2  X    0.000152  -0.000314  -0.000103   0.000000   0.000185
   23  C  2  Y   -0.000000  -0.000000  -0.000000   0.000037   0.000000
   24  C  2  Z    0.000091  -0.001158   0.000140  -0.000000  -0.000048
   25  C  2  S    0.002037   0.000274   0.000393  -0.000000  -0.001555
   26  C  2  X   -0.000116  -0.001414  -0.000498   0.000000  -0.001904
   27  C  2  Y   -0.000000   0.000000   0.000000   0.000616   0.000000
   28  C  2  Z   -0.001260   0.003065  -0.000472   0.000000   0.000579
   29  C  2 XX    0.000006   0.000341   0.000017  -0.000000  -0.000090
   30  C  2 YY   -0.000013   0.000478  -0.000030   0.000000   0.000066
   31  C  2 ZZ    0.000007  -0.000818   0.000013   0.000000   0.000024
   32  C  2 XY    0.000000  -0.000000  -0.000000  -0.000022   0.000000
   33  C  2 XZ   -0.000075  -0.000079   0.000140  -0.000000   0.000012
   34  C  2 YZ   -0.000000   0.000000   0.000000   0.000190   0.000000
   35  C  3  S    0.000159   0.000039  -0.000015  -0.000000   0.000019
   36  C  3  S    0.000716  -0.000589  -0.000198   0.000000  -0.001131
   37  C  3  X   -0.000078   0.000257   0.000019   0.000000  -0.000579
   38  C  3  Y    0.000000  -0.000000  -0.000000  -0.000001   0.000000
   39  C  3  Z    0.000103   0.000263   0.000021  -0.000000   0.000532
   40  C  3  S   -0.003983   0.000630   0.000778  -0.000000   0.002644
   41  C  3  X   -0.002313   0.000804  -0.000067   0.000000  -0.000419
   42  C  3  Y    0.000000  -0.000000   0.000000   0.000124   0.000000
   43  C  3  Z    0.002679  -0.001670  -0.000147   0.000000  -0.000953
   44  C  3 XX    0.000097  -0.000161  -0.000057   0.000000   0.000153
   45  C  3 YY   -0.000078  -0.000057  -0.000008   0.000000  -0.000279
   46  C  3 ZZ   -0.000019   0.000217   0.000065  -0.000000   0.000125
   47  C  3 XY    0.000000   0.000000   0.000000   0.000013   0.000000
   48  C  3 XZ   -0.000101   0.000113   0.000030  -0.000000  -0.000295
   49  C  3 YZ    0.000000  -0.000000   0.000000  -0.000002   0.000000
   50  O  4  S    0.000018   0.000056   0.000000   0.000000   0.000025
   51  O  4  S    0.000207   0.000065   0.000333  -0.000000   0.000123
   52  O  4  X    0.000013  -0.000108   0.000071  -0.000000  -0.000077
   53  O  4  Y   -0.000000   0.000000  -0.000000   0.000055  -0.000000
   54  O  4  Z    0.000021  -0.000051  -0.000196   0.000000   0.000045
   55  O  4  S   -0.000588  -0.001796  -0.000699   0.000000  -0.000948
   56  O  4  X   -0.000293  -0.000806   0.000050  -0.000000  -0.000116
   57  O  4  Y   -0.000000   0.000000  -0.000000  -0.000025  -0.000000
   58  O  4  Z    0.000309  -0.000357   0.000552  -0.000000   0.000379
   59  O  4 XX   -0.000029  -0.000090   0.000086  -0.000000   0.000034
   60  O  4 YY    0.000063  -0.000077   0.000052  -0.000000   0.000000
   61  O  4 ZZ   -0.000034   0.000167  -0.000137   0.000000  -0.000034
   62  O  4 XY   -0.000000   0.000000  -0.000000  -0.000051  -0.000000
   63  O  4 XZ    0.000053  -0.000027   0.000032  -0.000000   0.000012
   64  O  4 YZ    0.000000   0.000000   0.000000  -0.000013   0.000000
   65  BR 5  S   -0.191835   0.000003   0.000005   0.000000   0.000823
   66  BR 5  S    0.824131  -0.000018  -0.000018  -0.000000  -0.003641
   67  BR 5  S   -0.502505   0.000048  -0.000058   0.000000   0.002750
   68  BR 5  S   -0.759672  -0.000052   0.000229   0.000000   0.002930
   69  BR 5  S   -0.050788   0.000240  -0.000749  -0.000000  -0.000804
   70  BR 5  S    0.018249  -0.000881   0.001028  -0.000000   0.000009
   71  BR 5  X   -0.001098   0.000008  -0.000039  -0.000000  -0.314441
   72  BR 5  Y   -0.000000   0.000000  -0.000000   0.000010  -0.000000
   73  BR 5  Z    0.001100  -0.000009  -0.000024   0.000000   0.298253
   74  BR 5  X    0.002558  -0.000026   0.000117   0.000000   0.769935
   75  BR 5  Y    0.000000  -0.000000   0.000000  -0.000025   0.000000
   76  BR 5  Z   -0.002597   0.000033   0.000070  -0.000000  -0.730302
   77  BR 5  X    0.001513   0.000098  -0.000140  -0.000000   0.015737
   78  BR 5  Y    0.000000   0.000000  -0.000000  -0.000082   0.000000
   79  BR 5  Z   -0.000826  -0.000208  -0.000009   0.000000  -0.014823
   80  BR 5  X   -0.003567   0.000311  -0.000730   0.000000  -0.002213
   81  BR 5  Y    0.000000   0.000000   0.000000   0.000383  -0.000000
   82  BR 5  Z    0.002069  -0.000226  -0.000676   0.000000   0.001962
   83  BR 5 XX   -0.000327  -0.000016  -0.000020   0.000000  -0.000592
   84  BR 5 YY    0.000548  -0.000006   0.000015  -0.000000   0.001035
   85  BR 5 ZZ   -0.000222   0.000022   0.000005   0.000000  -0.000444
   86  BR 5 XY   -0.000000   0.000000   0.000000   0.000028  -0.000000
   87  BR 5 XZ    0.000730  -0.000009  -0.000043   0.000000   0.001759
   88  BR 5 YZ    0.000000   0.000000   0.000000   0.000012   0.000000
   89  BR 5 XX    0.000597   0.000116   0.000208  -0.000000  -0.000044
   90  BR 5 YY   -0.000802   0.000079  -0.000137   0.000000   0.000115
   91  BR 5 ZZ    0.000204  -0.000194  -0.000071   0.000000  -0.000071
   92  BR 5 XY   -0.000000   0.000000  -0.000000  -0.000166  -0.000000
   93  BR 5 XZ   -0.000872   0.000187   0.000346  -0.000000   0.000323
   94  BR 5 YZ    0.000000  -0.000000  -0.000000  -0.000081   0.000000
   95  H  6  S    0.000402   0.000054  -0.000033  -0.000011   0.000121
   96  H  6  S   -0.000682   0.000324   0.000007   0.000140  -0.000382
   97  H  6  X    0.000058   0.000006  -0.000007  -0.000008  -0.000104
   98  H  6  Y   -0.000039   0.000057  -0.000003  -0.000001   0.000075
   99  H  6  Z   -0.000039   0.000108   0.000009  -0.000016   0.000117
  100  H  7  S    0.000402   0.000054  -0.000033   0.000011   0.000121
  101  H  7  S   -0.000682   0.000324   0.000007  -0.000140  -0.000382
  102  H  7  X    0.000058   0.000006  -0.000007   0.000008  -0.000104
  103  H  7  Y    0.000039  -0.000057   0.000003  -0.000001  -0.000075
  104  H  7  Z   -0.000039   0.000108   0.000009   0.000016   0.000117

                     16         17         18         19         20
                   -7.5031    -7.5026    -3.2506    -3.2482    -3.2477
                     A          A          A          A          A   
    1  CL 1  S    0.000019  -0.000000   0.000007  -0.000006   0.000000
    2  CL 1  S    0.000015   0.000000   0.000014   0.000010  -0.000000
    3  CL 1  X    0.000187   0.000000  -0.000072  -0.000162   0.000000
    4  CL 1  Y    0.000000  -0.000033  -0.000000   0.000000   0.000059
    5  CL 1  Z    0.000048   0.000000  -0.000012  -0.000013   0.000000
    6  CL 1  S    0.000559  -0.000000   0.000209  -0.000145   0.000000
    7  CL 1  X   -0.000447  -0.000000   0.000203   0.000358  -0.000000
    8  CL 1  Y   -0.000000   0.000060   0.000000  -0.000000  -0.000148
    9  CL 1  Z   -0.000127  -0.000000  -0.000040   0.000011  -0.000000
   10  CL 1  S   -0.001168   0.000000  -0.001090   0.000038   0.000000
   11  CL 1  X   -0.001056  -0.000000  -0.000318   0.000441  -0.000000
[...]
                         -3180.608172690  6
  29   4  0.00000105  4  -3180.850463891  1  -3180.719870021  2  -3180.619263228  3  -3180.611940469  4  -3180.609878220  5
                         -3180.608172690  6
  30   4  0.00000101  4  -3180.850463891  1  -3180.719870021  2  -3180.619263228  3  -3180.611940469  4  -3180.609878220  5
                         -3180.608172690  6
  31   4  0.00000056  4  -3180.850463891  1  -3180.719870021  2  -3180.619263228  3  -3180.611940469  4  -3180.609878220  5
                         -3180.608172690  6
  32   2  0.00000039  4  -3180.850463891  1  -3180.719870021  2  -3180.619263228  3  -3180.611940469  4  -3180.609878220  5
                         -3180.608172690  6
  33   2  0.00000036  4  -3180.850463891  1  -3180.719870021  2  -3180.619263228  3  -3180.611940469  4  -3180.609878220  5
                         -3180.608172690  6
  34   2  0.00000023  4  -3180.850463891  1  -3180.719870021  2  -3180.619263228  3  -3180.611940469  4  -3180.609878220  5
                         -3180.608172690  6
  35   1  0.00000013  4  -3180.850463891  1  -3180.719870021  2  -3180.619263228  3  -3180.611940469  4  -3180.609878220  5
                         -3180.608172690  6
  36   1  0.00000008  4  -3180.850463891  1  -3180.719870021  2  -3180.619263228  3  -3180.611940469  4  -3180.609878220  5
                         -3180.608172690  6

 STATE #    1  ENERGY =   -3180.850463891

      CSF      COEF    OCCUPANCY (IGNORING CORE)
      ---      ----    --------- --------- -----
        1    0.901720  22222222000
        4    0.055628  22222122001
        9   -0.064759  12222222001
       45   -0.076428  02222222002
       48    0.066813  22222122010
       51    0.093147  22122222010
      316   -0.113413  22022222020
      829   -0.215731  22221222100
      832    0.125373  21222222100
      850    0.084461  21222122101
      881    0.055611  21222122101
     4159   -0.204500  20222222200

 STATE #    2  ENERGY =   -3180.719870021

      CSF      COEF    OCCUPANCY (IGNORING CORE)
      ---      ----    --------- --------- -----
      828    0.899189  22222122100
      830   -0.082443  22212222100
      851    0.073955  12222122101
      877    0.110428  22222022101
      882    0.071568  12222122101
     1025    0.087608  02222122102
     1081   -0.077634  22122122110
     1711    0.090556  22222022110
     2358    0.114555  22022122120
     4142   -0.143506  22221122200
     4145   -0.279594  21222122200

 STATE #    3  ENERGY =   -3180.619263228

      CSF      COEF    OCCUPANCY (IGNORING CORE)
      ---      ----    --------- --------- -----
        4    0.142096  22222122001
        6   -0.072896  22212222001
       47    0.792285  22222212010
       48    0.143407  22222122010
       50   -0.203700  22212222010
      215    0.067910  02222212012
      298   -0.154450  22122212020
      826    0.055990  22222221100
      829    0.228912  22221222100
      832    0.204316  21222222100
      847   -0.091520  22221122101
     1074   -0.148660  22221212110
     1077    0.093543  21222212110
     1079   -0.050371  22221122110
     1118   -0.059516  21222112111
     1706   -0.085035  22221212110
     1709    0.055174  21222212110
     4159   -0.083497  20222222200
     4761   -0.179172  20222212210

 STATE #    4  ENERGY =   -3180.611940469

      CSF      COEF    OCCUPANCY (IGNORING CORE)
      ---      ----    --------- --------- -----
        4    0.350254  22222122001
       25    0.085560  22222022002
       47   -0.373713  22222212010
       48    0.195741  22222122010
       50    0.076728  22212222010
       97    0.076906  22222022011
      298    0.074807  22122212020
      444   -0.050001  22022122021
      826    0.121582  22222221100
      829    0.508203  22221222100
      832    0.437691  21222222100
      847   -0.216799  22221122101
      861    0.055774  11222222101
      878   -0.111125  22221122101
     1074    0.056791  22221212110
     1079   -0.085733  22221122110
     1712   -0.050706  22221122110
     2378    0.060573  22021222120
     2396   -0.053777  21022222120
     4150   -0.077746  21221222200
     4159   -0.182621  20222222200
     4278    0.098906  21221122201
     4761    0.087215  20222212210

 STATE #    5  ENERGY =   -3180.609878220

      CSF      COEF    OCCUPANCY (IGNORING CORE)
      ---      ----    --------- --------- -----
        2   -0.070024  22222221001
       46    0.869219  22222221010
       49    0.070048  22221222010
       52    0.058753  21222222010
      173    0.075121  02222221012
      291   -0.168769  22122221020
      827    0.118298  22222212100
      830   -0.190591  22212222100
     1068   -0.161850  22221221110
     1071    0.104910  21222221110
     1103   -0.067693  21222121111
     1699   -0.094639  22221221110
     1702    0.055116  21222221110
     4719   -0.197248  20222221210

 STATE #    6  ENERGY =   -3180.608172690

      CSF      COEF    OCCUPANCY (IGNORING CORE)
      ---      ----    --------- --------- -----
       46    0.223319  22222221010
      827   -0.451183  22222212100
      828    0.079785  22222122100
      830    0.748878  22212222100
      848   -0.166021  22212122101
      858   -0.063427  12212222101
      879   -0.092559  22212122101
      891    0.082506  12212222101
     1073   -0.127043  22222112110
     1080   -0.060221  22212122110
     1705    0.106121  22222112110
     2390    0.089734  22012222120
     4154    0.086993  21212222200
     4282    0.105656  21212122201
     4719   -0.050944  20222221210
     4731   -0.060046  21222112210
     4786    0.062585  21212122210
 ...... END OF CI-MATRIX DIAGONALIZATION ......
 STEP CPU TIME =     3.43 TOTAL CPU TIME =       17.9 (    0.3 MIN)
 TOTAL WALL CLOCK TIME=       17.9 SECONDS, CPU UTILIZATION IS  99.94%

   BEGINNING DIABATIZATION OF CAS-CI ADIABATIC STATES,
       WHICH WERE JUST REGENERATED USING THE DMO'S.

 READING MCSCF-LEVEL DOMINANT CSF INFORMATION FROM THE $REFCSF INPUT GROUP.
 TOTAL NO. OF IMPORTANT CSF'S IN ALL STATES=   26
 CSF       1 IS DOMINANT IN STATE    1
 CSF     826 IS DOMINANT IN STATE    2
 CSF     292 IS DOMINANT IN STATE    2
 CSF    1071 IS DOMINANT IN STATE    2
 CSF       2 IS DOMINANT IN STATE    2
 CSF    4131 IS DOMINANT IN STATE    2
 CSF      46 IS DOMINANT IN STATE    2
 CSF    4143 IS DOMINANT IN STATE    2
 CSF       9 IS DOMINANT IN STATE    2
 CSF     828 IS DOMINANT IN STATE    3
 CSF     831 IS DOMINANT IN STATE    3
 CSF     287 IS DOMINANT IN STATE    3
 CSF    1066 IS DOMINANT IN STATE    3
 CSF    4127 IS DOMINANT IN STATE    3
 CSF     830 IS DOMINANT IN STATE    4
 CSF    4129 IS DOMINANT IN STATE    4
 CSF     289 IS DOMINANT IN STATE    4
 CSF    1068 IS DOMINANT IN STATE    4
 CSF      49 IS DOMINANT IN STATE    5
 CSF     829 IS DOMINANT IN STATE    5
 CSF       4 IS DOMINANT IN STATE    5
 CSF      48 IS DOMINANT IN STATE    5
 CSF      47 IS DOMINANT IN STATE    6
 CSF     827 IS DOMINANT IN STATE    6
 CSF       6 IS DOMINANT IN STATE    6
 CSF      50 IS DOMINANT IN STATE    6

 ---------------------------------------------------
 CSF EXPANSION BASED ON DMO'S AS THE ACTIVE ORBITALS
 ---------------------------------------------------
 PRINTING ALL CI COEFFICIENTS LARGER THAN SLCTTH=   3.0E-01,
 EVEN IF THEY AREN'T IN THE DOMINANT CSF INPUT.

 ADIABATIC STATE #    1  ENERGY =   -3180.850463891
      CSF    COEFFICIENT    OCCUPANCY
      ---    -----------    ---------
        1       0.901720    22222222000

 ADIABATIC STATE #    2  ENERGY =   -3180.719870021
      CSF    COEFFICIENT    OCCUPANCY
      ---    -----------    ---------
      828       0.899189    22222122100

 ADIABATIC STATE #    3  ENERGY =   -3180.619263228
      CSF    COEFFICIENT    OCCUPANCY
      ---    -----------    ---------
       47       0.792285    22222212010

 ADIABATIC STATE #    4  ENERGY =   -3180.611940469
      CSF    COEFFICIENT    OCCUPANCY
      ---    -----------    ---------
        4       0.350254    22222122001
       47      -0.373713    22222212010
      829       0.508203    22221222100
      832       0.437691    21222222100

 ADIABATIC STATE #    5  ENERGY =   -3180.609878220
      CSF    COEFFICIENT    OCCUPANCY
      ---    -----------    ---------
       46       0.869219    22222221010

 ADIABATIC STATE #    6  ENERGY =   -3180.608172690
      CSF    COEFFICIENT    OCCUPANCY
      ---    -----------    ---------
      827      -0.451183    22222212100
      830       0.748878    22212222100

 -----------------------------------------------
 CI COEFFICIENTS OF DOMINANT CSFS FOR ALL GROUPS
 -----------------------------------------------
 ONLY CONFIGURATIONS ENTERED IN $REFCSF WILL BE PRINTED BELOW.
 IF THE TOTAL WEIGHT OF THE DOMINANT CSF LIST IN ANY ADIABATIC STATE IS SMALL,
 THE LIST OF DOMINANT CSF'S GIVEN IN THE INPUT SHOULD BE RECONSIDERED.

 ADIABATIC STATE #    1 ENERGY =   -3180.850463891
      CSF   GROUP #   COEFFICIENT
        1       1       0.901720
      826       2      -0.006854
      292       2      -0.000502
     1071       2       0.000000
        2       2       0.000000
     4131       2      -0.000000
       46       2       0.000001
     4143       2      -0.000524
        9       2      -0.064759
      828       3       0.000002
      831       3      -0.000020
      287       3      -0.000000
     1066       3       0.000051
     4127       3      -0.000000
      830       4      -0.000002
     4129       4      -0.001021
      289       4      -0.000704
     1068       4      -0.000000
       49       5      -0.000010
      829       5      -0.215731
        4       5       0.055628
       48       5       0.066813
       47       6      -0.010321
      827       6      -0.000001
        6       6      -0.033437
       50       6      -0.014458
 TOTAL WEIGHT OF ALL DOMINANT CSFS IN THIS STATE IS 87.3%

 ADIABATIC STATE #    2 ENERGY =   -3180.719870021
      CSF   GROUP #   COEFFICIENT
        1       1       0.000001
      826       2       0.000008
      292       2       0.000000
     1071       2       0.000569
        2       2       0.000053
     4131       2       0.000117
       46       2      -0.000692
     4143       2       0.000003
        9       2      -0.000000
      828       3       0.899189
      831       3      -0.000974
      287       3      -0.000016
     1066       3      -0.000000
     4127       3       0.000163
      830       4      -0.082443
     4129       4      -0.000001
      289       4      -0.000000
     1068       4       0.000582
       49       5      -0.001288
      829       5       0.000012
        4       5      -0.000000
       48       5       0.000010
       47       6       0.000000
      827       6       0.041649
        6       6      -0.000000
       50       6      -0.000001
 TOTAL WEIGHT OF ALL DOMINANT CSFS IN THIS STATE IS 81.7%

 ADIABATIC STATE #    3 ENERGY =   -3180.619263228
      CSF   GROUP #   COEFFICIENT
        1       1       0.002307
      826       2       0.055990
      292       2       0.000184
     1071       2      -0.000001
        2       2       0.000002
     4131       2       0.000000
       46       2      -0.000008
     4143       2       0.000117
        9       2       0.013215
      828       3      -0.000002
      831       3       0.000003
      287       3      -0.000002
     1066       3       0.006123
     4127       3       0.000000
      830       4       0.000019
     4129       4      -0.004490
      289       4       0.000916
     1068       4       0.000001
       49       5       0.000000
      829       5       0.228912
        4       5       0.142096
       48       5       0.143407
       47       6       0.792285
      827       6      -0.000022
        6       6      -0.072896
       50       6      -0.203700
 TOTAL WEIGHT OF ALL DOMINANT CSFS IN THIS STATE IS 77.1%

 ADIABATIC STATE #    4 ENERGY =   -3180.611940469
      CSF   GROUP #   COEFFICIENT
        1       1       0.009533
      826       2       0.121582
      292       2       0.000408
     1071       2      -0.000002
        2       2       0.000005
     4131       2       0.000001
       46       2      -0.000020
     4143       2       0.001828
        9       2       0.008475
      828       3      -0.000010
      831       3       0.000011
      287       3       0.000001
     1066       3      -0.003077
     4127       3       0.000000
      830       4      -0.000026
     4129       4      -0.009503
      289       4      -0.000541
     1068       4       0.000003
       49       5       0.000008
      829       5       0.508203
        4       5       0.350254
       48       5       0.195741
       47       6      -0.373713
      827       6       0.000023
        6       6      -0.026588
       50       6       0.076728
 TOTAL WEIGHT OF ALL DOMINANT CSFS IN THIS STATE IS 58.1%

 ADIABATIC STATE #    5 ENERGY =   -3180.609878220
      CSF   GROUP #   COEFFICIENT
        1       1       0.000000
      826       2      -0.000014
      292       2      -0.000014
     1071       2       0.104910
        2       2      -0.070024
     4131       2      -0.000119
       46       2       0.869219
     4143       2      -0.000000
        9       2       0.000000
      828       3      -0.019222
      831       3       0.009094
      287       3      -0.004487
     1066       3      -0.000001
     4127       3       0.000112
      830       4      -0.190591
     4129       4       0.000002
      289       4       0.000016
     1068       4      -0.161850
       49       5       0.070048
      829       5       0.000012
        4       5       0.000009
       48       5      -0.000002
       47       6       0.000009
      827       6       0.118298
        6       6      -0.000002
       50       6      -0.000005
 TOTAL WEIGHT OF ALL DOMINANT CSFS IN THIS STATE IS 85.3%

 ADIABATIC STATE #    6 ENERGY =   -3180.608172690
      CSF   GROUP #   COEFFICIENT
        1       1      -0.000000
      826       2       0.000003
      292       2      -0.000004
     1071       2       0.027452
        2       2      -0.018455
     4131       2      -0.000336
       46       2       0.223319
     4143       2       0.000001
        9       2       0.000000
      828       3       0.079785
      831       3      -0.043471
      287       3      -0.001096
     1066       3       0.000001
     4127       3      -0.001715
      830       4       0.748878
     4129       4      -0.000000
      289       4       0.000004
     1068       4      -0.040049
       49       5       0.016476
      829       5       0.000014
        4       5       0.000012
       48       5       0.000004
       47       6      -0.000036
      827       6      -0.451183
        6       6       0.000001
       50       6       0.000015
 TOTAL WEIGHT OF ALL DOMINANT CSFS IN THIS STATE IS 82.5%


 -------------------------------------------
   - DIABATIC HAMILTONIAN MATRIX ELEMENTS - 
 -------------------------------------------
                                            
 --- DIABATIC ENERGIES (DIAGONAL ELEMENT) ---
 STATE #  2'S CAS-LEVEL DIABATIC ENERGY=   -3180.609773503
 STATE #  3'S CAS-LEVEL DIABATIC ENERGY=   -3180.718783581
 STATE #  4'S CAS-LEVEL DIABATIC ENERGY=   -3180.609363847
 STATE #  5'S CAS-LEVEL DIABATIC ENERGY=   -3180.613235649
 STATE #  6'S CAS-LEVEL DIABATIC ENERGY=   -3180.617968048

 --- DIABATIC COUPLINGS (OFF DIAGONAL ELEMENTS)---
 STATE #  2 &  3'S CAS-LEVEL COUPLING  =      -0.000142476
 STATE #  2 &  4'S CAS-LEVEL COUPLING  =      -0.000397486
 STATE #  2 &  5'S CAS-LEVEL COUPLING  =       0.000000101
 STATE #  2 &  6'S CAS-LEVEL COUPLING  =       0.000000055
 STATE #  3 &  4'S CAS-LEVEL COUPLING  =       0.010956626
 STATE #  3 &  5'S CAS-LEVEL COUPLING  =       0.000001391
 STATE #  3 &  6'S CAS-LEVEL COUPLING  =      -0.000000017
 STATE #  4 &  5'S CAS-LEVEL COUPLING  =      -0.000000148
 STATE #  4 &  6'S CAS-LEVEL COUPLING  =       0.000000298
 STATE #  5 &  6'S CAS-LEVEL COUPLING  =      -0.002794065

 ---------------------------------------
          - DIABATIC STATES -           
 ---------------------------------------
 STATE #  2
 ----------
    <CSF>      <COEFFICIENT>
      826        -0.000016
      292        -0.000014
     1071         0.108440
        2        -0.072413
     4131        -0.000199
       46         0.897448
     4143         0.000000
        9        -0.000000
 STATE #  3
 ----------
    <CSF>      <COEFFICIENT>
      828        -0.902899
      831         0.005349
      287         0.000015
     1066        -0.000000
     4127         0.000004
 STATE #  4
 ----------
    <CSF>      <COEFFICIENT>
      830        -0.777114
     4129         0.000000
      289        -0.000000
     1068        -0.001275
 STATE #  5
 ----------
    <CSF>      <COEFFICIENT>
       49         0.000010
      829         0.557346
        4         0.377532
       48         0.237900
 STATE #  6
 ----------
    <CSF>      <COEFFICIENT>
       47         0.875981
      827        -0.000013
        6        -0.054954
       50        -0.217078

 ---------------------------------------
     - ROTATION TO DIABATIC STATES -    
 ---------------------------------------
 ROWS=ADIABATIC, COLUMNS=DIABATIC STATES

             1           2           3           4           5

    1   -0.0009316  -0.9951205   0.0986623   0.0000131  -0.0000001
    2   -0.0000107   0.0000030  -0.0000248   0.4205597   0.9072649
    3   -0.0000244   0.0000153   0.0000327   0.9072649  -0.4205597
    4    0.9687851   0.0235603   0.2467800   0.0000207   0.0000085
    5    0.2479003  -0.0958125  -0.9640360   0.0000266  -0.0000355

 ..... FINISHED WITH CAS DIABATIZATION .....
 STEP CPU TIME =     0.02 TOTAL CPU TIME =       17.9 (    0.3 MIN)
 TOTAL WALL CLOCK TIME=       17.9 SECONDS, CPU UTILIZATION IS  99.94%
 .... DONE WITH DIABATIZATION ....
 STEP CPU TIME =     0.00 TOTAL CPU TIME =       17.9 (    0.3 MIN)
 TOTAL WALL CLOCK TIME=       17.9 SECONDS, CPU UTILIZATION IS  99.94%

     ----------------------------------------------------------------
     PROPERTY VALUES FOR THE MCSCF SELF-CONSISTENT FIELD WAVEFUNCTION
     ----------------------------------------------------------------

 THIS MCSCF AVERAGED   6 ROOTS OF DIFFERENT ENERGY.
 SINCE NO STATE-SPECIFIC DENSITY MATRIX IS AVAILABLE,
 PROPERTIES WILL NOT BE COMPUTED.

             11471090  WORDS OF DYNAMIC MEMORY USED
 EXECUTION OF GAMESS TERMINATED NORMALLY Wed Aug  9 20:37:59 2017
 DDI: 263640 bytes (0.3 MB / 0 MWords) used by master data server.

 ----------------------------------------
 CPU timing information for all processes
 ========================================
 0: 16.634 + 1.301 = 17.936
 ----------------------------------------
 ddikick.x: exited gracefully.
unset echo
----- accounting info -----
Files used on the master node compute-0-7.local were:
-rw-rw-r-- 1 sarom sarom 201K Aug  9 20:37 /scratch/mc-diab-brac.F05
-rw-rw-r-- 1 sarom sarom  79M Aug  9 20:37 /scratch/mc-diab-brac.F08
-rw-rw-r-- 1 sarom sarom 1.1M Aug  9 20:37 /scratch/mc-diab-brac.F09
-rw-rw-r-- 1 sarom sarom 3.1M Aug  9 20:38 /scratch/mc-diab-brac.F10
-rw-rw-r-- 1 sarom sarom 349K Aug  9 20:37 /scratch/mc-diab-brac.F11
-rw-rw-r-- 1 sarom sarom 426K Aug  9 20:37 /scratch/mc-diab-brac.F12
-rw-rw-r-- 1 sarom sarom 2.6M Aug  9 20:38 /scratch/mc-diab-brac.F13
-rw-rw-r-- 1 sarom sarom 391K Aug  9 20:37 /scratch/mc-diab-brac.F14
-rw-rw-r-- 1 sarom sarom 1.3M Aug  9 20:37 /scratch/mc-diab-brac.F15
-rw-rw-r-- 1 sarom sarom  70M Aug  9 20:37 /scratch/mc-diab-brac.F16
-rw-rw-r-- 1 sarom sarom  21K Aug  9 20:37 /scratch/mc-diab-brac.F21
-rw-rw-r-- 1 sarom sarom    0 Aug  9 20:37 /scratch/mc-diab-brac.F23
rm: No match.
ls: No match.
ls: No match.
ls: No match.
Wed Aug  9 20:38:02 CDT 2017
0.245u 0.192s 0:21.47 2.0%	0+0k 408+760io 0pf+0w
/opt/gridengine/default/spool/compute-0-7/active_jobs/35907.1/pe_hostfile compute-0-7.local
