----- GAMESS execution script 'rungms' -----
This job is running on host compute-3-0
under operating system Linux at Mon Nov 28 22:36:58 CST 2016
Available scratch disk space (Kbyte units) at beginning of the job is
Filesystem            1K-blocks       Used  Available Use% Mounted on
bolt.local:/export/home/sarom
                     9590469632 1553129472 7550172160  18% /home/sarom
Copying input file agh-grad-resc.inp to your run's scratch directory...
cp agh-grad-resc.inp .//agh-grad-resc.F05
unset echo
/home/sarom/gamessGH/ddikick.x /home/sarom/gamessGH/gamess.00.x agh-grad-resc -ddi 1 1 localhost -scr ./

 Distributed Data Interface kickoff program.
 Initiating 1 compute processes on 1 nodes to run the following command:
 /home/sarom/gamessGH/gamess.00.x agh-grad-resc 

          ******************************************************
          *         GAMESS VERSION = 18 AUG 2016 (R1)          *
          *             FROM IOWA STATE UNIVERSITY             *
          * M.W.SCHMIDT, K.K.BALDRIDGE, J.A.BOATZ, S.T.ELBERT, *
          *   M.S.GORDON, J.H.JENSEN, S.KOSEKI, N.MATSUNAGA,   *
          *          K.A.NGUYEN, S.J.SU, T.L.WINDUS,           *
          *       TOGETHER WITH M.DUPUIS, J.A.MONTGOMERY       *
          *         J.COMPUT.CHEM.  14, 1347-1363(1993)        *
          **************** 64 BIT LINUX VERSION ****************

  SINCE 1993, STUDENTS AND POSTDOCS WORKING AT IOWA STATE UNIVERSITY
  AND ALSO IN THEIR VARIOUS JOBS AFTER LEAVING ISU HAVE MADE IMPORTANT
  CONTRIBUTIONS TO THE CODE:
     IVANA ADAMOVIC, CHRISTINE AIKENS, YURI ALEXEEV, POOJA ARORA,
     ANDREY ASADCHEV, ROB BELL, PRADIPTA BANDYOPADHYAY, JONATHAN BENTZ,
     BRETT BODE, KURT BRORSEN, CALEB CARLIN, GALINA CHABAN, WEI CHEN,
     CHEOL HO CHOI, PAUL DAY, ALBERT DEFUSCO, NUWAN DESILVA, TIM DUDLEY,
     DMITRI FEDOROV, GRAHAM FLETCHER, MARK FREITAG, KURT GLAESEMANN,
     DAN KEMP, GRANT MERRILL, NORIYUKI MINEZAWA, JONATHAN MULLIN,
     TAKESHI NAGATA, SEAN NEDD, HEATHER NETZLOFF, BOSILJKA NJEGIC, RYAN OLSON,
     MIKE PAK, SPENCER PRUITT, LUKE ROSKOP, JIM SHOEMAKER, LYUDMILA SLIPCHENKO,
     TONY SMITH, SAROM SOK LEANG, JIE SONG, TETSUYA TAKETSUGU, SIMON WEBB,
     PENG XU, SOOHAENG YOO, FEDERICO ZAHARIEV

  ADDITIONAL CODE HAS BEEN PROVIDED BY COLLABORATORS IN OTHER GROUPS:
     IOWA STATE UNIVERSITY:
          JOE IVANIC, AARON WEST, LAIMUTIS BYTAUTAS, KLAUS RUEDENBERG
     UNIVERSITY OF TOKYO: KIMIHIKO HIRAO, TAKAHITO NAKAJIMA,
          TAKAO TSUNEDA, MUNEAKI KAMIYA, SUSUMU YANAGISAWA,
          KIYOSHI YAGI, MAHITO CHIBA, SEIKEN TOKURA, NAOAKI KAWAKAMI
     UNIVERSITY OF AARHUS: FRANK JENSEN
     UNIVERSITY OF IOWA: VISVALDAS KAIRYS, HUI LI
     NATIONAL INST. OF STANDARDS AND TECHNOLOGY: WALT STEVENS, DAVID GARMER
     UNIVERSITY OF PISA: BENEDETTA MENNUCCI, JACOPO TOMASI
     UNIVERSITY OF MEMPHIS: HENRY KURTZ, PRAKASHAN KORAMBATH
     UNIVERSITY OF ALBERTA: TOBY ZENG, MARIUSZ KLOBUKOWSKI
     UNIVERSITY OF NEW ENGLAND: MARK SPACKMAN
     MIE UNIVERSITY: HIROAKI UMEDA
     NAT. INST. OF ADVANCED INDUSTRIAL SCIENCE AND TECHNOLOGY: KAZUO KITAURA
     MICHIGAN STATE UNIVERSITY:
          KAROL KOWALSKI, MARTA WLOCH, JEFFREY GOUR, JESSE LUTZ,
          WEI LI, PIOTR PIECUCH
     UNIVERSITY OF SILESIA: MONIKA MUSIAL, STANISLAW KUCHARSKI
     FACULTES UNIVERSITAIRES NOTRE-DAME DE LA PAIX:
          OLIVIER QUINET, BENOIT CHAMPAGNE
     UNIVERSITY OF CALIFORNIA - SANTA BARBARA: BERNARD KIRTMAN
     INSTITUTE FOR MOLECULAR SCIENCE:
          KAZUYA ISHIMURA, MICHIO KATOUDA, AND SHIGERU NAGASE
     UNIVERSITY OF NOTRE DAME: ANNA POMOGAEVA, DAN CHIPMAN
     KYUSHU UNIVERSITY:
          HARUYUKI NAKANO,
          FENG LONG GU, JACEK KORCHOWIEC, MARCIN MAKOWSKI, AND YURIKO AOKI,
          HIROTOSHI MORI AND EISAKU MIYOSHI
     PENNSYLVANIA STATE UNIVERSITY:
          TZVETELIN IORDANOV, CHET SWALINA, JONATHAN SKONE,
          SHARON HAMMES-SCHIFFER
     WASEDA UNIVERSITY:
          MASATO KOBAYASHI, TOMOKO AKAMA, TSUGUKI TOUMA,
          TAKESHI YOSHIKAWA, YASUHIRO IKABATA, JUNJI SEINO,
          YUYA NAKAJIMA, HIROMI NAKAI
     NANJING UNIVERSITY: SHUHUA LI
     UNIVERSITY OF NEBRASKA:
          PEIFENG SU, DEJUN SI, NANDUN THELLAMUREGE, YALI WANG, HUI LI
     UNIVERSITY OF ZURICH: ROBERTO PEVERATI, KIM BALDRIDGE
     N. COPERNICUS UNIVERSITY AND JACKSON STATE UNIVERSITY:
          MARIA BARYSZ
     UNIVERSITY OF COPENHAGEN: Jimmy Kromann, CASPER STEINMANN
     TOKYO INSTITUTE OF TECHNOLOGY: HIROYA NAKATA
     NAGOYA UNIVERSITY: YOSHIO NISHIMOTO, STEPHAN IRLE
     MOSCOW STATE UNIVERSITY: VLADIMIR MIRONOV

 EXECUTION OF GAMESS BEGUN Mon Nov 28 22:36:58 2016

            ECHO OF THE FIRST FEW INPUT CARDS -
 INPUT CARD>!  AgH...test of internally uncontracted RESC gradient                          
 INPUT CARD>!                                                                               
 INPUT CARD>!  FINAL E= -5291.7464340939, 12 iters, RMS grad=0.007267355                    
 INPUT CARD>!                                                                               
 INPUT CARD>!  This run takes 11 seconds on 2.66 GHz Cloverton (7 May 2013)                 
 INPUT CARD>!     results have not changed very much since at least 2005                    
 INPUT CARD>!                                                                               
 INPUT CARD> $contrl scftyp=rhf runtyp=gradient relwfn=resc $end                            
 INPUT CARD> $SYSTEM mwords=1 $END                                                          
 INPUT CARD> $relwfn modeqr=1 $end                                                          
 INPUT CARD> $guess  guess=moread norb=96 $end                                              
 INPUT CARD> $scf    soscf=.f. $end                                                         
 INPUT CARD> $data                                                                          
 INPUT CARD>AgH molecule at RHF NR optimised geometry                                       
 INPUT CARD>C1                                                                              
 INPUT CARD>SILVER     47.0    .0000000000    .0000000000   -.1391459073                    
 INPUT CARD>  S    1                                                                        
 INPUT CARD>    1 .24664478D+07         0.000077                                            
 INPUT CARD>  S   12                                                                        
 INPUT CARD>    2 .36512837D+06         0.000616                                            
 INPUT CARD>    3 .80073473D+05         0.003465                                            
 INPUT CARD>    4 .21268394D+05         0.015911                                            
 INPUT CARD>    5 .64341100D+04         0.060595                                            
 INPUT CARD>    6 .21663029D+04         0.181244                                            
 INPUT CARD>    7 .80083475D+03         0.372256                                            
 INPUT CARD>    8 .32188857D+03         0.387164                                            
 INPUT CARD>    9 .13916735D+03         0.122296                                            
 INPUT CARD>   10 .54807387D+02         0.004813                                            
 INPUT CARD>   11 .24693249D+02         -.000549                                            
 INPUT CARD>   12 .87455636D+01         0.000246                                            
 INPUT CARD>   13 .43406869D+01         -.000195                                            
 INPUT CARD>  S   12                                                                        
 INPUT CARD>    2 .36512837D+06         0.000199                                            
 INPUT CARD>    3 .80073473D+05         0.001114                                            
 INPUT CARD>    4 .21268394D+05         0.005211                                            
 INPUT CARD>    5 .64341100D+04         0.020159                                            
 INPUT CARD>    6 .21663029D+04         0.066065                                            
 INPUT CARD>    7 .80083475D+03         0.159857                                            
 INPUT CARD>    8 .32188857D+03         0.256316                                            
 INPUT CARD>    9 .13916735D+03         0.015836                                            
 INPUT CARD>   10 .54807387D+02         -.630683                                            
 INPUT CARD>   11 .24693249D+02         -.470188                                            
 INPUT CARD>   12 .87455636D+01         -.049068                                            
 INPUT CARD>   13 .43406869D+01         0.011207                                            
 INPUT CARD>  S   12                                                                        
 INPUT CARD>    2 .36512837D+06         -.000086                                            
 INPUT CARD>    3 .80073473D+05         -.000485                                            
 INPUT CARD>    4 .21268394D+05         -.002253                                            
 INPUT CARD>    5 .64341100D+04         -.008837                                            
 INPUT CARD>    6 .21663029D+04         -.028899                                            
    1000000 WORDS OF MEMORY AVAILABLE


     RUN TITLE
     ---------
 AgH molecule at RHF NR optimised geometry                                       

 THE POINT GROUP OF THE MOLECULE IS C1      
 THE ORDER OF THE PRINCIPAL AXIS IS     0
 *** WARNING! ATOM   1 SHELL    2 TYPE S HAS NORMALIZATION   1.00000399
 *** WARNING! ATOM   1 SHELL    3 TYPE S HAS NORMALIZATION   1.00063499
 *** WARNING! ATOM   1 SHELL    4 TYPE S HAS NORMALIZATION   1.02796678
 *** WARNING! ATOM   1 SHELL    5 TYPE S HAS NORMALIZATION   1.08520812
 *** WARNING! ATOM   1 SHELL   11 TYPE P HAS NORMALIZATION   1.00010024
 *** WARNING! ATOM   1 SHELL   12 TYPE P HAS NORMALIZATION   1.02302354
 *** WARNING! ATOM   1 SHELL   13 TYPE P HAS NORMALIZATION   1.94667751
 *** WARNING! ATOM   1 SHELL   19 TYPE D HAS NORMALIZATION   1.00023354
 *** WARNING! ATOM   1 SHELL   20 TYPE D HAS NORMALIZATION   3.52489191
 *** WARNING! ATOM   2 SHELL   26 TYPE S HAS NORMALIZATION  18.23061834

 ATOM      ATOMIC                      COORDINATES (BOHR)
           CHARGE         X                   Y                   Z
 SILVER     47.0     0.0000000000        0.0000000000       -0.2629476371
 HYDROGEN    1.0     0.0000000000        0.0000000000        3.0975366187

          INTERNUCLEAR DISTANCES (ANGS.)
          ------------------------------

                1 SILV       2 HYDR  

   1 SILV    0.0000000    1.7782918 *
   2 HYDR    1.7782918 *  0.0000000  

  * ... LESS THAN  3.000


     ATOMIC BASIS SET
     ----------------
 THE CONTRACTED PRIMITIVE FUNCTIONS HAVE BEEN UNNORMALIZED
 THE CONTRACTED BASIS FUNCTIONS ARE NOW NORMALIZED TO UNITY

  SHELL TYPE  PRIMITIVE        EXPONENT          CONTRACTION COEFFICIENT(S)

 SILVER    

      1   S       1       2466447.8000000    1.000000000000

      2   S       2        365128.3700000    0.000616002456
      2   S       3         80073.4730000    0.003465013814
      2   S       4         21268.3940000    0.015911063434
      2   S       5          6434.1100000    0.060595241581
      2   S       6          2166.3029000    0.181244722586
      2   S       7           800.8347500    0.372257484116
      2   S       8           321.8885700    0.387165543551
      2   S       9           139.1673500    0.122296487571
      2   S      10            54.8073870    0.004813019189
      2   S      11            24.6932490   -0.000549002189
      2   S      12             8.7455636    0.000246000981
      2   S      13             4.3406869   -0.000195000777

      3   S      14        365128.3700000    0.000199126364
      3   S      15         80073.4730000    0.001114707383
      3   S      16         21268.3940000    0.005214308951
      3   S      17          6434.1100000    0.020171800833
      3   S      18          2166.3029000    0.066106950842
      3   S      19           800.8347500    0.159958508147
      3   S      20           321.8885700    0.256478758980
      3   S      21           139.1673500    0.015846055756
      3   S      22            54.8073870   -0.631083479570
      3   S      23            24.6932490   -0.470486566298
      3   S      24             8.7455636   -0.049099157858
      3   S      25             4.3406869    0.011214116372

      4   S      26        365128.3700000   -0.000088405143
      4   S      27         80073.4730000   -0.000498563889
      4   S      28         21268.3940000   -0.002316009158
      4   S      29          6434.1100000   -0.009084142444
      4   S      30          2166.3029000   -0.029707212006
      4   S      31           800.8347500   -0.075230720907
      4   S      32           321.8885700   -0.123838130150
      4   S      33           139.1673500   -0.015998247014
      4   S      34            54.8073870    0.523235091570
      4   S      35            24.6932490    0.463867954029
      4   S      36             8.7455636   -0.789569976914
      4   S      37             4.3406869   -0.560541034022

      5   S      38        365128.3700000   -0.000039067492
      5   S      39         80073.4730000   -0.000220297248
      5   S      40         21268.3940000   -0.001026606882
      5   S      41          6434.1100000   -0.004005503173
      5   S      42          2166.3029000   -0.013227601782
      5   S      43           800.8347500   -0.033312633678
      5   S      44           321.8885700   -0.056614222443
      5   S      45           139.1673500   -0.005381547070
      5   S      46            54.8073870    0.252992398737
      5   S      47            24.6932490    0.269150062444
      5   S      48             8.7455636   -0.683271992509
      5   S      49             4.3406869   -0.587617407928

      6   S      50             1.4361951    1.000000000000

      7   S      51             0.6203987    1.000000000000

      8   S      52             0.1001000    1.000000000000

      9   S      53             0.0364142    1.000000000000

     10   S      54             0.0145657    1.000000000000

     11   P      55         15926.0600000    0.000441044206
     11   P      56          1348.7612000    0.016543658171
     11   P      57          3877.1796000    0.003563357155
     11   P      58           546.9135800    0.061060120057
     11   P      59           282.5725100    0.070411057301
     11   P      60           176.1563200    0.214437493073
     11   P      61            78.8787440    0.440389140210
     11   P      62            34.1222690    0.330549130944
     11   P      63            12.7371520    0.048327843901
     11   P      64             5.4645251   -0.004929494083

     12   P      65         15926.0600000   -0.000208696803
     12   P      66          1348.7612000   -0.008034826918
     12   P      67          3877.1796000   -0.001596939753
     12   P      68           546.9135800   -0.027489665661
     12   P      69           282.5725100   -0.041639104304
     12   P      70           176.1563200   -0.099004126531
     12   P      71            78.8787440   -0.259730332566
     12   P      72            34.1222690   -0.067908302876
     12   P      73            12.7371520    0.588634448133
     12   P      74             5.4645251    0.511819702279

     13   P      75         15926.0600000    0.000153787523
     13   P      76          1348.7612000    0.005910112926
     13   P      77          3877.1796000    0.001232246865
     13   P      78           546.9135800    0.021785268034
     13   P      79           282.5725100    0.028357251314
     13   P      80           176.1563200    0.081460667157
     13   P      81            78.8787440    0.195878584588
     13   P      82            34.1222690    0.048324322552
     13   P      83            12.7371520   -0.695310380294
     13   P      84             5.4645251   -0.415045272249

     14   P      85             1.7446082    1.000000000000

     15   P      86             0.6323319    1.000000000000

     16   P      87             0.2529328    1.000000000000

     17   P      88             0.1011731    1.000000000000

     18   P      89             0.0404692    1.000000000000

     19   D      90           513.2673200    0.004489048106
     19   D      91           151.8999700    0.037920853786
     19   D      92            54.8509200    0.172053171090
     19   D      93            21.3196180    0.420844259000
     19   D      94             8.4550623    0.467025041320
     19   D      95             3.2668348    0.138038229258

     20   D      96           513.2673200   -0.005340211237
     20   D      97           151.8999700   -0.045023444308
     20   D      98            54.8509200   -0.209861489375
     20   D      99            21.3196180   -0.505881911594
     20   D     100             8.4550623   -0.461873636155
     20   D     101             3.2668348    0.846231374417

     21   D     102             1.1758928    1.000000000000

     22   D     103             0.3616256    1.000000000000

     23   D     104             0.1446502    1.000000000000

     24   F     105             1.7000000    1.000000000000

     25   F     106             0.4500000    1.000000000000

 HYDROGEN  

     26   S     107           402.0100000    0.005086342516
     26   S     108            60.2420000    0.039469288699
     26   S     109            13.7322000    0.204182925372
     26   S     110             3.9045100    0.818536532703

     27   S     111             1.2827100    1.000000000000

     28   S     112             0.4655440    1.000000000000

     29   S     113             0.1811200    1.000000000000

     30   S     114             0.0727910    1.000000000000

     31   S     115             0.0267000    1.000000000000

     32   P     116             1.4000000    1.000000000000

     33   P     117             0.2500000    1.000000000000

 TOTAL NUMBER OF BASIS SET SHELLS             =   33
 NUMBER OF CARTESIAN GAUSSIAN BASIS FUNCTIONS =   96
 NUMBER OF ELECTRONS                          =   48
 CHARGE OF MOLECULE                           =    0
 SPIN MULTIPLICITY                            =    1
 NUMBER OF OCCUPIED ORBITALS (ALPHA)          =   24
 NUMBER OF OCCUPIED ORBITALS (BETA )          =   24
 TOTAL NUMBER OF ATOMS                        =    2
 THE NUCLEAR REPULSION ENERGY IS       13.9860795119

     ---------------------------------
     RELATIVISTIC WAVEFUNCTION OPTIONS
     ---------------------------------
     METHOD=RESC     NORDER= 2       NESOC=  0      MODEQR=      1
     NRATOM=  0      QMTTOL= 1.000E-10      QRTOL= 1.000E-10
     CLIGHT=137.03598950     TAU= 3.500E+00

 INTERNAL BASIS SET UNCONTRACTION FOR RESC/DK/IOTC/LUT-IOTC:
    55 SHELLS AND    152 AOS ARE CONSTRUCTED, COMPARED TO
    33 SHELLS AND     96 AOS IN THE CONTRACTED BASIS SET

    62 REDUNDANT PRIMITIVE(S) ELIMINATED.


 THIS MOLECULE IS RECOGNIZED AS BEING LINEAR,
 ORBITAL LZ DEGENERACY TOLERANCE ETOLLZ= 1.00E-06

     $CONTRL OPTIONS
     ---------------
 SCFTYP=RHF          RUNTYP=GRADIENT     EXETYP=RUN     
 MPLEVL=       0     CITYP =NONE         CCTYP =NONE         VBTYP =NONE    
 DFTTYP=NONE         TDDFT =NONE    
 MULT  =       1     ICHARG=       0     NZVAR =       0     COORD =UNIQUE  
 PP    =NONE         RELWFN=RESC         LOCAL =NONE         NUMGRD=       F
 ISPHER=      -1     NOSYM =       0     MAXIT =      30     UNITS =ANGS    
 PLTORB=       F     MOLPLT=       F     AIMPAC=       F     FRIEND=        
 NPRINT=       7     IREST =       0     GEOM  =INPUT   
 NORMF =       0     NORMP =       0     ITOL  =      20     ICUT  =       9
 INTTYP=BEST         GRDTYP=BEST         QMTTOL= 1.0E-06

     $SYSTEM OPTIONS
     ---------------
  REPLICATED MEMORY=     1000000 WORDS (ON EVERY NODE).
 DISTRIBUTED MEMDDI=           0 MILLION WORDS IN AGGREGATE,
 MEMDDI DISTRIBUTED OVER   1 PROCESSORS IS           0 WORDS/PROCESSOR.
 TOTAL MEMORY REQUESTED ON EACH PROCESSOR=     1000000 WORDS.
 TIMLIM=      525600.00 MINUTES, OR     365.0 DAYS.
 PARALL= F  BALTYP=  DLB     KDIAG=    0  COREFL= F
 MXSEQ2=     300 MXSEQ3=     150  mem10=         0

          ----------------
          PROPERTIES INPUT
          ----------------

     MOMENTS            FIELD           POTENTIAL          DENSITY
 IEMOM =       1   IEFLD =       0   IEPOT =       0   IEDEN =       0
 WHERE =COMASS     WHERE =NUCLEI     WHERE =NUCLEI     WHERE =NUCLEI  
 OUTPUT=BOTH       OUTPUT=BOTH       OUTPUT=BOTH       OUTPUT=BOTH    
 IEMINT=       0   IEFINT=       0                     IEDINT=       0
                                                       MORB  =       0
          EXTRAPOLATION IN EFFECT
          SOSCF IN EFFECT
 ORBITAL PRINTING OPTION: NPREO=     1    96     2     1

     -------------------------------
     INTEGRAL TRANSFORMATION OPTIONS
     -------------------------------
     NWORD  =            0
     CUTOFF = 1.0E-09     MPTRAN =       0
     DIRTRF =       F     AOINTS =DUP     

          ----------------------
          INTEGRAL INPUT OPTIONS
          ----------------------
 NOPK  =       1 NORDER=       0 SCHWRZ=       F

     ------------------------------------------
     THE POINT GROUP IS C1 , NAXIS= 0, ORDER= 1
     ------------------------------------------

     DIMENSIONS OF THE SYMMETRY SUBSPACES ARE
 A   =   96

 ..... DONE SETTING UP THE RUN .....
 STEP CPU TIME =     0.18 TOTAL CPU TIME =        0.2 (    0.0 MIN)
 TOTAL WALL CLOCK TIME=        0.2 SECONDS, CPU UTILIZATION IS  85.71%

                    --------------------------------
                    SINGLE POINT ENERGY AND GRADIENT
                    --------------------------------

          ********************
          1 ELECTRON INTEGRALS
          ********************
 TIME TO DO ORDINARY INTEGRALS=      0.01

 ----------------------------------------------------------------------
         RELATIVISTIC ELIMINATION OF SMALL COMPONENT (RESC)
            T.NAKAJIMA, K.HIRAO, CPL 302 (1999) 383-391
     D.G.FEDOROV, T.NAKAJIMA, K.HIRAO, CPL, 335 (2001) 183-187
 ----------------------------------------------------------------------

 TIME TO DO  RELATIVISTIC INTS=      0.47
 ...... END OF ONE-ELECTRON INTEGRALS ......
 STEP CPU TIME =     0.48 TOTAL CPU TIME =        0.7 (    0.0 MIN)
 TOTAL WALL CLOCK TIME=        0.7 SECONDS, CPU UTILIZATION IS  95.65%

          -------------
          GUESS OPTIONS
          -------------
          GUESS =MOREAD            NORB  =      96          NORDER=       0
          MIX   =       F          PRTMO =       F          PUNMO =       F
          TOLZ  = 1.0E-08          TOLE  = 1.0E-05
          SYMDEN=       F          PURIFY=       F

 INITIAL GUESS ORBITALS GENERATED BY MOREAD   ROUTINE.

 SYMMETRIES FOR INITIAL GUESS ORBITALS FOLLOW.   BOTH SET(S).
    24 ORBITALS ARE OCCUPIED (   18 CORE ORBITALS).
     1=A        2=A        3=A        4=A        5=A        6=A        7=A   
     8=A        9=A       10=A       11=A       12=A       13=A       14=A   
    15=A       16=A       17=A       18=A       19=A       20=A       21=A   
    22=A       23=A       24=A       25=A       26=A       27=A       28=A   
    29=A       30=A       31=A       32=A       33=A       34=A       35=A   
    36=A       37=A       38=A       39=A       40=A       41=A       42=A   
    43=A       44=A       45=A       46=A       47=A       48=A       49=A   
    50=A       51=A       52=A       53=A       54=A       55=A       56=A   
    57=A       58=A       59=A       60=A       61=A       62=A       63=A   
    64=A       65=A       66=A       67=A       68=A       69=A       70=A   
    71=A       72=A       73=A       74=A       75=A       76=A       77=A   
    78=A       79=A       80=A       81=A       82=A       83=A       84=A   
    85=A       86=A       87=A       88=A       89=A       90=A       91=A   
    92=A       93=A       94=A       95=A       96=A   
 ...... END OF INITIAL ORBITAL SELECTION ......
 STEP CPU TIME =     0.01 TOTAL CPU TIME =        0.7 (    0.0 MIN)
 TOTAL WALL CLOCK TIME=        0.7 SECONDS, CPU UTILIZATION IS  94.37%

                    ----------------------
                    AO INTEGRAL TECHNOLOGY
                    ----------------------
     S,P,L SHELL ROTATED AXIS INTEGRALS, REPROGRAMMED BY
        KAZUYA ISHIMURA (IMS) AND JOSE SIERRA (SYNSTAR).
     S,P,D,L SHELL ROTATED AXIS INTEGRALS PROGRAMMED BY
        KAZUYA ISHIMURA (INSTITUTE FOR MOLECULAR SCIENCE).
     S,P,D,F,G SHELL TO TOTAL QUARTET ANGULAR MOMENTUM SUM 5,
        ERIC PROGRAM BY GRAHAM FLETCHER (ELORET AND NASA ADVANCED
        SUPERCOMPUTING DIVISION, AMES RESEARCH CENTER).
     S,P,D,F,G,L SHELL GENERAL RYS QUADRATURE PROGRAMMED BY
        MICHEL DUPUIS (PACIFIC NORTHWEST NATIONAL LABORATORY).

          --------------------
          2 ELECTRON INTEGRALS
          --------------------

 THE -PK- OPTION IS OFF, THE INTEGRALS ARE NOT IN SUPERMATRIX FORM.
 STORING   15000 INTEGRALS/RECORD ON DISK, USING 12 BYTES/INTEGRAL.
 TWO ELECTRON INTEGRAL EVALUATION REQUIRES   99661 WORDS OF MEMORY.
 II,JST,KST,LST =  1  1  1  1 NREC =         1 INTLOC =    1
 II,JST,KST,LST =  2  1  1  1 NREC =         1 INTLOC =    2
 II,JST,KST,LST =  3  1  1  1 NREC =         1 INTLOC =    7
 II,JST,KST,LST =  4  1  1  1 NREC =         1 INTLOC =   22
 II,JST,KST,LST =  5  1  1  1 NREC =         1 INTLOC =   56
 II,JST,KST,LST =  6  1  1  1 NREC =         1 INTLOC =  121
 II,JST,KST,LST =  7  1  1  1 NREC =         1 INTLOC =  232
 II,JST,KST,LST =  8  1  1  1 NREC =         1 INTLOC =  407
 II,JST,KST,LST =  9  1  1  1 NREC =         1 INTLOC =  667
 II,JST,KST,LST = 10  1  1  1 NREC =         1 INTLOC = 1036
 II,JST,KST,LST = 11  1  1  1 NREC =         1 INTLOC = 1541
 II,JST,KST,LST = 12  1  1  1 NREC =         1 INTLOC = 1880
 II,JST,KST,LST = 13  1  1  1 NREC =         1 INTLOC = 2720
 II,JST,KST,LST = 14  1  1  1 NREC =         1 INTLOC = 4178
 II,JST,KST,LST = 15  1  1  1 NREC =         1 INTLOC = 6353
 II,JST,KST,LST = 16  1  1  1 NREC =         1 INTLOC = 9497
 II,JST,KST,LST = 17  1  1  1 NREC =         1 INTLOC =13892
 II,JST,KST,LST = 18  1  1  1 NREC =         2 INTLOC = 4886
 II,JST,KST,LST = 19  1  1  1 NREC =         2 INTLOC =12923
 II,JST,KST,LST = 20  1  1  1 NREC =         4 INTLOC = 4388
 II,JST,KST,LST = 21  1  1  1 NREC =         6 INTLOC = 8336
 II,JST,KST,LST = 22  1  1  1 NREC =         9 INTLOC =12536
 II,JST,KST,LST = 23  1  1  1 NREC =        14 INTLOC = 6371
 II,JST,KST,LST = 24  1  1  1 NREC =        20 INTLOC =10037
 II,JST,KST,LST = 25  1  1  1 NREC =        34 INTLOC =12283
 II,JST,KST,LST = 26  1  1  1 NREC =        55 INTLOC =14477
 II,JST,KST,LST = 27  1  1  1 NREC =        59 INTLOC = 8170
 II,JST,KST,LST = 28  1  1  1 NREC =        65 INTLOC =  375
 II,JST,KST,LST = 29  1  1  1 NREC =        71 INTLOC =  578
 II,JST,KST,LST = 30  1  1  1 NREC =        77 INTLOC = 5016
 II,JST,KST,LST = 31  1  1  1 NREC =        83 INTLOC =13445
 II,JST,KST,LST = 32  1  1  1 NREC =        90 INTLOC =10845
 II,JST,KST,LST = 33  1  1  1 NREC =       109 INTLOC = 3193
 TOTAL NUMBER OF NONZERO TWO-ELECTRON INTEGRALS =             1948662
        130 INTEGRAL RECORDS WERE STORED ON DISK FILE  8.
  ...... END OF TWO-ELECTRON INTEGRALS .....
 STEP CPU TIME =     2.92 TOTAL CPU TIME =        3.6 (    0.1 MIN)
 TOTAL WALL CLOCK TIME=        3.7 SECONDS, CPU UTILIZATION IS  97.55%

          --------------------------
                 RHF SCF CALCULATION
          --------------------------

     NUCLEAR ENERGY =        13.9860795119
     MAXIT =   30     NPUNCH=    2
     EXTRAP=T  DAMP=F  SHIFT=F  RSTRCT=F  DIIS=F  DEM=F  SOSCF=T
     DENSITY MATRIX CONV=  1.00E-05
     SOSCF WILL OPTIMIZE    1728 ORBITAL ROTATIONS, SOGTOL=   0.250
     MEMORY REQUIRED FOR RHF ITERS=    102768 WORDS.

 ITER EX DEM     TOTAL ENERGY        E CHANGE  DENSITY CHANGE     ORB. GRAD
   1  0  0    -5281.0577746801 -5281.0577746801 123.296670004   0.000000000
          ---------------START SECOND ORDER SCF---------------
   2  1  0    -5291.7163624350   -10.6585877549   0.930805458   0.147463027
   3  2  0    -5291.7311804735    -0.0148180385   0.279648868   0.048505233
   4  3  0    -5291.7462797250    -0.0150992515   0.032531544   0.007380542
   5  4  0    -5291.7464100980    -0.0001303731   0.006612060   0.001930669
   6  5  0    -5291.7464279862    -0.0000178881   0.004938329   0.000548926
   7  6  0    -5291.7464335752    -0.0000055890   0.000655108   0.000179706
   8  7  0    -5291.7464339989    -0.0000004237   0.000707201   0.000055703
   9  8  0    -5291.7464340876    -0.0000000887   0.000153745   0.000012468
  10  9  0    -5291.7464340907    -0.0000000031   0.000010283   0.000002839
  11 10  0    -5291.7464340910    -0.0000000003   0.000014510   0.000000756
  12 11  0    -5291.7464340909     0.0000000002   0.000003598   0.000000173

          -----------------
          DENSITY CONVERGED
          -----------------
     TIME TO FORM FOCK OPERATORS=       0.3 SECONDS (       0.0 SEC/ITER)
     TIME TO SOLVE SCF EQUATIONS=       0.0 SECONDS (       0.0 SEC/ITER)

 FINAL RHF ENERGY IS    -5291.7464340909 AFTER  12 ITERATIONS

 LZ VALUE ANALYSIS FOR THE MOS
 ----------------------------------------
 MO     1 (    1) HAS LZ(WEIGHT)= 0.00(100.0%) 
 MO     2 (    2) HAS LZ(WEIGHT)= 0.00(100.0%) 
 MO     3 (    3) HAS LZ(WEIGHT)=-1.00( 50.0%)  1.00( 50.0%) 
 MO     4 (    3) HAS LZ(WEIGHT)=-1.00( 50.0%)  1.00( 50.0%) 
 MO     5 (    4) HAS LZ(WEIGHT)= 0.00(100.0%) 
 MO     6 (    5) HAS LZ(WEIGHT)= 0.00(100.0%) 
 MO     7 (    6) HAS LZ(WEIGHT)=-1.00( 50.0%)  1.00( 50.0%) 
 MO     8 (    6) HAS LZ(WEIGHT)=-1.00( 50.0%)  1.00( 50.0%) 
 MO     9 (    7) HAS LZ(WEIGHT)= 0.00(100.0%) 
 MO    10 (    8) HAS LZ(WEIGHT)=-2.00( 50.0%)  2.00( 50.0%) 
 MO    11 (    8) HAS LZ(WEIGHT)=-2.00( 50.0%)  2.00( 50.0%) 
 MO    12 (    9) HAS LZ(WEIGHT)=-1.00( 50.0%)  1.00( 50.0%) 
 MO    13 (    9) HAS LZ(WEIGHT)=-1.00( 50.0%)  1.00( 50.0%) 
 MO    14 (   10) HAS LZ(WEIGHT)= 0.00(100.0%) 
 MO    15 (   11) HAS LZ(WEIGHT)= 0.00(100.0%) 
 MO    16 (   12) HAS LZ(WEIGHT)= 0.00(100.0%) 
 MO    17 (   13) HAS LZ(WEIGHT)=-1.00( 50.0%)  1.00( 50.0%) 
 MO    18 (   13) HAS LZ(WEIGHT)=-1.00( 50.0%)  1.00( 50.0%) 
 MO    19 (   14) HAS LZ(WEIGHT)= 0.00(100.0%) 
 MO    20 (   15) HAS LZ(WEIGHT)=-1.00( 50.0%)  1.00( 50.0%) 
 MO    21 (   15) HAS LZ(WEIGHT)=-1.00( 50.0%)  1.00( 50.0%) 
 MO    22 (   16) HAS LZ(WEIGHT)=-2.00( 50.0%)  2.00( 50.0%) 
 MO    23 (   16) HAS LZ(WEIGHT)=-2.00( 50.0%)  2.00( 50.0%) 
 MO    24 (   17) HAS LZ(WEIGHT)= 0.00(100.0%) 
 MO    25 (   18) HAS LZ(WEIGHT)= 0.00(100.0%) 
 MO    26 (   19) HAS LZ(WEIGHT)= 0.00(100.0%) 
 MO    27 (   20) HAS LZ(WEIGHT)=-1.00( 50.0%)  1.00( 50.0%) 
 MO    28 (   20) HAS LZ(WEIGHT)=-1.00( 50.0%)  1.00( 50.0%) 
 MO    29 (   21) HAS LZ(WEIGHT)= 0.00(100.0%) 
 MO    30 (   22) HAS LZ(WEIGHT)= 0.00(100.0%) 
 MO    31 (   23) HAS LZ(WEIGHT)= 0.00(100.0%) 
 MO    32 (   24) HAS LZ(WEIGHT)=-1.00( 50.0%)  1.00( 50.0%) 
 MO    33 (   24) HAS LZ(WEIGHT)=-1.00( 50.0%)  1.00( 50.0%) 
 MO    34 (   25) HAS LZ(WEIGHT)= 0.00(100.0%) 
 MO    35 (   26) HAS LZ(WEIGHT)= 0.00(100.0%) 
 MO    36 (   27) HAS LZ(WEIGHT)=-1.00( 50.0%)  1.00( 50.0%) 
 MO    37 (   27) HAS LZ(WEIGHT)=-1.00( 50.0%)  1.00( 50.0%) 
 MO    38 (   28) HAS LZ(WEIGHT)=-2.00( 50.0%)  2.00( 50.0%) 
 MO    39 (   28) HAS LZ(WEIGHT)=-2.00( 50.0%)  2.00( 50.0%) 
 MO    40 (   29) HAS LZ(WEIGHT)= 0.00(100.0%) 
 MO    41 (   30) HAS LZ(WEIGHT)=-1.00( 50.0%)  1.00( 50.0%) 
 MO    42 (   30) HAS LZ(WEIGHT)=-1.00( 50.0%)  1.00( 50.0%) 
 MO    43 (   31) HAS LZ(WEIGHT)=-1.00( 50.0%)  1.00( 50.0%) 
 MO    44 (   31) HAS LZ(WEIGHT)=-1.00( 50.0%)  1.00( 50.0%) 
 MO    45 (   32) HAS LZ(WEIGHT)= 0.00(100.0%) 
 MO    46 (   33) HAS LZ(WEIGHT)= 0.00(100.0%) 
 MO    47 (   34) HAS LZ(WEIGHT)= 0.00(100.0%) 
 MO    48 (   35) HAS LZ(WEIGHT)= 0.00(100.0%) 
 MO    49 (   36) HAS LZ(WEIGHT)=-2.00( 50.0%)  2.00( 50.0%) 
 MO    50 (   36) HAS LZ(WEIGHT)=-2.00( 50.0%)  2.00( 50.0%) 
 MO    51 (   37) HAS LZ(WEIGHT)=-3.00( 50.0%)  3.00( 50.0%) 
 MO    52 (   37) HAS LZ(WEIGHT)=-3.00( 50.0%)  3.00( 50.0%) 
 MO    53 (   38) HAS LZ(WEIGHT)=-1.00( 50.0%)  1.00( 50.0%) 
 MO    54 (   38) HAS LZ(WEIGHT)=-1.00( 50.0%)  1.00( 50.0%) 
 MO    55 (   39) HAS LZ(WEIGHT)= 0.00(100.0%) 
 MO    56 (   40) HAS LZ(WEIGHT)= 0.00(100.0%) 
 MO    57 (   41) HAS LZ(WEIGHT)=-1.00( 50.0%)  1.00( 50.0%) 
 MO    58 (   41) HAS LZ(WEIGHT)=-1.00( 50.0%)  1.00( 50.0%) 
 MO    59 (   42) HAS LZ(WEIGHT)=-2.00( 50.0%)  2.00( 50.0%) 
 MO    60 (   42) HAS LZ(WEIGHT)=-2.00( 50.0%)  2.00( 50.0%) 
 MO    61 (   43) HAS LZ(WEIGHT)=-1.00( 50.0%)  1.00( 50.0%) 
 MO    62 (   43) HAS LZ(WEIGHT)=-1.00( 50.0%)  1.00( 50.0%) 
 MO    63 (   44) HAS LZ(WEIGHT)= 0.00(100.0%) 
 MO    64 (   45) HAS LZ(WEIGHT)= 0.00(100.0%) 
 MO    65 (   46) HAS LZ(WEIGHT)= 0.00(100.0%) 
 MO    66 (   47) HAS LZ(WEIGHT)= 0.00(100.0%) 
 MO    67 (   48) HAS LZ(WEIGHT)=-1.00( 50.0%)  1.00( 50.0%) 
 MO    68 (   48) HAS LZ(WEIGHT)=-1.00( 50.0%)  1.00( 50.0%) 
 MO    69 (   49) HAS LZ(WEIGHT)= 0.00(100.0%) 
 MO    70 (   50) HAS LZ(WEIGHT)=-2.00( 50.0%)  2.00( 50.0%) 
 MO    71 (   50) HAS LZ(WEIGHT)=-2.00( 50.0%)  2.00( 50.0%) 
 MO    72 (   51) HAS LZ(WEIGHT)=-3.00( 50.0%)  3.00( 50.0%) 
 MO    73 (   51) HAS LZ(WEIGHT)=-3.00( 50.0%)  3.00( 50.0%) 
 MO    74 (   52) HAS LZ(WEIGHT)=-1.00( 50.0%)  1.00( 50.0%) 
 MO    75 (   52) HAS LZ(WEIGHT)=-1.00( 50.0%)  1.00( 50.0%) 
 MO    76 (   53) HAS LZ(WEIGHT)= 0.00(100.0%) 
 MO    77 (   54) HAS LZ(WEIGHT)=-1.00( 50.0%)  1.00( 50.0%) 
 MO    78 (   54) HAS LZ(WEIGHT)=-1.00( 50.0%)  1.00( 50.0%) 
 MO    79 (   55) HAS LZ(WEIGHT)= 0.00(100.0%) 
 MO    80 (   56) HAS LZ(WEIGHT)= 0.00(100.0%) 
 MO    81 (   57) HAS LZ(WEIGHT)=-2.00( 50.0%)  2.00( 50.0%) 
 MO    82 (   57) HAS LZ(WEIGHT)=-2.00( 50.0%)  2.00( 50.0%) 
 MO    83 (   58) HAS LZ(WEIGHT)=-1.00( 50.0%)  1.00( 50.0%) 
 MO    84 (   58) HAS LZ(WEIGHT)=-1.00( 50.0%)  1.00( 50.0%) 
 MO    85 (   59) HAS LZ(WEIGHT)= 0.00(100.0%) 
 MO    86 (   60) HAS LZ(WEIGHT)=-1.00( 50.0%)  1.00( 50.0%) 
 MO    87 (   60) HAS LZ(WEIGHT)=-1.00( 50.0%)  1.00( 50.0%) 
 MO    88 (   61) HAS LZ(WEIGHT)= 0.00(100.0%) 
 MO    89 (   62) HAS LZ(WEIGHT)= 0.00(100.0%) 
 MO    90 (   63) HAS LZ(WEIGHT)= 0.00(100.0%) 
 MO    91 (   64) HAS LZ(WEIGHT)=-1.00( 50.0%)  1.00( 50.0%) 
 MO    92 (   64) HAS LZ(WEIGHT)=-1.00( 50.0%)  1.00( 50.0%) 
 MO    93 (   65) HAS LZ(WEIGHT)= 0.00(100.0%) 
 MO    94 (   66) HAS LZ(WEIGHT)= 0.00(100.0%) 
 MO    95 (   67) HAS LZ(WEIGHT)= 0.00(100.0%) 
 MO    96 (   68) HAS LZ(WEIGHT)= 0.00(100.0%) 

          ------------
          EIGENVECTORS
          ------------

                      1          2          3          4          5
                 -936.1684  -141.3182  -127.3647  -127.3647  -127.3634
                     A          A          A          A          A   
    1  AG 1  S    0.002510   0.000848   0.000000   0.000000  -0.000000
    2  AG 1  S    1.276039   0.271977   0.000000  -0.000000  -0.000138
    3  AG 1  S   -1.623547  -0.579597   0.000000   0.000000   0.000216
    4  AG 1  S   -4.286095  -4.592921   0.000000   0.000000   0.002256
    5  AG 1  S    4.506175   5.291593  -0.000000  -0.000000  -0.002672
    6  AG 1  S   -0.746448  -0.841810   0.000000  -0.000000   0.000681
    7  AG 1  S   -0.233803  -0.254675   0.000000   0.000000  -0.000040
    8  AG 1  S    0.291730   0.443971  -0.000000  -0.000000   0.001551
    9  AG 1  S   -0.015517  -0.024148   0.000000   0.000000  -0.000154
   10  AG 1  S    0.002469   0.003875   0.000000  -0.000000  -0.000162
   11  AG 1  X   -0.000000   0.000000  -0.009523   1.044301   0.000000
   12  AG 1  Y    0.000000  -0.000000   1.044301   0.009523  -0.000000
   13  AG 1  Z   -0.000012   0.000560   0.000000  -0.000000   1.044404
   14  AG 1  X   -0.000000   0.000000  -0.002813   0.308528  -0.000000
   15  AG 1  Y    0.000000  -0.000000   0.308528   0.002813  -0.000000
   16  AG 1  Z   -0.000065   0.000179   0.000000  -0.000000   0.308953
   17  AG 1  X   -0.000000   0.000000  -0.002891   0.317043  -0.000000
   18  AG 1  Y    0.000000  -0.000000   0.317043   0.002891  -0.000000
   19  AG 1  Z   -0.000062   0.000148   0.000000  -0.000000   0.317443
   20  AG 1  X    0.000000   0.000000   0.000132  -0.014511  -0.000000
   21  AG 1  Y   -0.000000   0.000000  -0.014511  -0.000132  -0.000000
   22  AG 1  Z    0.000007  -0.000016   0.000000   0.000000  -0.014541
   23  AG 1  X    0.000000   0.000000   0.000058  -0.006320  -0.000000
   24  AG 1  Y   -0.000000   0.000000  -0.006320  -0.000058  -0.000000
   25  AG 1  Z    0.000710   0.001029   0.000000   0.000000  -0.006263
   26  AG 1  X    0.000000   0.000000   0.000071  -0.007749  -0.000000
   27  AG 1  Y    0.000000   0.000000  -0.007749  -0.000071  -0.000000
   28  AG 1  Z   -0.002456  -0.004129   0.000000   0.000000  -0.008754
   29  AG 1  X    0.000000   0.000000  -0.000011   0.001154  -0.000000
   30  AG 1  Y    0.000000  -0.000000   0.001154   0.000011  -0.000000
   31  AG 1  Z    0.001091   0.001700   0.000000   0.000000   0.001415
   32  AG 1  X    0.000000   0.000000   0.000002  -0.000256  -0.000000
   33  AG 1  Y    0.000000   0.000000  -0.000256  -0.000002  -0.000000
   34  AG 1  Z   -0.000629  -0.001004   0.000000   0.000000  -0.000454
   35  AG 1 XX    0.370220   0.651543  -0.000000   0.000000  -0.000528
   36  AG 1 YY    0.370220   0.651543  -0.000000   0.000000  -0.000528
   37  AG 1 ZZ    0.370150   0.651455  -0.000000   0.000000  -0.000558
   38  AG 1 XY    0.000000   0.000000   0.000000   0.000000  -0.000000
   39  AG 1 XZ    0.000000   0.000000   0.000000  -0.000018  -0.000000
   40  AG 1 YZ    0.000000   0.000000  -0.000018  -0.000000  -0.000000
   41  AG 1 XX    0.270874   0.277447  -0.000000   0.000000  -0.000246
   42  AG 1 YY    0.270874   0.277447  -0.000000   0.000000  -0.000246
   43  AG 1 ZZ    0.270794   0.277326  -0.000000   0.000000  -0.000194
   44  AG 1 XY    0.000000   0.000000   0.000000   0.000000  -0.000000
   45  AG 1 XZ    0.000000   0.000000  -0.000000   0.000029  -0.000000
   46  AG 1 YZ    0.000000   0.000000   0.000029   0.000000  -0.000000
   47  AG 1 XX    0.116178   0.117421  -0.000000   0.000000  -0.000178
   48  AG 1 YY    0.116178   0.117421  -0.000000   0.000000  -0.000178
   49  AG 1 ZZ    0.116364   0.117686  -0.000000   0.000000  -0.000202
   50  AG 1 XY    0.000000   0.000000   0.000000   0.000000  -0.000000
   51  AG 1 XZ    0.000000   0.000000   0.000000  -0.000012  -0.000000
   52  AG 1 YZ    0.000000   0.000000  -0.000012  -0.000000  -0.000000
   53  AG 1 XX   -0.043907  -0.069216   0.000000   0.000000  -0.000265
   54  AG 1 YY   -0.043907  -0.069216   0.000000   0.000000  -0.000265
   55  AG 1 ZZ   -0.044236  -0.069704   0.000000   0.000000  -0.000279
   56  AG 1 XY    0.000000   0.000000   0.000000   0.000000  -0.000000
   57  AG 1 XZ    0.000000   0.000000  -0.000000   0.000007  -0.000000
   58  AG 1 YZ    0.000000   0.000000   0.000007   0.000000  -0.000000
   59  AG 1 XX   -0.072210  -0.109427   0.000000   0.000000  -0.000376
   60  AG 1 YY   -0.072210  -0.109427   0.000000   0.000000  -0.000376
   61  AG 1 ZZ   -0.072126  -0.109349   0.000000   0.000000  -0.000453
   62  AG 1 XY    0.000000   0.000000   0.000000   0.000000  -0.000000
   63  AG 1 XZ    0.000000   0.000000   0.000000  -0.000005  -0.000000
   64  AG 1 YZ    0.000000   0.000000  -0.000005  -0.000000  -0.000000
   65  AG 1 XXX  -0.000000   0.000000  -0.000086   0.009435  -0.000000
   66  AG 1 YYY   0.000000  -0.000000   0.009435   0.000086  -0.000000
   67  AG 1 ZZZ   0.000029   0.000119   0.000000   0.000000   0.009542
   68  AG 1 XXY   0.000000  -0.000000   0.004219   0.000038  -0.000000
   69  AG 1 XXZ  -0.000035  -0.000014   0.000000   0.000000   0.004266
   70  AG 1 YYX   0.000000   0.000000  -0.000038   0.004219  -0.000000
   71  AG 1 YYZ  -0.000035  -0.000014   0.000000   0.000000   0.004266
   72  AG 1 ZZX   0.000000   0.000000  -0.000038   0.004218  -0.000000
   73  AG 1 ZZY   0.000000  -0.000000   0.004218   0.000038  -0.000000
   74  AG 1 XYZ   0.000000   0.000000   0.000000   0.000000  -0.000000
   75  AG 1 XXX  -0.000000   0.000000  -0.000047   0.005146  -0.000000
   76  AG 1 YYY   0.000000  -0.000000   0.005146   0.000047  -0.000000
   77  AG 1 ZZZ   0.000677   0.001235   0.000000   0.000000   0.005566
   78  AG 1 XXY   0.000000  -0.000000   0.002301   0.000021  -0.000000
   79  AG 1 XXZ   0.000448   0.000765   0.000000   0.000000   0.002501
   80  AG 1 YYX  -0.000000   0.000000  -0.000021   0.002301  -0.000000
   81  AG 1 YYZ   0.000448   0.000765   0.000000   0.000000   0.002501
   82  AG 1 ZZX  -0.000000   0.000000  -0.000021   0.002300  -0.000000
   83  AG 1 ZZY   0.000000  -0.000000   0.002300   0.000021  -0.000000
   84  AG 1 XYZ   0.000000   0.000000   0.000000   0.000000  -0.000000
   85  H  2  S   -0.000138  -0.000156   0.000000   0.000000   0.000020
   86  H  2  S    0.000084   0.000085   0.000000   0.000000  -0.000045
   87  H  2  S    0.000071   0.000123   0.000000   0.000000   0.000034
   88  H  2  S    0.000295   0.000498   0.000000   0.000000   0.000178
   89  H  2  S   -0.000819  -0.001222   0.000000   0.000000  -0.000182
   90  H  2  S    0.001236   0.001943   0.000000   0.000000   0.000376
   91  H  2  X    0.000000   0.000000  -0.000000   0.000000  -0.000000
   92  H  2  Y    0.000000   0.000000   0.000000   0.000000  -0.000000
   93  H  2  Z   -0.000337  -0.000432   0.000000   0.000000   0.000075
   94  H  2  X    0.000000   0.000000  -0.000000   0.000004  -0.000000
   95  H  2  Y    0.000000   0.000000   0.000004   0.000000  -0.000000
   96  H  2  Z   -0.000052  -0.000165   0.000000   0.000000  -0.000127

                      6          7          8          9         10
                  -27.3426   -22.3779   -22.3779   -22.3752   -14.5301
                     A          A          A          A          A   
    1  AG 1  S   -0.000383   0.000000   0.000000  -0.000001  -0.000000
    2  AG 1  S   -0.172977   0.000000   0.000000  -0.000483  -0.000000
    3  AG 1  S    0.954850   0.000000   0.000000   0.002660  -0.000000
    4  AG 1  S    3.936775   0.000000   0.000000   0.011101  -0.000000
    5  AG 1  S   -3.672822   0.000000  -0.000000  -0.010938  -0.000000
    6  AG 1  S    0.375013   0.000000  -0.000000   0.000483  -0.000000
    7  AG 1  S    0.113156  -0.000000   0.000000   0.000219  -0.000000
    8  AG 1  S   -0.266786   0.000000  -0.000000  -0.000389  -0.000000
    9  AG 1  S    0.014729  -0.000000   0.000000   0.000043  -0.000000
   10  AG 1  S   -0.002380   0.000000   0.000000   0.000093  -0.000000
   11  AG 1  X    0.000000   0.010158   0.055270  -0.000000  -0.000000
   12  AG 1  Y    0.000000   0.055270  -0.010158  -0.000000  -0.000000
   13  AG 1  Z    0.000074   0.000000   0.000000   0.056410  -0.000000
   14  AG 1  X    0.000000  -0.086605  -0.471238   0.000000  -0.000000
   15  AG 1  Y    0.000000  -0.471238   0.086605   0.000000  -0.000000
   16  AG 1  Z    0.002849  -0.000000  -0.000000  -0.477544  -0.000000
   17  AG 1  X    0.000000   0.089700   0.488079  -0.000000  -0.000000
   18  AG 1  Y    0.000000   0.488079  -0.089700  -0.000000  -0.000000
   19  AG 1  Z    0.000418   0.000000   0.000000   0.497808  -0.000000
   20  AG 1  X    0.000000  -0.010950  -0.059583   0.000000  -0.000000
   21  AG 1  Y    0.000000  -0.059583   0.010950   0.000000  -0.000000
   22  AG 1  Z    0.000127  -0.000000  -0.000000  -0.060698  -0.000000
   23  AG 1  X   -0.000000  -0.000493  -0.002683   0.000000  -0.000000
   24  AG 1  Y    0.000000  -0.002683   0.000493   0.000000  -0.000000
   25  AG 1  Z   -0.000576   0.000000   0.000000  -0.002765  -0.000000
   26  AG 1  X    0.000000   0.000458   0.002493  -0.000000  -0.000000
   27  AG 1  Y   -0.000000   0.002493  -0.000458   0.000000  -0.000000
   28  AG 1  Z    0.002625   0.000000   0.000000   0.003146  -0.000000
   29  AG 1  X   -0.000000  -0.000094  -0.000510   0.000000  -0.000000
   30  AG 1  Y    0.000000  -0.000510   0.000094   0.000000  -0.000000
   31  AG 1  Z   -0.001037   0.000000   0.000000  -0.000656  -0.000000
   32  AG 1  X    0.000000   0.000023   0.000123   0.000000  -0.000000
   33  AG 1  Y   -0.000000   0.000123  -0.000023   0.000000  -0.000000
   34  AG 1  Z    0.000620   0.000000   0.000000   0.000223  -0.000000
   35  AG 1 XX   -0.467887  -0.000000   0.000000  -0.001902  -0.000084
   36  AG 1 YY   -0.467887  -0.000000   0.000000  -0.001902   0.000084
   37  AG 1 ZZ   -0.467651  -0.000000   0.000000   0.000308  -0.000000
   38  AG 1 XY    0.000000   0.000000   0.000000   0.000000   0.998825
   39  AG 1 XZ    0.000000   0.000231   0.001257   0.000000   0.000000
   40  AG 1 YZ    0.000000   0.001257  -0.000231   0.000000   0.000000
   41  AG 1 XX   -0.117118  -0.000000   0.000000  -0.000189   0.000000
   42  AG 1 YY   -0.117118  -0.000000   0.000000  -0.000189  -0.000000
   43  AG 1 ZZ   -0.116920  -0.000000   0.000000   0.000041  -0.000000
   44  AG 1 XY    0.000000   0.000000   0.000000   0.000000  -0.001554
   45  AG 1 XZ    0.000000   0.000025   0.000134   0.000000  -0.000000
   46  AG 1 YZ    0.000000   0.000134  -0.000025   0.000000  -0.000000
   47  AG 1 XX   -0.046805  -0.000000   0.000000  -0.000037  -0.000000
   48  AG 1 YY   -0.046805  -0.000000   0.000000  -0.000037   0.000000
   49  AG 1 ZZ   -0.047015  -0.000000   0.000000  -0.000142  -0.000000
   50  AG 1 XY    0.000000   0.000000   0.000000   0.000000   0.001338
   51  AG 1 XZ    0.000000  -0.000011  -0.000062   0.000000  -0.000000
   52  AG 1 YZ    0.000000  -0.000062   0.000011   0.000000  -0.000000
   53  AG 1 XX    0.042448  -0.000000   0.000000   0.000043  -0.000000
   54  AG 1 YY    0.042448  -0.000000   0.000000   0.000043   0.000000
   55  AG 1 ZZ    0.042779  -0.000000   0.000000   0.000150  -0.000000
   56  AG 1 XY    0.000000   0.000000   0.000000   0.000000   0.001278
   57  AG 1 XZ    0.000000   0.000009   0.000048   0.000000  -0.000000
   58  AG 1 YZ    0.000000   0.000048  -0.000009   0.000000  -0.000000
   59  AG 1 XX    0.065581  -0.000000   0.000000   0.000105   0.000000
   60  AG 1 YY    0.065581  -0.000000   0.000000   0.000105  -0.000000
   61  AG 1 ZZ    0.065537  -0.000000   0.000000   0.000123  -0.000000
   62  AG 1 XY    0.000000   0.000000   0.000000   0.000000  -0.000508
   63  AG 1 XZ    0.000000  -0.000003  -0.000016   0.000000  -0.000000
   64  AG 1 YZ    0.000000  -0.000016   0.000003   0.000000  -0.000000
   65  AG 1 XXX   0.000000   0.002093   0.011391   0.000000  -0.000000
   66  AG 1 YYY   0.000000   0.011391  -0.002093   0.000000  -0.000000
   67  AG 1 ZZZ  -0.000122   0.000000   0.000000   0.011546  -0.000000
   68  AG 1 XXY   0.000000   0.005094  -0.000936   0.000000  -0.000000
   69  AG 1 XXZ  -0.000018   0.000000   0.000000   0.005161   0.000000
   70  AG 1 YYX   0.000000   0.000936   0.005094   0.000000  -0.000000
   71  AG 1 YYZ  -0.000018   0.000000   0.000000   0.005161  -0.000000
   72  AG 1 ZZX   0.000000   0.000934   0.005084   0.000000  -0.000000
   73  AG 1 ZZY   0.000000   0.005084  -0.000934   0.000000  -0.000000
   74  AG 1 XYZ   0.000000   0.000000   0.000000   0.000000  -0.000124
   75  AG 1 XXX  -0.000000  -0.000219  -0.001189   0.000000  -0.000000
   76  AG 1 YYY   0.000000  -0.001189   0.000219   0.000000  -0.000000
   77  AG 1 ZZZ  -0.000814   0.000000   0.000000  -0.001447  -0.000000
   78  AG 1 XXY   0.000000  -0.000532   0.000098   0.000000  -0.000000
   79  AG 1 XXZ  -0.000490   0.000000   0.000000  -0.000658  -0.000000
   80  AG 1 YYX  -0.000000  -0.000098  -0.000532   0.000000  -0.000000
   81  AG 1 YYZ  -0.000490   0.000000   0.000000  -0.000658   0.000000
   82  AG 1 ZZX  -0.000000  -0.000098  -0.000534   0.000000  -0.000000
   83  AG 1 ZZY   0.000000  -0.000534   0.000098   0.000000  -0.000000
   84  AG 1 XYZ   0.000000   0.000000   0.000000   0.000000   0.000027
   85  H  2  S    0.000063   0.000000   0.000000  -0.000007  -0.000000
   86  H  2  S   -0.000008   0.000000   0.000000  -0.000012  -0.000000
   87  H  2  S   -0.000110   0.000000   0.000000   0.000033  -0.000000
   88  H  2  S   -0.000288   0.000000   0.000000  -0.000141  -0.000000
   89  H  2  S    0.000717   0.000000   0.000000   0.000126  -0.000000
   90  H  2  S   -0.001190   0.000000   0.000000  -0.000200  -0.000000
   91  H  2  X    0.000000  -0.000001  -0.000003   0.000000  -0.000000
   92  H  2  Y    0.000000  -0.000003   0.000001   0.000000  -0.000000
   93  H  2  Z    0.000231   0.000000   0.000000  -0.000034  -0.000000
   94  H  2  X    0.000000   0.000001   0.000004   0.000000  -0.000000
   95  H  2  Y    0.000000   0.000004  -0.000001   0.000000  -0.000000
   96  H  2  Z    0.000133   0.000000   0.000000   0.000082  -0.000000

                     11         12         13         14         15
                  -14.5301   -14.5275   -14.5275   -14.5256    -4.2791
                     A          A          A          A          A   
    1  AG 1  S   -0.000000   0.000000   0.000000   0.000000  -0.000161
    2  AG 1  S   -0.000000   0.000000   0.000000   0.000063  -0.078665
    3  AG 1  S   -0.000000   0.000000   0.000000  -0.000294   0.441243
    4  AG 1  S    0.000000   0.000000   0.000000  -0.001147   1.485706
    5  AG 1  S   -0.000000   0.000000   0.000000   0.001289  -1.028344
    6  AG 1  S   -0.000000   0.000000   0.000000   0.000413   0.860892
    7  AG 1  S   -0.000000   0.000000   0.000000  -0.001443   0.368362
    8  AG 1  S   -0.000000   0.000000   0.000000  -0.000656  -0.210516
    9  AG 1  S   -0.000000   0.000000   0.000000  -0.000255   0.012078
   10  AG 1  S   -0.000000   0.000000   0.000000   0.000041  -0.002027
   11  AG 1  X   -0.000000  -0.000166  -0.000006  -0.000000  -0.000000
   12  AG 1  Y   -0.000000   0.000006  -0.000166  -0.000000   0.000000
   13  AG 1  Z   -0.000000   0.000000   0.000000  -0.000176   0.000031
   14  AG 1  X   -0.000000  -0.000421  -0.000015  -0.000000  -0.000000
   15  AG 1  Y   -0.000000   0.000015  -0.000421  -0.000000   0.000000
   16  AG 1  Z   -0.000000   0.000000   0.000000  -0.000372   0.000078
   17  AG 1  X   -0.000000  -0.001632  -0.000059  -0.000000  -0.000000
   18  AG 1  Y   -0.000000   0.000059  -0.001632  -0.000000   0.000000
   19  AG 1  Z   -0.000000   0.000000   0.000000  -0.001775  -0.003987
   20  AG 1  X   -0.000000   0.000018   0.000001  -0.000000   0.000000
   21  AG 1  Y   -0.000000  -0.000001   0.000018  -0.000000   0.000000
   22  AG 1  Z   -0.000000   0.000000   0.000000   0.000015  -0.004844
   23  AG 1  X   -0.000000  -0.000042  -0.000002  -0.000000  -0.000000
   24  AG 1  Y   -0.000000   0.000002  -0.000042  -0.000000   0.000000
   25  AG 1  Z   -0.000000   0.000000   0.000000  -0.000515  -0.005913
   26  AG 1  X   -0.000000  -0.000034  -0.000001  -0.000000   0.000000
   27  AG 1  Y   -0.000000   0.000001  -0.000034  -0.000000  -0.000000
   28  AG 1  Z   -0.000000   0.000000   0.000000   0.001566  -0.000379
   29  AG 1  X   -0.000000  -0.000015  -0.000001  -0.000000  -0.000000
   30  AG 1  Y   -0.000000   0.000001  -0.000015  -0.000000   0.000000
   31  AG 1  Z   -0.000000   0.000000   0.000000  -0.000223  -0.000380
   32  AG 1  X   -0.000000   0.000000   0.000000  -0.000000   0.000000
   33  AG 1  Y   -0.000000  -0.000000   0.000000  -0.000000  -0.000000
   34  AG 1  Z   -0.000000   0.000000   0.000000  -0.000111   0.000378
   35  AG 1 XX   -0.865008   0.000000  -0.000000  -0.499243  -0.110359
   36  AG 1 YY    0.865008   0.000000  -0.000000  -0.499243  -0.110359
   37  AG 1 ZZ   -0.000000  -0.000000   0.000000   0.999117  -0.109824
   38  AG 1 XY   -0.000097  -0.000000  -0.000000  -0.000000   0.000000
   39  AG 1 XZ   -0.000000   0.998162   0.035842   0.000000   0.000000
   40  AG 1 YZ   -0.000000  -0.035842   0.998162  -0.000000   0.000000
   41  AG 1 XX    0.001346   0.000000   0.000000   0.000695   0.043508
   42  AG 1 YY   -0.001346   0.000000   0.000000   0.000695   0.043508
   43  AG 1 ZZ   -0.000000   0.000000   0.000000  -0.001420   0.044919
   44  AG 1 XY    0.000000   0.000000   0.000000  -0.000000   0.000000
   45  AG 1 XZ   -0.000000  -0.001568  -0.000056  -0.000000   0.000000
   46  AG 1 YZ   -0.000000   0.000056  -0.001568  -0.000000   0.000000
   47  AG 1 XX   -0.001158   0.000000   0.000000  -0.000188   0.043016
   48  AG 1 YY    0.001158   0.000000   0.000000  -0.000188   0.043016
   49  AG 1 ZZ   -0.000000   0.000000   0.000000   0.001731   0.044788
   50  AG 1 XY   -0.000000   0.000000   0.000000  -0.000000   0.000000
   51  AG 1 XZ   -0.000000   0.001395   0.000050  -0.000000   0.000000
   52  AG 1 YZ   -0.000000  -0.000050   0.001395  -0.000000   0.000000
   53  AG 1 XX   -0.001107   0.000000   0.000000  -0.000450   0.041595
   54  AG 1 YY    0.001107   0.000000   0.000000  -0.000450   0.041595
   55  AG 1 ZZ   -0.000000   0.000000   0.000000   0.001795   0.041376
   56  AG 1 XY   -0.000000   0.000000   0.000000  -0.000000   0.000000
   57  AG 1 XZ   -0.000000   0.001246   0.000045  -0.000000   0.000000
   58  AG 1 YZ   -0.000000  -0.000045   0.001246  -0.000000   0.000000
   59  AG 1 XX    0.000440   0.000000   0.000000   0.000459   0.051410
   60  AG 1 YY   -0.000440   0.000000   0.000000   0.000459   0.051410
   61  AG 1 ZZ   -0.000000   0.000000   0.000000  -0.000272   0.051396
   62  AG 1 XY    0.000000   0.000000   0.000000  -0.000000   0.000000
   63  AG 1 XZ   -0.000000  -0.000522  -0.000019  -0.000000   0.000000
   64  AG 1 YZ   -0.000000   0.000019  -0.000522  -0.000000   0.000000
   65  AG 1 XXX  -0.000000   0.000101   0.000004  -0.000000  -0.000000
   66  AG 1 YYY  -0.000000  -0.000004   0.000101  -0.000000   0.000000
   67  AG 1 ZZZ  -0.000000   0.000000   0.000000  -0.000194   0.000153
   68  AG 1 XXY  -0.000000  -0.000002   0.000045  -0.000000   0.000000
   69  AG 1 XXZ   0.000107   0.000000   0.000000   0.000142   0.000221
   70  AG 1 YYX  -0.000000   0.000045   0.000002  -0.000000   0.000000
   71  AG 1 YYZ  -0.000107   0.000000   0.000000   0.000142   0.000221
   72  AG 1 ZZX  -0.000000  -0.000171  -0.000006  -0.000000   0.000000
   73  AG 1 ZZY  -0.000000   0.000006  -0.000171  -0.000000   0.000000
   74  AG 1 XYZ   0.000000   0.000000   0.000000  -0.000000   0.000000
   75  AG 1 XXX  -0.000000   0.000001   0.000000  -0.000000  -0.000000
   76  AG 1 YYY  -0.000000  -0.000000   0.000001  -0.000000   0.000000
   77  AG 1 ZZZ  -0.000000   0.000000   0.000000  -0.000323   0.000379
   78  AG 1 XXY  -0.000000  -0.000000   0.000000  -0.000000   0.000000
   79  AG 1 XXZ  -0.000023   0.000000   0.000000  -0.000336   0.000033
   80  AG 1 YYX  -0.000000   0.000000   0.000000  -0.000000  -0.000000
   81  AG 1 YYZ   0.000023   0.000000   0.000000  -0.000336   0.000033
   82  AG 1 ZZX  -0.000000   0.000033   0.000001  -0.000000  -0.000000
   83  AG 1 ZZY  -0.000000  -0.000001   0.000033  -0.000000   0.000000
   84  AG 1 XYZ  -0.000000   0.000000   0.000000  -0.000000   0.000000
   85  H  2  S   -0.000000   0.000000   0.000000   0.000005   0.000099
   86  H  2  S   -0.000000   0.000000   0.000000   0.000092   0.000201
   87  H  2  S   -0.000000   0.000000   0.000000  -0.000340   0.000393
   88  H  2  S   -0.000000   0.000000   0.000000  -0.000151  -0.000386
   89  H  2  S   -0.000000   0.000000   0.000000   0.000220   0.000646
   90  H  2  S   -0.000000   0.000000   0.000000   0.000017  -0.000929
   91  H  2  X   -0.000000  -0.000027  -0.000001  -0.000000   0.000000
   92  H  2  Y   -0.000000   0.000001  -0.000027  -0.000000   0.000000
   93  H  2  Z   -0.000000   0.000000   0.000000   0.000146  -0.000081
   94  H  2  X   -0.000000   0.000041   0.000001  -0.000000   0.000000
   95  H  2  Y   -0.000000  -0.000001   0.000041  -0.000000   0.000000
   96  H  2  Z   -0.000000   0.000000   0.000000   0.000365   0.000072

                     16         17         18         19         20
                   -2.7517    -2.7498    -2.7498    -0.5390    -0.5243
                     A          A          A          A          A   
    1  AG 1  S   -0.000002  -0.000000  -0.000000   0.000002   0.000000
    2  AG 1  S   -0.000971  -0.000000  -0.000000   0.000905   0.000000
    3  AG 1  S    0.005598   0.000000  -0.000000  -0.004460   0.000000
    4  AG 1  S    0.019105   0.000000   0.000000  -0.012557   0.000000
    5  AG 1  S   -0.014252  -0.000000  -0.000000   0.003372  -0.000000
    6  AG 1  S    0.015626  -0.000000  -0.000000  -0.002900  -0.000000
    7  AG 1  S   -0.004537   0.000000   0.000000  -0.073234   0.000000
    8  AG 1  S   -0.019916  -0.000000  -0.000000   0.113920  -0.000000
    9  AG 1  S    0.003654   0.000000   0.000000  -0.041998   0.000000
   10  AG 1  S    0.005618  -0.000000  -0.000000   0.004737   0.000000
   11  AG 1  X    0.000000   0.001386   0.011517   0.000000   0.000090
   12  AG 1  Y   -0.000000   0.011517  -0.001386   0.000000   0.000330
   13  AG 1  Z    0.011284   0.000000  -0.000000  -0.000094   0.000000
   14  AG 1  X    0.000000   0.016084   0.133628   0.000000   0.001009
   15  AG 1  Y   -0.000000   0.133628  -0.016084   0.000000   0.003703
   16  AG 1  Z    0.132683   0.000000  -0.000000  -0.002082   0.000000
   17  AG 1  X    0.000000   0.077548   0.644279   0.000000   0.002908
   18  AG 1  Y   -0.000000   0.644279  -0.077548   0.000000   0.010670
   19  AG 1  Z    0.648046   0.000000  -0.000000  -0.009838   0.000000
   20  AG 1  X    0.000000   0.088697   0.736903   0.000000   0.003431
   21  AG 1  Y   -0.000000   0.736903  -0.088697   0.000000   0.012591
   22  AG 1  Z    0.744317   0.000000  -0.000000  -0.012752   0.000000
   23  AG 1  X    0.000000   0.053526   0.444702   0.000000   0.001825
   24  AG 1  Y   -0.000000   0.444702  -0.053526   0.000000   0.006695
   25  AG 1  Z    0.443736   0.000000  -0.000000  -0.028568   0.000000
   26  AG 1  X    0.000000   0.027681   0.229973  -0.000000  -0.003403
   27  AG 1  Y   -0.000000   0.229973  -0.027681   0.000000  -0.012487
   28  AG 1  Z    0.251956   0.000000  -0.000000   0.054354  -0.000000
   29  AG 1  X   -0.000000  -0.003957  -0.032878   0.000000  -0.002308
   30  AG 1  Y    0.000000  -0.032878   0.003957  -0.000000  -0.008467
   31  AG 1  Z   -0.040508  -0.000000  -0.000000   0.003050   0.000000
   32  AG 1  X    0.000000   0.000985   0.008182   0.000000   0.000314
   33  AG 1  Y    0.000000   0.008182  -0.000985   0.000000   0.001154
   34  AG 1  Z    0.014264   0.000000  -0.000000  -0.020054   0.000000
   35  AG 1 XX   -0.000602   0.000000   0.000000   0.005495   0.000000
   36  AG 1 YY   -0.000602   0.000000   0.000000   0.005495   0.000000
   37  AG 1 ZZ    0.000085   0.000000   0.000000   0.000437   0.000000
   38  AG 1 XY    0.000000  -0.000000  -0.000000   0.000000   0.000000
   39  AG 1 XZ    0.000000   0.000043   0.000359   0.000000  -0.000861
   40  AG 1 YZ    0.000000   0.000359  -0.000043   0.000000  -0.003161
   41  AG 1 XX    0.002152  -0.000000   0.000000  -0.123710   0.000000
   42  AG 1 YY    0.002152  -0.000000   0.000000  -0.123710   0.000000
   43  AG 1 ZZ   -0.000354  -0.000000   0.000000   0.251348   0.000000
   44  AG 1 XY    0.000000  -0.000000  -0.000000   0.000000  -0.000000
   45  AG 1 XZ    0.000000  -0.000170  -0.001411   0.000000   0.070207
   46  AG 1 YZ    0.000000  -0.001411   0.000170   0.000000   0.257618
   47  AG 1 XX    0.005160  -0.000000   0.000000  -0.254976   0.000000
   48  AG 1 YY    0.005160  -0.000000   0.000000  -0.254976   0.000000
   49  AG 1 ZZ   -0.002463  -0.000000   0.000000   0.530842   0.000000
   50  AG 1 XY    0.000000  -0.000000  -0.000000   0.000000  -0.000000
   51  AG 1 XZ    0.000000  -0.000478  -0.003972   0.000000   0.148024
   52  AG 1 YZ    0.000000  -0.003972   0.000478   0.000000   0.543157
   53  AG 1 XX    0.003774   0.000000   0.000000  -0.202220   0.000000
   54  AG 1 YY    0.003774   0.000000   0.000000  -0.202220   0.000000
   55  AG 1 ZZ    0.000932   0.000000   0.000000   0.370073   0.000000
   56  AG 1 XY    0.000000  -0.000000  -0.000000   0.000000  -0.000000
   57  AG 1 XZ    0.000000  -0.000339  -0.002814   0.000000   0.103130
   58  AG 1 YZ    0.000000  -0.002814   0.000339   0.000000   0.378423
   59  AG 1 XX    0.004192   0.000000   0.000000  -0.058873   0.000000
   60  AG 1 YY    0.004192   0.000000   0.000000  -0.058873   0.000000
   61  AG 1 ZZ    0.007402   0.000000   0.000000   0.044065   0.000000
   62  AG 1 XY    0.000000  -0.000000  -0.000000   0.000000  -0.000000
   63  AG 1 XZ    0.000000   0.000089   0.000736   0.000000   0.018178
   64  AG 1 YZ    0.000000   0.000736  -0.000089   0.000000   0.066704
   65  AG 1 XXX  -0.000000  -0.005352  -0.044465   0.000000   0.000444
   66  AG 1 YYY   0.000000  -0.044465   0.005352   0.000000   0.001628
   67  AG 1 ZZZ  -0.045962  -0.000000   0.000000  -0.001597   0.000000
   68  AG 1 XXY   0.000000  -0.019886   0.002394   0.000000   0.000728
   69  AG 1 XXZ  -0.020283  -0.000000  -0.000000   0.002693   0.000000
   70  AG 1 YYX   0.000000  -0.002394  -0.019886   0.000000   0.000198
   71  AG 1 YYZ  -0.020283  -0.000000  -0.000000   0.002693   0.000000
   72  AG 1 ZZX   0.000000  -0.002346  -0.019495   0.000000  -0.001139
   73  AG 1 ZZY   0.000000  -0.019495   0.002346   0.000000  -0.004180
   74  AG 1 XYZ   0.000000  -0.000000  -0.000000   0.000000   0.000000
   75  AG 1 XXX  -0.000000  -0.014041  -0.116651   0.000000   0.001360
   76  AG 1 YYY   0.000000  -0.116651   0.014041  -0.000000   0.004992
   77  AG 1 ZZZ  -0.125521  -0.000000   0.000000  -0.013531   0.000000
   78  AG 1 XXY   0.000000  -0.052168   0.006279   0.000000   0.002232
   79  AG 1 XXZ  -0.056788  -0.000000   0.000000  -0.005453   0.000000
   80  AG 1 YYX  -0.000000  -0.006279  -0.052168   0.000000   0.000608
   81  AG 1 YYZ  -0.056788  -0.000000   0.000000  -0.005453   0.000000
   82  AG 1 ZZX  -0.000000  -0.006268  -0.052077   0.000000  -0.003019
   83  AG 1 ZZY   0.000000  -0.052077   0.006268   0.000000  -0.011077
   84  AG 1 XYZ   0.000000  -0.000000  -0.000000   0.000000   0.000000
   85  H  2  S    0.000426  -0.000000  -0.000000   0.016886   0.000000
   86  H  2  S    0.001773  -0.000000  -0.000000   0.038240   0.000000
   87  H  2  S    0.003337  -0.000000  -0.000000   0.080228   0.000000
   88  H  2  S   -0.006000  -0.000000  -0.000000   0.051899   0.000000
   89  H  2  S    0.006721   0.000000  -0.000000   0.075731   0.000000
   90  H  2  S   -0.012537  -0.000000  -0.000000   0.003816   0.000000
   91  H  2  X    0.000000   0.000018   0.000148   0.000000   0.000505
   92  H  2  Y    0.000000   0.000148  -0.000018   0.000000   0.001853
   93  H  2  Z   -0.002567  -0.000000  -0.000000  -0.002541   0.000000
   94  H  2  X    0.000000   0.000030   0.000247   0.000000   0.001791
   95  H  2  Y    0.000000   0.000247  -0.000030   0.000000   0.006570
   96  H  2  Z    0.003292  -0.000000  -0.000000   0.007436   0.000000

                     21         22         23         24         25
                   -0.5243    -0.5236    -0.5236    -0.3240    -0.0015
                     A          A          A          A          A   
    1  AG 1  S    0.000000  -0.000000   0.000000   0.000025   0.000012
    2  AG 1  S    0.000000  -0.000000   0.000000   0.012619   0.005979
    3  AG 1  S    0.000000  -0.000000   0.000000  -0.071025  -0.034062
    4  AG 1  S    0.000000  -0.000000   0.000000  -0.229677  -0.111585
    5  AG 1  S   -0.000000  -0.000000  -0.000000   0.148990   0.075550
    6  AG 1  S    0.000000  -0.000000  -0.000000  -0.202737  -0.094225
    7  AG 1  S   -0.000000  -0.000000   0.000000  -0.107325  -0.048330
    8  AG 1  S    0.000000  -0.000000  -0.000000   0.353747   0.163623
    9  AG 1  S   -0.000000  -0.000000   0.000000   0.147936   0.013046
   10  AG 1  S    0.000000  -0.000000   0.000000  -0.007416   1.208550
   11  AG 1  X    0.000330  -0.000000   0.000000  -0.000000   0.000000
   12  AG 1  Y   -0.000090  -0.000000   0.000000  -0.000000   0.000000
   13  AG 1  Z    0.000000  -0.000000   0.000000  -0.001583   0.001292
   14  AG 1  X    0.003703  -0.000000   0.000000  -0.000000   0.000000
   15  AG 1  Y   -0.001009  -0.000000   0.000000  -0.000000  -0.000000
   16  AG 1  Z    0.000000  -0.000000   0.000000  -0.021261   0.017437
   17  AG 1  X    0.010670   0.000000   0.000000  -0.000000   0.000000
   18  AG 1  Y   -0.002908  -0.000000   0.000000  -0.000000  -0.000000
   19  AG 1  Z    0.000000  -0.000000   0.000000  -0.072611   0.059954
   20  AG 1  X    0.012591   0.000000   0.000000  -0.000000   0.000000
   21  AG 1  Y   -0.003431  -0.000000   0.000000  -0.000000   0.000000
   22  AG 1  Z    0.000000  -0.000000   0.000000  -0.090890   0.074989
   23  AG 1  X    0.006695   0.000000   0.000000   0.000000   0.000000
   24  AG 1  Y   -0.001825  -0.000000   0.000000  -0.000000  -0.000000
   25  AG 1  Z    0.000000  -0.000000   0.000000  -0.049273   0.046572
   26  AG 1  X   -0.012487  -0.000000   0.000000  -0.000000  -0.000000
   27  AG 1  Y    0.003403  -0.000000   0.000000   0.000000   0.000000
   28  AG 1  Z   -0.000000  -0.000000   0.000000  -0.019724   0.011939
   29  AG 1  X   -0.008467  -0.000000   0.000000   0.000000   0.000000
   30  AG 1  Y    0.002308  -0.000000   0.000000  -0.000000  -0.000000
   31  AG 1  Z    0.000000  -0.000000   0.000000   0.075546  -0.109766
   32  AG 1  X    0.001154  -0.000000   0.000000  -0.000000  -0.000000
   33  AG 1  Y   -0.000314  -0.000000   0.000000   0.000000   0.000000
   34  AG 1  Z    0.000000  -0.000000   0.000000   0.035587  -0.280244
   35  AG 1 XX    0.000000  -0.000002   0.002786   0.009603   0.002579
   36  AG 1 YY    0.000000   0.000002  -0.002786   0.009603   0.002579
   37  AG 1 ZZ    0.000000  -0.000000   0.000000   0.008800   0.002755
   38  AG 1 XY    0.000000  -0.003217  -0.000003  -0.000000   0.000000
   39  AG 1 XZ   -0.003161  -0.000000   0.000000  -0.000000   0.000000
   40  AG 1 YZ    0.000861  -0.000000   0.000000  -0.000000   0.000000
   41  AG 1 XX    0.000000   0.000203  -0.231737   0.026377  -0.018146
   42  AG 1 YY    0.000000  -0.000203   0.231737   0.026377  -0.018146
   43  AG 1 ZZ   -0.000000  -0.000000   0.000000  -0.094318   0.012748
   44  AG 1 XY   -0.000000   0.267587   0.000234  -0.000000   0.000000
   45  AG 1 XZ    0.257618   0.000000   0.000000  -0.000000   0.000000
   46  AG 1 YZ   -0.070207   0.000000   0.000000  -0.000000   0.000000
   47  AG 1 XX    0.000000   0.000428  -0.488577   0.071177  -0.031209
   48  AG 1 YY    0.000000  -0.000428   0.488577   0.071177  -0.031209
   49  AG 1 ZZ   -0.000000  -0.000000   0.000000  -0.183223   0.033463
   50  AG 1 XY   -0.000000   0.564161   0.000494  -0.000000   0.000000
   51  AG 1 XZ    0.543157   0.000000   0.000000  -0.000000   0.000000
   52  AG 1 YZ   -0.148024   0.000000   0.000000  -0.000000   0.000000
   53  AG 1 XX   -0.000000   0.000298  -0.340163   0.061460  -0.021930
   54  AG 1 YY   -0.000000  -0.000298   0.340163   0.061460  -0.021930
   55  AG 1 ZZ   -0.000000  -0.000000   0.000000  -0.109221   0.024961
   56  AG 1 XY   -0.000000   0.392786   0.000344  -0.000000   0.000000
   57  AG 1 XZ    0.378423   0.000000   0.000000  -0.000000   0.000000
   58  AG 1 YZ   -0.103130   0.000000   0.000000  -0.000000   0.000000
   59  AG 1 XX   -0.000000   0.000052  -0.059355  -0.000808  -0.007691
   60  AG 1 YY   -0.000000  -0.000052   0.059355  -0.000808  -0.007691
   61  AG 1 ZZ   -0.000000  -0.000000   0.000000  -0.050443   0.018882
   62  AG 1 XY   -0.000000   0.068538   0.000060  -0.000000   0.000000
   63  AG 1 XZ    0.066704   0.000000   0.000000  -0.000000   0.000000
   64  AG 1 YZ   -0.018178   0.000000   0.000000  -0.000000   0.000000
   65  AG 1 XXX   0.001628  -0.000000   0.000000  -0.000000   0.000000
   66  AG 1 YYY  -0.000444  -0.000000   0.000000  -0.000000  -0.000000
   67  AG 1 ZZZ   0.000000  -0.000000   0.000000   0.011307  -0.006820
   68  AG 1 XXY  -0.000198  -0.000000   0.000000  -0.000000   0.000000
   69  AG 1 XXZ   0.000000  -0.000002   0.002453  -0.000111  -0.001823
   70  AG 1 YYX   0.000728  -0.000000   0.000000  -0.000000   0.000000
   71  AG 1 YYZ   0.000000   0.000002  -0.002453  -0.000111  -0.001823
   72  AG 1 ZZX  -0.004180  -0.000000   0.000000  -0.000000   0.000000
   73  AG 1 ZZY   0.001139  -0.000000   0.000000  -0.000000   0.000000
   74  AG 1 XYZ   0.000000  -0.002832  -0.000002  -0.000000   0.000000
   75  AG 1 XXX   0.004992  -0.000000   0.000000   0.000000   0.000000
   76  AG 1 YYY  -0.001360  -0.000000   0.000000  -0.000000  -0.000000
   77  AG 1 ZZZ   0.000000  -0.000000   0.000000   0.043523  -0.021976
   78  AG 1 XXY  -0.000608  -0.000000   0.000000  -0.000000  -0.000000
   79  AG 1 XXZ   0.000000  -0.000007   0.007811   0.005903  -0.006615
   80  AG 1 YYX   0.002232  -0.000000   0.000000   0.000000   0.000000
   81  AG 1 YYZ   0.000000   0.000007  -0.007811   0.005903  -0.006615
   82  AG 1 ZZX  -0.011077  -0.000000   0.000000   0.000000   0.000000
   83  AG 1 ZZY   0.003019  -0.000000   0.000000  -0.000000  -0.000000
   84  AG 1 XYZ   0.000000  -0.009019  -0.000008  -0.000000   0.000000
   85  H  2  S    0.000000  -0.000000   0.000000   0.036049  -0.010280
   86  H  2  S    0.000000  -0.000000   0.000000   0.085910  -0.034502
   87  H  2  S    0.000000  -0.000000   0.000000   0.186752  -0.022679
   88  H  2  S    0.000000  -0.000000   0.000000   0.296127  -0.227154
   89  H  2  S    0.000000  -0.000000   0.000000   0.164066   0.288115
   90  H  2  S    0.000000  -0.000000   0.000000   0.009757  -0.781056
   91  H  2  X    0.001853  -0.000000   0.000000  -0.000000   0.000000
   92  H  2  Y   -0.000505  -0.000000   0.000000  -0.000000   0.000000
   93  H  2  Z    0.000000  -0.000000   0.000000  -0.004168  -0.000194
   94  H  2  X    0.006570   0.000000   0.000000  -0.000000   0.000000
   95  H  2  Y   -0.001791  -0.000000   0.000000  -0.000000   0.000000
   96  H  2  Z    0.000000  -0.000000   0.000000  -0.030823  -0.000315

                     26         27         28         29         30
                    0.0448     0.0601     0.0601     0.0875     0.1295
                     A          A          A          A          A   
    1  AG 1  S   -0.000015  -0.000000  -0.000000   0.000000   0.000009
    2  AG 1  S   -0.006408   0.000000  -0.000000   0.000740   0.004113
    3  AG 1  S    0.027147  -0.000000   0.000000  -0.007887  -0.021617
    4  AG 1  S    0.057000  -0.000000   0.000000  -0.038369  -0.064559
    5  AG 1  S    0.032216   0.000000  -0.000000   0.053719   0.029686
    6  AG 1  S    0.111410   0.000000  -0.000000  -0.012341  -0.007281
    7  AG 1  S    0.352023   0.000000   0.000000   0.158678  -0.483790
    8  AG 1  S    0.158138   0.000000  -0.000000   0.120104   1.043412
    9  AG 1  S   -1.919341  -0.000000  -0.000000  -1.085945   2.912447
   10  AG 1  S    2.299925  -0.000000   0.000000  -1.694909   0.362748
   11  AG 1  X   -0.000000  -0.001241  -0.008245  -0.000000   0.000000
   12  AG 1  Y   -0.000000  -0.008245   0.001241  -0.000000   0.000000
   13  AG 1  Z   -0.003397  -0.000000  -0.000000   0.004740  -0.007535
   14  AG 1  X    0.000000  -0.010000  -0.066445  -0.000000   0.000000
   15  AG 1  Y    0.000000  -0.066445   0.010000  -0.000000  -0.000000
   16  AG 1  Z   -0.029810  -0.000000  -0.000000   0.038271  -0.049539
   17  AG 1  X    0.000000  -0.016602  -0.110315  -0.000000   0.000000
   18  AG 1  Y    0.000000  -0.110315   0.016602  -0.000000   0.000000
   19  AG 1  Z   -0.060382  -0.000000  -0.000000   0.063484  -0.033828
   20  AG 1  X    0.000000  -0.013059  -0.086774  -0.000000   0.000000
   21  AG 1  Y   -0.000000  -0.086774   0.013059   0.000000   0.000000
   22  AG 1  Z   -0.057139  -0.000000  -0.000000   0.050473   0.018075
   23  AG 1  X    0.000000  -0.033821  -0.224727   0.000000   0.000000
   24  AG 1  Y    0.000000  -0.224727   0.033821   0.000000  -0.000000
   25  AG 1  Z   -0.100974  -0.000000  -0.000000   0.134290  -0.230675
   26  AG 1  X   -0.000000   0.126317   0.839335  -0.000000  -0.000000
   27  AG 1  Y   -0.000000   0.839335  -0.126317  -0.000000   0.000000
   28  AG 1  Z    0.311290   0.000000   0.000000  -0.523280   1.150634
   29  AG 1  X    0.000000  -0.078896  -0.524236   0.000000   0.000000
   30  AG 1  Y    0.000000  -0.524236   0.078896  -0.000000   0.000000
   31  AG 1  Z   -0.168057  -0.000000  -0.000000   0.526236  -1.061737
   32  AG 1  X   -0.000000   0.185039   1.229527  -0.000000  -0.000000
   33  AG 1  Y   -0.000000   1.229527  -0.185039  -0.000000  -0.000000
   34  AG 1  Z    0.667493   0.000000   0.000000  -1.123150   2.894856
   35  AG 1 XX   -0.044826  -0.000000   0.000000  -0.016127   0.009483
   36  AG 1 YY   -0.044826  -0.000000   0.000000  -0.016127   0.009483
   37  AG 1 ZZ   -0.044319  -0.000000   0.000000  -0.015995   0.010449
   38  AG 1 XY   -0.000000  -0.000000  -0.000000  -0.000000   0.000000
   39  AG 1 XZ   -0.000000   0.000110   0.000733  -0.000000   0.000000
   40  AG 1 YZ   -0.000000   0.000733  -0.000110  -0.000000   0.000000
   41  AG 1 XX   -0.017452  -0.000000   0.000000  -0.019514  -0.021050
   42  AG 1 YY   -0.017452  -0.000000   0.000000  -0.019514  -0.021050
   43  AG 1 ZZ   -0.030693  -0.000000   0.000000   0.000474   0.043170
   44  AG 1 XY   -0.000000  -0.000000  -0.000000  -0.000000   0.000000
   45  AG 1 XZ   -0.000000   0.000713   0.004735  -0.000000   0.000000
   46  AG 1 YZ   -0.000000   0.004735  -0.000713  -0.000000   0.000000
   47  AG 1 XX   -0.058698  -0.000000   0.000000  -0.047847  -0.021363
   48  AG 1 YY   -0.058698  -0.000000   0.000000  -0.047847  -0.021363
   49  AG 1 ZZ   -0.089000  -0.000000   0.000000  -0.004000   0.115301
   50  AG 1 XY   -0.000000  -0.000000  -0.000000  -0.000000   0.000000
   51  AG 1 XZ   -0.000000   0.000841   0.005589  -0.000000   0.000000
   52  AG 1 YZ   -0.000000   0.005589  -0.000841  -0.000000   0.000000
   53  AG 1 XX   -0.039359  -0.000000   0.000000  -0.004326  -0.174335
   54  AG 1 YY   -0.039359  -0.000000   0.000000  -0.004326  -0.174335
   55  AG 1 ZZ   -0.050952  -0.000000   0.000000   0.010005  -0.099807
   56  AG 1 XY   -0.000000  -0.000000  -0.000000  -0.000000   0.000000
   57  AG 1 XZ   -0.000000   0.003022   0.020081  -0.000000   0.000000
   58  AG 1 YZ   -0.000000   0.020081  -0.003022  -0.000000   0.000000
   59  AG 1 XX    0.088533  -0.000000   0.000000   0.054146  -0.334775
   60  AG 1 YY    0.088533  -0.000000   0.000000   0.054146  -0.334775
   61  AG 1 ZZ    0.047584  -0.000000   0.000000   0.155522  -0.321948
   62  AG 1 XY   -0.000000  -0.000000  -0.000000  -0.000000   0.000000
   63  AG 1 XZ   -0.000000  -0.006075  -0.040368  -0.000000   0.000000
   64  AG 1 YZ   -0.000000  -0.040368   0.006075  -0.000000   0.000000
   65  AG 1 XXX  -0.000000  -0.001976  -0.013131  -0.000000   0.000000
   66  AG 1 YYY  -0.000000  -0.013131   0.001976  -0.000000   0.000000
   67  AG 1 ZZZ  -0.002505  -0.000000  -0.000000   0.005730  -0.026384
   68  AG 1 XXY  -0.000000  -0.005872   0.000884  -0.000000   0.000000
   69  AG 1 XXZ  -0.001439  -0.000000  -0.000000   0.004967  -0.009552
   70  AG 1 YYX  -0.000000  -0.000884  -0.005872  -0.000000   0.000000
   71  AG 1 YYZ  -0.001439  -0.000000  -0.000000   0.004967  -0.009552
   72  AG 1 ZZX  -0.000000  -0.000970  -0.006448  -0.000000   0.000000
   73  AG 1 ZZY  -0.000000  -0.006448   0.000970  -0.000000   0.000000
   74  AG 1 XYZ  -0.000000  -0.000000  -0.000000  -0.000000   0.000000
   75  AG 1 XXX   0.000000  -0.040377  -0.268292   0.000000   0.000000
   76  AG 1 YYY   0.000000  -0.268292   0.040377  -0.000000  -0.000000
   77  AG 1 ZZZ  -0.092390  -0.000000  -0.000000   0.160464  -0.397931
   78  AG 1 XXY   0.000000  -0.119984   0.018057  -0.000000  -0.000000
   79  AG 1 XXZ  -0.042863  -0.000000  -0.000000   0.071816  -0.166777
   80  AG 1 YYX   0.000000  -0.018057  -0.119984  -0.000000   0.000000
   81  AG 1 YYZ  -0.042863  -0.000000  -0.000000   0.071816  -0.166777
   82  AG 1 ZZX   0.000000  -0.018066  -0.120045   0.000000   0.000000
   83  AG 1 ZZY   0.000000  -0.120045   0.018066  -0.000000  -0.000000
   84  AG 1 XYZ  -0.000000  -0.000000  -0.000000  -0.000000   0.000000
   85  H  2  S    0.005324  -0.000000  -0.000000  -0.013106  -0.016437
   86  H  2  S    0.011093  -0.000000  -0.000000   0.002447   0.005942
   87  H  2  S    0.030542  -0.000000   0.000000  -0.172548  -0.262785
   88  H  2  S    0.037589   0.000000  -0.000000   0.240186   0.625844
   89  H  2  S    0.164712  -0.000000   0.000000  -1.436720  -2.362473
   90  H  2  S   -0.755475   0.000000  -0.000000   4.143161  -1.793198
   91  H  2  X   -0.000000   0.000430   0.002859  -0.000000   0.000000
   92  H  2  Y   -0.000000   0.002859  -0.000430  -0.000000   0.000000
   93  H  2  Z    0.001425  -0.000000  -0.000000  -0.001948   0.000190
   94  H  2  X   -0.000000   0.002169   0.014411  -0.000000   0.000000
   95  H  2  Y   -0.000000   0.014411  -0.002169  -0.000000   0.000000
   96  H  2  Z    0.008057   0.000000  -0.000000   0.057169  -0.003121

                     31         32         33         34         35
                    0.2169     0.2382     0.2382     0.3079     0.4016
                     A          A          A          A          A   
    1  AG 1  S   -0.000027   0.000000   0.000000   0.000009   0.000011
    2  AG 1  S   -0.017503   0.000000  -0.000000   0.005396   0.005470
    3  AG 1  S    0.125393  -0.000000   0.000000  -0.036283  -0.030205
    4  AG 1  S    0.497082  -0.000000   0.000000  -0.137221  -0.095175
    5  AG 1  S   -0.529597   0.000000  -0.000000   0.134286   0.057077
    6  AG 1  S    0.442721   0.000000  -0.000000  -0.173159  -0.259474
    7  AG 1  S   -1.913260  -0.000000   0.000000   0.762222   1.003841
    8  AG 1  S    1.270370   0.000000  -0.000000  -0.778448  -2.664622
    9  AG 1  S    3.863183   0.000000  -0.000000  -0.964864  -1.706566
   10  AG 1  S   -1.546059  -0.000000   0.000000  -1.113641   0.237627
   11  AG 1  X   -0.000000  -0.004735  -0.017457   0.000000  -0.000000
   12  AG 1  Y    0.000000  -0.017457   0.004735   0.000000  -0.000000
   13  AG 1  Z    0.005272   0.000000   0.000000   0.015268   0.011380
   14  AG 1  X   -0.000000  -0.027245  -0.100449   0.000000  -0.000000
   15  AG 1  Y    0.000000  -0.100449   0.027245  -0.000000  -0.000000
   16  AG 1  Z    0.028379   0.000000  -0.000000   0.090412   0.074163
   17  AG 1  X   -0.000000   0.001213   0.004473   0.000000  -0.000000
   18  AG 1  Y    0.000000   0.004473  -0.001213  -0.000000  -0.000000
   19  AG 1  Z   -0.013356   0.000000   0.000000   0.012641   0.048346
   20  AG 1  X    0.000000   0.044089   0.162548   0.000000  -0.000000
   21  AG 1  Y   -0.000000   0.162548  -0.044089  -0.000000  -0.000000
   22  AG 1  Z   -0.066461  -0.000000   0.000000  -0.117638  -0.032669
   23  AG 1  X   -0.000000  -0.128034  -0.472043   0.000000   0.000000
   24  AG 1  Y    0.000000  -0.472043   0.128034  -0.000000  -0.000000
   25  AG 1  Z    0.153805   0.000000  -0.000000   0.484307   0.425966
   26  AG 1  X    0.000000   0.767057   2.828027  -0.000000  -0.000000
   27  AG 1  Y   -0.000000   2.828027  -0.767057   0.000000   0.000000
   28  AG 1  Z   -0.959093  -0.000000   0.000000  -2.741321  -2.058171
   29  AG 1  X   -0.000000  -0.724938  -2.672742   0.000000  -0.000000
   30  AG 1  Y    0.000000  -2.672742   0.724938   0.000000   0.000000
   31  AG 1  Z    0.946756   0.000000  -0.000000   3.019787   1.783897
   32  AG 1  X    0.000000   0.394104   1.453006   0.000000   0.000000
   33  AG 1  Y   -0.000000   1.453006  -0.394104  -0.000000  -0.000000
   34  AG 1  Z   -0.355237  -0.000000   0.000000  -1.862712  -1.611460
   35  AG 1 XX    0.107896  -0.000000   0.000000  -0.023606   0.003675
   36  AG 1 YY    0.107896  -0.000000   0.000000  -0.023606   0.003675
   37  AG 1 ZZ    0.107813  -0.000000   0.000000  -0.021121   0.012173
   38  AG 1 XY    0.000000   0.000000   0.000000   0.000000  -0.000000
[...]
   23  AG 1  X   -3.675617   0.015847   0.000000  -0.000000   0.000000
   24  AG 1  Y   -0.015847  -3.675617  -0.000000  -0.000000  -0.000000
   25  AG 1  Z   -0.000000   0.000000  -3.650320   0.007016  -0.010385
   26  AG 1  X   -4.952340   0.021351   0.000000  -0.000000  -0.000000
   27  AG 1  Y   -0.021351  -4.952340  -0.000000  -0.000000   0.000000
   28  AG 1  Z   -0.000000   0.000000  -5.657045  -0.012285   0.018240
   29  AG 1  X    0.736187  -0.003174  -0.000000   0.000000   0.000000
   30  AG 1  Y    0.003174   0.736187   0.000000   0.000000  -0.000000
   31  AG 1  Z    0.000000  -0.000000   0.913721   0.008005  -0.012409
   32  AG 1  X   -0.161972   0.000698  -0.000000  -0.000000  -0.000000
   33  AG 1  Y   -0.000698  -0.161972  -0.000000  -0.000000   0.000000
   34  AG 1  Z    0.000000   0.000000  -0.291086  -0.004243   0.006445
   35  AG 1 XX    0.000000  -0.000000  -0.125066  13.235588  -0.324847
   36  AG 1 YY    0.000000  -0.000000  -0.125066  13.235588  -0.324847
   37  AG 1 ZZ    0.000000  -0.000000  -0.123456  13.234831  -0.323704
   38  AG 1 XY    0.000000   0.000000  -0.000000  -0.000000   0.000000
   39  AG 1 XZ    0.000080  -0.000000  -0.000000  -0.000000   0.000000
   40  AG 1 YZ    0.000000   0.000080  -0.000000  -0.000000   0.000000
   41  AG 1 XX    0.000000  -0.000000  -0.097750   2.914372  -7.832183
   42  AG 1 YY    0.000000  -0.000000  -0.097750   2.914372  -7.832183
   43  AG 1 ZZ    0.000000  -0.000000  -0.095829   2.913546  -7.830887
   44  AG 1 XY    0.000000   0.000000  -0.000000  -0.000000   0.000000
   45  AG 1 XZ    0.000074  -0.000000  -0.000000  -0.000000   0.000000
   46  AG 1 YZ    0.000000   0.000074  -0.000000  -0.000000   0.000000
   47  AG 1 XX    0.000000  -0.000000  -0.138580   1.922285  -3.292601
   48  AG 1 YY    0.000000  -0.000000  -0.138580   1.922285  -3.292601
   49  AG 1 ZZ    0.000000  -0.000000  -0.140545   1.924147  -3.295512
   50  AG 1 XY    0.000000   0.000000  -0.000000  -0.000000   0.000000
   51  AG 1 XZ   -0.000130   0.000001  -0.000000  -0.000000   0.000000
   52  AG 1 YZ   -0.000001  -0.000130  -0.000000  -0.000000   0.000000
   53  AG 1 XX    0.000000  -0.000000  -0.258226  -0.316124   0.477675
   54  AG 1 YY    0.000000  -0.000000  -0.258226  -0.316124   0.477675
   55  AG 1 ZZ    0.000000  -0.000000  -0.274413  -0.319018   0.482192
   56  AG 1 XY    0.000000   0.000000  -0.000000  -0.000000   0.000000
   57  AG 1 XZ    0.000384  -0.000002  -0.000000  -0.000000   0.000000
   58  AG 1 YZ    0.000002   0.000384  -0.000000  -0.000000   0.000000
   59  AG 1 XX    0.000000  -0.000000  -0.375034  -0.593722   0.922092
   60  AG 1 YY    0.000000  -0.000000  -0.375034  -0.593722   0.922092
   61  AG 1 ZZ    0.000000  -0.000000  -0.422533  -0.592176   0.919470
   62  AG 1 XY    0.000000   0.000000  -0.000000  -0.000000   0.000000
   63  AG 1 XZ   -0.001406   0.000006  -0.000000  -0.000000   0.000000
   64  AG 1 YZ   -0.000006  -0.001406  -0.000000  -0.000000   0.000000
   65  AG 1 XXX   4.777313  -0.020597  -0.000000   0.000000   0.000000
   66  AG 1 YYY   0.020597   4.777313   0.000000   0.000000  -0.000000
   67  AG 1 ZZZ   0.000000  -0.000000   4.856287  -0.001631   0.002056
   68  AG 1 XXY   0.009211   2.136479   0.000000   0.000000  -0.000000
   69  AG 1 XXZ   0.000000  -0.000000   2.171770  -0.001210   0.001674
   70  AG 1 YYX   2.136479  -0.009211  -0.000000   0.000000   0.000000
   71  AG 1 YYZ   0.000000  -0.000000   2.171770  -0.001210   0.001674
   72  AG 1 ZZX   2.136769  -0.009212  -0.000000   0.000000   0.000000
   73  AG 1 ZZY   0.009212   2.136769   0.000000   0.000000  -0.000000
   74  AG 1 XYZ   0.000000   0.000000  -0.000000  -0.000000   0.000000
   75  AG 1 XXX   3.263302  -0.014069  -0.000000   0.000000   0.000000
   76  AG 1 YYY   0.014069   3.263302   0.000000   0.000000  -0.000000
   77  AG 1 ZZZ   0.000000  -0.000000   3.565515   0.001468  -0.001992
   78  AG 1 XXY   0.006292   1.459393   0.000000   0.000000  -0.000000
   79  AG 1 XXZ   0.000000  -0.000000   1.602431   0.001955  -0.002940
   80  AG 1 YYX   1.459393  -0.006292  -0.000000   0.000000   0.000000
   81  AG 1 YYZ   0.000000  -0.000000   1.602431   0.001955  -0.002940
   82  AG 1 ZZX   1.458513  -0.006288  -0.000000   0.000000   0.000000
   83  AG 1 ZZY   0.006288   1.458513   0.000000   0.000000  -0.000000
   84  AG 1 XYZ   0.000000   0.000000  -0.000000  -0.000000   0.000000
   85  H  2  S    0.000000   0.000000   0.019713  -0.002125   0.003320
   86  H  2  S    0.000000   0.000000  -0.039431   0.001522  -0.002120
   87  H  2  S    0.000000   0.000000   0.031252   0.000177  -0.000659
   88  H  2  S    0.000000  -0.000000   0.110241   0.001601  -0.001894
   89  H  2  S    0.000000   0.000000  -0.115077  -0.007089   0.010907
   90  H  2  S    0.000000  -0.000000   0.240943   0.008941  -0.013583
   91  H  2  X    0.000345  -0.000001  -0.000000  -0.000000   0.000000
   92  H  2  Y    0.000001   0.000345  -0.000000  -0.000000   0.000000
   93  H  2  Z    0.000000  -0.000000   0.050767  -0.004080   0.006695
   94  H  2  X    0.002102  -0.000009  -0.000000  -0.000000   0.000000
   95  H  2  Y    0.000009   0.002102  -0.000000  -0.000000   0.000000
   96  H  2  Z    0.000000   0.000000  -0.084122   0.001072  -0.002055

                     96
               256026.9194
                     A   
    1  AG 1  S   -1.000119
    2  AG 1  S    0.093039
    3  AG 1  S   -0.467205
    4  AG 1  S   -1.230099
    5  AG 1  S    1.290672
    6  AG 1  S   -0.214929
    7  AG 1  S   -0.067617
    8  AG 1  S    0.077139
    9  AG 1  S   -0.004073
   10  AG 1  S    0.000646
   11  AG 1  X    0.000000
   12  AG 1  Y    0.000000
   13  AG 1  Z   -0.000005
   14  AG 1  X    0.000000
   15  AG 1  Y    0.000000
   16  AG 1  Z   -0.000036
   17  AG 1  X    0.000000
   18  AG 1  Y    0.000000
   19  AG 1  Z   -0.000034
   20  AG 1  X    0.000000
   21  AG 1  Y    0.000000
   22  AG 1  Z    0.000003
   23  AG 1  X    0.000000
   24  AG 1  Y    0.000000
   25  AG 1  Z    0.000190
   26  AG 1  X    0.000000
   27  AG 1  Y    0.000000
   28  AG 1  Z   -0.000627
   29  AG 1  X    0.000000
   30  AG 1  Y    0.000000
   31  AG 1  Z    0.000286
   32  AG 1  X    0.000000
   33  AG 1  Y    0.000000
   34  AG 1  Z   -0.000164
   35  AG 1 XX    0.105667
   36  AG 1 YY    0.105667
   37  AG 1 ZZ    0.105648
   38  AG 1 XY    0.000000
   39  AG 1 XZ    0.000000
   40  AG 1 YZ    0.000000
   41  AG 1 XX    0.078185
   42  AG 1 YY    0.078185
   43  AG 1 ZZ    0.078164
   44  AG 1 XY    0.000000
   45  AG 1 XZ    0.000000
   46  AG 1 YZ    0.000000
   47  AG 1 XX    0.034151
   48  AG 1 YY    0.034151
   49  AG 1 ZZ    0.034201
   50  AG 1 XY    0.000000
   51  AG 1 XZ    0.000000
   52  AG 1 YZ    0.000000
   53  AG 1 XX   -0.011473
   54  AG 1 YY   -0.011473
   55  AG 1 ZZ   -0.011560
   56  AG 1 XY    0.000000
   57  AG 1 XZ    0.000000
   58  AG 1 YZ    0.000000
   59  AG 1 XX   -0.019120
   60  AG 1 YY   -0.019120
   61  AG 1 ZZ   -0.019095
   62  AG 1 XY    0.000000
   63  AG 1 XZ    0.000000
   64  AG 1 YZ    0.000000
   65  AG 1 XXX   0.000000
   66  AG 1 YYY   0.000000
   67  AG 1 ZZZ   0.000003
   68  AG 1 XXY   0.000000
   69  AG 1 XXZ  -0.000012
   70  AG 1 YYX   0.000000
   71  AG 1 YYZ  -0.000012
   72  AG 1 ZZX   0.000000
   73  AG 1 ZZY   0.000000
   74  AG 1 XYZ   0.000000
   75  AG 1 XXX   0.000000
   76  AG 1 YYY   0.000000
   77  AG 1 ZZZ   0.000167
   78  AG 1 XXY   0.000000
   79  AG 1 XXZ   0.000114
   80  AG 1 YYX   0.000000
   81  AG 1 YYZ   0.000114
   82  AG 1 ZZX   0.000000
   83  AG 1 ZZY   0.000000
   84  AG 1 XYZ   0.000000
   85  H  2  S   -0.000040
   86  H  2  S    0.000024
   87  H  2  S    0.000018
   88  H  2  S    0.000075
   89  H  2  S   -0.000218
   90  H  2  S    0.000323
   91  H  2  X    0.000000
   92  H  2  Y    0.000000
   93  H  2  Z   -0.000094
   94  H  2  X    0.000000
   95  H  2  Y    0.000000
   96  H  2  Z   -0.000009
 ...... END OF RHF CALCULATION ......
 STEP CPU TIME =     0.42 TOTAL CPU TIME =        4.0 (    0.1 MIN)
 TOTAL WALL CLOCK TIME=        6.2 SECONDS, CPU UTILIZATION IS  65.10%

     ----------------------------------------------------------------
     PROPERTY VALUES FOR THE RHF   SELF-CONSISTENT FIELD WAVEFUNCTION
     ----------------------------------------------------------------

          -----------------
          ENERGY COMPONENTS
          -----------------

         WAVEFUNCTION NORMALIZATION =       1.0000000000

                ONE ELECTRON ENERGY =   -7327.0990516429
                TWO ELECTRON ENERGY =    2021.3665380402
           NUCLEAR REPULSION ENERGY =      13.9860795119
                                      ------------------
                       TOTAL ENERGY =   -5291.7464340909

 ELECTRON-ELECTRON POTENTIAL ENERGY =    2021.3665380402
  NUCLEUS-ELECTRON POTENTIAL ENERGY =  -12518.3179525852
   NUCLEUS-NUCLEUS POTENTIAL ENERGY =      13.9860795119
                                      ------------------
             TOTAL POTENTIAL ENERGY =  -10482.9653350331
               TOTAL KINETIC ENERGY =    5191.2189009422
                 VIRIAL RATIO (V/T) =       2.0193649189

          ---------------------------------------
          MULLIKEN AND LOWDIN POPULATION ANALYSES
          ---------------------------------------

     ATOMIC MULLIKEN POPULATION IN EACH MOLECULAR ORBITAL

                      1          2          3          4          5

                  2.000000   2.000000   2.000000   2.000000   2.000000

    1             1.999998   2.000020   2.000000   2.000000   1.999999
    2             0.000002  -0.000020   0.000000   0.000000   0.000001

                      6          7          8          9         10

                  2.000000   2.000000   2.000000   2.000000   2.000000

    1             1.999945   2.000000   2.000000   1.999994   2.000000
    2             0.000055  -0.000000  -0.000000   0.000006   0.000000

                     11         12         13         14         15

                  2.000000   2.000000   2.000000   2.000000   2.000000

    1             2.000000   2.000000   2.000000   2.000006   2.000133
    2             0.000000   0.000000   0.000000  -0.000006  -0.000133

                     16         17         18         19         20

                  2.000000   2.000000   2.000000   2.000000   2.000000

    1             2.001797   1.999965   1.999965   1.844516   1.997236
    2            -0.001797   0.000035   0.000035   0.155484   0.002764

                     21         22         23         24

                  2.000000   2.000000   2.000000   2.000000

    1             1.997236   2.000000   2.000000   0.822924
    2             0.002764   0.000000   0.000000   1.177076

               ----- POPULATIONS IN EACH AO -----
                             MULLIKEN      LOWDIN
              1  AG 1  S      0.00008     0.00017
              2  AG 1  S      2.53559     1.99270
              3  AG 1  S     -1.13863     1.47876
              4  AG 1  S      8.23158     0.87802
              5  AG 1  S     -4.17680     0.44481
              6  AG 1  S      1.01346     0.50555
              7  AG 1  S      0.55611     0.39260
              8  AG 1  S      0.30979     0.15016
              9  AG 1  S      0.19287     0.12535
             10  AG 1  S     -0.00716     0.04146
             11  AG 1  X      2.08693     1.98106
             12  AG 1  Y      2.08693     1.98106
             13  AG 1  Z      2.08704     1.98107
             14  AG 1  X      0.94244     0.96837
             15  AG 1  Y      0.94244     0.96837
             16  AG 1  Z      0.93930     0.96851
             17  AG 1  X      0.97238     0.99477
             18  AG 1  Y      0.97238     0.99477
             19  AG 1  Z      0.97590     0.99548
             20  AG 1  X      1.25528     0.78264
             21  AG 1  Y      1.25528     0.78264
             22  AG 1  Z      1.26784     0.79218
             23  AG 1  X      0.78688     0.39598
             24  AG 1  Y      0.78688     0.39598
             25  AG 1  Z      0.77151     0.39259
             26  AG 1  X      0.26674     0.09291
             27  AG 1  Y      0.26674     0.09291
             28  AG 1  Z      0.28596     0.11360
             29  AG 1  X     -0.01800     0.00825
             30  AG 1  Y     -0.01800     0.00825
             31  AG 1  Z      0.05226     0.10148
             32  AG 1  X      0.00176     0.00071
             33  AG 1  Y      0.00176     0.00071
             34  AG 1  Z      0.02931     0.05234
             35  AG 1 XX      1.40226     1.40034
             36  AG 1 YY      1.40226     1.40034
             37  AG 1 ZZ      1.40263     1.40028
             38  AG 1 XY      1.99765     1.75802
             39  AG 1 XZ      1.99762     1.75799
             40  AG 1 YZ      1.99762     1.75799
             41  AG 1 XX      0.39033     0.63286
             42  AG 1 YY      0.39033     0.63286
             43  AG 1 ZZ      0.40142     0.65268
             44  AG 1 XY      0.29503     0.50234
             45  AG 1 XZ      0.29388     0.50108
             46  AG 1 YZ      0.29388     0.50108
             47  AG 1 XX      0.74518     0.88654
             48  AG 1 YY      0.74518     0.88654
             49  AG 1 ZZ      0.72190     0.87252
             50  AG 1 XY      1.02372     1.02839
             51  AG 1 XZ      1.02026     1.02477
             52  AG 1 YZ      1.02026     1.02477
             53  AG 1 XX      0.47549     0.47236
             54  AG 1 YY      0.47549     0.47236
             55  AG 1 ZZ      0.37788     0.39603
             56  AG 1 XY      0.62025     0.59723
             57  AG 1 XZ      0.62040     0.59368
             58  AG 1 YZ      0.62040     0.59368
             59  AG 1 XX      0.05447     0.14718
             60  AG 1 YY      0.05447     0.14718
             61  AG 1 ZZ     -0.01561     0.20835
             62  AG 1 XY      0.06313     0.11380
             63  AG 1 XZ      0.06420     0.11115
             64  AG 1 YZ      0.06420     0.11115
             65  AG 1 XXX    -0.08057     0.38042
             66  AG 1 YYY    -0.08057     0.38042
             67  AG 1 ZZZ    -0.08282     0.38142
             68  AG 1 XXY    -0.02686     0.16929
             69  AG 1 XXZ    -0.02716     0.17097
             70  AG 1 YYX    -0.02686     0.16929
             71  AG 1 YYZ    -0.02716     0.17097
             72  AG 1 ZZX    -0.02636     0.16961
             73  AG 1 ZZY    -0.02636     0.16961
             74  AG 1 XYZ     0.00004     0.00004
             75  AG 1 XXX    -0.09611     0.02994
             76  AG 1 YYY    -0.09611     0.02994
             77  AG 1 ZZZ    -0.07725     0.05905
             78  AG 1 XXY    -0.03204     0.01318
             79  AG 1 XXZ    -0.03298     0.01501
             80  AG 1 YYX    -0.03204     0.01318
             81  AG 1 YYZ    -0.03298     0.01501
             82  AG 1 ZZX    -0.03163     0.01375
             83  AG 1 ZZY    -0.03163     0.01375
             84  AG 1 XYZ     0.00018     0.00018
             85  H  2  S      0.02626     0.03308
             86  H  2  S      0.11186     0.13543
             87  H  2  S      0.33187     0.29063
             88  H  2  S      0.53394     0.34191
             89  H  2  S      0.31173     0.24891
             90  H  2  S      0.01295     0.09549
             91  H  2  X      0.00017     0.00024
             92  H  2  Y      0.00017     0.00024
             93  H  2  Z      0.00080     0.00261
             94  H  2  X      0.00263     0.01020
             95  H  2  Y      0.00263     0.01020
             96  H  2  Z      0.00125     0.02424

          ----- MULLIKEN ATOMIC OVERLAP POPULATIONS -----
          (OFF-DIAGONAL ELEMENTS NEED TO BE MULTIPLIED BY 2)

             1           2

    1   46.3454421
    2    0.3182914   1.0179751

          TOTAL MULLIKEN AND LOWDIN ATOMIC POPULATIONS
       ATOM         MULL.POP.    CHARGE          LOW.POP.     CHARGE
    1 SILVER       46.663733    0.336267        46.806817    0.193183
    2 HYDROGEN      1.336267   -0.336267         1.193183   -0.193183

          -------------------------------
          BOND ORDER AND VALENCE ANALYSIS     BOND ORDER THRESHOLD=0.050
          -------------------------------

                   BOND                       BOND                       BOND
  ATOM PAIR DIST  ORDER      ATOM PAIR DIST  ORDER      ATOM PAIR DIST  ORDER
    1   2  1.778  0.885

                       TOTAL       BONDED        FREE
      ATOM            VALENCE     VALENCE     VALENCE
    1 SILVER            0.885       0.885       0.000
    2 HYDROGEN          0.885       0.885      -0.000

          ---------------------
          ELECTROSTATIC MOMENTS
          ---------------------

 POINT   1           X           Y           Z (BOHR)    CHARGE
                 0.000000    0.000000   -0.231563       -0.00 (A.U.)
         DX          DY          DZ         /D/  (DEBYE)
     0.000000    0.000000   -4.521403    4.521403
 ...... END OF PROPERTY EVALUATION ......
 STEP CPU TIME =     0.01 TOTAL CPU TIME =        4.0 (    0.1 MIN)
 TOTAL WALL CLOCK TIME=        6.2 SECONDS, CPU UTILIZATION IS  65.15%

 BEGINNING ONE ELECTRON GRADIENT...
 OPENING FILE DAFL30 WITH      24 LOGICAL RECORDS OF    9216 WORDS
 WITH A MAXIMUM OF         120 PHYSICAL RECORDS OF    2048 WORDS
 ..... END OF 1-ELECTRON GRADIENT ......
 STEP CPU TIME =     1.58 TOTAL CPU TIME =        5.6 (    0.1 MIN)
 TOTAL WALL CLOCK TIME=        7.8 SECONDS, CPU UTILIZATION IS  72.07%

          ----------------------
          GRADIENT OF THE ENERGY
          ----------------------

 THE MINIMUM MEMORY REQUIRED FOR THIS RUN IS     371405 WORDS.
 USING     986390 WORDS FOR 2E- DERIVATIVE INTEGRAL CONTRIBUTIONS.
 THE COARSE/FINE SCHWARZ SCREENINGS SKIPPED            0/           8 BLOCKS.
 THE NUMBER OF GRADIENT INTEGRAL BLOCKS COMPUTED WAS    103610
 ...... END OF 2-ELECTRON GRADIENT ......
 STEP CPU TIME =     3.16 TOTAL CPU TIME =        8.8 (    0.1 MIN)
 TOTAL WALL CLOCK TIME=       10.9 SECONDS, CPU UTILIZATION IS  80.15%

                         ----------------------
                         GRADIENT OF THE ENERGY
                         ----------------------

 UNITS ARE HARTREE/BOHR    E'X               E'Y               E'Z 
    1 SILVER           0.000000000       0.000000000      -0.012587425
    2 HYDROGEN         0.000000000       0.000000000       0.012587425

                   MAXIMUM GRADIENT =    0.012587425
                       RMS GRADIENT =    0.007267353
  $VIB   
          IVIB=   0 IATOM=   0 ICOORD=   0 E=    -5291.7464340909
  0.000000000E+00 0.000000000E+00-1.258742477E-02 0.000000000E+00 0.000000000E+00
  1.258742457E-02
  2.907001160E-10 5.272534954E-10-4.521402937E+00

..... END OF SINGLE POINT GRADIENT .....
 STEP CPU TIME =     0.00 TOTAL CPU TIME =        8.8 (    0.1 MIN)
 TOTAL WALL CLOCK TIME=       10.9 SECONDS, CPU UTILIZATION IS  80.15%
               986390  WORDS OF DYNAMIC MEMORY USED
 EXECUTION OF GAMESS TERMINATED NORMALLY Mon Nov 28 22:37:09 2016
 DDI: 263640 bytes (0.3 MB / 0 MWords) used by master data server.

 ----------------------------------------
 CPU timing information for all processes
 ========================================
 0: 8.645 + 0.124 = 8.770
 ----------------------------------------
 ddikick.x: exited gracefully.
unset echo
----- accounting info -----
Files used on the master node compute-3-0 were:
-rw-rw-r-- 1 sarom sarom   156641 Nov 29  2016 .//agh-grad-resc.dat
-rw-rw-r-- 1 sarom sarom   155156 Nov 29  2016 .//agh-grad-resc.F05
-rw-rw-r-- 1 sarom sarom 23402080 Nov 29  2016 .//agh-grad-resc.F08
-rw-rw-r-- 1 sarom sarom  7132960 Nov 29  2016 .//agh-grad-resc.F10
-rw-rw-r-- 1 sarom sarom  2359296 Nov 29  2016 .//agh-grad-resc.F30
-rw-rw-r-- 1 sarom sarom   155156 Nov 28 17:27 .//agh-grad-resc.inp
-rw-rw-r-- 1 sarom sarom   182603 Nov 29  2016 .//agh-grad-resc.log
Mon Nov 28 22:37:13 CST 2016
0.200u 0.591s 0:16.19 4.8%	0+0k 0+432io 0pf+0w
