-catch_rsh /opt/gridengine/default/spool/compute-0-1/active_jobs/23742.1/pe_hostfile
compute-0-1
The primary node assigned by SGE to this run is compute-0-1
Warning: no access to tty (Bad file descriptor).
Thus no job control in this shell.
source /home/sarom/gamess.github.2017-05-31.14.06/install.info
setenv GMS_PATH /home/sarom/gamess.github.2017-05-31.14.06
setenv GMS_BUILD_DIR /home/sarom/gamess.github.2017-05-31.14.06
setenv GMS_TARGET linux64
setenv GMS_FORTRAN gfortran
setenv GMS_GFORTRAN_VERNO 4.4
setenv GMS_MATHLIB mkl-so
setenv GMS_MATHLIB_PATH /share/apps/intel/compilers_and_libraries_2017.1.132/linux/mkl/lib/intel64
setenv GMS_MKL_VERNO 12
setenv GMS_DDI_COMM sockets
setenv GMS_LIBCCHEM false
setenv GMS_EIGEN_PATH
setenv GMS_PHI false
setenv GMS_SHMTYPE sysv
setenv GMS_OPENMP false
unset echo
as-ecp-soc
tests/relwfn
----- GAMESS execution script 'rungms' -----
This job is running on host compute-0-1.local
under operating system Linux at Fri Jun 2 02:26:12 CDT 2017
Available scratch disk space (Kbyte units) at beginning of the job is
Filesystem           1K-blocks      Used Available Use% Mounted on
/dev/sda1             16126920   3867344  11440376  26% /
GAMESS temporary binary files will be written to /scratch
GAMESS supplementary output files will be written to /home/sarom/restart
Copying input file as-ecp-soc.inp to your run's scratch directory...
cp tests/relwfn/as-ecp-soc.inp /scratch/as-ecp-soc.F05
unset echo
The generated host list is
compute-0-1.local
/home/sarom/gamess.github.2017-05-31.14.06/ddikick.x /home/sarom/gamess.github.2017-05-31.14.06/gamess.00.x as-ecp-soc -ddi 1 1 compute-0-1.local -scr /scratch

 Distributed Data Interface kickoff program.
 Initiating 1 compute processes on 1 nodes to run the following command:
 /home/sarom/gamess.github.2017-05-31.14.06/gamess.00.x as-ecp-soc 

          ******************************************************
          *         GAMESS VERSION = 20 APR 2017 (R1)          *
          *             FROM IOWA STATE UNIVERSITY             *
          * M.W.SCHMIDT, K.K.BALDRIDGE, J.A.BOATZ, S.T.ELBERT, *
          *   M.S.GORDON, J.H.JENSEN, S.KOSEKI, N.MATSUNAGA,   *
          *          K.A.NGUYEN, S.J.SU, T.L.WINDUS,           *
          *       TOGETHER WITH M.DUPUIS, J.A.MONTGOMERY       *
          *         J.COMPUT.CHEM.  14, 1347-1363(1993)        *
          **************** 64 BIT LINUX VERSION ****************

  SINCE 1993, STUDENTS AND POSTDOCS WORKING AT IOWA STATE UNIVERSITY
  AND ALSO IN THEIR VARIOUS JOBS AFTER LEAVING ISU HAVE MADE IMPORTANT
  CONTRIBUTIONS TO THE CODE:
     IVANA ADAMOVIC, CHRISTINE AIKENS, YURI ALEXEEV, POOJA ARORA,
     ANDREY ASADCHEV, ROB BELL, PRADIPTA BANDYOPADHYAY, JONATHAN BENTZ,
     BRETT BODE, KURT BRORSEN, CALEB CARLIN, GALINA CHABAN, WEI CHEN,
     CHEOL HO CHOI, PAUL DAY, ALBERT DEFUSCO, NUWAN DESILVA, TIM DUDLEY,
     DMITRI FEDOROV, GRAHAM FLETCHER, MARK FREITAG, KURT GLAESEMANN,
     DAN KEMP, GRANT MERRILL, NORIYUKI MINEZAWA, JONATHAN MULLIN,
     TAKESHI NAGATA, SEAN NEDD, HEATHER NETZLOFF, BOSILJKA NJEGIC, RYAN OLSON,
     MIKE PAK, SPENCER PRUITT, LUKE ROSKOP, JIM SHOEMAKER, LYUDMILA SLIPCHENKO,
     TONY SMITH, SAROM SOK LEANG, JIE SONG, TETSUYA TAKETSUGU, SIMON WEBB,
     PENG XU, SOOHAENG YOO, FEDERICO ZAHARIEV

  ADDITIONAL CODE HAS BEEN PROVIDED BY COLLABORATORS IN OTHER GROUPS:
     IOWA STATE UNIVERSITY:
          JOE IVANIC, AARON WEST, LAIMUTIS BYTAUTAS, KLAUS RUEDENBERG
     UNIVERSITY OF TOKYO: KIMIHIKO HIRAO, TAKAHITO NAKAJIMA,
          TAKAO TSUNEDA, MUNEAKI KAMIYA, SUSUMU YANAGISAWA,
          KIYOSHI YAGI, MAHITO CHIBA, SEIKEN TOKURA, NAOAKI KAWAKAMI
     UNIVERSITY OF AARHUS: FRANK JENSEN
     UNIVERSITY OF IOWA: VISVALDAS KAIRYS, HUI LI
     NATIONAL INST. OF STANDARDS AND TECHNOLOGY: WALT STEVENS, DAVID GARMER
     UNIVERSITY OF PISA: BENEDETTA MENNUCCI, JACOPO TOMASI
     UNIVERSITY OF MEMPHIS: HENRY KURTZ, PRAKASHAN KORAMBATH
     UNIVERSITY OF ALBERTA: TOBY ZENG, MARIUSZ KLOBUKOWSKI
     UNIVERSITY OF NEW ENGLAND: MARK SPACKMAN
     MIE UNIVERSITY: HIROAKI UMEDA
     NAT. INST. OF ADVANCED INDUSTRIAL SCIENCE AND TECHNOLOGY: KAZUO KITAURA
     MICHIGAN STATE UNIVERSITY:
          KAROL KOWALSKI, MARTA WLOCH, JEFFREY GOUR, JESSE LUTZ,
          WEI LI, PIOTR PIECUCH
     UNIVERSITY OF SILESIA: MONIKA MUSIAL, STANISLAW KUCHARSKI
     FACULTES UNIVERSITAIRES NOTRE-DAME DE LA PAIX:
          OLIVIER QUINET, BENOIT CHAMPAGNE
     UNIVERSITY OF CALIFORNIA - SANTA BARBARA: BERNARD KIRTMAN
     INSTITUTE FOR MOLECULAR SCIENCE:
          KAZUYA ISHIMURA, MICHIO KATOUDA, AND SHIGERU NAGASE
     UNIVERSITY OF NOTRE DAME: ANNA POMOGAEVA, DAN CHIPMAN
     KYUSHU UNIVERSITY:
          HARUYUKI NAKANO,
          FENG LONG GU, JACEK KORCHOWIEC, MARCIN MAKOWSKI, AND YURIKO AOKI,
          HIROTOSHI MORI AND EISAKU MIYOSHI
     PENNSYLVANIA STATE UNIVERSITY:
          TZVETELIN IORDANOV, CHET SWALINA, JONATHAN SKONE,
          SHARON HAMMES-SCHIFFER
     WASEDA UNIVERSITY:
          MASATO KOBAYASHI, TOMOKO AKAMA, TSUGUKI TOUMA,
          TAKESHI YOSHIKAWA, YASUHIRO IKABATA, JUNJI SEINO,
          YUYA NAKAJIMA, HIROMI NAKAI
     NANJING UNIVERSITY: SHUHUA LI
     UNIVERSITY OF NEBRASKA:
          PEIFENG SU, DEJUN SI, NANDUN THELLAMUREGE, YALI WANG, HUI LI
     UNIVERSITY OF ZURICH: ROBERTO PEVERATI, KIM BALDRIDGE
     N. COPERNICUS UNIVERSITY AND JACKSON STATE UNIVERSITY:
          MARIA BARYSZ
     UNIVERSITY OF COPENHAGEN: Jimmy Kromann, CASPER STEINMANN
     TOKYO INSTITUTE OF TECHNOLOGY: HIROYA NAKATA
     NAGOYA UNIVERSITY: YOSHIO NISHIMOTO, STEPHAN IRLE
     MOSCOW STATE UNIVERSITY: VLADIMIR MIRONOV

 EXECUTION OF GAMESS BEGUN Fri Jun  2 02:26:12 2017

            ECHO OF THE FIRST FEW INPUT CARDS -
 INPUT CARD>!  As atom...test of ECP evaluation of SOC...(4sp)5 full valence space          
 INPUT CARD>!  test created in April 2015.                                                  
 INPUT CARD>!  Zeff is taken from S.Koseki, M.W.Schmidt, M.S.Gordon JCP-A 102, 10430(1998)  
 INPUT CARD>!  The very big Zeff dials up the splitting, to sort-of match experiment.       
 INPUT CARD>!                                                                               
 INPUT CARD>!          CI ENERGY LEVELS    level       exp                                  
 INPUT CARD>!           1- 4      0.00    4-S-3/2        0                                  
 INPUT CARD>!           5- 8  14863.35    2-D-3/2   10,592                                  
 INPUT CARD>!           9-14  15214.27    2-D-5/2   10,914                                  
 INPUT CARD>!          15-16  21021.18    2-P-1/2   18,186                                  
 INPUT CARD>!          17-20  21408.15    2-P-3/2   18,647                                  
 INPUT CARD>!                                                                               
 INPUT CARD>!  This run takes 0 seconds on 2.66 GHz Cloverton (20 Apr 2015)                 
 INPUT CARD>!                                                                               
 INPUT CARD> $contrl scftyp=none cityp=guga mult=2 pp=sbkjc runtyp=transitn ispher=1 $end   
 INPUT CARD> $system mwords=1 $end                                                          
 INPUT CARD> $basis  gbasis=sbkjc $end                                                      
 INPUT CARD> $transt operat=HSO1 numvec=1 numci=2 nocc=4 nfzc=0                             
 INPUT CARD>         zeff(1)=1353 iroots(1)=8,1 $end                                        
 INPUT CARD> $drt1   group=c1 fors=.true. nfzc=0 ndoc=2 nalp=1 nval=1 $end                  
 INPUT CARD> $drt2   group=c1 fors=.true. nfzc=0 ndoc=1 nalp=3 nval=0 $end                  
 INPUT CARD> $data                                                                          
 INPUT CARD>As atom...unagumented SBKJC basis set is used                                   
 INPUT CARD>Dnh 2                                                                           
 INPUT CARD>                                                                                
 INPUT CARD>As   33.    0.0  0.0  0.0                                                       
 INPUT CARD> $end                                                                           
 INPUT CARD>                                                                                
 INPUT CARD>!               here is how to get the ground state open shell orbitals:        
 INPUT CARD>x$contrl scftyp=rohf mplevl=0 mult=4 pp=sbkjc runtyp=energy ispher=1 $end       
 INPUT CARD>x$basis  gbasis=sbkjc $end                                                      
 INPUT CARD>x$guess  guess=huckel $end                                                      
 INPUT CARD>--- OPEN SHELL ORBITALS --- GENERATED AT Mon Apr 20 10:10:06 2015               
 INPUT CARD>E(ROHF)=       -6.0522120062                                                    
 INPUT CARD> $VEC1                                                                          
 INPUT CARD> 1  1 8.75761208E-01 0.00000000E+00 0.00000000E+00 0.00000000E+00 1.46505523E-01
 INPUT CARD> 1  2 0.00000000E+00 0.00000000E+00 0.00000000E+00                              
 INPUT CARD> 2  1 0.00000000E+00 0.00000000E+00 0.00000000E+00 7.99068843E-01 0.00000000E+00
 INPUT CARD> 2  2 0.00000000E+00 0.00000000E+00 2.68575339E-01                              
 INPUT CARD> 3  1 0.00000000E+00 7.99068843E-01 0.00000000E+00 0.00000000E+00 0.00000000E+00
 INPUT CARD> 3  2 2.68575339E-01 0.00000000E+00 0.00000000E+00                              
 INPUT CARD> 4  1 0.00000000E+00 0.00000000E+00 7.99068843E-01 0.00000000E+00 0.00000000E+00
 INPUT CARD> 4  2 0.00000000E+00 2.68575339E-01 0.00000000E+00                              
 INPUT CARD> 5  1 0.00000000E+00 0.00000000E+00 0.00000000E+00-1.09296316E+00 0.00000000E+00
 INPUT CARD> 5  2 0.00000000E+00 0.00000000E+00 1.32700670E+00                              
 INPUT CARD> 6  1 0.00000000E+00-1.09296316E+00 0.00000000E+00 0.00000000E+00 0.00000000E+00
 INPUT CARD> 6  2 1.32700670E+00 0.00000000E+00 0.00000000E+00                              
 INPUT CARD> 7  1 0.00000000E+00 0.00000000E+00-1.09296316E+00 0.00000000E+00 0.00000000E+00
 INPUT CARD> 7  2 0.00000000E+00 1.32700670E+00 0.00000000E+00                              
 INPUT CARD> 8  1-1.53506687E+00 0.00000000E+00 0.00000000E+00 0.00000000E+00 1.76122801E+00
    1000000 WORDS OF MEMORY AVAILABLE

     BASIS OPTIONS
     -------------
     GBASIS=SBKJC        IGAUSS=       0      POLAR=NONE    
     NDFUNC=       0     NFFUNC=       0     DIFFSP=       F
     NPFUNC=       0      DIFFS=       F     BASNAM=        


     RUN TITLE
     ---------
 As atom...unagumented SBKJC basis set is used                                   

 THE POINT GROUP OF THE MOLECULE IS DNH     
 THE ORDER OF THE PRINCIPAL AXIS IS     2

 ATOM      ATOMIC                      COORDINATES (BOHR)
           CHARGE         X                   Y                   Z
 AS         33.0     0.0000000000        0.0000000000        0.0000000000

          INTERNUCLEAR DISTANCES (ANGS.)
          ------------------------------

                1 AS    

   1 AS      0.0000000  

  * ... LESS THAN  3.000


     ATOMIC BASIS SET
     ----------------
 THE CONTRACTED PRIMITIVE FUNCTIONS HAVE BEEN UNNORMALIZED
 THE CONTRACTED BASIS FUNCTIONS ARE NOW NORMALIZED TO UNITY

  SHELL TYPE  PRIMITIVE        EXPONENT          CONTRACTION COEFFICIENT(S)

 AS        

      1   L       1             2.7090000    0.121478969081   -0.002920001090
      1   L       2             1.5780000   -0.518917867926   -0.095054035483
      1   L       3             0.4358000    0.428790890865    0.424682158530
      1   L       4             0.1776000    0.808077794330    0.671290250586

      2   L       5             0.0698400    1.000000000000    1.000000000000

 TOTAL NUMBER OF BASIS SET SHELLS             =    2
 NUMBER OF CARTESIAN GAUSSIAN BASIS FUNCTIONS =    8
 NOTE: THIS RUN WILL RESTRICT THE MO VARIATION SPACE TO SPHERICAL HARMONICS.
 THE NUMBER OF ORBITALS KEPT IN THE VARIATIONAL SPACE WILL BE PRINTED LATER.
 NUMBER OF ELECTRONS                          =   33
 CHARGE OF MOLECULE                           =    0
 SPIN MULTIPLICITY                            =    2
 NUMBER OF OCCUPIED ORBITALS (ALPHA)          =   17
 NUMBER OF OCCUPIED ORBITALS (BETA )          =   16
 TOTAL NUMBER OF ATOMS                        =    1
 THE NUCLEAR REPULSION ENERGY IS        0.0000000000
 NOTE THIS RUN IS USING CORE POTENTIALS, AND THE NUMBER OF ELECTRONS,
 OCCUPIED ORBITALS, AND NUCLEAR REPULSION ENERGY WILL BE ADJUSTED BELOW
 AFTER REMOVAL OF THE CORE CHARGES.

 THIS MOLECULE IS RECOGNIZED AS BEING LINEAR,
 ORBITAL LZ DEGENERACY TOLERANCE ETOLLZ= 1.00E-06

     $CONTRL OPTIONS
     ---------------
 SCFTYP=NONE         RUNTYP=TRANSITN     EXETYP=RUN     
 MPLEVL=       0     CITYP =GUGA         CCTYP =NONE         VBTYP =NONE    
 DFTTYP=NONE         TDDFT =NONE    
 MULT  =       2     ICHARG=       0     NZVAR =       0     COORD =UNIQUE  
 PP    =SBKJC        RELWFN=NONE         LOCAL =NONE         NUMGRD=       F
 ISPHER=       1     NOSYM =       0     MAXIT =      30     UNITS =ANGS    
 PLTORB=       F     MOLPLT=       F     AIMPAC=       F     FRIEND=        
 NPRINT=       7     IREST =       0     GEOM  =INPUT   
 NORMF =       0     NORMP =       0     ITOL  =      20     ICUT  =       9
 INTTYP=BEST         GRDTYP=BEST         QMTTOL= 1.0E-06

     $SYSTEM OPTIONS
     ---------------
  REPLICATED MEMORY=     1000000 WORDS (ON EVERY NODE).
 DISTRIBUTED MEMDDI=           0 MILLION WORDS IN AGGREGATE,
 MEMDDI DISTRIBUTED OVER   1 PROCESSORS IS           0 WORDS/PROCESSOR.
 TOTAL MEMORY REQUESTED ON EACH PROCESSOR=     1000000 WORDS.
 TIMLIM=      525600.00 MINUTES, OR     365.0 DAYS.
 PARALL= F  BALTYP=  DLB     KDIAG=    0  COREFL= F
 MXSEQ2=     300 MXSEQ3=     150  mem10=         0

          --------------
          ECP POTENTIALS
          --------------

 PARAMETERS FOR "SBKJC-33" ON ATOM    1 WITH ZCORE  28 AND LMAX  3 ARE
 FOR L= 3      COEFF    N           ZETA
    1       -4.77028    1        1.64583
 FOR L= 0      COEFF    N           ZETA
    1       13.03398    0       20.76160
    2       43.12429    2        2.80084
 FOR L= 1      COEFF    N           ZETA
    1        6.44063    0       16.05834
    2       28.12117    2        2.29432
 FOR L= 2      COEFF    N           ZETA
    1        2.23508    0        1.12086
    2        4.60721    2        1.12140

 THE ECP RUN REMOVES   28 CORE ELECTRONS, AND THE SAME NUMBER OF PROTONS.
 NUMBER OF ELECTRONS KEPT IN THE CALCULATION IS =    5
 NUMBER OF OCCUPIED ORBITALS (ALPHA) KEPT IS    =    3
 NUMBER OF OCCUPIED ORBITALS (BETA ) KEPT IS    =    2
 THE ADJUSTED NUCLEAR REPULSION ENERGY=        0.0000000000
          ECP ANGULAR INTS.........     0.00 SECONDS

          ----------------
          PROPERTIES INPUT
          ----------------

     MOMENTS            FIELD           POTENTIAL          DENSITY
 IEMOM =       1   IEFLD =       0   IEPOT =       0   IEDEN =       0
 WHERE =COMASS     WHERE =NUCLEI     WHERE =NUCLEI     WHERE =NUCLEI  
 OUTPUT=BOTH       OUTPUT=BOTH       OUTPUT=BOTH       OUTPUT=BOTH    
 IEMINT=       0   IEFINT=       0                     IEDINT=       0
                                                       MORB  =       0
          EXTRAPOLATION IN EFFECT
 ORBITAL PRINTING OPTION: NPREO=     1     8     2     1

     -------------------------------
     INTEGRAL TRANSFORMATION OPTIONS
     -------------------------------
     NWORD  =            0
     CUTOFF = 1.0E-09     MPTRAN =       0
     DIRTRF =       F     AOINTS =DUP     

          ----------------------
          INTEGRAL INPUT OPTIONS
          ----------------------
 NOPK  =       1 NORDER=       0 SCHWRZ=       F

     ------------------------------------------
     THE POINT GROUP IS DNH, NAXIS= 2, ORDER= 8
     ------------------------------------------

 -- VARIATIONAL SPACE WILL BE RESTRICTED TO PURE SPHERICAL HARMONICS ONLY --
 AFTER EXCLUDING CONTAMINANT COMBINATIONS FROM THE CARTESIAN GAUSSIAN BASIS
 SET, THE NUMBER OF SPHERICAL HARMONICS KEPT IN THE VARIATION SPACE IS    8

     DIMENSIONS OF THE SYMMETRY SUBSPACES ARE
 AG  =    2     AU  =    0     B3U =    2     B3G =    0     B1G =    0
 B1U =    2     B2U =    2     B2G =    0

 ..... DONE SETTING UP THE RUN .....
 STEP CPU TIME =     0.02 TOTAL CPU TIME =        0.0 (    0.0 MIN)
 TOTAL WALL CLOCK TIME=        0.0 SECONDS, CPU UTILIZATION IS 100.00%

     ------------------------
     TRANSITION MOMENT DRIVER
     ------------------------

     -------------------------------
     INPUT FOR TRANSITION MOMENT RUN
     -------------------------------
     OPERAT=HSO1         NFZC  =       0     NOCC  =       4
     NUMCI =       2     NUMVEC=       1     SYMTOL=   1.0E-04
     IPRHSO=       0     NOSYM =       0     ETOL  =   100.000000
     UPPER ENERGY LIMIT FOR SPIN-ORBIT CI MATRIX   =      100.000 HARTREE.
     TMOMNT=       F     SKIPDM=       T     PRTPRM=       F
     SLOWFF=       F     PHYSRC=       F     MODPAR=       3
     JZ    =       1     PARMP =       0     ZEFTYP=TRUE    
     MCP2E =       0     ONECNT=       0     NFFBUF=      -1
     EEQTOL=   0.10E-05  ISTNO =  0  0
     DEGTOL= .0200 .0020

     L2VAL =        -1 -1
     IROOTS=         8  1
     NSTATE=         8  1
     IVEX  =         1  1
     ZEFF  =     1353.0

          ********************
          1 ELECTRON INTEGRALS
          ********************
 TIME TO DO ORDINARY INTEGRALS=      0.00
 TIME TO DO      ECP INTEGRALS=      0.00
 ...... END OF ONE-ELECTRON INTEGRALS ......
 STEP CPU TIME =     0.00 TOTAL CPU TIME =        0.0 (    0.0 MIN)
 TOTAL WALL CLOCK TIME=        0.0 SECONDS, CPU UTILIZATION IS 100.00%
 OPENING FILE SOCCDAT WITH      12 LOGICAL RECORDS OF       0 WORDS
 WITH A MAXIMUM OF          12 PHYSICAL RECORDS OF    2048 WORDS


          ----------------------
          CORRESPONDING ORBITALS
          ----------------------
 THE CORRESPONDING ORBITAL OVERLAPS ARE
  1.0000000000 1.0000000000 1.0000000000 1.0000000000
 STEP CPU TIME =     0.00 TOTAL CPU TIME =        0.0 (    0.0 MIN)
 TOTAL WALL CLOCK TIME=        0.0 SECONDS, CPU UTILIZATION IS 100.00%

                    ----------------------
                    AO INTEGRAL TECHNOLOGY
                    ----------------------
     S,P,L SHELL ROTATED AXIS INTEGRALS, REPROGRAMMED BY
        KAZUYA ISHIMURA (IMS) AND JOSE SIERRA (SYNSTAR).
     S,P,D,L SHELL ROTATED AXIS INTEGRALS PROGRAMMED BY
        KAZUYA ISHIMURA (INSTITUTE FOR MOLECULAR SCIENCE).
     S,P,D,F,G SHELL TO TOTAL QUARTET ANGULAR MOMENTUM SUM 5,
        ERIC PROGRAM BY GRAHAM FLETCHER (ELORET AND NASA ADVANCED
        SUPERCOMPUTING DIVISION, AMES RESEARCH CENTER).
     S,P,D,F,G,L SHELL GENERAL RYS QUADRATURE PROGRAMMED BY
        MICHEL DUPUIS (PACIFIC NORTHWEST NATIONAL LABORATORY).

          --------------------
          2 ELECTRON INTEGRALS
          --------------------

 THE -PK- OPTION IS OFF, THE INTEGRALS ARE NOT IN SUPERMATRIX FORM.
 STORING   15000 INTEGRALS/RECORD ON DISK, USING 12 BYTES/INTEGRAL.
 TWO ELECTRON INTEGRAL EVALUATION REQUIRES   89359 WORDS OF MEMORY.
 II,JST,KST,LST =  1  1  1  1 NREC =         1 INTLOC =    1
 II,JST,KST,LST =  2  1  1  1 NREC =         1 INTLOC =   17
 TOTAL NUMBER OF NONZERO TWO-ELECTRON INTEGRALS =                 138
          1 INTEGRAL RECORDS WERE STORED ON DISK FILE  8.
  ...... END OF TWO-ELECTRON INTEGRALS .....
 STEP CPU TIME =     0.01 TOTAL CPU TIME =        0.0 (    0.0 MIN)
 TOTAL WALL CLOCK TIME=        0.0 SECONDS, CPU UTILIZATION IS  75.00%
 ...... END OF ORBITAL SELECTION ......


     -------------------------
      1-ST     CI CALCULATION
     -------------------------

          -----------------------     ----------------------------
          GUGA DISTINCT ROW TABLE     WRITTEN BY B.R.BROOKS,P.SAXE
          -----------------------     ----------------------------

      GROUP=C1           NPRT=       0
       FORS=       T   INTACT=       F
       FOCI=       F   MXNINT=   50000
       SOCI=       F   MXNEME=   10000
     IEXCIT=       0

      -CORE-    -INTERNAL-  -EXTERNAL-
     NFZC=   0   NDOC=   2   NEXT=   0
     NMCC=   0   NAOS=   0   NFZV=   0
                 NBOS=   0
                 NALP=   1
                 NVAL=   1

 THE MAXIMUM ELECTRON EXCITATION WILL BE   3

 THE FOLLOWING ANALYSIS IS BASED UPON THE $DATA POINT GROUP:

 SYMMETRIES FOR THE   0 CORE,   4 ACTIVE,   0 EXTERNAL MO-S ARE
   ACTIVE= AG    B1U   B3U   B2U 
           DOC   DOC   ALP   VAL 

 THE FOLLOWING ANALYSIS IS BASED UPON THE $DRT POINT GROUP:

 SYMMETRIES FOR THE   0 CORE,   4 ACTIVE,   0 EXTERNAL MO-S ARE
   ACTIVE= A     A     A     A   
           DOC   DOC   ALP   VAL 

 MOLECULAR CHARGE          =    0
 NUMBER OF ALPHA ELECTRONS =    3
 NUMBER OF  BETA ELECTRONS =    2

 THE ELECTRONIC STATE IS  2-A   

 THE DISTINCT ROW TABLE HAS        14 ROWS.
  THE WAVEFUNCTION CONTAINS        20 WALKS (CSF-S).

 TOTAL NUMBER OF INTEGRALS =         73
 NUMBER OF INTEGRALS/GROUP =         73
 NUMBER OF INTEGRAL GROUPS =          1
 MAXIMUM RECORD SIZES ARE     500 FOR UNIT 11      22 FOR UNIT 12
                            30001 FOR UNIT 15   30001 FOR UNIT 16
 ...... END OF -DRT- GENERATION ...... 
 STEP CPU TIME =     0.00 TOTAL CPU TIME =        0.0 (    0.0 MIN)
 TOTAL WALL CLOCK TIME=        0.0 SECONDS, CPU UTILIZATION IS  75.00%

     --------------------------------------------
     PARTIAL TWO ELECTRON INTEGRAL TRANSFORMATION
     --------------------------------------------

 NUMBER OF CORE MOLECULAR ORBITALS     =    0
 NUMBER OF OCCUPIED MOLECULAR ORBITALS =    4
 TOTAL NUMBER OF MOLECULAR ORBITALS    =    4
 TOTAL NUMBER OF ATOMIC ORBITALS       =    8
 THRESHOLD FOR KEEPING TRANSFORMED 2E- INTEGRALS = 1.000E-09
 AO INTEGRALS WILL BE READ IN FROM DISK...

 PLAN A: REQUIREMENTS FOR FULLY IN-MEMORY TRANSFORMATION:
 # OF WORDS AVAILABLE =               971186
 # OF WORDS NEEDED    =                61490

 CHOOSING IN MEMORY PARTIAL TRANSFORMATION...
 TOTAL NUMBER OF TRANSFORMED 2E- INTEGRALS KEPT =           16
 ... END OF INTEGRAL TRANSFORMATION ...
 STEP CPU TIME =     0.00 TOTAL CPU TIME =        0.0 (    0.0 MIN)
 TOTAL WALL CLOCK TIME=        0.0 SECONDS, CPU UTILIZATION IS  75.00%

          ------------------------
          GUGA-CI INTEGRAL SORTING
          ------------------------

     80049 WORDS NEEDED TO SORT             73 GUGA INTEGRALS IN MEMORY
    971186 WORDS ARE AVAILABLE
 CHOOSING IN-MEMORY SORTING...
 IN CORE ALGORITHM SORTED             10 NON-ZERO 1E- INTEGRALS
 IN CORE ALGORITHM SORTED             16 NON-ZERO 2E- INTEGRALS
 ...... END OF INTEGRAL SORTING ...... 
 STEP CPU TIME =     0.00 TOTAL CPU TIME =        0.0 (    0.0 MIN)
 TOTAL WALL CLOCK TIME=        0.0 SECONDS, CPU UTILIZATION IS  75.00%

 -------------------------     ---------------------------------------
 ENERGY MATRIX CALCULATION     WRITTEN BY B.R.BROOKS,W.D.LAIDIG,P.SAXE
 -------------------------     ---------------------------------------

 COMPUTING THE HAMILTONIAN FOR THE        20 CSF-S...

         391 IS THE TOTAL NUMBER OF GENERATED LOOPS
         391 WERE CREATED BY THE LOOP-DRIVEN ALGORITHM
           0 WERE CREATED IMPLICITLY

         106 IS THE TOTAL NUMBER OF PROCESSED LOOPS
          89     DIAGONAL LOOPS ARE STORED ON WORK15 IN     1 BUFFERS OF  10000 ELEMENTS.
          17 OFF DIAGONAL LOOPS ARE STORED ON WORK16 IN     1 BUFFERS OF  10000 ELEMENTS.
 ...... END OF ENERGY MATRIX CALCULATION ...... 
 STEP CPU TIME =     0.00 TOTAL CPU TIME =        0.0 (    0.0 MIN)
 TOTAL WALL CLOCK TIME=        0.0 SECONDS, CPU UTILIZATION IS  75.00%

          -----------------------------------------
          DAVIDSON METHOD CI-MATRIX DIAGONALIZATION
                   WRITTEN BY STEVE ELBERT
          -----------------------------------------
 NUMBER OF STATES REQUESTED =     8
 MAX. NUMB. OF EXPAN. VEC   =    30
 MAX. NUMB. IMPROVED STATES =     8
 MAX. NUMB. OF ITERATIONS   =    50
 CONVERGENCE CRITERION      =    1.0E-06

 CHOOSING TO SOLVE SECULAR EQUATION IN MEMORY
 NUMBER OF WORDS AVAILABLE =     971186
 NUMBER OF WORDS USED      =      31580
 ENERGY MATRIX BUFFER SIZE =      10000
 SOLUTION FOUND WITH DIRECT METHOD

 STATE #    1  ENERGY =      -5.983274331

      CSF      COEF    OCCUPANCY (IGNORING CORE)
      ---      ----    --------- --------- -----
        8    0.998736  2111

 THE PROJECTION OF THIS CI STATE ONTO SPACE SYMMETRY AU   WEIGHS 9.9872E-01


 THE PROJECTION OF THIS CI STATE ONTO SPACE SYMMETRY B2U  WEIGHS 1.2835E-03


 STATE #    2  ENERGY =      -5.983274331

      CSF      COEF    OCCUPANCY (IGNORING CORE)
      ---      ----    --------- --------- -----
        1    0.644074  2120
        3   -0.150928  2210
        4    0.181111  2021
        6   -0.243263  2111
       12   -0.181111  2201
       14    0.150928  2012
       18    0.644074  2102

 THE PROJECTION OF THIS CI STATE ONTO SPACE SYMMETRY AU   WEIGHS 5.9177E-02


 THE PROJECTION OF THIS CI STATE ONTO SPACE SYMMETRY B3U  WEIGHS 4.5558E-02


 THE PROJECTION OF THIS CI STATE ONTO SPACE SYMMETRY B1U  WEIGHS 8.2966E-01


 THE PROJECTION OF THIS CI STATE ONTO SPACE SYMMETRY B2U  WEIGHS 6.5602E-02


 STATE #    3  ENERGY =      -5.983274331

      CSF      COEF    OCCUPANCY (IGNORING CORE)
      ---      ----    --------- --------- -----
        1   -0.101509  2120
        3   -0.056858  2210
        4    0.618347  2021
        6    0.453848  2111
       12   -0.618347  2201
       14    0.056858  2012
       18   -0.101509  2102

 THE PROJECTION OF THIS CI STATE ONTO SPACE SYMMETRY AU   WEIGHS 2.0822E-01


 THE PROJECTION OF THIS CI STATE ONTO SPACE SYMMETRY B3U  WEIGHS 6.4656E-03


 THE PROJECTION OF THIS CI STATE ONTO SPACE SYMMETRY B1U  WEIGHS 2.0608E-02


 THE PROJECTION OF THIS CI STATE ONTO SPACE SYMMETRY B2U  WEIGHS 7.6471E-01


 STATE #    4  ENERGY =      -5.983274331

      CSF      COEF    OCCUPANCY (IGNORING CORE)
      ---      ----    --------- --------- -----
        1   -0.148227  2120
        3   -0.686983  2210
        4   -0.072468  2021
       12    0.072468  2201
       14    0.686983  2012
       18   -0.148227  2102

 THE PROJECTION OF THIS CI STATE ONTO SPACE SYMMETRY AU   WEIGHS 1.6625E-03


 THE PROJECTION OF THIS CI STATE ONTO SPACE SYMMETRY B3U  WEIGHS 9.4389E-01


 THE PROJECTION OF THIS CI STATE ONTO SPACE SYMMETRY B1U  WEIGHS 4.3943E-02


 THE PROJECTION OF THIS CI STATE ONTO SPACE SYMMETRY B2U  WEIGHS 1.0503E-02


 STATE #    5  ENERGY =      -5.983274331

      CSF      COEF    OCCUPANCY (IGNORING CORE)
      ---      ----    --------- --------- -----
        1    0.229986  2120
        4   -0.280984  2021
        6    0.855554  2111
       12    0.280984  2201
       18    0.229986  2102

 THE PROJECTION OF THIS CI STATE ONTO SPACE SYMMETRY AU   WEIGHS 7.3223E-01


 THE PROJECTION OF THIS CI STATE ONTO SPACE SYMMETRY B3U  WEIGHS 4.0839E-03


 THE PROJECTION OF THIS CI STATE ONTO SPACE SYMMETRY B1U  WEIGHS 1.0579E-01


 THE PROJECTION OF THIS CI STATE ONTO SPACE SYMMETRY B2U  WEIGHS 1.5790E-01


 STATE #    6  ENERGY =      -5.956962043

      CSF      COEF    OCCUPANCY (IGNORING CORE)
      ---      ----    --------- --------- -----
        1   -0.170375  2120
        3   -0.183271  2210
        4    0.652269  2021
        9   -0.144214  0221
       12    0.652269  2201
       14   -0.183271  2012
       18    0.170375  2102

 THE PROJECTION OF THIS CI STATE ONTO SPACE SYMMETRY B3U  WEIGHS 6.8819E-02


 THE PROJECTION OF THIS CI STATE ONTO SPACE SYMMETRY B1U  WEIGHS 5.9474E-02


 THE PROJECTION OF THIS CI STATE ONTO SPACE SYMMETRY B2U  WEIGHS 8.7171E-01


 STATE #    7  ENERGY =      -5.956962043

      CSF      COEF    OCCUPANCY (IGNORING CORE)
      ---      ----    --------- --------- -----
        3    0.670195  2210
        4    0.195385  2021
       12    0.195385  2201
       14    0.670195  2012
       19   -0.148177  0212

 THE PROJECTION OF THIS CI STATE ONTO SPACE SYMMETRY B3U  WEIGHS 9.2028E-01


 THE PROJECTION OF THIS CI STATE ONTO SPACE SYMMETRY B1U  WEIGHS 1.5041E-03


 THE PROJECTION OF THIS CI STATE ONTO SPACE SYMMETRY B2U  WEIGHS 7.8217E-02


 STATE #    8  ENERGY =      -5.956962043

      CSF      COEF    OCCUPANCY (IGNORING CORE)
      ---      ----    --------- --------- -----
        1    0.676985  2120
        3   -0.072946  2210
        4    0.156335  2021
       12    0.156335  2201
       14   -0.072946  2012
       15    0.149679  0122
       18   -0.676985  2102

 THE PROJECTION OF THIS CI STATE ONTO SPACE SYMMETRY B3U  WEIGHS 1.0902E-02


 THE PROJECTION OF THIS CI STATE ONTO SPACE SYMMETRY B1U  WEIGHS 9.3902E-01


 THE PROJECTION OF THIS CI STATE ONTO SPACE SYMMETRY B2U  WEIGHS 5.0076E-02

 ...... END OF CI-MATRIX DIAGONALIZATION ......
 STEP CPU TIME =     0.00 TOTAL CPU TIME =        0.0 (    0.0 MIN)
 TOTAL WALL CLOCK TIME=        0.0 SECONDS, CPU UTILIZATION IS  75.00%

          ---------------------
          STORE CSF INFORMATION
          --------------------

 READING THE DRT FILE
 TITLE=DRT1    Fri Jun  2 02:26:12 2017                                                
 NUMBER OF CONFIGURATIONS =         20

 READING THE CI VECTOR FILE
 RUN TITLE=As atom...unagumented SBKJC basis set is used                                   
 DRT TITLE=DRT1    Fri Jun  2 02:26:12 2017                                                
     8 STATES WERE COMPUTED, NWKS=        20

 STORING CSF AND CI COEF. INFORMATION FOR    8 STATES ON FILE  17.
     ENERGIES ARE ...
      -5.9832743     -5.9832743     -5.9832743     -5.9832743     -5.9832743
      -5.9569620     -5.9569620     -5.9569620
 SAVING CSFS WITH COEFS LARGER THAN 2.50E-05
 SAVED CSFS:         11
 TOTAL CSFS:         20

 ...... DONE STORING CSF INFORMATION ......
 STEP CPU TIME =     0.00 TOTAL CPU TIME =        0.0 (    0.0 MIN)
 TOTAL WALL CLOCK TIME=        0.0 SECONDS, CPU UTILIZATION IS  75.00%


     -------------------------
      2-ND     CI CALCULATION
     -------------------------

          -----------------------     ----------------------------
          GUGA DISTINCT ROW TABLE     WRITTEN BY B.R.BROOKS,P.SAXE
          -----------------------     ----------------------------

      GROUP=C1           NPRT=       0
       FORS=       T   INTACT=       F
       FOCI=       F   MXNINT=   50000
       SOCI=       F   MXNEME=   10000
     IEXCIT=       0

      -CORE-    -INTERNAL-  -EXTERNAL-
     NFZC=   0   NDOC=   1   NEXT=   0
     NMCC=   0   NAOS=   0   NFZV=   0
                 NBOS=   0
                 NALP=   3
                 NVAL=   0

 THE MAXIMUM ELECTRON EXCITATION WILL BE   3

 THE FOLLOWING ANALYSIS IS BASED UPON THE $DATA POINT GROUP:

 SYMMETRIES FOR THE   0 CORE,   4 ACTIVE,   0 EXTERNAL MO-S ARE
   ACTIVE= AG    B1U   B3U   B2U 
           DOC   ALP   ALP   ALP 

 THE FOLLOWING ANALYSIS IS BASED UPON THE $DRT POINT GROUP:

 SYMMETRIES FOR THE   0 CORE,   4 ACTIVE,   0 EXTERNAL MO-S ARE
   ACTIVE= A     A     A     A   
           DOC   ALP   ALP   ALP 

 MOLECULAR CHARGE          =    0
 NUMBER OF ALPHA ELECTRONS =    4
 NUMBER OF  BETA ELECTRONS =    1

 THE ELECTRONIC STATE IS  4-A   

 THE DISTINCT ROW TABLE HAS         8 ROWS.
  THE WAVEFUNCTION CONTAINS         4 WALKS (CSF-S).

 TOTAL NUMBER OF INTEGRALS =         73
 NUMBER OF INTEGRALS/GROUP =         73
 NUMBER OF INTEGRAL GROUPS =          1
 MAXIMUM RECORD SIZES ARE     500 FOR UNIT 11      22 FOR UNIT 12
                            30001 FOR UNIT 15   30001 FOR UNIT 16
 ...... END OF -DRT- GENERATION ...... 
 STEP CPU TIME =     0.00 TOTAL CPU TIME =        0.0 (    0.0 MIN)
 TOTAL WALL CLOCK TIME=        0.0 SECONDS, CPU UTILIZATION IS  75.00%

     --------------------------------------------
     PARTIAL TWO ELECTRON INTEGRAL TRANSFORMATION
     --------------------------------------------

 NUMBER OF CORE MOLECULAR ORBITALS     =    0
 NUMBER OF OCCUPIED MOLECULAR ORBITALS =    4
 TOTAL NUMBER OF MOLECULAR ORBITALS    =    4
 TOTAL NUMBER OF ATOMIC ORBITALS       =    8
 THRESHOLD FOR KEEPING TRANSFORMED 2E- INTEGRALS = 1.000E-09
 AO INTEGRALS WILL BE READ IN FROM DISK...

 PLAN A: REQUIREMENTS FOR FULLY IN-MEMORY TRANSFORMATION:
 # OF WORDS AVAILABLE =               971186
 # OF WORDS NEEDED    =                61490

 CHOOSING IN MEMORY PARTIAL TRANSFORMATION...
 TOTAL NUMBER OF TRANSFORMED 2E- INTEGRALS KEPT =           16
 ... END OF INTEGRAL TRANSFORMATION ...
 STEP CPU TIME =     0.00 TOTAL CPU TIME =        0.0 (    0.0 MIN)
 TOTAL WALL CLOCK TIME=        0.0 SECONDS, CPU UTILIZATION IS  75.00%

          ------------------------
          GUGA-CI INTEGRAL SORTING
          ------------------------

     80049 WORDS NEEDED TO SORT             73 GUGA INTEGRALS IN MEMORY
    971186 WORDS ARE AVAILABLE
 CHOOSING IN-MEMORY SORTING...
 IN CORE ALGORITHM SORTED             10 NON-ZERO 1E- INTEGRALS
 IN CORE ALGORITHM SORTED             16 NON-ZERO 2E- INTEGRALS
 ...... END OF INTEGRAL SORTING ...... 
 STEP CPU TIME =     0.00 TOTAL CPU TIME =        0.0 (    0.0 MIN)
 TOTAL WALL CLOCK TIME=        0.0 SECONDS, CPU UTILIZATION IS  75.00%

 -------------------------     ---------------------------------------
 ENERGY MATRIX CALCULATION     WRITTEN BY B.R.BROOKS,W.D.LAIDIG,P.SAXE
 -------------------------     ---------------------------------------

 COMPUTING THE HAMILTONIAN FOR THE         4 CSF-S...

          50 IS THE TOTAL NUMBER OF GENERATED LOOPS
          50 WERE CREATED BY THE LOOP-DRIVEN ALGORITHM
           0 WERE CREATED IMPLICITLY

          32 IS THE TOTAL NUMBER OF PROCESSED LOOPS
          32     DIAGONAL LOOPS ARE STORED ON WORK15 IN     1 BUFFERS OF  10000 ELEMENTS.
           0 OFF DIAGONAL LOOPS ARE STORED ON WORK16 IN     1 BUFFERS OF  10000 ELEMENTS.
 ...... END OF ENERGY MATRIX CALCULATION ...... 
 STEP CPU TIME =     0.00 TOTAL CPU TIME =        0.0 (    0.0 MIN)
 TOTAL WALL CLOCK TIME=        0.0 SECONDS, CPU UTILIZATION IS  75.00%

          -----------------------------------------
          DAVIDSON METHOD CI-MATRIX DIAGONALIZATION
                   WRITTEN BY STEVE ELBERT
          -----------------------------------------
 NUMBER OF STATES REQUESTED =     1
 MAX. NUMB. OF EXPAN. VEC   =    30
 MAX. NUMB. IMPROVED STATES =     1
 MAX. NUMB. OF ITERATIONS   =    50
 CONVERGENCE CRITERION      =    1.0E-06

 CHOOSING TO SOLVE SECULAR EQUATION IN MEMORY
 NUMBER OF WORDS AVAILABLE =     971186
 NUMBER OF WORDS USED      =      31000
 ENERGY MATRIX BUFFER SIZE =      10000
 SOLUTION FOUND WITH DIRECT METHOD

 STATE #    1  ENERGY =      -6.052212006

      CSF      COEF    OCCUPANCY (IGNORING CORE)
      ---      ----    --------- --------- -----
        4    1.000000  2111

 THE PROJECTION OF THIS CI STATE ONTO SPACE SYMMETRY AU   WEIGHS 1.0000E+00

 ...... END OF CI-MATRIX DIAGONALIZATION ......
 STEP CPU TIME =     0.00 TOTAL CPU TIME =        0.0 (    0.0 MIN)
 TOTAL WALL CLOCK TIME=        0.0 SECONDS, CPU UTILIZATION IS  75.00%

          ---------------------
          STORE CSF INFORMATION
          --------------------

 READING THE DRT FILE
 TITLE=DRT2    Fri Jun  2 02:26:12 2017                                                
 NUMBER OF CONFIGURATIONS =          4

 READING THE CI VECTOR FILE
 RUN TITLE=As atom...unagumented SBKJC basis set is used                                   
 DRT TITLE=DRT2    Fri Jun  2 02:26:12 2017                                                
     1 STATES WERE COMPUTED, NWKS=         4

 STORING CSF AND CI COEF. INFORMATION FOR    1 STATES ON FILE  17.
     ENERGIES ARE ...
      -6.0522120
 SAVING CSFS WITH COEFS LARGER THAN 2.50E-05
 SAVED CSFS:          1
 TOTAL CSFS:          4

 ...... DONE STORING CSF INFORMATION ......
 STEP CPU TIME =     0.00 TOTAL CPU TIME =        0.0 (    0.0 MIN)
 TOTAL WALL CLOCK TIME=        0.0 SECONDS, CPU UTILIZATION IS  75.00%
 STEP CPU TIME =     0.00 TOTAL CPU TIME =        0.0 (    0.0 MIN)
 TOTAL WALL CLOCK TIME=        0.0 SECONDS, CPU UTILIZATION IS  75.00%

 ++++++++++++++++++++++++++++++++++++++++++++++++++++++++++++++++++++++


 THE SYMMETRIES OF THE ANGULAR MOMENTUM L AND TRANSLATION R:
 LX BELONGS TO B3G 
 LY BELONGS TO B2G 
 LZ BELONGS TO B1G 
 RX BELONGS TO B3U 
 RY BELONGS TO B2U 
 RZ BELONGS TO B1U 
 SOC INTEGRALS NEED BE CALCULATED FOR LX: YEA 
 SOC INTEGRALS NEED BE CALCULATED FOR LY: YEA 
 SOC INTEGRALS NEED BE CALCULATED FOR LZ: YEA 

     -------------------------------------------
            DIRECT SPIN-ORBIT COUPLING
         (SHIRO KOSEKI AND DMITRI FEDOROV)

             ONE ELECTRON SO OPERATOR.
     -------------------------------------------


ENERGY FOR THE LOWEST STATE     =       -6.0522120062
ENERGY TOLERANCE FOR SOC MATRIX =       93.9477879938 (HIGHEST STATE)
                           ETOL =      100.0000000000
                         UPPREN =       93.9477879938

  CI# RTS#     LOWEST ENERGY      HIGHEST ENERGY     NEXT ENERGY
    1    8       -5.9832743312       -5.9569620432
    2    1       -6.0522120062       -6.0522120062        0.0000000000

         -------------------------------------
          ONE-ELECTRON SPIN-ORBIT AO INTEGRALS
         -------------------------------------
         USING       5432 WORDS OF MEMORY
      ...... DONE WITH SPIN-ORBIT INTEGRALS ......
 STEP CPU TIME =     0.00 TOTAL CPU TIME =        0.0 (    0.0 MIN)
 TOTAL WALL CLOCK TIME=        0.0 SECONDS, CPU UTILIZATION IS  75.00%

     21511 WORDS OF MEMORY ARE REQUIRED  FOR 1 PASS(ES)
     20814 WORDS FOR INTEGRALS,     21511 WORDS FOR CSFS.

 REFERENCE STATE IS SET TO    1 IN THE DRT NO. 1 (  1001).

 THE FOLLOWING LEGEND IS USED BELOW:
 [C] - THE MATRIX ELEMENT ACTUALLY CALCULATED
 [P] - OBTAINED FROM [C] BY THE WIGNER-ECKART THEOREM (<HSO>)
 [Z] - ZERO BY POINT GROUP SYMMETRY
 [W] - ZERO BY THE WIGNER-ECKART THEOREM (<HSO>)
 [S] - ZERO BY SPIN ORTHOGONALITY (<R>)

 [Z]'S ARE NOT CALCULATED.


 CI STATE FORMAT:   N-(2S+1)G:B
 G- IRREP LABEL, B NUMBERS DEGENERATE COMPONENTS OF G
 N NUMBERS EQUIVALENT TERMS (2S+1)G:B

 STATE ID FORMAT: NCI*1000+IROOT,
 WHERE NCI IS THE NTH $DRT GROUP
 AND IROOT IS THE CI ROOT'S ORDINAL NUMBER.

 < 1-2??   (MS= 0.5)|HSO| 1-2??   (MS= 0.5)> =     0.0000    -0.0000I    [Z]
 < 1-2??   (MS=-0.5)|HSO| 1-2??   (MS=-0.5)> =    -0.0000     0.0000I    [P]
 < 1-2??   (MS=-0.5)|HSO| 1-2??   (MS= 0.5)> =    -0.0000     0.0000I    [C]
 < 1-2??   (MS= 0.5)|HSO| 1-2??   (MS=-0.5)> =     0.0000     0.0000I    [P]
  
 < 1-2??   (MS= 0.5)|HSO| 2-2??   (MS= 0.5)> =     0.0000    -0.0000I    [C]
 < 1-2??   (MS=-0.5)|HSO| 2-2??   (MS=-0.5)> =    -0.0000     0.0000I    [P]
 < 1-2??   (MS=-0.5)|HSO| 2-2??   (MS= 0.5)> =    -0.0000     0.0000I    [C]
 < 1-2??   (MS= 0.5)|HSO| 2-2??   (MS=-0.5)> =     0.0000     0.0000I    [P]
  
 < 1-2??   (MS= 0.5)|HSO| 3-2??   (MS= 0.5)> =     0.0000     0.0000I    [C]
 < 1-2??   (MS=-0.5)|HSO| 3-2??   (MS=-0.5)> =    -0.0000    -0.0000I    [P]
 < 1-2??   (MS=-0.5)|HSO| 3-2??   (MS= 0.5)> =    -0.0000    -0.0000I    [C]
 < 1-2??   (MS= 0.5)|HSO| 3-2??   (MS=-0.5)> =     0.0000    -0.0000I    [P]
  
 < 1-2??   (MS= 0.5)|HSO| 4-2??   (MS= 0.5)> =     0.0000     0.0000I    [C]
 < 1-2??   (MS=-0.5)|HSO| 4-2??   (MS=-0.5)> =    -0.0000    -0.0000I    [P]
 < 1-2??   (MS=-0.5)|HSO| 4-2??   (MS= 0.5)> =     0.0000    -0.0000I    [C]
 < 1-2??   (MS= 0.5)|HSO| 4-2??   (MS=-0.5)> =    -0.0000    -0.0000I    [P]
  
 < 1-2??   (MS= 0.5)|HSO| 5-2??   (MS= 0.5)> =     0.0000    -0.0000I    [C]
 < 1-2??   (MS=-0.5)|HSO| 5-2??   (MS=-0.5)> =    -0.0000     0.0000I    [P]
 < 1-2??   (MS=-0.5)|HSO| 5-2??   (MS= 0.5)> =     0.0000     0.0000I    [C]
 < 1-2??   (MS= 0.5)|HSO| 5-2??   (MS=-0.5)> =    -0.0000     0.0000I    [P]
  
 < 1-2??   (MS= 0.5)|HSO| 6-2??   (MS= 0.5)> =     0.0000  -163.5737I    [C]
 < 1-2??   (MS=-0.5)|HSO| 6-2??   (MS=-0.5)> =    -0.0000   163.5737I    [P]
 < 1-2??   (MS=-0.5)|HSO| 6-2??   (MS= 0.5)> =  -629.1772    12.8177I    [C]
 < 1-2??   (MS= 0.5)|HSO| 6-2??   (MS=-0.5)> =   629.1772    12.8177I    [P]
  
 < 1-2??   (MS= 0.5)|HSO| 7-2??   (MS= 0.5)> =     0.0000    47.9272I    [C]
 < 1-2??   (MS=-0.5)|HSO| 7-2??   (MS=-0.5)> =    -0.0000   -47.9272I    [P]
 < 1-2??   (MS=-0.5)|HSO| 7-2??   (MS= 0.5)> =  -188.4005   -26.7408I    [C]
 < 1-2??   (MS= 0.5)|HSO| 7-2??   (MS=-0.5)> =   188.4005   -26.7408I    [P]
  
 < 1-2??   (MS= 0.5)|HSO| 8-2??   (MS= 0.5)> =     0.0000   624.4493I    [C]
 < 1-2??   (MS=-0.5)|HSO| 8-2??   (MS=-0.5)> =    -0.0000  -624.4493I    [P]
 < 1-2??   (MS=-0.5)|HSO| 8-2??   (MS= 0.5)> =  -150.3695   -20.1472I    [C]
 < 1-2??   (MS= 0.5)|HSO| 8-2??   (MS=-0.5)> =   150.3695   -20.1472I    [P]
  
 < 2-2??   (MS= 0.5)|HSO| 2-2??   (MS= 0.5)> =     0.0000     0.0000I    [C]
 < 2-2??   (MS=-0.5)|HSO| 2-2??   (MS=-0.5)> =    -0.0000    -0.0000I    [P]
 < 2-2??   (MS=-0.5)|HSO| 2-2??   (MS= 0.5)> =    -0.0000     0.0000I    [C]
 < 2-2??   (MS= 0.5)|HSO| 2-2??   (MS=-0.5)> =     0.0000     0.0000I    [P]
  
 < 2-2??   (MS= 0.5)|HSO| 3-2??   (MS= 0.5)> =     0.0000     0.0000I    [C]
 < 2-2??   (MS=-0.5)|HSO| 3-2??   (MS=-0.5)> =    -0.0000    -0.0000I    [P]
 < 2-2??   (MS=-0.5)|HSO| 3-2??   (MS= 0.5)> =    -0.0000    -0.0000I    [C]
 < 2-2??   (MS= 0.5)|HSO| 3-2??   (MS=-0.5)> =     0.0000    -0.0000I    [P]
  
 < 2-2??   (MS= 0.5)|HSO| 4-2??   (MS= 0.5)> =     0.0000    -0.0000I    [C]
 < 2-2??   (MS=-0.5)|HSO| 4-2??   (MS=-0.5)> =    -0.0000     0.0000I    [P]
 < 2-2??   (MS=-0.5)|HSO| 4-2??   (MS= 0.5)> =     0.0000     0.0000I    [C]
 < 2-2??   (MS= 0.5)|HSO| 4-2??   (MS=-0.5)> =    -0.0000     0.0000I    [P]
  
 < 2-2??   (MS= 0.5)|HSO| 5-2??   (MS= 0.5)> =     0.0000     0.0000I    [C]
 < 2-2??   (MS=-0.5)|HSO| 5-2??   (MS=-0.5)> =    -0.0000    -0.0000I    [P]
 < 2-2??   (MS=-0.5)|HSO| 5-2??   (MS= 0.5)> =    -0.0000     0.0000I    [C]
 < 2-2??   (MS= 0.5)|HSO| 5-2??   (MS=-0.5)> =     0.0000     0.0000I    [P]
  
 < 2-2??   (MS= 0.5)|HSO| 6-2??   (MS= 0.5)> =     0.0000   198.7546I    [C]
 < 2-2??   (MS=-0.5)|HSO| 6-2??   (MS=-0.5)> =    -0.0000  -198.7546I    [P]
 < 2-2??   (MS=-0.5)|HSO| 6-2??   (MS= 0.5)> =  -279.3636  -554.8391I    [C]
 < 2-2??   (MS= 0.5)|HSO| 6-2??   (MS=-0.5)> =   279.3636  -554.8391I    [P]
  
 < 2-2??   (MS= 0.5)|HSO| 7-2??   (MS= 0.5)> =     0.0000  -126.5735I    [C]
 < 2-2??   (MS=-0.5)|HSO| 7-2??   (MS=-0.5)> =    -0.0000   126.5735I    [P]
 < 2-2??   (MS=-0.5)|HSO| 7-2??   (MS= 0.5)> =   557.1351  -340.0145I    [C]
 < 2-2??   (MS= 0.5)|HSO| 7-2??   (MS=-0.5)> =  -557.1351  -340.0145I    [P]
  
 < 2-2??   (MS= 0.5)|HSO| 8-2??   (MS= 0.5)> =     0.0000   -40.4402I    [C]
 < 2-2??   (MS=-0.5)|HSO| 8-2??   (MS=-0.5)> =    -0.0000    40.4402I    [P]
 < 2-2??   (MS=-0.5)|HSO| 8-2??   (MS= 0.5)> =    53.0245    48.7262I    [C]
 < 2-2??   (MS= 0.5)|HSO| 8-2??   (MS=-0.5)> =   -53.0245    48.7262I    [P]
  
 < 3-2??   (MS= 0.5)|HSO| 3-2??   (MS= 0.5)> =     0.0000    -0.0000I    [C]
 < 3-2??   (MS=-0.5)|HSO| 3-2??   (MS=-0.5)> =    -0.0000     0.0000I    [P]
 < 3-2??   (MS=-0.5)|HSO| 3-2??   (MS= 0.5)> =    -0.0000    -0.0000I    [C]
 < 3-2??   (MS= 0.5)|HSO| 3-2??   (MS=-0.5)> =     0.0000    -0.0000I    [P]
  
 < 3-2??   (MS= 0.5)|HSO| 4-2??   (MS= 0.5)> =     0.0000    -0.0000I    [C]
 < 3-2??   (MS=-0.5)|HSO| 4-2??   (MS=-0.5)> =    -0.0000     0.0000I    [P]
 < 3-2??   (MS=-0.5)|HSO| 4-2??   (MS= 0.5)> =    -0.0000    -0.0000I    [C]
 < 3-2??   (MS= 0.5)|HSO| 4-2??   (MS=-0.5)> =     0.0000    -0.0000I    [P]
  
 < 3-2??   (MS= 0.5)|HSO| 5-2??   (MS= 0.5)> =     0.0000    -0.0000I    [C]
 < 3-2??   (MS=-0.5)|HSO| 5-2??   (MS=-0.5)> =    -0.0000     0.0000I    [P]
 < 3-2??   (MS=-0.5)|HSO| 5-2??   (MS= 0.5)> =    -0.0000     0.0000I    [C]
 < 3-2??   (MS= 0.5)|HSO| 5-2??   (MS=-0.5)> =     0.0000     0.0000I    [P]
  
 < 3-2??   (MS= 0.5)|HSO| 6-2??   (MS= 0.5)> =     0.0000   151.4244I    [C]
 < 3-2??   (MS=-0.5)|HSO| 6-2??   (MS=-0.5)> =    -0.0000  -151.4244I    [P]
 < 3-2??   (MS=-0.5)|HSO| 6-2??   (MS= 0.5)> =   144.4582  -143.2773I    [C]
 < 3-2??   (MS= 0.5)|HSO| 6-2??   (MS=-0.5)> =  -144.4582  -143.2773I    [P]
  
 < 3-2??   (MS= 0.5)|HSO| 7-2??   (MS= 0.5)> =     0.0000  -531.8363I    [C]
 < 3-2??   (MS=-0.5)|HSO| 7-2??   (MS=-0.5)> =    -0.0000   531.8363I    [P]
 < 3-2??   (MS=-0.5)|HSO| 7-2??   (MS= 0.5)> =   -49.2908   381.3519I    [C]
 < 3-2??   (MS= 0.5)|HSO| 7-2??   (MS=-0.5)> =    49.2908   381.3519I    [P]
  
 < 3-2??   (MS= 0.5)|HSO| 8-2??   (MS= 0.5)> =     0.0000   270.4712I    [C]
 < 3-2??   (MS=-0.5)|HSO| 8-2??   (MS=-0.5)> =    -0.0000  -270.4712I    [P]
 < 3-2??   (MS=-0.5)|HSO| 8-2??   (MS= 0.5)> =    93.1898   545.3179I    [C]
 < 3-2??   (MS= 0.5)|HSO| 8-2??   (MS=-0.5)> =   -93.1898   545.3179I    [P]
  
 < 4-2??   (MS= 0.5)|HSO| 4-2??   (MS= 0.5)> =     0.0000    -0.0000I    [C]
 < 4-2??   (MS=-0.5)|HSO| 4-2??   (MS=-0.5)> =    -0.0000     0.0000I    [P]
 < 4-2??   (MS=-0.5)|HSO| 4-2??   (MS= 0.5)> =    -0.0000    -0.0000I    [C]
 < 4-2??   (MS= 0.5)|HSO| 4-2??   (MS=-0.5)> =     0.0000    -0.0000I    [P]
  
 < 4-2??   (MS= 0.5)|HSO| 5-2??   (MS= 0.5)> =     0.0000    -0.0000I    [C]
 < 4-2??   (MS=-0.5)|HSO| 5-2??   (MS=-0.5)> =    -0.0000     0.0000I    [P]
 < 4-2??   (MS=-0.5)|HSO| 5-2??   (MS= 0.5)> =    -0.0000    -0.0000I    [C]
 < 4-2??   (MS= 0.5)|HSO| 5-2??   (MS=-0.5)> =     0.0000    -0.0000I    [P]
  
 < 4-2??   (MS= 0.5)|HSO| 6-2??   (MS= 0.5)> =     0.0000   586.6235I    [C]
 < 4-2??   (MS=-0.5)|HSO| 6-2??   (MS=-0.5)> =    -0.0000  -586.6235I    [P]
 < 4-2??   (MS=-0.5)|HSO| 6-2??   (MS= 0.5)> =  -131.1526   154.0085I    [C]
 < 4-2??   (MS= 0.5)|HSO| 6-2??   (MS=-0.5)> =   131.1526   154.0085I    [P]
  
 < 4-2??   (MS= 0.5)|HSO| 7-2??   (MS= 0.5)> =     0.0000   243.9010I    [C]
 < 4-2??   (MS=-0.5)|HSO| 7-2??   (MS=-0.5)> =    -0.0000  -243.9010I    [P]
 < 4-2??   (MS=-0.5)|HSO| 7-2??   (MS= 0.5)> =  -111.2968     6.5661I    [C]
 < 4-2??   (MS= 0.5)|HSO| 7-2??   (MS=-0.5)> =   111.2968     6.5661I    [P]
  
 < 4-2??   (MS= 0.5)|HSO| 8-2??   (MS= 0.5)> =     0.0000   118.0715I    [C]
 < 4-2??   (MS=-0.5)|HSO| 8-2??   (MS=-0.5)> =    -0.0000  -118.0715I    [P]
 < 4-2??   (MS=-0.5)|HSO| 8-2??   (MS= 0.5)> =   634.3123   -31.4274I    [C]
 < 4-2??   (MS= 0.5)|HSO| 8-2??   (MS=-0.5)> =  -634.3123   -31.4274I    [P]
  
 < 5-2??   (MS= 0.5)|HSO| 5-2??   (MS= 0.5)> =     0.0000    -0.0000I    [C]
 < 5-2??   (MS=-0.5)|HSO| 5-2??   (MS=-0.5)> =    -0.0000     0.0000I    [P]
 < 5-2??   (MS=-0.5)|HSO| 5-2??   (MS= 0.5)> =     0.0000    -0.0000I    [C]
 < 5-2??   (MS= 0.5)|HSO| 5-2??   (MS=-0.5)> =    -0.0000    -0.0000I    [P]
  
 < 5-2??   (MS= 0.5)|HSO| 6-2??   (MS= 0.5)> =     0.0000  -111.6792I    [C]
 < 5-2??   (MS=-0.5)|HSO| 6-2??   (MS=-0.5)> =    -0.0000   111.6792I    [P]
 < 5-2??   (MS=-0.5)|HSO| 6-2??   (MS= 0.5)> =   228.3853  -308.0460I    [C]
 < 5-2??   (MS= 0.5)|HSO| 6-2??   (MS=-0.5)> =  -228.3853  -308.0460I    [P]
  
 < 5-2??   (MS= 0.5)|HSO| 7-2??   (MS= 0.5)> =     0.0000   276.9230I    [C]
 < 5-2??   (MS=-0.5)|HSO| 7-2??   (MS=-0.5)> =    -0.0000  -276.9230I    [P]
 < 5-2??   (MS=-0.5)|HSO| 7-2??   (MS= 0.5)> =   296.3251   556.2525I    [C]
 < 5-2??   (MS= 0.5)|HSO| 7-2??   (MS=-0.5)> =  -296.3251   556.2525I    [P]
  
 < 5-2??   (MS= 0.5)|HSO| 8-2??   (MS= 0.5)> =     0.0000   308.6702I    [C]
 < 5-2??   (MS=-0.5)|HSO| 8-2??   (MS=-0.5)> =    -0.0000  -308.6702I    [P]
 < 5-2??   (MS=-0.5)|HSO| 8-2??   (MS= 0.5)> =    89.2190  -370.9067I    [C]
 < 5-2??   (MS= 0.5)|HSO| 8-2??   (MS=-0.5)> =   -89.2190  -370.9067I    [P]
  
 < 6-2??   (MS= 0.5)|HSO| 6-2??   (MS= 0.5)> =     0.0000    -0.0000I    [C]
 < 6-2??   (MS=-0.5)|HSO| 6-2??   (MS=-0.5)> =    -0.0000     0.0000I    [P]
 < 6-2??   (MS=-0.5)|HSO| 6-2??   (MS= 0.5)> =    -0.0000     0.0000I    [C]
 < 6-2??   (MS= 0.5)|HSO| 6-2??   (MS=-0.5)> =     0.0000     0.0000I    [P]
  
 < 6-2??   (MS= 0.5)|HSO| 7-2??   (MS= 0.5)> =     0.0000   -15.4713I    [C]
 < 6-2??   (MS=-0.5)|HSO| 7-2??   (MS=-0.5)> =    -0.0000    15.4713I    [P]
 < 6-2??   (MS=-0.5)|HSO| 7-2??   (MS= 0.5)> =    -3.5728    -1.6671I    [C]
 < 6-2??   (MS= 0.5)|HSO| 7-2??   (MS=-0.5)> =     3.5728    -1.6671I    [P]
  
 < 6-2??   (MS= 0.5)|HSO| 8-2??   (MS= 0.5)> =     0.0000     0.6192I    [C]
 < 6-2??   (MS=-0.5)|HSO| 8-2??   (MS=-0.5)> =    -0.0000    -0.6192I    [P]
 < 6-2??   (MS=-0.5)|HSO| 8-2??   (MS= 0.5)> =     4.4652   -15.3161I    [C]
 < 6-2??   (MS= 0.5)|HSO| 8-2??   (MS=-0.5)> =    -4.4652   -15.3161I    [P]
  
 < 7-2??   (MS= 0.5)|HSO| 7-2??   (MS= 0.5)> =     0.0000    -0.0000I    [C]
 < 7-2??   (MS=-0.5)|HSO| 7-2??   (MS=-0.5)> =    -0.0000     0.0000I    [P]
 < 7-2??   (MS=-0.5)|HSO| 7-2??   (MS= 0.5)> =    -0.0000    -0.0000I    [C]
 < 7-2??   (MS= 0.5)|HSO| 7-2??   (MS=-0.5)> =     0.0000    -0.0000I    [P]
  
 < 7-2??   (MS= 0.5)|HSO| 8-2??   (MS= 0.5)> =     0.0000     3.8936I    [C]
 < 7-2??   (MS=-0.5)|HSO| 8-2??   (MS=-0.5)> =    -0.0000    -3.8936I    [P]
 < 7-2??   (MS=-0.5)|HSO| 8-2??   (MS= 0.5)> =   -14.9065    -4.1883I    [C]
 < 7-2??   (MS= 0.5)|HSO| 8-2??   (MS=-0.5)> =    14.9065    -4.1883I    [P]
  
 < 8-2??   (MS= 0.5)|HSO| 8-2??   (MS= 0.5)> =     0.0000    -0.0000I    [C]
 < 8-2??   (MS=-0.5)|HSO| 8-2??   (MS=-0.5)> =    -0.0000     0.0000I    [P]
 < 8-2??   (MS=-0.5)|HSO| 8-2??   (MS= 0.5)> =     0.0000     0.0000I    [C]
 < 8-2??   (MS= 0.5)|HSO| 8-2??   (MS=-0.5)> =    -0.0000     0.0000I    [P]
  
 STEP CPU TIME =     0.01 TOTAL CPU TIME =        0.0 (    0.0 MIN)
 TOTAL WALL CLOCK TIME=        0.0 SECONDS, CPU UTILIZATION IS 100.00%
 < 1-2??   (MS= 0.5)|HSO| 1-4AU   (MS= 0.5)> =     0.0000     0.0000I    [Z]
 < 1-2??   (MS=-0.5)|HSO| 1-4AU   (MS=-0.5)> =     0.0000     0.0000I    [P]
 < 1-2??   (MS= 0.5)|HSO| 1-4AU   (MS= 1.5)> =     0.0000     0.0000I    [C]
 < 1-2??   (MS=-0.5)|HSO| 1-4AU   (MS=-1.5)> =     0.0000    -0.0000I    [P]
 < 1-2??   (MS=-0.5)|HSO| 1-4AU   (MS= 0.5)> =     0.0000     0.0000I    [P]
 < 1-2??   (MS= 0.5)|HSO| 1-4AU   (MS=-0.5)> =     0.0000    -0.0000I    [P]
  
 < 2-2??   (MS= 0.5)|HSO| 1-4AU   (MS= 0.5)> =     0.0000     0.0000I    [C]
 < 2-2??   (MS=-0.5)|HSO| 1-4AU   (MS=-0.5)> =     0.0000     0.0000I    [P]
 < 2-2??   (MS= 0.5)|HSO| 1-4AU   (MS= 1.5)> =     0.0000     0.0000I    [C]
 < 2-2??   (MS=-0.5)|HSO| 1-4AU   (MS=-1.5)> =     0.0000    -0.0000I    [P]
 < 2-2??   (MS=-0.5)|HSO| 1-4AU   (MS= 0.5)> =     0.0000     0.0000I    [P]
 < 2-2??   (MS= 0.5)|HSO| 1-4AU   (MS=-0.5)> =     0.0000    -0.0000I    [P]
  
 < 3-2??   (MS= 0.5)|HSO| 1-4AU   (MS= 0.5)> =     0.0000    -0.0000I    [C]
 < 3-2??   (MS=-0.5)|HSO| 1-4AU   (MS=-0.5)> =     0.0000    -0.0000I    [P]
 < 3-2??   (MS= 0.5)|HSO| 1-4AU   (MS= 1.5)> =     0.0000    -0.0000I    [C]
 < 3-2??   (MS=-0.5)|HSO| 1-4AU   (MS=-1.5)> =     0.0000     0.0000I    [P]
 < 3-2??   (MS=-0.5)|HSO| 1-4AU   (MS= 0.5)> =     0.0000    -0.0000I    [P]
 < 3-2??   (MS= 0.5)|HSO| 1-4AU   (MS=-0.5)> =     0.0000     0.0000I    [P]
  
 < 4-2??   (MS= 0.5)|HSO| 1-4AU   (MS= 0.5)> =     0.0000    -0.0000I    [C]
 < 4-2??   (MS=-0.5)|HSO| 1-4AU   (MS=-0.5)> =     0.0000    -0.0000I    [P]
 < 4-2??   (MS= 0.5)|HSO| 1-4AU   (MS= 1.5)> =    -0.0000     0.0000I    [C]
 < 4-2??   (MS=-0.5)|HSO| 1-4AU   (MS=-1.5)> =    -0.0000    -0.0000I    [P]
 < 4-2??   (MS=-0.5)|HSO| 1-4AU   (MS= 0.5)> =    -0.0000     0.0000I    [P]
 < 4-2??   (MS= 0.5)|HSO| 1-4AU   (MS=-0.5)> =    -0.0000    -0.0000I    [P]
  
 < 5-2??   (MS= 0.5)|HSO| 1-4AU   (MS= 0.5)> =     0.0000     0.0000I    [C]
 < 5-2??   (MS=-0.5)|HSO| 1-4AU   (MS=-0.5)> =     0.0000     0.0000I    [P]
 < 5-2??   (MS= 0.5)|HSO| 1-4AU   (MS= 1.5)> =    -0.0000     0.0000I    [C]
 < 5-2??   (MS=-0.5)|HSO| 1-4AU   (MS=-1.5)> =    -0.0000    -0.0000I    [P]
 < 5-2??   (MS=-0.5)|HSO| 1-4AU   (MS= 0.5)> =    -0.0000     0.0000I    [P]
 < 5-2??   (MS= 0.5)|HSO| 1-4AU   (MS=-0.5)> =    -0.0000    -0.0000I    [P]
  
 < 6-2??   (MS= 0.5)|HSO| 1-4AU   (MS= 0.5)> =     0.0000   263.2994I    [C]
 < 6-2??   (MS=-0.5)|HSO| 1-4AU   (MS=-0.5)> =     0.0000   263.2994I    [P]
 < 6-2??   (MS= 0.5)|HSO| 1-4AU   (MS= 1.5)> =   872.9754   245.2842I    [C]
 < 6-2??   (MS=-0.5)|HSO| 1-4AU   (MS=-1.5)> =   872.9754  -245.2842I    [P]
 < 6-2??   (MS=-0.5)|HSO| 1-4AU   (MS= 0.5)> =   504.0126   141.6149I    [P]
 < 6-2??   (MS= 0.5)|HSO| 1-4AU   (MS=-0.5)> =   504.0126  -141.6149I    [P]
  
 < 7-2??   (MS= 0.5)|HSO| 1-4AU   (MS= 0.5)> =     0.0000   -41.8724I    [C]
 < 7-2??   (MS=-0.5)|HSO| 1-4AU   (MS=-0.5)> =     0.0000   -41.8724I    [P]
 < 7-2??   (MS= 0.5)|HSO| 1-4AU   (MS= 1.5)> =   261.4971  -896.9669I    [C]
 < 7-2??   (MS=-0.5)|HSO| 1-4AU   (MS=-1.5)> =   261.4971   896.9669I    [P]
 < 7-2??   (MS=-0.5)|HSO| 1-4AU   (MS= 0.5)> =   150.9754  -517.8641I    [P]
 < 7-2??   (MS= 0.5)|HSO| 1-4AU   (MS=-0.5)> =   150.9754   517.8641I    [P]
  
 < 8-2??   (MS= 0.5)|HSO| 1-4AU   (MS= 0.5)> =     0.0000 -1046.2220I    [C]
 < 8-2??   (MS=-0.5)|HSO| 1-4AU   (MS=-0.5)> =     0.0000 -1046.2220I    [P]
 < 8-2??   (MS= 0.5)|HSO| 1-4AU   (MS= 1.5)> =   209.2332    97.6287I    [C]
 < 8-2??   (MS=-0.5)|HSO| 1-4AU   (MS=-1.5)> =   209.2332   -97.6287I    [P]
 < 8-2??   (MS=-0.5)|HSO| 1-4AU   (MS= 0.5)> =   120.8009    56.3660I    [P]
 < 8-2??   (MS= 0.5)|HSO| 1-4AU   (MS=-0.5)> =   120.8009   -56.3660I    [P]
  
 STEP CPU TIME =     0.00 TOTAL CPU TIME =        0.0 (    0.0 MIN)
 TOTAL WALL CLOCK TIME=        0.0 SECONDS, CPU UTILIZATION IS 100.00%

 >>> DIMENSION OF HSO MATRIX =      20
     LARGEST NUMBER OF WALKS =      11

     THE MAX HSO MATRIX ELEMENT ABSOLUTE ERROR IS 1.05E-01 CM-1.
     TO DECREASE THE ERROR MAKE SYMTOL SMALLER.

     CI   ADIABATIC STATES (CM-1 UNIT) ---
             0.000          0.000          0.000          0.000          0.000
             0.000          0.000          0.000          0.000          0.000
          5774.978       5774.978       5774.978       5774.978       5774.978
          5774.978     -15130.328     -15130.328     -15130.328     -15130.328

 WEIGHTS OF SO   CI   STATES ---

 STATE   1: RELATIVE E=     -15214.271 CM-1; WEIGHT = 0.996  2001
         1.0000
          1      2      3      4      5      6      7      8      9
         0.0000 0.0000 0.0000 0.0000 0.0000 0.0019 0.0002 0.0019 0.9959

 STATE   2: RELATIVE E=     -15214.271 CM-1; WEIGHT = 0.996  2001
         1.0000
          1      2      3      4      5      6      7      8      9
         0.0000 0.0000 0.0000 0.0000 0.0000 0.0014 0.0016 0.0010 0.9959

 STATE   3: RELATIVE E=     -15214.271 CM-1; WEIGHT = 0.996  2001
         1.0000
          1      2      3      4      5      6      7      8      9
         0.0000 0.0000 0.0000 0.0000 0.0000 0.0008 0.0025 0.0007 0.9959

 STATE   4: RELATIVE E=     -15214.271 CM-1; WEIGHT = 0.996  2001
         1.0000
          1      2      3      4      5      6      7      8      9
         0.0000 0.0000 0.0000 0.0000 0.0000 0.0012 0.0011 0.0017 0.9959

 STATE   5: RELATIVE E=       -350.920 CM-1; WEIGHT = 0.367  1001
         1.0000
          1      2      3      4      5      6      7      8      9
         0.3672 0.1628 0.0386 0.3457 0.0320 0.0292 0.0041 0.0199 0.0004

 STATE   6: RELATIVE E=       -350.920 CM-1; WEIGHT = 0.369  1001
         1.0000
          1      2      3      4      5      6      7      8      9
         0.3691 0.1643 0.0388 0.3479 0.0262 0.0294 0.0039 0.0200 0.0004

 STATE   7: RELATIVE E=       -350.920 CM-1; WEIGHT = 0.348  1005
         1.0000
          1      2      3      4      5      6      7      8      9
         0.0097 0.2179 0.3387 0.0320 0.3479 0.0061 0.0319 0.0153 0.0004

 STATE   8: RELATIVE E=       -350.920 CM-1; WEIGHT = 0.351  1005
         1.0000
          1      2      3      4      5      6      7      8      9
         0.0110 0.2120 0.3409 0.0314 0.3510 0.0064 0.0312 0.0158 0.0004

 STATE   9: RELATIVE E=          0.000 CM-1; WEIGHT = 0.600  1001
         1.0000
          1      2      3      4      5      6      7      8      9
         0.5999 0.0762 0.0503 0.2583 0.0153 0.0000 0.0000 0.0000 0.0000

 STATE  10: RELATIVE E=          0.000 CM-1; WEIGHT = 0.600  1001
         1.0000
          1      2      3      4      5      6      7      8      9
         0.6000 0.0793 0.0509 0.2540 0.0158 0.0000 0.0000 0.0000 0.0000

 STATE  11: RELATIVE E=          0.000 CM-1; WEIGHT = 0.356  1002
         1.0000
          1      2      3      4      5      6      7      8      9
         0.0000 0.3565 0.2772 0.2375 0.1289 0.0000 0.0000 0.0000 0.0000

 STATE  12: RELATIVE E=          0.000 CM-1; WEIGHT = 0.483  1005
         1.0000
          1      2      3      4      5      6      7      8      9
         0.0000 0.0222 0.4034 0.0915 0.4829 0.0000 0.0000 0.0000 0.0000

 STATE  13: RELATIVE E=          0.000 CM-1; WEIGHT = 0.471  1002
         1.0000
          1      2      3      4      5      6      7      8      9
         0.0001 0.4710 0.1197 0.2466 0.1626 0.0000 0.0000 0.0000 0.0000

 STATE  14: RELATIVE E=          0.000 CM-1; WEIGHT = 0.395  1005
         1.0000
          1      2      3      4      5      6      7      8      9
         0.0000 0.1948 0.2986 0.1121 0.3946 0.0000 0.0000 0.0000 0.0000

 STATE  15: RELATIVE E=       5806.910 CM-1; WEIGHT = 0.333  1006
         1.0000
          1      2      3      4      5      6      7      8      9
         0.0000 0.0000 0.0000 0.0000 0.0000 0.3333 0.3333 0.3333 0.0000

 STATE  16: RELATIVE E=       5806.910 CM-1; WEIGHT = 0.333  1006
         1.0000
          1      2      3      4      5      6      7      8      9
         0.0000 0.0000 0.0000 0.0000 0.0000 0.3333 0.3333 0.3333 0.0000

 STATE  17: RELATIVE E=       6193.875 CM-1; WEIGHT = 0.570  1008
         1.0000
          1      2      3      4      5      6      7      8      9
         0.0112 0.0031 0.0173 0.0114 0.0108 0.1256 0.2471 0.5699 0.0036

 STATE  18: RELATIVE E=       6193.875 CM-1; WEIGHT = 0.596  1008
         1.0000
          1      2      3      4      5      6      7      8      9
         0.0131 0.0022 0.0165 0.0129 0.0090 0.1292 0.2174 0.5961 0.0036

 STATE  19: RELATIVE E=       6193.875 CM-1; WEIGHT = 0.515  1006
         1.0000
          1      2      3      4      5      6      7      8      9
         0.0103 0.0188 0.0036 0.0105 0.0105 0.5152 0.3783 0.0492 0.0036

 STATE  20: RELATIVE E=       6193.875 CM-1; WEIGHT = 0.487  1006
         1.0000
          1      2      3      4      5      6      7      8      9
         0.0084 0.0189 0.0056 0.0081 0.0127 0.4869 0.4141 0.0417 0.0036

   SPIN-MIXED   CI   STATES (CM-1 UNIT) ---
      -15214.271     -15214.271     -15214.271     -15214.271       -350.920
        -350.920       -350.920       -350.920          0.000          0.000
           0.000          0.000          0.000          0.000       5806.910
        5806.910       6193.875       6193.875       6193.875       6193.875

   SPIN-MIXED   CI   STATES (CM-1 UNIT) ---
      1(   2001)     2(   2001)     3(   2001)     4(   2001)     5(   1001)
      -15214.271     -15214.271     -15214.271     -15214.271       -350.920
      6(   1001)     7(   1005)     8(   1005)     9(   1001)    10(   1001)
        -350.920       -350.920       -350.920          0.000          0.000
     11(   1002)    12(   1005)    13(   1002)    14(   1005)    15(   1006)
           0.000          0.000          0.000          0.000       5806.910
     16(   1006)    17(   1008)    18(   1008)    19(   1006)    20(   1006)
        5806.910       6193.875       6193.875       6193.875       6193.875

 NON-ZERO   CI   SPIN-ORBIT COUPLING CONSTANTS (CM-1)
 ---------------------------------------------------------------------
 MUL1(CI)|MUL2(CI)| CI ROOT 1 | CI ROOT 2 |    FULL     | 1E ONLY
 ---------------------------------------------------------------------
  2 ( 1) | 2 ( 1) |    1- 5   |    6- 8   |      2956.76|
  2 ( 1) | 2 ( 1) |    6- 8   |    6- 8   |        39.11|
  2 ( 1) | 4 ( 2) |    6- 8   |     1     |      2644.61|
 ---------------------------------------------------------------------


 ASSIGNMENT OF JZ VALUES TO THE EIGENVECTORS OF SO   CI   HAMILTONIAN:

 STATE   1: <JZ>=  -1.5( 28.0%)  -0.5(  0.1%)   0.5( 71.9%)
 STATE   2: <JZ>=  -0.5( 37.8%)   1.5( 62.2%)
 STATE   3: <JZ>=  -1.5( 71.9%)  -0.5(  0.1%)   0.5( 27.9%)
 STATE   4: <JZ>=  -0.5( 62.0%)   0.5(  0.2%)   1.5( 37.8%)
 STATE   5: <JZ>=  -1.5( 42.6%)  -0.5(  2.6%)   0.5( 52.8%)   1.5(  2.0%)
 STATE   6: <JZ>=  -1.5(  1.4%)  -0.5( 53.6%)   0.5(  3.3%)   1.5( 41.6%)
 STATE   7: <JZ>=  -1.5( 22.6%)  -0.5( 28.2%)   0.5( 15.2%)   1.5( 34.0%)
 STATE   8: <JZ>=  -1.5( 33.3%)  -0.5( 15.6%)   0.5( 28.7%)   1.5( 22.3%)
 STATE   9: <JZ>=  -2.5( 22.5%)  -0.5( 71.3%)   0.5(  1.0%)   1.5(  5.0%)   2.5(  0.2%)
 STATE  10: <JZ>=  -2.5(  0.2%)  -1.5(  4.8%)  -0.5(  1.0%)   0.5( 70.7%)   2.5( 23.2%)
 STATE  11: <JZ>=  -2.5( 18.7%)  -1.5( 46.1%)  -0.5(  4.3%)   0.5(  3.9%)   1.5(  3.1%)   2.5( 23.9%)
 STATE  12: <JZ>=  -2.5(  2.1%)  -1.5( 13.5%)  -0.5(  6.2%)   0.5( 12.1%)   1.5( 36.9%)   2.5( 29.3%)
 STATE  13: <JZ>=  -2.5( 41.7%)  -1.5( 28.0%)  -0.5(  6.9%)   0.5(  4.2%)   1.5( 17.1%)   2.5(  2.1%)
 STATE  14: <JZ>=  -2.5( 14.9%)  -1.5(  7.5%)  -0.5( 10.3%)   0.5(  8.1%)   1.5( 37.9%)   2.5( 21.2%)
 STATE  15: <JZ>=   0.5( 99.9%)
 STATE  16: <JZ>=  -0.5( 99.9%)   0.5(  0.1%)
 STATE  17: <JZ>=  -0.5( 95.3%)   0.5(  0.1%)   1.5(  4.5%)
 STATE  18: <JZ>=  -1.5(  1.3%)  -0.5(  0.2%)   0.5( 98.2%)   1.5(  0.3%)
 STATE  19: <JZ>=  -0.5(  4.5%)   0.5(  0.3%)   1.5( 95.1%)
 STATE  20: <JZ>=  -1.5( 98.6%)   0.5(  1.4%)

   EIGENVALUES OF THE JZ MATRIX ---
         -2.5000        -1.5000        -1.5000        -1.5000        -1.5000
         -0.5000        -0.5000        -0.5000        -0.5000        -0.5000
          0.5000         0.5000         0.5000         0.5000         0.5000
          1.5000         1.5000         1.5000         1.5000         2.5000
 STEP CPU TIME =     0.00 TOTAL CPU TIME =        0.0 (    0.0 MIN)
 TOTAL WALL CLOCK TIME=        0.0 SECONDS, CPU UTILIZATION IS  80.00%

 CI ENERGY LEVELS IN CM-1 AND CI ABSOLUTE LEVELS IN A.U.

    1            0.0000     -6.0525944698
    2            0.0000     -6.0525944698
    3            0.0000     -6.0525944698
    4            0.0000     -6.0525944698
    5        14863.3509     -5.9848732131
    6        14863.3509     -5.9848732131
    7        14863.3509     -5.9848732131
    8        14863.3509     -5.9848732131
    9        15214.2709     -5.9832743312
   10        15214.2709     -5.9832743312
   11        15214.2709     -5.9832743312
   12        15214.2709     -5.9832743312
   13        15214.2709     -5.9832743312
   14        15214.2709     -5.9832743312
   15        21021.1805     -5.9568165551
   16        21021.1805     -5.9568165551
   17        21408.1457     -5.9550534418
   18        21408.1457     -5.9550534418
   19        21408.1457     -5.9550534418
   20        21408.1457     -5.9550534418

 SKIPPING THE CALCULATION OF NATURAL ORBITALS...
 USE ISTNO IN $TRANST TO ASK FOR NATURAL ORBITALS
 AND SPIN-ORBIT COUPLED STATE'S PROPERTIES

 ....... DONE WITH TRANSITION MOMENT .......

 STEP CPU TIME =     0.00 TOTAL CPU TIME =        0.0 (    0.0 MIN)
 TOTAL WALL CLOCK TIME=        0.0 SECONDS, CPU UTILIZATION IS  80.00%
               580000  WORDS OF DYNAMIC MEMORY USED
 EXECUTION OF GAMESS TERMINATED NORMALLY Fri Jun  2 02:26:12 2017
 DDI: 263640 bytes (0.3 MB / 0 MWords) used by master data server.

 ----------------------------------------
 CPU timing information for all processes
 ========================================
 0: 0.34 + 0.18 = 0.53
 ----------------------------------------
 ddikick.x: exited gracefully.
unset echo
----- accounting info -----
Files used on the master node compute-0-1.local were:
-rw-rw-r-- 1 sarom sarom    2412 Jun  2 02:26 /scratch/as-ecp-soc.F05
-rw-rw-r-- 1 sarom sarom  180016 Jun  2 02:26 /scratch/as-ecp-soc.F08
-rw-rw-r-- 1 sarom sarom  180104 Jun  2 02:26 /scratch/as-ecp-soc.F09
-rw-rw-r-- 1 sarom sarom 1636000 Jun  2 02:26 /scratch/as-ecp-soc.F10
-rw-rw-r-- 1 sarom sarom  275688 Jun  2 02:26 /scratch/as-ecp-soc.F11
-rw-rw-r-- 1 sarom sarom     224 Jun  2 02:26 /scratch/as-ecp-soc.F12
-rw-rw-r-- 1 sarom sarom  400008 Jun  2 02:26 /scratch/as-ecp-soc.F14
-rw-rw-r-- 1 sarom sarom  160256 Jun  2 02:26 /scratch/as-ecp-soc.F15
-rw-rw-r-- 1 sarom sarom  200216 Jun  2 02:26 /scratch/as-ecp-soc.F16
-rw-rw-r-- 1 sarom sarom    1704 Jun  2 02:26 /scratch/as-ecp-soc.F17
-rw-rw-r-- 1 sarom sarom   65536 Jun  2 02:26 /scratch/as-ecp-soc.F40
rm: cannot remove `/scratch/sarom': Is a directory
rm: cannot remove `/scratch/tmp': Is a directory
ls: No match.
ls: No match.
ls: No match.
Fri Jun  2 02:26:15 CDT 2017
0.245u 0.145s 0:03.51 10.8%	0+0k 8+352io 0pf+0w
/opt/gridengine/default/spool/compute-0-1/active_jobs/23742.1/pe_hostfile compute-0-1.local
