Warning: no access to tty (Bad file descriptor).
Thus no job control in this shell.
This is DQS job relwfn_.252560
----- GAMESS execution script 'rungms' -----
This job is running on host cu.msg.chem.iastate.edu
under operating system Linux at Fri Dec 2 16:51:54 CST 2016
Available scratch disk space (Kbyte units) at beginning of the job is
Filesystem           1K-blocks      Used Available Use% Mounted on
/dev/md0             249208740  56891032 192317708  23% /scr
GAMESS temporary binary files will be written to /scr/sarom
GAMESS supplementary output files will be written to /u1/sarom/scr
Copying input file relwfn_au-dk.inp to your run's scratch directory...
cp relwfn_au-dk.inp /scr/sarom/relwfn_au-dk.F05
unset echo
/u1/mike/gamess/ddikick.x /u1/mike/gamess/gamess.133.x relwfn_au-dk -ddi 1 1 cu.msg.chem.iastate.edu -scr /scr/sarom

 Distributed Data Interface kickoff program.
 Initiating 1 compute processes on 1 nodes to run the following command:
 /u1/mike/gamess/gamess.133.x relwfn_au-dk 

          ******************************************************
          *         GAMESS VERSION = 18 AUG 2016 (R1)          *
          *             FROM IOWA STATE UNIVERSITY             *
          * M.W.SCHMIDT, K.K.BALDRIDGE, J.A.BOATZ, S.T.ELBERT, *
          *   M.S.GORDON, J.H.JENSEN, S.KOSEKI, N.MATSUNAGA,   *
          *          K.A.NGUYEN, S.J.SU, T.L.WINDUS,           *
          *       TOGETHER WITH M.DUPUIS, J.A.MONTGOMERY       *
          *         J.COMPUT.CHEM.  14, 1347-1363(1993)        *
          **************** 64 BIT INTEL VERSION ****************

  SINCE 1993, STUDENTS AND POSTDOCS WORKING AT IOWA STATE UNIVERSITY
  AND ALSO IN THEIR VARIOUS JOBS AFTER LEAVING ISU HAVE MADE IMPORTANT
  CONTRIBUTIONS TO THE CODE:
     IVANA ADAMOVIC, CHRISTINE AIKENS, YURI ALEXEEV, POOJA ARORA,
     ANDREY ASADCHEV, ROB BELL, PRADIPTA BANDYOPADHYAY, JONATHAN BENTZ,
     BRETT BODE, KURT BRORSEN, CALEB CARLIN, GALINA CHABAN, WEI CHEN,
     CHEOL HO CHOI, PAUL DAY, ALBERT DEFUSCO, NUWAN DESILVA, TIM DUDLEY,
     DMITRI FEDOROV, GRAHAM FLETCHER, MARK FREITAG, KURT GLAESEMANN,
     DAN KEMP, GRANT MERRILL, NORIYUKI MINEZAWA, JONATHAN MULLIN,
     TAKESHI NAGATA, SEAN NEDD, HEATHER NETZLOFF, BOSILJKA NJEGIC, RYAN OLSON,
     MIKE PAK, SPENCER PRUITT, LUKE ROSKOP, JIM SHOEMAKER, LYUDMILA SLIPCHENKO,
     TONY SMITH, SAROM SOK LEANG, JIE SONG, TETSUYA TAKETSUGU, SIMON WEBB,
     PENG XU, SOOHAENG YOO, FEDERICO ZAHARIEV

  ADDITIONAL CODE HAS BEEN PROVIDED BY COLLABORATORS IN OTHER GROUPS:
     IOWA STATE UNIVERSITY:
          JOE IVANIC, AARON WEST, LAIMUTIS BYTAUTAS, KLAUS RUEDENBERG
     UNIVERSITY OF TOKYO: KIMIHIKO HIRAO, TAKAHITO NAKAJIMA,
          TAKAO TSUNEDA, MUNEAKI KAMIYA, SUSUMU YANAGISAWA,
          KIYOSHI YAGI, MAHITO CHIBA, SEIKEN TOKURA, NAOAKI KAWAKAMI
     UNIVERSITY OF AARHUS: FRANK JENSEN
     UNIVERSITY OF IOWA: VISVALDAS KAIRYS, HUI LI
     NATIONAL INST. OF STANDARDS AND TECHNOLOGY: WALT STEVENS, DAVID GARMER
     UNIVERSITY OF PISA: BENEDETTA MENNUCCI, JACOPO TOMASI
     UNIVERSITY OF MEMPHIS: HENRY KURTZ, PRAKASHAN KORAMBATH
     UNIVERSITY OF ALBERTA: TOBY ZENG, MARIUSZ KLOBUKOWSKI
     UNIVERSITY OF NEW ENGLAND: MARK SPACKMAN
     MIE UNIVERSITY: HIROAKI UMEDA
     NAT. INST. OF ADVANCED INDUSTRIAL SCIENCE AND TECHNOLOGY: KAZUO KITAURA
     MICHIGAN STATE UNIVERSITY:
          KAROL KOWALSKI, MARTA WLOCH, JEFFREY GOUR, JESSE LUTZ,
          WEI LI, PIOTR PIECUCH
     UNIVERSITY OF SILESIA: MONIKA MUSIAL, STANISLAW KUCHARSKI
     FACULTES UNIVERSITAIRES NOTRE-DAME DE LA PAIX:
          OLIVIER QUINET, BENOIT CHAMPAGNE
     UNIVERSITY OF CALIFORNIA - SANTA BARBARA: BERNARD KIRTMAN
     INSTITUTE FOR MOLECULAR SCIENCE:
          KAZUYA ISHIMURA, MICHIO KATOUDA, AND SHIGERU NAGASE
     UNIVERSITY OF NOTRE DAME: ANNA POMOGAEVA, DAN CHIPMAN
     KYUSHU UNIVERSITY:
          HARUYUKI NAKANO,
          FENG LONG GU, JACEK KORCHOWIEC, MARCIN MAKOWSKI, AND YURIKO AOKI,
          HIROTOSHI MORI AND EISAKU MIYOSHI
     PENNSYLVANIA STATE UNIVERSITY:
          TZVETELIN IORDANOV, CHET SWALINA, JONATHAN SKONE,
          SHARON HAMMES-SCHIFFER
     WASEDA UNIVERSITY:
          MASATO KOBAYASHI, TOMOKO AKAMA, TSUGUKI TOUMA,
          TAKESHI YOSHIKAWA, YASUHIRO IKABATA, JUNJI SEINO,
          YUYA NAKAJIMA, HIROMI NAKAI
     NANJING UNIVERSITY: SHUHUA LI
     UNIVERSITY OF NEBRASKA:
          PEIFENG SU, DEJUN SI, NANDUN THELLAMUREGE, YALI WANG, HUI LI
     UNIVERSITY OF ZURICH: ROBERTO PEVERATI, KIM BALDRIDGE
     N. COPERNICUS UNIVERSITY AND JACKSON STATE UNIVERSITY:
          MARIA BARYSZ
     UNIVERSITY OF COPENHAGEN: Jimmy Kromann, CASPER STEINMANN
     TOKYO INSTITUTE OF TECHNOLOGY: HIROYA NAKATA
     NAGOYA UNIVERSITY: YOSHIO NISHIMOTO, STEPHAN IRLE
     MOSCOW STATE UNIVERSITY: VLADIMIR MIRONOV

 EXECUTION OF GAMESS BEGUN Fri Dec  2 16:51:55 2016

            ECHO OF THE FIRST FEW INPUT CARDS -
 INPUT CARD>!   A test of the DK transformation for the Au atom.   Test used since 2003.    
 INPUT CARD>!                                                                               
 INPUT CARD>!   FINAL energy=  -19014.2952671687, 13 iterations for DK 3rd order.           
 INPUT CARD>!                                                                               
 INPUT CARD>!          AXP got -19014.2952666555 showing RI accuracy is not to last digits! 
 INPUT CARD>!   Apple/gfortran -19014.2952673299                                            
 INPUT CARD>!                                                                               
 INPUT CARD>!   This run takes 167 seconds on 2.66 GHz Cloverton (15 Apr 2015)              
 INPUT CARD>!      Timing depends on the quality of the q.p. implementation.                
 INPUT CARD>!                                                                               
 INPUT CARD>!   -----------------------------------------------------------------           
 INPUT CARD>!   The goal is to reproduce results in Table V of                              
 INPUT CARD>!   A.Wolf, M.Reiher, B.A.Hess  J.Chem.Phys. 117, 9215-26(2002)                 
 INPUT CARD>!   The 32s,29p,20d,15f "universal basis set" used here is that of              
 INPUT CARD>!   G.L.Malli, A.B.F.Da Silva, Y.Ishikawa  Phys.Rev.A 47, 143-6(1993)           
 INPUT CARD>!   This basis has 389 AOs, retaining 324 using spherical harmonics.            
 INPUT CARD>!                                                                               
 INPUT CARD>!             GAMESS      Wolf/Reiher/Hess                                      
 INPUT CARD>!    NR: -17865.3925397599  -17865.3944  (their entry is a typo?)               
 INPUT CARD>!   DK1: -19339.3088904377  -19339.3088                                         
 INPUT CARD>!   DK2: -18993.7221374675  -18993.7221                                         
 INPUT CARD>!   DK3: -19014.2952677750  -19014.2952                                         
 INPUT CARD>!   DK4:                    -19011.3473                                         
 INPUT CARD>!   DK5:                    -19012.8103                                         
 INPUT CARD>!  IOTC: -19012.3011045130                                                      
 INPUT CARD>!   Dirac-Coulomb           -19039.5856  (with this basis set)                  
 INPUT CARD>!   Dirac-Coulomb           -19039.84442 (Visscher/Dyall numerical DC-HF)       
 INPUT CARD>!                                                                               
 INPUT CARD>!   Because this is converging to a value about 27 Hartree in error due         
 INPUT CARD>!   to applying DK only to the 1e- term, and as the Breit perturbation          
 INPUT CARD>!   is +22.6 hartree for Hg (Z=78), it is more important to worry about         
 INPUT CARD>!   fixing the Coulomb term by applying these effects, than to do the           
 INPUT CARD>!   1e- DK transformation beyond 3rd order.                                     
 INPUT CARD>!                                                                               
 INPUT CARD> $contrl scftyp=rohf mult=2 ispher=1 $end                                       
 INPUT CARD> $system mwords=5 timlim=600 $end                                               
 INPUT CARD>                                                                                
 INPUT CARD> $contrl relwfn=dk $end                                                         
 INPUT CARD> $relwfn norder=3 modeqr=8 qmttol=1d-9 $end                                     
 INPUT CARD>                                                                                
 INPUT CARD>x$contrl relwfn=iotc $end                                                       
 INPUT CARD>x$relwfn          modeqr=8 qmttol=1d-9 $end                                     
 INPUT CARD>                                                                                
 INPUT CARD> $guess  guess=huckel $end                                                      
 INPUT CARD> $data                                                                          
 INPUT CARD>Gold...32s,29p,20d,15f UBS from Malli/Da Silva/Ishikawa                         
 INPUT CARD>Dnh 2                                                                           
 INPUT CARD>                                                                                
 INPUT CARD>Au  79.0                                                                        
 INPUT CARD>   L 1 ; 1         0.021494 1.0                                                 
    5000000 WORDS OF MEMORY AVAILABLE


     RUN TITLE
     ---------
 Gold...32s,29p,20d,15f UBS from Malli/Da Silva/Ishikawa                         

 THE POINT GROUP OF THE MOLECULE IS DNH     
 THE ORDER OF THE PRINCIPAL AXIS IS     2

 ATOM      ATOMIC                      COORDINATES (BOHR)
           CHARGE         X                   Y                   Z
 AU         79.0     0.0000000000        0.0000000000        0.0000000000

          INTERNUCLEAR DISTANCES (ANGS.)
          ------------------------------

                1 AU    

   1 AU      0.0000000  

  * ... LESS THAN  3.000


     ATOMIC BASIS SET
     ----------------
 THE CONTRACTED PRIMITIVE FUNCTIONS HAVE BEEN UNNORMALIZED
 THE CONTRACTED BASIS FUNCTIONS ARE NOW NORMALIZED TO UNITY

  SHELL TYPE  PRIMITIVE        EXPONENT          CONTRACTION COEFFICIENT(S)

 AU        

      1   L       1             0.0214940    1.000000000000    1.000000000000

      2   L       2             0.0441570    1.000000000000    1.000000000000

      3   L       3             0.0907180    1.000000000000    1.000000000000

      4   L       4             0.1863740    1.000000000000    1.000000000000

      5   L       5             0.3828930    1.000000000000    1.000000000000

      6   L       6             0.7866280    1.000000000000    1.000000000000

      7   L       7             1.6160740    1.000000000000    1.000000000000

      8   L       8             3.3201170    1.000000000000    1.000000000000

      9   L       9             6.8209580    1.000000000000    1.000000000000

     10   L      10            14.0132040    1.000000000000    1.000000000000

     11   L      11            28.7891910    1.000000000000    1.000000000000

     12   L      12            59.1454700    1.000000000000    1.000000000000

     13   L      13           121.5104180    1.000000000000    1.000000000000

     14   L      14           249.6350370    1.000000000000    1.000000000000

     15   L      15           512.8585110    1.000000000000    1.000000000000

     16   L      16          1053.6335570    1.000000000000    1.000000000000

     17   L      17          2164.6197720    1.000000000000    1.000000000000

     18   L      18          4447.0667480    1.000000000000    1.000000000000

     19   L      19          9136.2016160    1.000000000000    1.000000000000

     20   L      20         18769.7160200    1.000000000000    1.000000000000

     21   L      21         38561.1279460    1.000000000000    1.000000000000

     22   L      22         79221.2618910    1.000000000000    1.000000000000

     23   L      23        162754.7914190    1.000000000000    1.000000000000

     24   L      24        334368.8486830    1.000000000000    1.000000000000

     25   L      25        686938.4673380    1.000000000000    1.000000000000

     26   L      26       1411269.2009690    1.000000000000    1.000000000000

     27   L      27       2899358.3156290    1.000000000000    1.000000000000

     28   L      28       5956538.0131850    1.000000000000    1.000000000000

     29   L      29      12237309.5147490    1.000000000000    1.000000000000

     30   S      30      25140735.0760290    1.000000000000

     31   S      31      51649961.0801940    1.000000000000

     32   S      32     106111395.3716150    1.000000000000

     33   D      33             0.0214940    1.000000000000

     34   D      34             0.0441570    1.000000000000

     35   D      35             0.0907180    1.000000000000

     36   D      36             0.1863740    1.000000000000

     37   D      37             0.3828930    1.000000000000

     38   D      38             0.7866280    1.000000000000

     39   D      39             1.6160740    1.000000000000

     40   D      40             3.3201170    1.000000000000

     41   D      41             6.8209580    1.000000000000

     42   D      42            14.0132040    1.000000000000

     43   D      43            28.7891910    1.000000000000

     44   D      44            59.1454700    1.000000000000

     45   D      45           121.5104180    1.000000000000

     46   D      46           249.6350370    1.000000000000

     47   D      47           512.8585110    1.000000000000

     48   D      48          1053.6335570    1.000000000000

     49   D      49          2164.6197720    1.000000000000

     50   D      50          4447.0667480    1.000000000000

     51   D      51          9136.2016160    1.000000000000

     52   D      52         18769.7160200    1.000000000000

     53   F      53             0.0214940    1.000000000000

     54   F      54             0.0441570    1.000000000000

     55   F      55             0.0907180    1.000000000000

     56   F      56             0.1863740    1.000000000000

     57   F      57             0.3828930    1.000000000000

     58   F      58             0.7866280    1.000000000000

     59   F      59             1.6160740    1.000000000000

     60   F      60             3.3201170    1.000000000000

     61   F      61             6.8209580    1.000000000000

     62   F      62            14.0132040    1.000000000000

     63   F      63            28.7891910    1.000000000000

     64   F      64            59.1454700    1.000000000000

     65   F      65           121.5104180    1.000000000000

     66   F      66           249.6350370    1.000000000000

     67   F      67           512.8585110    1.000000000000

 TOTAL NUMBER OF BASIS SET SHELLS             =   67
 NUMBER OF CARTESIAN GAUSSIAN BASIS FUNCTIONS =  389
 NOTE: THIS RUN WILL RESTRICT THE MO VARIATION SPACE TO SPHERICAL HARMONICS.
 THE NUMBER OF ORBITALS KEPT IN THE VARIATIONAL SPACE WILL BE PRINTED LATER.
 NUMBER OF ELECTRONS                          =   79
 CHARGE OF MOLECULE                           =    0
 SPIN MULTIPLICITY                            =    2
 NUMBER OF OCCUPIED ORBITALS (ALPHA)          =   40
 NUMBER OF OCCUPIED ORBITALS (BETA )          =   39
 TOTAL NUMBER OF ATOMS                        =    1
 THE NUCLEAR REPULSION ENERGY IS        0.0000000000

     ---------------------------------
     RELATIVISTIC WAVEFUNCTION OPTIONS
     ---------------------------------
     METHOD=DK       NORDER= 3       NESOC=  0      MODEQR=      8
     NRATOM=  0      QMTTOL= 1.000E-09      QRTOL= 1.000E-02
     CLIGHT=137.03598950     TAU= 3.500E+00
 64 BIT EPSILON: 0.22E-15 AND 128 BIT EPSILON: 0.19E-33


 THIS MOLECULE IS RECOGNIZED AS BEING LINEAR,
 ORBITAL LZ DEGENERACY TOLERANCE ETOLLZ= 1.00E-06

     $CONTRL OPTIONS
     ---------------
 SCFTYP=ROHF         RUNTYP=ENERGY       EXETYP=RUN     
 MPLEVL=       0     CITYP =NONE         CCTYP =NONE         VBTYP =NONE    
 DFTTYP=NONE         TDDFT =NONE    
 MULT  =       2     ICHARG=       0     NZVAR =       0     COORD =UNIQUE  
 PP    =NONE         RELWFN=DK           LOCAL =NONE         NUMGRD=       F
 ISPHER=       1     NOSYM =       0     MAXIT =      30     UNITS =ANGS    
 PLTORB=       F     MOLPLT=       F     AIMPAC=       F     FRIEND=        
 NPRINT=       7     IREST =       0     GEOM  =INPUT   
 NORMF =       0     NORMP =       0     ITOL  =      20     ICUT  =       9
 INTTYP=BEST         GRDTYP=BEST         QMTTOL= 1.0E-06

     $SYSTEM OPTIONS
     ---------------
  REPLICATED MEMORY=     5000000 WORDS (ON EVERY NODE).
 DISTRIBUTED MEMDDI=           0 MILLION WORDS IN AGGREGATE,
 MEMDDI DISTRIBUTED OVER   1 PROCESSORS IS           0 WORDS/PROCESSOR.
 TOTAL MEMORY REQUESTED ON EACH PROCESSOR=     5000000 WORDS.
 TIMLIM=         600.00 MINUTES, OR       0.4 DAYS.
 PARALL= F  BALTYP=  DLB     KDIAG=    0  COREFL= F
 MXSEQ2=     300 MXSEQ3=     150  mem10=         0

          ----------------
          PROPERTIES INPUT
          ----------------

     MOMENTS            FIELD           POTENTIAL          DENSITY
 IEMOM =       1   IEFLD =       0   IEPOT =       0   IEDEN =       0
 WHERE =COMASS     WHERE =NUCLEI     WHERE =NUCLEI     WHERE =NUCLEI  
 OUTPUT=BOTH       OUTPUT=BOTH       OUTPUT=BOTH       OUTPUT=BOTH    
 IEMINT=       0   IEFINT=       0                     IEDINT=       0
                                                       MORB  =       0
          EXTRAPOLATION IN EFFECT
          SOSCF IN EFFECT
 ORBITAL PRINTING OPTION: NPREO=     1   389     2     1

     -------------------------------
     INTEGRAL TRANSFORMATION OPTIONS
     -------------------------------
     NWORD  =            0
     CUTOFF = 1.0E-09     MPTRAN =       0
     DIRTRF =       F     AOINTS =DUP     

          ----------------------
          INTEGRAL INPUT OPTIONS
          ----------------------
 NOPK  =       1 NORDER=       0 SCHWRZ=       F

     ------------------------------------------
     THE POINT GROUP IS DNH, NAXIS= 2, ORDER= 8
     ------------------------------------------

 -- VARIATIONAL SPACE WILL BE RESTRICTED TO PURE SPHERICAL HARMONICS ONLY --
 AFTER EXCLUDING CONTAMINANT COMBINATIONS FROM THE CARTESIAN GAUSSIAN BASIS
 SET, THE NUMBER OF SPHERICAL HARMONICS KEPT IN THE VARIATION SPACE IS  324

     DIMENSIONS OF THE SYMMETRY SUBSPACES ARE
 AG  =   72     AU  =   15     B3U =   59     B3G =   20     B1G =   20
 B1U =   59     B2U =   59     B2G =   20

 ..... DONE SETTING UP THE RUN .....
 STEP CPU TIME =     0.07 TOTAL CPU TIME =        0.1 (    0.0 MIN)
 TOTAL WALL CLOCK TIME=        0.1 SECONDS, CPU UTILIZATION IS  53.85%

          ********************
          1 ELECTRON INTEGRALS
          ********************
 QUADRUPLE PRECISION RELATIVISTIC INTEGRALS WILL BE USED.
 TIME TO DO ORDINARY INTEGRALS=      0.10

 ------------------------------------------------------------------
 3RD ORDER DOUGLAS-KROLL-HESS RELATIVISTIC ONE-ELECTRON HAMILTONIAN
            CODED BY TAKAHITO NAKAJIMA AND DMITRI FEDOROV
 ------------------------------------------------------------------

 TIME TO DO  RELATIVISTIC INTS=     19.72
 ...... END OF ONE-ELECTRON INTEGRALS ......
 STEP CPU TIME =    19.82 TOTAL CPU TIME =       19.9 (    0.3 MIN)
 TOTAL WALL CLOCK TIME=       20.0 SECONDS, CPU UTILIZATION IS  99.55%

          -------------
          GUESS OPTIONS
          -------------
          GUESS =HUCKEL            NORB  =       0          NORDER=       0
          MIX   =       F          PRTMO =       F          PUNMO =       F
          TOLZ  = 1.0E-08          TOLE  = 1.0E-05
          SYMDEN=       F          PURIFY=       F

 INITIAL GUESS ORBITALS GENERATED BY HUCKEL   ROUTINE.
 HUCKEL GUESS REQUIRES   1090120 WORDS.

 STATISTICS FOR GENERATION OF SYMMETRY ORBITAL -Q- MATRIX
 NUMBER OF CARTESIAN ATOMIC ORBITALS=        389
 NUMBER OF SPHERICAL CONTAMINANTS DROPPED=    65
 NUMBER OF LINEARLY DEPENDENT MOS DROPPED=     0
 TOTAL NUMBER OF MOS IN VARIATION SPACE=     324

 SYMMETRIES FOR INITIAL GUESS ORBITALS FOLLOW.  ALPHA SET(S).
    40 ORBITALS ARE OCCUPIED (   34 CORE ORBITALS).
    35=AG      36=AG      37=B1G     38=B2G     39=B3G     40=AG      41=AG  
    42=AG      43=AG      44=AG      45=AG      46=AG      47=AG      48=AG  
    49=AG      50=AG  

 SYMMETRIES FOR INITIAL GUESS ORBITALS FOLLOW.   BETA SET(S).
    39 ORBITALS ARE OCCUPIED (   34 CORE ORBITALS).
    35=AG      36=AG      37=B1G     38=B2G     39=B3G     40=AG      41=AG  
    42=AG      43=AG      44=AG      45=AG      46=AG      47=AG      48=AG  
    49=AG  
 ...... END OF INITIAL ORBITAL SELECTION ......
 STEP CPU TIME =     0.34 TOTAL CPU TIME =       20.2 (    0.3 MIN)
 TOTAL WALL CLOCK TIME=       20.4 SECONDS, CPU UTILIZATION IS  99.22%

                    ----------------------
                    AO INTEGRAL TECHNOLOGY
                    ----------------------
     S,P,L SHELL ROTATED AXIS INTEGRALS, REPROGRAMMED BY
        KAZUYA ISHIMURA (IMS) AND JOSE SIERRA (SYNSTAR).
     S,P,D,L SHELL ROTATED AXIS INTEGRALS PROGRAMMED BY
        KAZUYA ISHIMURA (INSTITUTE FOR MOLECULAR SCIENCE).
     S,P,D,F,G SHELL TO TOTAL QUARTET ANGULAR MOMENTUM SUM 5,
        ERIC PROGRAM BY GRAHAM FLETCHER (ELORET AND NASA ADVANCED
        SUPERCOMPUTING DIVISION, AMES RESEARCH CENTER).
     S,P,D,F,G,L SHELL GENERAL RYS QUADRATURE PROGRAMMED BY
        MICHEL DUPUIS (PACIFIC NORTHWEST NATIONAL LABORATORY).

          --------------------
          2 ELECTRON INTEGRALS
          --------------------

 THE -PK- OPTION IS OFF, THE INTEGRALS ARE NOT IN SUPERMATRIX FORM.
 STORING   15000 INTEGRALS/RECORD ON DISK, USING 16 BYTES/INTEGRAL.
 TWO ELECTRON INTEGRAL EVALUATION REQUIRES  101378 WORDS OF MEMORY.
 II,JST,KST,LST =  1  1  1  1 NREC =         1 INTLOC =    1
 II,JST,KST,LST =  2  1  1  1 NREC =         1 INTLOC =   17
 II,JST,KST,LST =  3  1  1  1 NREC =         1 INTLOC =  139
 II,JST,KST,LST =  4  1  1  1 NREC =         1 INTLOC =  571
 II,JST,KST,LST =  5  1  1  1 NREC =         1 INTLOC = 1637
 II,JST,KST,LST =  6  1  1  1 NREC =         1 INTLOC = 3781
 II,JST,KST,LST =  7  1  1  1 NREC =         1 INTLOC = 7567
 II,JST,KST,LST =  8  1  1  1 NREC =         1 INTLOC =13679
 II,JST,KST,LST =  9  1  1  1 NREC =         2 INTLOC = 7921
 II,JST,KST,LST = 10  1  1  1 NREC =         3 INTLOC = 6217
 II,JST,KST,LST = 11  1  1  1 NREC =         4 INTLOC = 9611
 II,JST,KST,LST = 12  1  1  1 NREC =         6 INTLOC = 4267
 II,JST,KST,LST = 13  1  1  1 NREC =         8 INTLOC = 6469
 II,JST,KST,LST = 14  1  1  1 NREC =        11 INTLOC = 2621
 II,JST,KST,LST = 15  1  1  1 NREC =        14 INTLOC = 9211
 II,JST,KST,LST = 16  1  1  1 NREC =        18 INTLOC =12607
 II,JST,KST,LST = 17  1  1  1 NREC =        23 INTLOC =14096
 II,JST,KST,LST = 18  1  1  1 NREC =        29 INTLOC =14893
 II,JST,KST,LST = 19  1  1  1 NREC =        37 INTLOC = 1033
 II,JST,KST,LST = 20  1  1  1 NREC =        45 INTLOC = 4076
 II,JST,KST,LST = 21  1  1  1 NREC =        54 INTLOC = 9799
 II,JST,KST,LST = 22  1  1  1 NREC =        65 INTLOC = 4546
 II,JST,KST,LST = 23  1  1  1 NREC =        77 INTLOC = 4043
 II,JST,KST,LST = 24  1  1  1 NREC =        90 INTLOC = 8842
 II,JST,KST,LST = 25  1  1  1 NREC =       105 INTLOC = 5536
 II,JST,KST,LST = 26  1  1  1 NREC =       121 INTLOC = 9002
 II,JST,KST,LST = 27  1  1  1 NREC =       139 INTLOC = 5338
 II,JST,KST,LST = 28  1  1  1 NREC =       158 INTLOC = 9619
 II,JST,KST,LST = 29  1  1  1 NREC =       179 INTLOC = 6788
 II,JST,KST,LST = 30  1  1  1 NREC =       201 INTLOC =13648
 II,JST,KST,LST = 31  1  1  1 NREC =       208 INTLOC = 5190
 II,JST,KST,LST = 32  1  1  1 NREC =       214 INTLOC =12087
 II,JST,KST,LST = 33  1  1  1 NREC =       221 INTLOC = 4073
 II,JST,KST,LST = 34  1  1  1 NREC =       238 INTLOC =10100
 II,JST,KST,LST = 35  1  1  1 NREC =       261 INTLOC = 3527
 II,JST,KST,LST = 36  1  1  1 NREC =       289 INTLOC = 8033
 II,JST,KST,LST = 37  1  1  1 NREC =       324 INTLOC = 6272
 II,JST,KST,LST = 38  1  1  1 NREC =       366 INTLOC =10322
 II,JST,KST,LST = 39  1  1  1 NREC =       417 INTLOC = 3818
 II,JST,KST,LST = 40  1  1  1 NREC =       477 INTLOC = 3323
 II,JST,KST,LST = 41  1  1  1 NREC =       547 INTLOC = 8918
 II,JST,KST,LST = 42  1  1  1 NREC =       629 INTLOC = 8654
 II,JST,KST,LST = 43  1  1  1 NREC =       724 INTLOC = 6695
 II,JST,KST,LST = 44  1  1  1 NREC =       833 INTLOC = 8228
 II,JST,KST,LST = 45  1  1  1 NREC =       957 INTLOC =12095
 II,JST,KST,LST = 46  1  1  1 NREC =      1097 INTLOC =14528
 II,JST,KST,LST = 47  1  1  1 NREC =      1255 INTLOC = 1118
 II,JST,KST,LST = 48  1  1  1 NREC =      1429 INTLOC = 7844
 II,JST,KST,LST = 49  1  1  1 NREC =      1621 INTLOC = 5447
 II,JST,KST,LST = 50  1  1  1 NREC =      1830 INTLOC = 6176
 II,JST,KST,LST = 51  1  1  1 NREC =      2055 INTLOC =14339
 II,JST,KST,LST = 52  1  1  1 NREC =      2296 INTLOC =12674
 II,JST,KST,LST = 53  1  1  1 NREC =      2551 INTLOC =12590
 II,JST,KST,LST = 54  1  1  1 NREC =      2727 INTLOC =11551
 II,JST,KST,LST = 55  1  1  1 NREC =      2959 INTLOC = 4842
 II,JST,KST,LST = 56  1  1  1 NREC =      3253 INTLOC = 4393
 II,JST,KST,LST = 57  1  1  1 NREC =      3617 INTLOC = 5616
 II,JST,KST,LST = 58  1  1  1 NREC =      4060 INTLOC = 3582
 II,JST,KST,LST = 59  1  1  1 NREC =      4590 INTLOC =   55
 II,JST,KST,LST = 60  1  1  1 NREC =      5215 INTLOC = 7594
 II,JST,KST,LST = 61  1  1  1 NREC =      5946 INTLOC = 7895
 II,JST,KST,LST = 62  1  1  1 NREC =      6793 INTLOC = 2357
 II,JST,KST,LST = 63  1  1  1 NREC =      7762 INTLOC = 3765
 II,JST,KST,LST = 64  1  1  1 NREC =      8855 INTLOC =10947
 II,JST,KST,LST = 65  1  1  1 NREC =     10072 INTLOC = 2235
 II,JST,KST,LST = 66  1  1  1 NREC =     11405 INTLOC = 8841
 II,JST,KST,LST = 67  1  1  1 NREC =     12846 INTLOC = 6907
 TOTAL NUMBER OF NONZERO TWO-ELECTRON INTEGRALS =           215735064
      14383 INTEGRAL RECORDS WERE STORED ON DISK FILE  8.
  ...... END OF TWO-ELECTRON INTEGRALS .....
 STEP CPU TIME =    71.73 TOTAL CPU TIME =       92.0 (    1.5 MIN)
 TOTAL WALL CLOCK TIME=       96.3 SECONDS, CPU UTILIZATION IS  95.49%

          ---------------------------
                 ROHF SCF CALCULATION
          ---------------------------

     NUCLEAR ENERGY =         0.0000000000
     MAXIT = 30     NPUNCH=  2     MULT=  2
     EXTRAP=T  DAMP=F  SHIFT=F  RSTRCT=F  DIIS=F  SOSCF=T
     DENSITY MATRIX CONV=  1.00E-05
     ROHF CANONICALIZATION PARAMETERS
             C-C     O-O     V-V
     ALPHA -0.5000  0.5000  1.5000
     BETA   1.5000  0.5000 -0.5000
     SOSCF WILL OPTIMIZE   11399 ORBITAL ROTATION ANGLES. SOGTOL= 2.500E-01
     MEMORY REQUIRED FOR UHF/ROHF ITERS=   1465795 WORDS.

 ITER EX      TOTAL ENERGY        E CHANGE  DENSITY CHANGE    ORB. GRAD 
   1  0   -18369.4115527598-18369.4115527598   1.794335313   0.000000000
   2  1   -19012.8080014897  -643.3964487299   0.208453772   2.148385119
   3  2   -19013.4837299996    -0.6757285099   0.557468642   0.452996119
   4  3   -19013.4833313907     0.0003986089   0.594107127   0.414588470
   5  0   -19013.2398649868     0.2434664039   0.332285587   0.418603477
          ---------------START SECOND ORDER SCF---------------
   6  1   -19014.2896568547    -1.0497918680   0.068552180   0.022025655
   7  2   -19014.2904198773    -0.0007630226   0.030699474   0.019627355
   8  3   -19014.2952284649    -0.0048085876   0.003157110   0.003784885
   9  4   -19014.2952562769    -0.0000278120   0.001307801   0.001817258
  10  5   -19014.2952671293    -0.0000108525   0.000112635   0.000014743
  11  6   -19014.2952671364    -0.0000000070   0.000028678   0.000004613
  12  7   -19014.2952671370    -0.0000000007   0.000002242   0.000000319
  13  8   -19014.2952671370     0.0000000001   0.000000278   0.000000054

          -----------------
          DENSITY CONVERGED
          -----------------
     TIME TO FORM FOCK OPERATORS=      73.6 SECONDS (       5.7 SEC/ITER)
     TIME TO SOLVE SCF EQUATIONS=       1.8 SECONDS (       0.1 SEC/ITER)

 FINAL ROHF ENERGY IS   -19014.2952671370 AFTER  13 ITERATIONS

          --------------------
          SPIN SZ   =    0.500
          S-SQUARED =    0.750
          --------------------

 LZ VALUE ANALYSIS FOR THE MOS
 ----------------------------------------
 MO     1 (    1) HAS LZ(WEIGHT)= 0.00(100.0%) 
 MO     2 (    2) HAS LZ(WEIGHT)= 0.00(100.0%) 
 MO     3 (    3) HAS LZ(WEIGHT)= 0.00(100.0%) 
 MO     4 (    3) HAS LZ(WEIGHT)=-1.00( 50.0%)  1.00( 50.0%) 
 MO     5 (    3) HAS LZ(WEIGHT)=-1.00( 50.0%)  1.00( 50.0%) 
 MO     6 (    4) HAS LZ(WEIGHT)= 0.00(100.0%) 
 MO     7 (    5) HAS LZ(WEIGHT)=-1.00( 50.0%)  1.00( 50.0%) 
 MO     8 (    5) HAS LZ(WEIGHT)= 0.00(100.0%) 
 MO     9 (    5) HAS LZ(WEIGHT)=-1.00( 50.0%)  1.00( 50.0%) 
 MO    10 (    6) HAS LZ(WEIGHT)=-2.00( 48.2%)  0.00(  3.5%)  2.00( 48.2%) 
 MO    11 (    6) HAS LZ(WEIGHT)=-2.00(  1.8%)  0.00( 96.5%)  2.00(  1.8%) 
 MO    12 (    6) HAS LZ(WEIGHT)=-2.00( 50.0%)  2.00( 50.0%) 
 MO    13 (    6) HAS LZ(WEIGHT)=-1.00( 50.0%)  1.00( 50.0%) 
 MO    14 (    6) HAS LZ(WEIGHT)=-1.00( 50.0%)  1.00( 50.0%) 
 MO    15 (    7) HAS LZ(WEIGHT)= 0.00(100.0%) 
 MO    16 (    8) HAS LZ(WEIGHT)= 0.00(100.0%) 
 MO    17 (    8) HAS LZ(WEIGHT)=-1.00( 50.0%)  1.00( 50.0%) 
 MO    18 (    8) HAS LZ(WEIGHT)=-1.00( 50.0%)  1.00( 50.0%) 
 MO    19 (    9) HAS LZ(WEIGHT)=-2.00( 46.0%)  0.00(  8.0%)  2.00( 46.0%) 
 MO    20 (    9) HAS LZ(WEIGHT)=-2.00(  4.0%)  0.00( 92.0%)  2.00(  4.0%) 
 MO    21 (    9) HAS LZ(WEIGHT)=-1.00( 50.0%)  1.00( 50.0%) 
 MO    22 (    9) HAS LZ(WEIGHT)=-2.00( 50.0%)  2.00( 50.0%) 
 MO    23 (    9) HAS LZ(WEIGHT)=-1.00( 50.0%)  1.00( 50.0%) 
 MO    24 (   10) HAS LZ(WEIGHT)= 0.00(100.0%) 
 MO    25 (   11) HAS LZ(WEIGHT)=-3.00( 24.2%) -1.00( 25.8%)  1.00( 25.8%)  3.00( 24.2%) 
 MO    26 (   11) HAS LZ(WEIGHT)=-3.00(  1.6%) -1.00( 48.4%)  1.00( 48.4%)  3.00(  1.6%) 
 MO    27 (   11) HAS LZ(WEIGHT)=-3.00( 25.8%) -1.00( 24.2%)  1.00( 24.2%)  3.00( 25.8%) 
 MO    28 (   11) HAS LZ(WEIGHT)=-2.00( 35.7%)  0.00( 28.5%)  2.00( 35.7%) 
 MO    29 (   11) HAS LZ(WEIGHT)=-3.00( 48.4%) -1.00(  1.6%)  1.00(  1.6%)  3.00( 48.4%) 
 MO    30 (   11) HAS LZ(WEIGHT)=-2.00( 14.3%)  0.00( 71.5%)  2.00( 14.3%) 
 MO    31 (   11) HAS LZ(WEIGHT)=-2.00( 50.0%)  2.00( 50.0%) 
 MO    32 (   12) HAS LZ(WEIGHT)=-1.00( 50.0%)  1.00( 50.0%) 
 MO    33 (   12) HAS LZ(WEIGHT)=-1.00( 50.0%)  1.00( 50.0%) 
 MO    34 (   12) HAS LZ(WEIGHT)= 0.00(100.0%) 
 MO    35 (   13) HAS LZ(WEIGHT)=-2.00( 46.6%)  0.00(  6.8%)  2.00( 46.6%) 
 MO    36 (   13) HAS LZ(WEIGHT)=-2.00(  3.4%)  0.00( 93.2%)  2.00(  3.4%) 
 MO    37 (   13) HAS LZ(WEIGHT)=-1.00( 50.0%)  1.00( 50.0%) 
 MO    38 (   13) HAS LZ(WEIGHT)=-2.00( 50.0%)  2.00( 50.0%) 
 MO    39 (   13) HAS LZ(WEIGHT)=-1.00( 50.0%)  1.00( 50.0%) 
 MO    40 (   14) HAS LZ(WEIGHT)= 0.00(100.0%) 
 MO    41 (   15) HAS LZ(WEIGHT)= 0.00(100.0%) 
 MO    42 (   15) HAS LZ(WEIGHT)=-1.00( 50.0%)  1.00( 50.0%) 
 MO    43 (   15) HAS LZ(WEIGHT)=-1.00( 50.0%)  1.00( 50.0%) 
 MO    44 (   16) HAS LZ(WEIGHT)= 0.00(100.0%) 
 MO    45 (   17) HAS LZ(WEIGHT)=-2.00( 50.0%)  2.00( 50.0%) 
 MO    46 (   17) HAS LZ(WEIGHT)= 0.00( 99.9%) 
 MO    47 (   17) HAS LZ(WEIGHT)=-2.00( 50.0%)  2.00( 50.0%) 
 MO    48 (   17) HAS LZ(WEIGHT)=-1.00( 50.0%)  1.00( 50.0%) 
 MO    49 (   17) HAS LZ(WEIGHT)=-1.00( 50.0%)  1.00( 50.0%) 
 MO    50 (   18) HAS LZ(WEIGHT)=-3.00( 18.8%) -1.00( 31.2%)  1.00( 31.2%)  3.00( 18.8%) 
 MO    51 (   18) HAS LZ(WEIGHT)=-3.00( 18.8%) -1.00( 31.2%)  1.00( 31.2%)  3.00( 18.8%) 
 MO    52 (   18) HAS LZ(WEIGHT)=-2.00( 50.0%)  2.00( 50.0%) 
 MO    53 (   18) HAS LZ(WEIGHT)=-2.00( 50.0%)  2.00( 50.0%) 
 MO    54 (   18) HAS LZ(WEIGHT)=-3.00( 31.2%) -1.00( 18.8%)  1.00( 18.8%)  3.00( 31.2%) 
 MO    55 (   18) HAS LZ(WEIGHT)=-3.00( 31.2%) -1.00( 18.8%)  1.00( 18.8%)  3.00( 31.2%) 
 MO    56 (   18) HAS LZ(WEIGHT)= 0.00(100.0%) 
 MO    57 (   19) HAS LZ(WEIGHT)=-1.00( 50.0%)  1.00( 50.0%) 
 MO    58 (   19) HAS LZ(WEIGHT)= 0.00(100.0%) 
 MO    59 (   19) HAS LZ(WEIGHT)=-1.00( 50.0%)  1.00( 50.0%) 
 MO    60 (   20) HAS LZ(WEIGHT)=-2.00( 50.0%)  2.00( 50.0%) 
 MO    61 (   20) HAS LZ(WEIGHT)= 0.00(100.0%) 
 MO    62 (   20) HAS LZ(WEIGHT)=-1.00( 50.0%)  1.00( 50.0%) 
 MO    63 (   20) HAS LZ(WEIGHT)=-2.00( 50.0%)  2.00( 50.0%) 
 MO    64 (   20) HAS LZ(WEIGHT)=-1.00( 50.0%)  1.00( 50.0%) 
 MO    65 (   21) HAS LZ(WEIGHT)= 0.00(100.0%) 
 MO    66 (   22) HAS LZ(WEIGHT)=-3.00( 31.3%) -1.00( 18.7%)  1.00( 18.7%)  3.00( 31.3%) 
 MO    67 (   22) HAS LZ(WEIGHT)=-3.00( 31.2%) -1.00( 18.8%)  1.00( 18.8%)  3.00( 31.2%) 
 MO    68 (   22) HAS LZ(WEIGHT)= 0.00(100.0%) 
 MO    69 (   22) HAS LZ(WEIGHT)=-3.00( 18.7%) -1.00( 31.3%)  1.00( 31.3%)  3.00( 18.7%) 
 MO    70 (   22) HAS LZ(WEIGHT)=-3.00( 18.8%) -1.00( 31.2%)  1.00( 31.2%)  3.00( 18.8%) 
 MO    71 (   22) HAS LZ(WEIGHT)=-2.00( 50.0%)  2.00( 50.0%) 
 MO    72 (   22) HAS LZ(WEIGHT)=-2.00( 50.0%)  2.00( 50.0%) 
 MO    73 (   23) HAS LZ(WEIGHT)= 0.00(100.0%) 
 MO    74 (   23) HAS LZ(WEIGHT)=-1.00( 50.0%)  1.00( 50.0%) 
 MO    75 (   23) HAS LZ(WEIGHT)=-1.00( 50.0%)  1.00( 50.0%) 
 MO    76 (   24) HAS LZ(WEIGHT)=-1.00( 50.0%)  1.00( 50.0%) 
 MO    77 (   24) HAS LZ(WEIGHT)=-2.00( 50.0%)  2.00( 50.0%) 
 MO    78 (   24) HAS LZ(WEIGHT)=-1.00( 50.0%)  1.00( 50.0%) 
 MO    79 (   24) HAS LZ(WEIGHT)=-2.00( 46.2%)  0.00(  7.6%)  2.00( 46.2%) 
 MO    80 (   24) HAS LZ(WEIGHT)=-2.00(  3.8%)  0.00( 92.4%)  2.00(  3.8%) 
 MO    81 (   25) HAS LZ(WEIGHT)=-2.00( 50.0%)  2.00( 50.0%) 
 MO    82 (   25) HAS LZ(WEIGHT)=-3.00( 31.3%) -1.00( 18.7%)  1.00( 18.7%)  3.00( 31.3%) 
 MO    83 (   25) HAS LZ(WEIGHT)=-3.00( 31.2%) -1.00( 18.8%)  1.00( 18.8%)  3.00( 31.2%) 
 MO    84 (   25) HAS LZ(WEIGHT)= 0.00(100.0%) 
 MO    85 (   25) HAS LZ(WEIGHT)=-3.00( 18.7%) -1.00( 31.3%)  1.00( 31.3%)  3.00( 18.7%) 
 MO    86 (   25) HAS LZ(WEIGHT)=-3.00( 18.8%) -1.00( 31.2%)  1.00( 31.2%)  3.00( 18.8%) 
 MO    87 (   25) HAS LZ(WEIGHT)=-2.00( 50.0%)  2.00( 50.0%) 
 MO    88 (   26) HAS LZ(WEIGHT)= 0.00(100.0%) 
 MO    89 (   27) HAS LZ(WEIGHT)= 0.00(100.0%) 
 MO    90 (   27) HAS LZ(WEIGHT)=-1.00( 50.0%)  1.00( 50.0%) 
 MO    91 (   27) HAS LZ(WEIGHT)=-1.00( 50.0%)  1.00( 50.0%) 
 MO    92 (   28) HAS LZ(WEIGHT)=-3.00( 31.2%) -1.00( 18.8%)  1.00( 18.8%)  3.00( 31.2%) 
 MO    93 (   28) HAS LZ(WEIGHT)=-3.00( 31.2%) -1.00( 18.8%)  1.00( 18.8%)  3.00( 31.2%) 
 MO    94 (   28) HAS LZ(WEIGHT)= 0.00(100.0%) 
 MO    95 (   28) HAS LZ(WEIGHT)=-2.00( 50.0%)  2.00( 50.0%) 
 MO    96 (   28) HAS LZ(WEIGHT)=-3.00( 18.8%) -1.00( 31.2%)  1.00( 31.2%)  3.00( 18.8%) 
 MO    97 (   28) HAS LZ(WEIGHT)=-3.00( 18.8%) -1.00( 31.2%)  1.00( 31.2%)  3.00( 18.8%) 
 MO    98 (   28) HAS LZ(WEIGHT)=-2.00( 50.0%)  2.00( 50.0%) 
 MO    99 (   29) HAS LZ(WEIGHT)=-1.00( 50.0%)  1.00( 50.0%) 
 MO   100 (   29) HAS LZ(WEIGHT)=-2.00( 50.0%)  2.00( 50.0%) 
 MO   101 (   29) HAS LZ(WEIGHT)=-1.00( 50.0%)  1.00( 50.0%) 
 MO   102 (   29) HAS LZ(WEIGHT)=-2.00( 46.8%)  0.00(  6.4%)  2.00( 46.8%) 
 MO   103 (   29) HAS LZ(WEIGHT)=-2.00(  3.2%)  0.00( 93.6%)  2.00(  3.2%) 
 MO   104 (   30) HAS LZ(WEIGHT)=-3.00( 31.3%) -1.00( 18.7%)  1.00( 18.7%)  3.00( 31.3%) 
 MO   105 (   30) HAS LZ(WEIGHT)=-3.00( 31.2%) -1.00( 18.8%)  1.00( 18.8%)  3.00( 31.2%) 
 MO   106 (   30) HAS LZ(WEIGHT)= 0.00(100.0%) 
 MO   107 (   30) HAS LZ(WEIGHT)=-2.00( 50.0%)  2.00( 50.0%) 
 MO   108 (   30) HAS LZ(WEIGHT)=-3.00( 18.7%) -1.00( 31.3%)  1.00( 31.3%)  3.00( 18.7%) 
 MO   109 (   30) HAS LZ(WEIGHT)=-3.00( 18.8%) -1.00( 31.2%)  1.00( 31.2%)  3.00( 18.8%) 
 MO   110 (   30) HAS LZ(WEIGHT)=-2.00( 50.0%)  2.00( 50.0%) 
 MO   111 (   31) HAS LZ(WEIGHT)= 0.00(100.0%) 
 MO   112 (   32) HAS LZ(WEIGHT)=-1.00( 50.0%)  1.00( 50.0%) 
 MO   113 (   32) HAS LZ(WEIGHT)= 0.00(100.0%) 
 MO   114 (   32) HAS LZ(WEIGHT)=-1.00( 50.0%)  1.00( 50.0%) 
 MO   115 (   33) HAS LZ(WEIGHT)=-1.00( 50.0%)  1.00( 50.0%) 
 MO   116 (   33) HAS LZ(WEIGHT)=-2.00( 50.0%)  2.00( 50.0%) 
 MO   117 (   33) HAS LZ(WEIGHT)=-1.00( 50.0%)  1.00( 50.0%) 
 MO   118 (   33) HAS LZ(WEIGHT)=-2.00( 29.3%)  0.00( 41.3%)  2.00( 29.3%) 
 MO   119 (   33) HAS LZ(WEIGHT)=-2.00( 20.7%)  0.00( 58.7%)  2.00( 20.7%) 
 MO   120 (   34) HAS LZ(WEIGHT)=-3.00( 31.2%) -1.00( 18.8%)  1.00( 18.8%)  3.00( 31.2%) 
 MO   121 (   34) HAS LZ(WEIGHT)=-3.00( 31.3%) -1.00( 18.7%)  1.00( 18.7%)  3.00( 31.3%) 
 MO   122 (   34) HAS LZ(WEIGHT)= 0.00(100.0%) 
 MO   123 (   34) HAS LZ(WEIGHT)=-2.00( 50.0%)  2.00( 50.0%) 
 MO   124 (   34) HAS LZ(WEIGHT)=-3.00( 18.8%) -1.00( 31.2%)  1.00( 31.2%)  3.00( 18.8%) 
 MO   125 (   34) HAS LZ(WEIGHT)=-2.00( 50.0%)  2.00( 50.0%) 
 MO   126 (   34) HAS LZ(WEIGHT)=-3.00( 18.7%) -1.00( 31.3%)  1.00( 31.3%)  3.00( 18.7%) 
 MO   127 (   35) HAS LZ(WEIGHT)= 0.00(100.0%) 
 MO   128 (   35) HAS LZ(WEIGHT)=-1.00( 50.0%)  1.00( 50.0%) 
 MO   129 (   35) HAS LZ(WEIGHT)=-1.00( 50.0%)  1.00( 50.0%) 
 MO   130 (   36) HAS LZ(WEIGHT)= 0.00(100.0%) 
 MO   131 (   37) HAS LZ(WEIGHT)=-1.00( 50.0%)  1.00( 50.0%) 
 MO   132 (   37) HAS LZ(WEIGHT)=-2.00( 50.0%)  2.00( 50.0%) 
 MO   133 (   37) HAS LZ(WEIGHT)=-1.00( 50.0%)  1.00( 50.0%) 
 MO   134 (   37) HAS LZ(WEIGHT)=-2.00( 13.0%)  0.00( 74.0%)  2.00( 13.0%) 
 MO   135 (   37) HAS LZ(WEIGHT)=-2.00( 37.0%)  0.00( 26.0%)  2.00( 37.0%) 
 MO   136 (   38) HAS LZ(WEIGHT)=-3.00( 31.3%) -1.00( 18.7%)  1.00( 18.7%)  3.00( 31.3%) 
 MO   137 (   38) HAS LZ(WEIGHT)=-3.00( 31.3%) -1.00( 18.7%)  1.00( 18.7%)  3.00( 31.3%) 
 MO   138 (   38) HAS LZ(WEIGHT)= 0.00(100.0%) 
 MO   139 (   38) HAS LZ(WEIGHT)=-2.00( 50.0%)  2.00( 50.0%) 
 MO   140 (   38) HAS LZ(WEIGHT)=-3.00( 18.7%) -1.00( 31.3%)  1.00( 31.3%)  3.00( 18.7%) 
 MO   141 (   38) HAS LZ(WEIGHT)=-3.00( 18.7%) -1.00( 31.3%)  1.00( 31.3%)  3.00( 18.7%) 
 MO   142 (   38) HAS LZ(WEIGHT)=-2.00( 50.0%)  2.00( 50.0%) 
 MO   143 (   39) HAS LZ(WEIGHT)=-1.00( 50.0%)  1.00( 50.0%) 
 MO   144 (   39) HAS LZ(WEIGHT)=-1.00( 50.0%)  1.00( 50.0%) 
 MO   145 (   39) HAS LZ(WEIGHT)=-2.00( 50.0%)  2.00( 50.0%) 
 MO   146 (   39) HAS LZ(WEIGHT)=-2.00(  8.5%)  0.00( 82.9%)  2.00(  8.5%) 
 MO   147 (   39) HAS LZ(WEIGHT)=-2.00( 41.5%)  0.00( 17.1%)  2.00( 41.5%) 
 MO   148 (   40) HAS LZ(WEIGHT)=-1.00( 50.0%)  1.00( 50.0%) 
 MO   149 (   40) HAS LZ(WEIGHT)= 0.00(100.0%) 
 MO   150 (   40) HAS LZ(WEIGHT)=-1.00( 50.0%)  1.00( 50.0%) 
 MO   151 (   41) HAS LZ(WEIGHT)=-3.00( 31.3%) -1.00( 18.7%)  1.00( 18.7%)  3.00( 31.3%) 
 MO   152 (   41) HAS LZ(WEIGHT)=-3.00( 31.3%) -1.00( 18.7%)  1.00( 18.7%)  3.00( 31.3%) 
 MO   153 (   41) HAS LZ(WEIGHT)= 0.00(100.0%) 
 MO   154 (   41) HAS LZ(WEIGHT)=-2.00( 50.0%)  2.00( 50.0%) 
 MO   155 (   41) HAS LZ(WEIGHT)=-3.00( 18.7%) -1.00( 31.3%)  1.00( 31.3%)  3.00( 18.7%) 
 MO   156 (   41) HAS LZ(WEIGHT)=-3.00( 18.7%) -1.00( 31.3%)  1.00( 31.3%)  3.00( 18.7%) 
 MO   157 (   41) HAS LZ(WEIGHT)=-2.00( 50.0%)  2.00( 50.0%) 
 MO   158 (   42) HAS LZ(WEIGHT)= 0.00(100.0%) 
 MO   159 (   43) HAS LZ(WEIGHT)=-3.00( 31.2%) -1.00( 18.8%)  1.00( 18.8%)  3.00( 31.2%) 
 MO   160 (   43) HAS LZ(WEIGHT)= 0.00(100.0%) 
 MO   161 (   43) HAS LZ(WEIGHT)=-3.00( 31.3%) -1.00( 18.7%)  1.00( 18.7%)  3.00( 31.3%) 
 MO   162 (   43) HAS LZ(WEIGHT)=-2.00( 50.0%)  2.00( 50.0%) 
 MO   163 (   43) HAS LZ(WEIGHT)=-3.00( 18.8%) -1.00( 31.2%)  1.00( 31.2%)  3.00( 18.8%) 
 MO   164 (   43) HAS LZ(WEIGHT)=-2.00( 50.0%)  2.00( 50.0%) 
 MO   165 (   43) HAS LZ(WEIGHT)=-3.00( 18.7%) -1.00( 31.3%)  1.00( 31.3%)  3.00( 18.7%) 
 MO   166 (   44) HAS LZ(WEIGHT)=-1.00( 50.0%)  1.00( 50.0%) 
 MO   167 (   44) HAS LZ(WEIGHT)=-1.00( 50.0%)  1.00( 50.0%) 
 MO   168 (   44) HAS LZ(WEIGHT)=-2.00( 50.0%)  2.00( 50.0%) 
 MO   169 (   44) HAS LZ(WEIGHT)=-2.00( 42.6%)  0.00( 14.9%)  2.00( 42.6%) 
 MO   170 (   44) HAS LZ(WEIGHT)=-2.00(  7.4%)  0.00( 85.1%)  2.00(  7.4%) 
 MO   171 (   45) HAS LZ(WEIGHT)= 0.00(100.0%) 
 MO   172 (   45) HAS LZ(WEIGHT)=-1.00( 50.0%)  1.00( 50.0%) 
 MO   173 (   45) HAS LZ(WEIGHT)=-1.00( 50.0%)  1.00( 50.0%) 
 MO   174 (   46) HAS LZ(WEIGHT)= 0.00(100.0%) 
 MO   175 (   47) HAS LZ(WEIGHT)=-3.00( 30.2%) -1.00( 19.8%)  1.00( 19.8%)  3.00( 30.2%) 
 MO   176 (   47) HAS LZ(WEIGHT)= 0.00( 99.7%) 
 MO   177 (   47) HAS LZ(WEIGHT)=-3.00( 33.6%) -1.00( 16.4%)  1.00( 16.4%)  3.00( 33.6%) 
 MO   178 (   47) HAS LZ(WEIGHT)=-3.00( 19.8%) -1.00( 30.2%)  1.00( 30.2%)  3.00( 19.8%) 
 MO   179 (   47) HAS LZ(WEIGHT)=-3.00( 16.4%) -1.00( 33.6%)  1.00( 33.6%)  3.00( 16.4%) 
 MO   180 (   47) HAS LZ(WEIGHT)=-2.00( 49.9%)  2.00( 49.9%) 
 MO   181 (   47) HAS LZ(WEIGHT)=-2.00( 50.0%)  2.00( 50.0%) 
 MO   182 (   48) HAS LZ(WEIGHT)=-2.00( 50.0%)  2.00( 50.0%) 
 MO   183 (   48) HAS LZ(WEIGHT)=-1.00( 50.0%)  1.00( 50.0%) 
 MO   184 (   48) HAS LZ(WEIGHT)=-1.00( 50.0%)  1.00( 50.0%) 
 MO   185 (   48) HAS LZ(WEIGHT)=-2.00( 47.2%)  0.00(  5.6%)  2.00( 47.2%) 
 MO   186 (   48) HAS LZ(WEIGHT)=-2.00(  2.8%)  0.00( 94.4%)  2.00(  2.8%) 
 MO   187 (   49) HAS LZ(WEIGHT)= 0.00(100.0%) 
 MO   188 (   49) HAS LZ(WEIGHT)=-1.00( 50.0%)  1.00( 50.0%) 
 MO   189 (   49) HAS LZ(WEIGHT)=-1.00( 50.0%)  1.00( 50.0%) 
 MO   190 (   50) HAS LZ(WEIGHT)= 0.00(100.0%) 
 MO   191 (   51) HAS LZ(WEIGHT)=-3.00( 19.0%) -1.00( 31.0%)  1.00( 31.0%)  3.00( 19.0%) 
 MO   192 (   51) HAS LZ(WEIGHT)=-3.00( 18.7%) -1.00( 31.3%)  1.00( 31.3%)  3.00( 18.7%) 
 MO   193 (   51) HAS LZ(WEIGHT)=-2.00( 50.0%)  2.00( 50.0%) 
 MO   194 (   51) HAS LZ(WEIGHT)=-2.00( 50.0%)  2.00( 50.0%) 
 MO   195 (   51) HAS LZ(WEIGHT)=-3.00( 31.3%) -1.00( 18.7%)  1.00( 18.7%)  3.00( 31.3%) 
 MO   196 (   51) HAS LZ(WEIGHT)=-3.00( 31.0%) -1.00( 19.0%)  1.00( 19.0%)  3.00( 31.0%) 
 MO   197 (   51) HAS LZ(WEIGHT)= 0.00(100.0%) 
 MO   198 (   52) HAS LZ(WEIGHT)=-1.00( 50.0%)  1.00( 50.0%) 
 MO   199 (   52) HAS LZ(WEIGHT)=-1.00( 50.0%)  1.00( 50.0%) 
 MO   200 (   52) HAS LZ(WEIGHT)=-2.00( 50.0%)  2.00( 50.0%) 
 MO   201 (   52) HAS LZ(WEIGHT)=-2.00( 49.5%)  0.00(  1.0%)  2.00( 49.5%) 
 MO   202 (   52) HAS LZ(WEIGHT)= 0.00( 99.0%) 
 MO   203 (   53) HAS LZ(WEIGHT)=-1.00( 50.0%)  1.00( 50.0%) 
 MO   204 (   53) HAS LZ(WEIGHT)= 0.00(100.0%) 
 MO   205 (   53) HAS LZ(WEIGHT)=-1.00( 50.0%)  1.00( 50.0%) 
 MO   206 (   54) HAS LZ(WEIGHT)=-3.00( 33.5%) -1.00( 16.5%)  1.00( 16.5%)  3.00( 33.5%) 
 MO   207 (   54) HAS LZ(WEIGHT)=-3.00(  6.2%) -1.00( 43.8%)  1.00( 43.8%)  3.00(  6.2%) 
 MO   208 (   54) HAS LZ(WEIGHT)=-2.00( 43.9%)  0.00( 12.2%)  2.00( 43.9%) 
 MO   209 (   54) HAS LZ(WEIGHT)=-3.00( 16.5%) -1.00( 33.5%)  1.00( 33.5%)  3.00( 16.5%) 
 MO   210 (   54) HAS LZ(WEIGHT)=-3.00( 43.8%) -1.00(  6.2%)  1.00(  6.2%)  3.00( 43.8%) 
 MO   211 (   54) HAS LZ(WEIGHT)=-2.00(  6.1%)  0.00( 87.8%)  2.00(  6.1%) 
 MO   212 (   54) HAS LZ(WEIGHT)=-2.00( 50.0%)  2.00( 50.0%) 
 MO   213 (   55) HAS LZ(WEIGHT)= 0.00(100.0%) 
 MO   214 (   56) HAS LZ(WEIGHT)=-1.00( 50.0%)  1.00( 50.0%) 
 MO   215 (   56) HAS LZ(WEIGHT)=-2.00( 50.0%)  2.00( 50.0%) 
 MO   216 (   56) HAS LZ(WEIGHT)=-1.00( 50.0%)  1.00( 50.0%) 
 MO   217 (   56) HAS LZ(WEIGHT)= 0.00( 99.2%) 
 MO   218 (   56) HAS LZ(WEIGHT)=-2.00( 49.6%)  2.00( 49.6%) 
 MO   219 (   57) HAS LZ(WEIGHT)=-3.00( 19.0%) -1.00( 31.0%)  1.00( 31.0%)  3.00( 19.0%) 
 MO   220 (   57) HAS LZ(WEIGHT)=-2.00( 50.0%)  2.00( 50.0%) 
 MO   221 (   57) HAS LZ(WEIGHT)=-3.00( 18.2%) -1.00( 31.8%)  1.00( 31.8%)  3.00( 18.2%) 
 MO   222 (   57) HAS LZ(WEIGHT)=-2.00( 50.0%)  2.00( 50.0%) 
 MO   223 (   57) HAS LZ(WEIGHT)=-3.00( 31.8%) -1.00( 18.2%)  1.00( 18.2%)  3.00( 31.8%) 
 MO   224 (   57) HAS LZ(WEIGHT)=-3.00( 31.0%) -1.00( 19.0%)  1.00( 19.0%)  3.00( 31.0%) 
 MO   225 (   57) HAS LZ(WEIGHT)= 0.00(100.0%) 
 MO   226 (   58) HAS LZ(WEIGHT)=-1.00( 50.0%)  1.00( 50.0%) 
 MO   227 (   58) HAS LZ(WEIGHT)=-1.00( 50.0%)  1.00( 50.0%) 
 MO   228 (   58) HAS LZ(WEIGHT)= 0.00(100.0%) 
 MO   229 (   59) HAS LZ(WEIGHT)= 0.00(100.0%) 
 MO   230 (   60) HAS LZ(WEIGHT)=-2.00( 13.2%)  0.00( 73.7%)  2.00( 13.2%) 
 MO   231 (   60) HAS LZ(WEIGHT)=-2.00( 36.8%)  0.00( 26.3%)  2.00( 36.8%) 
 MO   232 (   60) HAS LZ(WEIGHT)=-1.00( 50.0%)  1.00( 50.0%) 
 MO   233 (   60) HAS LZ(WEIGHT)=-1.00( 50.0%)  1.00( 50.0%) 
 MO   234 (   60) HAS LZ(WEIGHT)=-2.00( 50.0%)  2.00( 50.0%) 
 MO   235 (   61) HAS LZ(WEIGHT)=-2.00( 50.0%)  2.00( 50.0%) 
 MO   236 (   61) HAS LZ(WEIGHT)=-3.00( 30.5%) -1.00( 19.5%)  1.00( 19.5%)  3.00( 30.5%) 
 MO   237 (   61) HAS LZ(WEIGHT)= 0.00(100.0%) 
 MO   238 (   61) HAS LZ(WEIGHT)=-3.00( 31.7%) -1.00( 18.3%)  1.00( 18.3%)  3.00( 31.7%) 
 MO   239 (   61) HAS LZ(WEIGHT)=-2.00( 50.0%)  2.00( 50.0%) 
 MO   240 (   61) HAS LZ(WEIGHT)=-3.00( 19.5%) -1.00( 30.5%)  1.00( 30.5%)  3.00( 19.5%) 
 MO   241 (   61) HAS LZ(WEIGHT)=-3.00( 18.3%) -1.00( 31.7%)  1.00( 31.7%)  3.00( 18.3%) 
 MO   242 (   62) HAS LZ(WEIGHT)= 0.00(100.0%) 
 MO   243 (   62) HAS LZ(WEIGHT)=-1.00( 50.0%)  1.00( 50.0%) 
 MO   244 (   62) HAS LZ(WEIGHT)=-1.00( 50.0%)  1.00( 50.0%) 
 MO   245 (   63) HAS LZ(WEIGHT)=-1.00( 50.0%)  1.00( 50.0%) 
 MO   246 (   63) HAS LZ(WEIGHT)=-1.00( 50.0%)  1.00( 50.0%) 
 MO   247 (   63) HAS LZ(WEIGHT)=-2.00( 50.0%)  2.00( 50.0%) 
 MO   248 (   63) HAS LZ(WEIGHT)=-2.00( 13.1%)  0.00( 73.8%)  2.00( 13.1%) 
 MO   249 (   63) HAS LZ(WEIGHT)=-2.00( 36.9%)  0.00( 26.2%)  2.00( 36.9%) 
 MO   250 (   64) HAS LZ(WEIGHT)= 0.00(100.0%) 
 MO   251 (   65) HAS LZ(WEIGHT)=-1.00( 50.0%)  1.00( 50.0%) 
 MO   252 (   65) HAS LZ(WEIGHT)=-1.00( 50.0%)  1.00( 50.0%) 
 MO   253 (   65) HAS LZ(WEIGHT)= 0.00(100.0%) 
 MO   254 (   66) HAS LZ(WEIGHT)=-1.00( 50.0%)  1.00( 50.0%) 
 MO   255 (   66) HAS LZ(WEIGHT)=-1.00( 50.0%)  1.00( 50.0%) 
 MO   256 (   66) HAS LZ(WEIGHT)=-2.00( 50.0%)  2.00( 50.0%) 
 MO   257 (   66) HAS LZ(WEIGHT)=-2.00(  2.7%)  0.00( 94.6%)  2.00(  2.7%) 
 MO   258 (   66) HAS LZ(WEIGHT)=-2.00( 47.3%)  0.00(  5.4%)  2.00( 47.3%) 
 MO   259 (   67) HAS LZ(WEIGHT)= 0.00(100.0%) 
 MO   260 (   68) HAS LZ(WEIGHT)=-1.00( 50.0%)  1.00( 50.0%) 
 MO   261 (   68) HAS LZ(WEIGHT)=-1.00( 50.0%)  1.00( 50.0%) 
 MO   262 (   68) HAS LZ(WEIGHT)= 0.00(100.0%) 
 MO   263 (   69) HAS LZ(WEIGHT)= 0.00(100.0%) 
 MO   264 (   69) HAS LZ(WEIGHT)=-2.00( 50.0%)  2.00( 50.0%) 
 MO   265 (   69) HAS LZ(WEIGHT)=-1.00( 50.0%)  1.00( 50.0%) 
 MO   266 (   69) HAS LZ(WEIGHT)=-1.00( 50.0%)  1.00( 50.0%) 
 MO   267 (   69) HAS LZ(WEIGHT)=-2.00( 50.0%)  2.00( 50.0%) 
 MO   268 (   70) HAS LZ(WEIGHT)= 0.00(100.0%) 
 MO   269 (   71) HAS LZ(WEIGHT)=-1.00( 50.0%)  1.00( 50.0%) 
 MO   270 (   71) HAS LZ(WEIGHT)= 0.00(100.0%) 
 MO   271 (   71) HAS LZ(WEIGHT)=-1.00( 50.0%)  1.00( 50.0%) 
 MO   272 (   72) HAS LZ(WEIGHT)=-1.00( 50.0%)  1.00( 50.0%) 
 MO   273 (   72) HAS LZ(WEIGHT)=-1.00( 50.0%)  1.00( 50.0%) 
 MO   274 (   72) HAS LZ(WEIGHT)=-2.00( 50.0%)  2.00( 50.0%) 
 MO   275 (   72) HAS LZ(WEIGHT)= 0.00( 98.2%) 
 MO   276 (   72) HAS LZ(WEIGHT)=-2.00( 49.1%)  0.00(  1.8%)  2.00( 49.1%) 
 MO   277 (   73) HAS LZ(WEIGHT)= 0.00(100.0%) 
 MO   278 (   74) HAS LZ(WEIGHT)= 0.00(100.0%) 
 MO   279 (   74) HAS LZ(WEIGHT)=-1.00( 50.0%)  1.00( 50.0%) 
 MO   280 (   74) HAS LZ(WEIGHT)=-1.00( 50.0%)  1.00( 50.0%) 
 MO   281 (   75) HAS LZ(WEIGHT)=-1.00( 50.0%)  1.00( 50.0%) 
 MO   282 (   75) HAS LZ(WEIGHT)=-1.00( 50.0%)  1.00( 50.0%) 
 MO   283 (   75) HAS LZ(WEIGHT)=-2.00( 50.0%)  2.00( 50.0%) 
 MO   284 (   75) HAS LZ(WEIGHT)=-2.00( 13.7%)  0.00( 72.6%)  2.00( 13.7%) 
 MO   285 (   75) HAS LZ(WEIGHT)=-2.00( 36.3%)  0.00( 27.4%)  2.00( 36.3%) 
 MO   286 (   76) HAS LZ(WEIGHT)= 0.00(100.0%) 
 MO   287 (   77) HAS LZ(WEIGHT)=-1.00( 50.0%)  1.00( 50.0%) 
 MO   288 (   77) HAS LZ(WEIGHT)=-1.00( 50.0%)  1.00( 50.0%) 
 MO   289 (   77) HAS LZ(WEIGHT)= 0.00(100.0%) 
 MO   290 (   78) HAS LZ(WEIGHT)= 0.00(100.0%) 
 MO   291 (   79) HAS LZ(WEIGHT)=-1.00( 50.0%)  1.00( 50.0%) 
 MO   292 (   79) HAS LZ(WEIGHT)= 0.00(100.0%) 
 MO   293 (   79) HAS LZ(WEIGHT)=-1.00( 50.0%)  1.00( 50.0%) 
 MO   294 (   80) HAS LZ(WEIGHT)= 0.00(100.0%) 
 MO   295 (   81) HAS LZ(WEIGHT)=-1.00( 50.0%)  1.00( 50.0%) 
 MO   296 (   81) HAS LZ(WEIGHT)=-1.00( 50.0%)  1.00( 50.0%) 
 MO   297 (   81) HAS LZ(WEIGHT)= 0.00(100.0%) 
 MO   298 (   82) HAS LZ(WEIGHT)= 0.00(100.0%) 
 MO   299 (   83) HAS LZ(WEIGHT)=-1.00( 50.0%)  1.00( 50.0%) 
 MO   300 (   83) HAS LZ(WEIGHT)=-1.00( 50.0%)  1.00( 50.0%) 
 MO   301 (   83) HAS LZ(WEIGHT)= 0.00(100.0%) 
 MO   302 (   84) HAS LZ(WEIGHT)= 0.00(100.0%) 
 MO   303 (   85) HAS LZ(WEIGHT)=-1.00( 50.0%)  1.00( 50.0%) 
 MO   304 (   85) HAS LZ(WEIGHT)=-1.00( 50.0%)  1.00( 50.0%) 
 MO   305 (   85) HAS LZ(WEIGHT)= 0.00(100.0%) 
 MO   306 (   86) HAS LZ(WEIGHT)= 0.00(100.0%) 
 MO   307 (   87) HAS LZ(WEIGHT)=-1.00( 50.0%)  1.00( 50.0%) 
 MO   308 (   87) HAS LZ(WEIGHT)= 0.00(100.0%) 
 MO   309 (   87) HAS LZ(WEIGHT)=-1.00( 50.0%)  1.00( 50.0%) 
 MO   310 (   88) HAS LZ(WEIGHT)= 0.00(100.0%) 
 MO   311 (   89) HAS LZ(WEIGHT)= 0.00(100.0%) 
 MO   312 (   89) HAS LZ(WEIGHT)=-1.00( 50.0%)  1.00( 50.0%) 
 MO   313 (   89) HAS LZ(WEIGHT)=-1.00( 50.0%)  1.00( 50.0%) 
 MO   314 (   90) HAS LZ(WEIGHT)= 0.00(100.0%) 
 MO   315 (   91) HAS LZ(WEIGHT)= 0.00(100.0%) 
 MO   316 (   91) HAS LZ(WEIGHT)=-1.00( 50.0%)  1.00( 50.0%) 
 MO   317 (   91) HAS LZ(WEIGHT)=-1.00( 50.0%)  1.00( 50.0%) 
 MO   318 (   92) HAS LZ(WEIGHT)= 0.00(100.0%) 
 MO   319 (   93) HAS LZ(WEIGHT)=-1.00( 50.0%)  1.00( 50.0%) 
 MO   320 (   93) HAS LZ(WEIGHT)=-1.00( 50.0%)  1.00( 50.0%) 
 MO   321 (   93) HAS LZ(WEIGHT)= 0.00(100.0%) 
 MO   322 (   94) HAS LZ(WEIGHT)= 0.00(100.0%) 
 MO   323 (   95) HAS LZ(WEIGHT)= 0.00(100.0%) 
 MO   324 (   96) HAS LZ(WEIGHT)= 0.00(100.0%) 

          ------------
          EIGENVECTORS
          ------------

                      1          2          3          4          5
                -2984.7571  -532.0966  -461.5501  -461.5501  -461.5501
                     AG         AG         B1U        B3U        B2U 
    1  AU 1  S    0.000002   0.000002   0.000000   0.000000   0.000000
    2  AU 1  X    0.000000   0.000000   0.000000   0.000001   0.000000
    3  AU 1  Y    0.000000   0.000000   0.000000   0.000000   0.000001
    4  AU 1  Z    0.000000   0.000000   0.000001   0.000000   0.000000
    5  AU 1  S   -0.000007  -0.000009   0.000000   0.000000   0.000000
    6  AU 1  X    0.000000   0.000000   0.000000  -0.000004   0.000000
    7  AU 1  Y    0.000000   0.000000   0.000000   0.000000  -0.000004
    8  AU 1  Z    0.000000   0.000000  -0.000004   0.000000   0.000000
    9  AU 1  S    0.000015   0.000019   0.000000   0.000000   0.000000
   10  AU 1  X    0.000000   0.000000   0.000000   0.000008   0.000000
   11  AU 1  Y    0.000000   0.000000   0.000000   0.000000   0.000008
   12  AU 1  Z    0.000000   0.000000   0.000008   0.000000   0.000000
   13  AU 1  S   -0.000027  -0.000034   0.000000   0.000000   0.000000
   14  AU 1  X    0.000000   0.000000   0.000000  -0.000014   0.000000
   15  AU 1  Y    0.000000   0.000000   0.000000   0.000000  -0.000014
   16  AU 1  Z    0.000000   0.000000  -0.000014   0.000000   0.000000
   17  AU 1  S    0.000043   0.000053   0.000000   0.000000   0.000000
   18  AU 1  X    0.000000   0.000000   0.000000   0.000023   0.000000
   19  AU 1  Y    0.000000   0.000000   0.000000   0.000000   0.000023
   20  AU 1  Z    0.000000   0.000000   0.000023   0.000000   0.000000
   21  AU 1  S   -0.000065  -0.000072   0.000000   0.000000   0.000000
   22  AU 1  X    0.000000   0.000000   0.000000  -0.000032   0.000000
   23  AU 1  Y    0.000000   0.000000   0.000000   0.000000  -0.000032
   24  AU 1  Z    0.000000   0.000000  -0.000032   0.000000   0.000000
   25  AU 1  S    0.000096   0.000100   0.000000   0.000000   0.000000
   26  AU 1  X    0.000000   0.000000   0.000000   0.000051   0.000000
   27  AU 1  Y    0.000000   0.000000   0.000000   0.000000   0.000051
   28  AU 1  Z    0.000000   0.000000   0.000051   0.000000   0.000000
   29  AU 1  S   -0.000140  -0.000082   0.000000   0.000000   0.000000
   30  AU 1  X    0.000000   0.000000   0.000000  -0.000059   0.000000
   31  AU 1  Y    0.000000   0.000000   0.000000   0.000000  -0.000059
   32  AU 1  Z    0.000000   0.000000  -0.000059   0.000000   0.000000
   33  AU 1  S    0.000206  -0.000169   0.000000   0.000000   0.000000
   34  AU 1  X    0.000000   0.000000   0.000000  -0.000025   0.000000
   35  AU 1  Y    0.000000   0.000000   0.000000   0.000000  -0.000025
   36  AU 1  Z    0.000000   0.000000  -0.000025   0.000000   0.000000
   37  AU 1  S   -0.000285   0.000449   0.000000   0.000000   0.000000
   38  AU 1  X    0.000000   0.000000   0.000000  -0.000024   0.000000
   39  AU 1  Y    0.000000   0.000000   0.000000   0.000000  -0.000024
   40  AU 1  Z    0.000000   0.000000  -0.000024   0.000000   0.000000
   41  AU 1  S    0.000382   0.002151   0.000000   0.000000   0.000000
   42  AU 1  X    0.000000   0.000000   0.000000   0.001723   0.000000
   43  AU 1  Y    0.000000   0.000000   0.000000   0.000000   0.001723
   44  AU 1  Z    0.000000   0.000000   0.001723   0.000000   0.000000
   45  AU 1  S   -0.000601   0.150959   0.000000   0.000000   0.000000
   46  AU 1  X    0.000000   0.000000   0.000000   0.067233   0.000000
   47  AU 1  Y    0.000000   0.000000   0.000000   0.000000   0.067233
   48  AU 1  Z    0.000000   0.000000   0.067233   0.000000   0.000000
   49  AU 1  S    0.000825   0.555234   0.000000   0.000000   0.000000
   50  AU 1  X    0.000000   0.000000   0.000000   0.287193   0.000000
   51  AU 1  Y    0.000000   0.000000   0.000000   0.000000   0.287193
   52  AU 1  Z    0.000000   0.000000   0.287193   0.000000   0.000000
   53  AU 1  S    0.013114   0.425007   0.000000   0.000000   0.000000
   54  AU 1  X    0.000000   0.000000   0.000000   0.378438   0.000000
   55  AU 1  Y    0.000000   0.000000   0.000000   0.000000   0.378438
   56  AU 1  Z    0.000000   0.000000   0.378438   0.000000   0.000000
   57  AU 1  S    0.127167  -0.009595   0.000000   0.000000   0.000000
   58  AU 1  X    0.000000   0.000000   0.000000   0.254713   0.000000
   59  AU 1  Y    0.000000   0.000000   0.000000   0.000000   0.254713
   60  AU 1  Z    0.000000   0.000000   0.254713   0.000000   0.000000
   61  AU 1  S    0.273321  -0.169817   0.000000   0.000000   0.000000
   62  AU 1  X    0.000000   0.000000   0.000000   0.123813   0.000000
   63  AU 1  Y    0.000000   0.000000   0.000000   0.000000   0.123813
   64  AU 1  Z    0.000000   0.000000   0.123813   0.000000   0.000000
   65  AU 1  S    0.281129  -0.152306   0.000000   0.000000   0.000000
   66  AU 1  X    0.000000   0.000000   0.000000   0.052089   0.000000
   67  AU 1  Y    0.000000   0.000000   0.000000   0.000000   0.052089
   68  AU 1  Z    0.000000   0.000000   0.052089   0.000000   0.000000
   69  AU 1  S    0.205173  -0.097569   0.000000   0.000000   0.000000
   70  AU 1  X    0.000000   0.000000   0.000000   0.021214   0.000000
   71  AU 1  Y    0.000000   0.000000   0.000000   0.000000   0.021214
   72  AU 1  Z    0.000000   0.000000   0.021214   0.000000   0.000000
   73  AU 1  S    0.128895  -0.057115   0.000000   0.000000   0.000000
   74  AU 1  X    0.000000   0.000000   0.000000   0.008876   0.000000
   75  AU 1  Y    0.000000   0.000000   0.000000   0.000000   0.008876
   76  AU 1  Z    0.000000   0.000000   0.008876   0.000000   0.000000
   77  AU 1  S    0.077751  -0.032725   0.000000   0.000000   0.000000
   78  AU 1  X    0.000000   0.000000   0.000000   0.003847   0.000000
   79  AU 1  Y    0.000000   0.000000   0.000000   0.000000   0.003847
   80  AU 1  Z    0.000000   0.000000   0.003847   0.000000   0.000000
   81  AU 1  S    0.045598  -0.018733   0.000000   0.000000   0.000000
   82  AU 1  X    0.000000   0.000000   0.000000   0.001823   0.000000
   83  AU 1  Y    0.000000   0.000000   0.000000   0.000000   0.001823
   84  AU 1  Z    0.000000   0.000000   0.001823   0.000000   0.000000
   85  AU 1  S    0.027865  -0.011183   0.000000   0.000000   0.000000
   86  AU 1  X    0.000000   0.000000   0.000000   0.000832   0.000000
   87  AU 1  Y    0.000000   0.000000   0.000000   0.000000   0.000832
   88  AU 1  Z    0.000000   0.000000   0.000832   0.000000   0.000000
   89  AU 1  S    0.016012  -0.006376   0.000000   0.000000   0.000000
   90  AU 1  X    0.000000   0.000000   0.000000   0.000484   0.000000
   91  AU 1  Y    0.000000   0.000000   0.000000   0.000000   0.000484
   92  AU 1  Z    0.000000   0.000000   0.000484   0.000000   0.000000
   93  AU 1  S    0.010638  -0.004185   0.000000   0.000000   0.000000
   94  AU 1  X    0.000000   0.000000   0.000000   0.000187   0.000000
   95  AU 1  Y    0.000000   0.000000   0.000000   0.000000   0.000187
   96  AU 1  Z    0.000000   0.000000   0.000187   0.000000   0.000000
   97  AU 1  S    0.005443  -0.002138   0.000000   0.000000   0.000000
   98  AU 1  X    0.000000   0.000000   0.000000   0.000177   0.000000
   99  AU 1  Y    0.000000   0.000000   0.000000   0.000000   0.000177
  100  AU 1  Z    0.000000   0.000000   0.000177   0.000000   0.000000
  101  AU 1  S    0.004611  -0.001799   0.000000   0.000000   0.000000
  102  AU 1  X    0.000000   0.000000   0.000000   0.000017   0.000000
  103  AU 1  Y    0.000000   0.000000   0.000000   0.000000   0.000017
  104  AU 1  Z    0.000000   0.000000   0.000017   0.000000   0.000000
  105  AU 1  S    0.001354  -0.000528   0.000000   0.000000   0.000000
  106  AU 1  X    0.000000   0.000000   0.000000   0.000095   0.000000
  107  AU 1  Y    0.000000   0.000000   0.000000   0.000000   0.000095
  108  AU 1  Z    0.000000   0.000000   0.000095   0.000000   0.000000
  109  AU 1  S    0.002590  -0.001008   0.000000   0.000000   0.000000
  110  AU 1  X    0.000000   0.000000   0.000000  -0.000026   0.000000
  111  AU 1  Y    0.000000   0.000000   0.000000   0.000000  -0.000026
  112  AU 1  Z    0.000000   0.000000  -0.000026   0.000000   0.000000
  113  AU 1  S   -0.000413   0.000161   0.000000   0.000000   0.000000
  114  AU 1  X    0.000000   0.000000   0.000000   0.000046   0.000000
  115  AU 1  Y    0.000000   0.000000   0.000000   0.000000   0.000046
  116  AU 1  Z    0.000000   0.000000   0.000046   0.000000   0.000000
  117  AU 1  S    0.001928  -0.000750   0.000000   0.000000   0.000000
  118  AU 1  S   -0.000891   0.000347   0.000000   0.000000   0.000000
  119  AU 1  S    0.000952  -0.000370   0.000000   0.000000   0.000000
  120  AU 1 XX    0.000000   0.000000   0.000000   0.000000   0.000000
  121  AU 1 YY    0.000000   0.000000   0.000000   0.000000   0.000000
  122  AU 1 ZZ    0.000000   0.000000   0.000000   0.000000   0.000000
  123  AU 1 XY    0.000000   0.000000   0.000000   0.000000   0.000000
  124  AU 1 XZ    0.000000   0.000000   0.000000   0.000000   0.000000
  125  AU 1 YZ    0.000000   0.000000   0.000000   0.000000   0.000000
  126  AU 1 XX    0.000000   0.000000   0.000000   0.000000   0.000000
  127  AU 1 YY    0.000000   0.000000   0.000000   0.000000   0.000000
  128  AU 1 ZZ    0.000000   0.000000   0.000000   0.000000   0.000000
  129  AU 1 XY    0.000000   0.000000   0.000000   0.000000   0.000000
  130  AU 1 XZ    0.000000   0.000000   0.000000   0.000000   0.000000
  131  AU 1 YZ    0.000000   0.000000   0.000000   0.000000   0.000000
  132  AU 1 XX    0.000000   0.000000   0.000000   0.000000   0.000000
  133  AU 1 YY    0.000000   0.000000   0.000000   0.000000   0.000000
  134  AU 1 ZZ    0.000000   0.000000   0.000000   0.000000   0.000000
  135  AU 1 XY    0.000000   0.000000   0.000000   0.000000   0.000000
  136  AU 1 XZ    0.000000   0.000000   0.000000   0.000000   0.000000
  137  AU 1 YZ    0.000000   0.000000   0.000000   0.000000   0.000000
  138  AU 1 XX    0.000000   0.000000   0.000000   0.000000   0.000000
  139  AU 1 YY    0.000000   0.000000   0.000000   0.000000   0.000000
  140  AU 1 ZZ    0.000000   0.000000   0.000000   0.000000   0.000000
  141  AU 1 XY    0.000000   0.000000   0.000000   0.000000   0.000000
  142  AU 1 XZ    0.000000   0.000000   0.000000   0.000000   0.000000
  143  AU 1 YZ    0.000000   0.000000   0.000000   0.000000   0.000000
  144  AU 1 XX    0.000000   0.000000   0.000000   0.000000   0.000000
  145  AU 1 YY    0.000000   0.000000   0.000000   0.000000   0.000000
  146  AU 1 ZZ    0.000000   0.000000   0.000000   0.000000   0.000000
  147  AU 1 XY    0.000000   0.000000   0.000000   0.000000   0.000000
  148  AU 1 XZ    0.000000   0.000000   0.000000   0.000000   0.000000
  149  AU 1 YZ    0.000000   0.000000   0.000000   0.000000   0.000000
  150  AU 1 XX    0.000000   0.000000   0.000000   0.000000   0.000000
  151  AU 1 YY    0.000000   0.000000   0.000000   0.000000   0.000000
  152  AU 1 ZZ    0.000000   0.000000   0.000000   0.000000   0.000000
  153  AU 1 XY    0.000000   0.000000   0.000000   0.000000   0.000000
  154  AU 1 XZ    0.000000   0.000000   0.000000   0.000000   0.000000
  155  AU 1 YZ    0.000000   0.000000   0.000000   0.000000   0.000000
  156  AU 1 XX    0.000000   0.000000   0.000000   0.000000   0.000000
  157  AU 1 YY    0.000000   0.000000   0.000000   0.000000   0.000000
  158  AU 1 ZZ    0.000000   0.000000   0.000000   0.000000   0.000000
  159  AU 1 XY    0.000000   0.000000   0.000000   0.000000   0.000000
  160  AU 1 XZ    0.000000   0.000000   0.000000   0.000000   0.000000
  161  AU 1 YZ    0.000000   0.000000   0.000000   0.000000   0.000000
  162  AU 1 XX    0.000000   0.000000   0.000000   0.000000   0.000000
  163  AU 1 YY    0.000000   0.000000   0.000000   0.000000   0.000000
  164  AU 1 ZZ    0.000000   0.000000   0.000000   0.000000   0.000000
  165  AU 1 XY    0.000000   0.000000   0.000000   0.000000   0.000000
  166  AU 1 XZ    0.000000   0.000000   0.000000   0.000000   0.000000
  167  AU 1 YZ    0.000000   0.000000   0.000000   0.000000   0.000000
  168  AU 1 XX    0.000000   0.000000   0.000000   0.000000   0.000000
  169  AU 1 YY    0.000000   0.000000   0.000000   0.000000   0.000000
  170  AU 1 ZZ    0.000000   0.000000   0.000000   0.000000   0.000000
  171  AU 1 XY    0.000000   0.000000   0.000000   0.000000   0.000000
  172  AU 1 XZ    0.000000   0.000000   0.000000   0.000000   0.000000
  173  AU 1 YZ    0.000000   0.000000   0.000000   0.000000   0.000000
  174  AU 1 XX    0.000000   0.000000   0.000000   0.000000   0.000000
  175  AU 1 YY    0.000000   0.000000   0.000000   0.000000   0.000000
  176  AU 1 ZZ    0.000000   0.000000   0.000000   0.000000   0.000000
  177  AU 1 XY    0.000000   0.000000   0.000000   0.000000   0.000000
  178  AU 1 XZ    0.000000   0.000000   0.000000   0.000000   0.000000
  179  AU 1 YZ    0.000000   0.000000   0.000000   0.000000   0.000000
  180  AU 1 XX    0.000000   0.000000   0.000000   0.000000   0.000000
  181  AU 1 YY    0.000000   0.000000   0.000000   0.000000   0.000000
  182  AU 1 ZZ    0.000000   0.000000   0.000000   0.000000   0.000000
  183  AU 1 XY    0.000000   0.000000   0.000000   0.000000   0.000000
  184  AU 1 XZ    0.000000   0.000000   0.000000   0.000000   0.000000
  185  AU 1 YZ    0.000000   0.000000   0.000000   0.000000   0.000000
  186  AU 1 XX    0.000000   0.000000   0.000000   0.000000   0.000000
  187  AU 1 YY    0.000000   0.000000   0.000000   0.000000   0.000000
  188  AU 1 ZZ    0.000000   0.000000   0.000000   0.000000   0.000000
  189  AU 1 XY    0.000000   0.000000   0.000000   0.000000   0.000000
  190  AU 1 XZ    0.000000   0.000000   0.000000   0.000000   0.000000
  191  AU 1 YZ    0.000000   0.000000   0.000000   0.000000   0.000000
  192  AU 1 XX    0.000000   0.000000   0.000000   0.000000   0.000000
  193  AU 1 YY    0.000000   0.000000   0.000000   0.000000   0.000000
  194  AU 1 ZZ    0.000000   0.000000   0.000000   0.000000   0.000000
  195  AU 1 XY    0.000000   0.000000   0.000000   0.000000   0.000000
  196  AU 1 XZ    0.000000   0.000000   0.000000   0.000000   0.000000
  197  AU 1 YZ    0.000000   0.000000   0.000000   0.000000   0.000000
  198  AU 1 XX    0.000000   0.000000   0.000000   0.000000   0.000000
  199  AU 1 YY    0.000000   0.000000   0.000000   0.000000   0.000000
  200  AU 1 ZZ    0.000000   0.000000   0.000000   0.000000   0.000000
  201  AU 1 XY    0.000000   0.000000   0.000000   0.000000   0.000000
  202  AU 1 XZ    0.000000   0.000000   0.000000   0.000000   0.000000
  203  AU 1 YZ    0.000000   0.000000   0.000000   0.000000   0.000000
  204  AU 1 XX    0.000000   0.000000   0.000000   0.000000   0.000000
  205  AU 1 YY    0.000000   0.000000   0.000000   0.000000   0.000000
  206  AU 1 ZZ    0.000000   0.000000   0.000000   0.000000   0.000000
  207  AU 1 XY    0.000000   0.000000   0.000000   0.000000   0.000000
  208  AU 1 XZ    0.000000   0.000000   0.000000   0.000000   0.000000
  209  AU 1 YZ    0.000000   0.000000   0.000000   0.000000   0.000000
  210  AU 1 XX    0.000000   0.000000   0.000000   0.000000   0.000000
  211  AU 1 YY    0.000000   0.000000   0.000000   0.000000   0.000000
  212  AU 1 ZZ    0.000000   0.000000   0.000000   0.000000   0.000000
  213  AU 1 XY    0.000000   0.000000   0.000000   0.000000   0.000000
  214  AU 1 XZ    0.000000   0.000000   0.000000   0.000000   0.000000
  215  AU 1 YZ    0.000000   0.000000   0.000000   0.000000   0.000000
  216  AU 1 XX    0.000000   0.000000   0.000000   0.000000   0.000000
  217  AU 1 YY    0.000000   0.000000   0.000000   0.000000   0.000000
  218  AU 1 ZZ    0.000000   0.000000   0.000000   0.000000   0.000000
  219  AU 1 XY    0.000000   0.000000   0.000000   0.000000   0.000000
  220  AU 1 XZ    0.000000   0.000000   0.000000   0.000000   0.000000
  221  AU 1 YZ    0.000000   0.000000   0.000000   0.000000   0.000000
  222  AU 1 XX    0.000000   0.000000   0.000000   0.000000   0.000000
  223  AU 1 YY    0.000000   0.000000   0.000000   0.000000   0.000000
  224  AU 1 ZZ    0.000000   0.000000   0.000000   0.000000   0.000000
  225  AU 1 XY    0.000000   0.000000   0.000000   0.000000   0.000000
  226  AU 1 XZ    0.000000   0.000000   0.000000   0.000000   0.000000
  227  AU 1 YZ    0.000000   0.000000   0.000000   0.000000   0.000000
  228  AU 1 XX    0.000000   0.000000   0.000000   0.000000   0.000000
  229  AU 1 YY    0.000000   0.000000   0.000000   0.000000   0.000000
  230  AU 1 ZZ    0.000000   0.000000   0.000000   0.000000   0.000000
  231  AU 1 XY    0.000000   0.000000   0.000000   0.000000   0.000000
  232  AU 1 XZ    0.000000   0.000000   0.000000   0.000000   0.000000
  233  AU 1 YZ    0.000000   0.000000   0.000000   0.000000   0.000000
  234  AU 1 XX    0.000000   0.000000   0.000000   0.000000   0.000000
  235  AU 1 YY    0.000000   0.000000   0.000000   0.000000   0.000000
  236  AU 1 ZZ    0.000000   0.000000   0.000000   0.000000   0.000000
  237  AU 1 XY    0.000000   0.000000   0.000000   0.000000   0.000000
  238  AU 1 XZ    0.000000   0.000000   0.000000   0.000000   0.000000
  239  AU 1 YZ    0.000000   0.000000   0.000000   0.000000   0.000000
  240  AU 1 XXX   0.000000   0.000000   0.000000   0.000000   0.000000
  241  AU 1 YYY   0.000000   0.000000   0.000000   0.000000   0.000000
  242  AU 1 ZZZ   0.000000   0.000000   0.000000   0.000000   0.000000
  243  AU 1 XXY   0.000000   0.000000   0.000000   0.000000   0.000000
  244  AU 1 XXZ   0.000000   0.000000   0.000000   0.000000   0.000000
  245  AU 1 YYX   0.000000   0.000000   0.000000   0.000000   0.000000
  246  AU 1 YYZ   0.000000   0.000000   0.000000   0.000000   0.000000
  247  AU 1 ZZX   0.000000   0.000000   0.000000   0.000000   0.000000
  248  AU 1 ZZY   0.000000   0.000000   0.000000   0.000000   0.000000
  249  AU 1 XYZ   0.000000   0.000000   0.000000   0.000000   0.000000
  250  AU 1 XXX   0.000000   0.000000   0.000000   0.000000   0.000000
  251  AU 1 YYY   0.000000   0.000000   0.000000   0.000000   0.000000
  252  AU 1 ZZZ   0.000000   0.000000   0.000000   0.000000   0.000000
  253  AU 1 XXY   0.000000   0.000000   0.000000   0.000000   0.000000
  254  AU 1 XXZ   0.000000   0.000000   0.000000   0.000000   0.000000
  255  AU 1 YYX   0.000000   0.000000   0.000000   0.000000   0.000000
  256  AU 1 YYZ   0.000000   0.000000   0.000000   0.000000   0.000000
  257  AU 1 ZZX   0.000000   0.000000   0.000000   0.000000   0.000000
  258  AU 1 ZZY   0.000000   0.000000   0.000000   0.000000   0.000000
  259  AU 1 XYZ   0.000000   0.000000   0.000000   0.000000   0.000000
  260  AU 1 XXX   0.000000   0.000000   0.000000   0.000000   0.000000
  261  AU 1 YYY   0.000000   0.000000   0.000000   0.000000   0.000000
  262  AU 1 ZZZ   0.000000   0.000000   0.000000   0.000000   0.000000
  263  AU 1 XXY   0.000000   0.000000   0.000000   0.000000   0.000000
  264  AU 1 XXZ   0.000000   0.000000   0.000000   0.000000   0.000000
  265  AU 1 YYX   0.000000   0.000000   0.000000   0.000000   0.000000
  266  AU 1 YYZ   0.000000   0.000000   0.000000   0.000000   0.000000
  267  AU 1 ZZX   0.000000   0.000000   0.000000   0.000000   0.000000
  268  AU 1 ZZY   0.000000   0.000000   0.000000   0.000000   0.000000
  269  AU 1 XYZ   0.000000   0.000000   0.000000   0.000000   0.000000
  270  AU 1 XXX   0.000000   0.000000   0.000000   0.000000   0.000000
  271  AU 1 YYY   0.000000   0.000000   0.000000   0.000000   0.000000
  272  AU 1 ZZZ   0.000000   0.000000   0.000000   0.000000   0.000000
  273  AU 1 XXY   0.000000   0.000000   0.000000   0.000000   0.000000
  274  AU 1 XXZ   0.000000   0.000000   0.000000   0.000000   0.000000
  275  AU 1 YYX   0.000000   0.000000   0.000000   0.000000   0.000000
  276  AU 1 YYZ   0.000000   0.000000   0.000000   0.000000   0.000000
  277  AU 1 ZZX   0.000000   0.000000   0.000000   0.000000   0.000000
  278  AU 1 ZZY   0.000000   0.000000   0.000000   0.000000   0.000000
  279  AU 1 XYZ   0.000000   0.000000   0.000000   0.000000   0.000000
  280  AU 1 XXX   0.000000   0.000000   0.000000   0.000000   0.000000
  281  AU 1 YYY   0.000000   0.000000   0.000000   0.000000   0.000000
  282  AU 1 ZZZ   0.000000   0.000000   0.000000   0.000000   0.000000
  283  AU 1 XXY   0.000000   0.000000   0.000000   0.000000   0.000000
  284  AU 1 XXZ   0.000000   0.000000   0.000000   0.000000   0.000000
  285  AU 1 YYX   0.000000   0.000000   0.000000   0.000000   0.000000
  286  AU 1 YYZ   0.000000   0.000000   0.000000   0.000000   0.000000
  287  AU 1 ZZX   0.000000   0.000000   0.000000   0.000000   0.000000
  288  AU 1 ZZY   0.000000   0.000000   0.000000   0.000000   0.000000
  289  AU 1 XYZ   0.000000   0.000000   0.000000   0.000000   0.000000
  290  AU 1 XXX   0.000000   0.000000   0.000000   0.000000   0.000000
  291  AU 1 YYY   0.000000   0.000000   0.000000   0.000000   0.000000
  292  AU 1 ZZZ   0.000000   0.000000   0.000000   0.000000   0.000000
  293  AU 1 XXY   0.000000   0.000000   0.000000   0.000000   0.000000
  294  AU 1 XXZ   0.000000   0.000000   0.000000   0.000000   0.000000
  295  AU 1 YYX   0.000000   0.000000   0.000000   0.000000   0.000000
  296  AU 1 YYZ   0.000000   0.000000   0.000000   0.000000   0.000000
  297  AU 1 ZZX   0.000000   0.000000   0.000000   0.000000   0.000000
  298  AU 1 ZZY   0.000000   0.000000   0.000000   0.000000   0.000000
  299  AU 1 XYZ   0.000000   0.000000   0.000000   0.000000   0.000000
  300  AU 1 XXX   0.000000   0.000000   0.000000   0.000000   0.000000
  301  AU 1 YYY   0.000000   0.000000   0.000000   0.000000   0.000000
  302  AU 1 ZZZ   0.000000   0.000000   0.000000   0.000000   0.000000
  303  AU 1 XXY   0.000000   0.000000   0.000000   0.000000   0.000000
  304  AU 1 XXZ   0.000000   0.000000   0.000000   0.000000   0.000000
  305  AU 1 YYX   0.000000   0.000000   0.000000   0.000000   0.000000
  306  AU 1 YYZ   0.000000   0.000000   0.000000   0.000000   0.000000
  307  AU 1 ZZX   0.000000   0.000000   0.000000   0.000000   0.000000
  308  AU 1 ZZY   0.000000   0.000000   0.000000   0.000000   0.000000
  309  AU 1 XYZ   0.000000   0.000000   0.000000   0.000000   0.000000
  310  AU 1 XXX   0.000000   0.000000   0.000000   0.000000   0.000000
  311  AU 1 YYY   0.000000   0.000000   0.000000   0.000000   0.000000
  312  AU 1 ZZZ   0.000000   0.000000   0.000000   0.000000   0.000000
  313  AU 1 XXY   0.000000   0.000000   0.000000   0.000000   0.000000
  314  AU 1 XXZ   0.000000   0.000000   0.000000   0.000000   0.000000
  315  AU 1 YYX   0.000000   0.000000   0.000000   0.000000   0.000000
  316  AU 1 YYZ   0.000000   0.000000   0.000000   0.000000   0.000000
  317  AU 1 ZZX   0.000000   0.000000   0.000000   0.000000   0.000000
  318  AU 1 ZZY   0.000000   0.000000   0.000000   0.000000   0.000000
  319  AU 1 XYZ   0.000000   0.000000   0.000000   0.000000   0.000000
  320  AU 1 XXX   0.000000   0.000000   0.000000   0.000000   0.000000
  321  AU 1 YYY   0.000000   0.000000   0.000000   0.000000   0.000000
  322  AU 1 ZZZ   0.000000   0.000000   0.000000   0.000000   0.000000
  323  AU 1 XXY   0.000000   0.000000   0.000000   0.000000   0.000000
  324  AU 1 XXZ   0.000000   0.000000   0.000000   0.000000   0.000000
  325  AU 1 YYX   0.000000   0.000000   0.000000   0.000000   0.000000
  326  AU 1 YYZ   0.000000   0.000000   0.000000   0.000000   0.000000
  327  AU 1 ZZX   0.000000   0.000000   0.000000   0.000000   0.000000
  328  AU 1 ZZY   0.000000   0.000000   0.000000   0.000000   0.000000
  329  AU 1 XYZ   0.000000   0.000000   0.000000   0.000000   0.000000
  330  AU 1 XXX   0.000000   0.000000   0.000000   0.000000   0.000000
  331  AU 1 YYY   0.000000   0.000000   0.000000   0.000000   0.000000
  332  AU 1 ZZZ   0.000000   0.000000   0.000000   0.000000   0.000000
  333  AU 1 XXY   0.000000   0.000000   0.000000   0.000000   0.000000
  334  AU 1 XXZ   0.000000   0.000000   0.000000   0.000000   0.000000
  335  AU 1 YYX   0.000000   0.000000   0.000000   0.000000   0.000000
  336  AU 1 YYZ   0.000000   0.000000   0.000000   0.000000   0.000000
  337  AU 1 ZZX   0.000000   0.000000   0.000000   0.000000   0.000000
  338  AU 1 ZZY   0.000000   0.000000   0.000000   0.000000   0.000000
  339  AU 1 XYZ   0.000000   0.000000   0.000000   0.000000   0.000000
  340  AU 1 XXX   0.000000   0.000000   0.000000   0.000000   0.000000
  341  AU 1 YYY   0.000000   0.000000   0.000000   0.000000   0.000000
  342  AU 1 ZZZ   0.000000   0.000000   0.000000   0.000000   0.000000
  343  AU 1 XXY   0.000000   0.000000   0.000000   0.000000   0.000000
  344  AU 1 XXZ   0.000000   0.000000   0.000000   0.000000   0.000000
  345  AU 1 YYX   0.000000   0.000000   0.000000   0.000000   0.000000
  346  AU 1 YYZ   0.000000   0.000000   0.000000   0.000000   0.000000
  347  AU 1 ZZX   0.000000   0.000000   0.000000   0.000000   0.000000
  348  AU 1 ZZY   0.000000   0.000000   0.000000   0.000000   0.000000
  349  AU 1 XYZ   0.000000   0.000000   0.000000   0.000000   0.000000
  350  AU 1 XXX   0.000000   0.000000   0.000000   0.000000   0.000000
  351  AU 1 YYY   0.000000   0.000000   0.000000   0.000000   0.000000
  352  AU 1 ZZZ   0.000000   0.000000   0.000000   0.000000   0.000000
  353  AU 1 XXY   0.000000   0.000000   0.000000   0.000000   0.000000
  354  AU 1 XXZ   0.000000   0.000000   0.000000   0.000000   0.000000
  355  AU 1 YYX   0.000000   0.000000   0.000000   0.000000   0.000000
  356  AU 1 YYZ   0.000000   0.000000   0.000000   0.000000   0.000000
  357  AU 1 ZZX   0.000000   0.000000   0.000000   0.000000   0.000000
  358  AU 1 ZZY   0.000000   0.000000   0.000000   0.000000   0.000000
  359  AU 1 XYZ   0.000000   0.000000   0.000000   0.000000   0.000000
  360  AU 1 XXX   0.000000   0.000000   0.000000   0.000000   0.000000
  361  AU 1 YYY   0.000000   0.000000   0.000000   0.000000   0.000000
  362  AU 1 ZZZ   0.000000   0.000000   0.000000   0.000000   0.000000
  363  AU 1 XXY   0.000000   0.000000   0.000000   0.000000   0.000000
  364  AU 1 XXZ   0.000000   0.000000   0.000000   0.000000   0.000000
  365  AU 1 YYX   0.000000   0.000000   0.000000   0.000000   0.000000
  366  AU 1 YYZ   0.000000   0.000000   0.000000   0.000000   0.000000
  367  AU 1 ZZX   0.000000   0.000000   0.000000   0.000000   0.000000
  368  AU 1 ZZY   0.000000   0.000000   0.000000   0.000000   0.000000
  369  AU 1 XYZ   0.000000   0.000000   0.000000   0.000000   0.000000
  370  AU 1 XXX   0.000000   0.000000   0.000000   0.000000   0.000000
  371  AU 1 YYY   0.000000   0.000000   0.000000   0.000000   0.000000
  372  AU 1 ZZZ   0.000000   0.000000   0.000000   0.000000   0.000000
  373  AU 1 XXY   0.000000   0.000000   0.000000   0.000000   0.000000
  374  AU 1 XXZ   0.000000   0.000000   0.000000   0.000000   0.000000
  375  AU 1 YYX   0.000000   0.000000   0.000000   0.000000   0.000000
  376  AU 1 YYZ   0.000000   0.000000   0.000000   0.000000   0.000000
  377  AU 1 ZZX   0.000000   0.000000   0.000000   0.000000   0.000000
  378  AU 1 ZZY   0.000000   0.000000   0.000000   0.000000   0.000000
  379  AU 1 XYZ   0.000000   0.000000   0.000000   0.000000   0.000000
  380  AU 1 XXX   0.000000   0.000000   0.000000   0.000000   0.000000
  381  AU 1 YYY   0.000000   0.000000   0.000000   0.000000   0.000000
  382  AU 1 ZZZ   0.000000   0.000000   0.000000   0.000000   0.000000
  383  AU 1 XXY   0.000000   0.000000   0.000000   0.000000   0.000000
  384  AU 1 XXZ   0.000000   0.000000   0.000000   0.000000   0.000000
  385  AU 1 YYX   0.000000   0.000000   0.000000   0.000000   0.000000
  386  AU 1 YYZ   0.000000   0.000000   0.000000   0.000000   0.000000
  387  AU 1 ZZX   0.000000   0.000000   0.000000   0.000000   0.000000
  388  AU 1 ZZY   0.000000   0.000000   0.000000   0.000000   0.000000
  389  AU 1 XYZ   0.000000   0.000000   0.000000   0.000000   0.000000

                      6          7          8          9         10
                 -128.0948  -107.2280  -107.2280  -107.2280   -84.0165
                     AG         B2U        B1U        B3U        AG  
    1  AU 1  S    0.000091   0.000000   0.000000   0.000000   0.000000
    2  AU 1  X    0.000000   0.000000   0.000000   0.000048   0.000000
    3  AU 1  Y    0.000000   0.000048   0.000000   0.000000   0.000000
    4  AU 1  Z    0.000000   0.000000   0.000048   0.000000   0.000000
    5  AU 1  S   -0.000353   0.000000   0.000000   0.000000   0.000000
    6  AU 1  X    0.000000   0.000000   0.000000  -0.000167   0.000000
    7  AU 1  Y    0.000000  -0.000167   0.000000   0.000000   0.000000
    8  AU 1  Z    0.000000   0.000000  -0.000167   0.000000   0.000000
    9  AU 1  S    0.000786   0.000000   0.000000   0.000000   0.000000
   10  AU 1  X    0.000000   0.000000   0.000000   0.000354   0.000000
   11  AU 1  Y    0.000000   0.000354   0.000000   0.000000   0.000000
   12  AU 1  Z    0.000000   0.000000   0.000354   0.000000   0.000000
   13  AU 1  S   -0.001378   0.000000   0.000000   0.000000   0.000000
   14  AU 1  X    0.000000   0.000000   0.000000  -0.000611   0.000000
   15  AU 1  Y    0.000000  -0.000611   0.000000   0.000000   0.000000
   16  AU 1  Z    0.000000   0.000000  -0.000611   0.000000   0.000000
   17  AU 1  S    0.002139   0.000000   0.000000   0.000000   0.000000
   18  AU 1  X    0.000000   0.000000   0.000000   0.000950   0.000000
   19  AU 1  Y    0.000000   0.000950   0.000000   0.000000   0.000000
   20  AU 1  Z    0.000000   0.000000   0.000950   0.000000   0.000000
   21  AU 1  S   -0.003132   0.000000   0.000000   0.000000   0.000000
   22  AU 1  X    0.000000   0.000000   0.000000  -0.001439   0.000000
   23  AU 1  Y    0.000000  -0.001439   0.000000   0.000000   0.000000
   24  AU 1  Z    0.000000   0.000000  -0.001439   0.000000   0.000000
   25  AU 1  S    0.003995   0.000000   0.000000   0.000000   0.000000
   26  AU 1  X    0.000000   0.000000   0.000000   0.001919   0.000000
   27  AU 1  Y    0.000000   0.001919   0.000000   0.000000   0.000000
   28  AU 1  Z    0.000000   0.000000   0.001919   0.000000   0.000000
   29  AU 1  S   -0.004357   0.000000   0.000000   0.000000   0.000000
   30  AU 1  X    0.000000   0.000000   0.000000  -0.002283   0.000000
[...]
             45  AU 1  S      0.42658     0.22686
             46  AU 1  X      0.84794     0.28336
             47  AU 1  Y      0.84794     0.28336
             48  AU 1  Z      0.84794     0.28336
             49  AU 1  S      0.94898     0.24561
             50  AU 1  X      0.41873     0.20873
             51  AU 1  Y      0.41873     0.20873
             52  AU 1  Z      0.41873     0.20873
             53  AU 1  S      0.84749     0.24842
             54  AU 1  X      0.76222     0.31009
             55  AU 1  Y      0.76222     0.31009
             56  AU 1  Z      0.76222     0.31009
             57  AU 1  S      0.18361     0.16611
             58  AU 1  X      0.55632     0.39943
             59  AU 1  Y      0.55632     0.39943
             60  AU 1  Z      0.55632     0.39943
             61  AU 1  S      0.40667     0.16539
             62  AU 1  X      0.22351     0.29428
             63  AU 1  Y      0.22351     0.29428
             64  AU 1  Z      0.22351     0.29428
             65  AU 1  S      0.56460     0.20744
             66  AU 1  X      0.06539     0.10638
             67  AU 1  Y      0.06539     0.10638
             68  AU 1  Z      0.06539     0.10638
             69  AU 1  S      0.42892     0.20578
             70  AU 1  X      0.01624     0.02611
             71  AU 1  Y      0.01624     0.02611
             72  AU 1  Z      0.01624     0.02611
             73  AU 1  S      0.24294     0.16920
             74  AU 1  X      0.00383     0.00571
             75  AU 1  Y      0.00383     0.00571
             76  AU 1  Z      0.00383     0.00571
             77  AU 1  S      0.12009     0.13210
             78  AU 1  X      0.00087     0.00124
             79  AU 1  Y      0.00087     0.00124
             80  AU 1  Z      0.00087     0.00124
             81  AU 1  S      0.05403     0.08650
             82  AU 1  X      0.00021     0.00027
             83  AU 1  Y      0.00021     0.00027
             84  AU 1  Z      0.00021     0.00027
             85  AU 1  S      0.02413     0.04007
             86  AU 1  X      0.00005     0.00006
             87  AU 1  Y      0.00005     0.00006
             88  AU 1  Z      0.00005     0.00006
             89  AU 1  S      0.00980     0.01547
             90  AU 1  X      0.00001     0.00001
             91  AU 1  Y      0.00001     0.00001
             92  AU 1  Z      0.00001     0.00001
             93  AU 1  S      0.00449     0.00587
             94  AU 1  X      0.00000     0.00000
             95  AU 1  Y      0.00000     0.00000
             96  AU 1  Z      0.00000     0.00000
             97  AU 1  S      0.00155     0.00229
             98  AU 1  X      0.00000     0.00000
             99  AU 1  Y      0.00000     0.00000
            100  AU 1  Z      0.00000     0.00000
            101  AU 1  S      0.00088     0.00090
            102  AU 1  X      0.00000     0.00000
            103  AU 1  Y      0.00000     0.00000
            104  AU 1  Z      0.00000     0.00000
            105  AU 1  S      0.00017     0.00036
            106  AU 1  X      0.00000     0.00000
            107  AU 1  Y      0.00000     0.00000
            108  AU 1  Z      0.00000     0.00000
            109  AU 1  S      0.00021     0.00014
            110  AU 1  X      0.00000     0.00000
            111  AU 1  Y      0.00000     0.00000
            112  AU 1  Z      0.00000     0.00000
            113  AU 1  S     -0.00002     0.00006
            114  AU 1  X      0.00000     0.00000
            115  AU 1  Y      0.00000     0.00000
            116  AU 1  Z      0.00000     0.00000
            117  AU 1  S      0.00007     0.00002
            118  AU 1  S     -0.00002     0.00001
            119  AU 1  S      0.00001     0.00000
            120  AU 1 XX      0.00004     0.00216
            121  AU 1 YY      0.00004     0.00216
            122  AU 1 ZZ      0.00004     0.00216
            123  AU 1 XY      0.00004     0.00051
            124  AU 1 XZ      0.00004     0.00051
            125  AU 1 YZ      0.00000     0.00051
            126  AU 1 XX      0.00113     0.01972
            127  AU 1 YY      0.00113     0.01972
            128  AU 1 ZZ      0.00113     0.01972
            129  AU 1 XY      0.00113     0.00647
            130  AU 1 XZ      0.00113     0.00647
            131  AU 1 YZ      0.00000     0.00647
            132  AU 1 XX      0.03579     0.08948
            133  AU 1 YY      0.03579     0.08948
            134  AU 1 ZZ      0.03579     0.08948
            135  AU 1 XY      0.03579     0.05083
            136  AU 1 XZ      0.03579     0.05083
            137  AU 1 YZ      0.00000     0.05083
            138  AU 1 XX      0.19918     0.22746
            139  AU 1 YY      0.19918     0.22746
            140  AU 1 ZZ      0.19918     0.22746
            141  AU 1 XY      0.19918     0.21825
            142  AU 1 XZ      0.19918     0.21825
            143  AU 1 YZ      0.00000     0.21825
            144  AU 1 XX      0.51839     0.40241
            145  AU 1 YY      0.51839     0.40241
            146  AU 1 ZZ      0.51839     0.40241
            147  AU 1 XY      0.51839     0.52236
            148  AU 1 XZ      0.51839     0.52236
            149  AU 1 YZ      0.00000     0.52236
            150  AU 1 XX      0.71244     0.53666
            151  AU 1 YY      0.71244     0.53666
            152  AU 1 ZZ      0.71244     0.53666
            153  AU 1 XY      0.71244     0.68646
            154  AU 1 XZ      0.71244     0.68646
            155  AU 1 YZ      0.00000     0.68646
            156  AU 1 XX      0.47409     0.52354
            157  AU 1 YY      0.47409     0.52354
            158  AU 1 ZZ      0.47409     0.52354
            159  AU 1 XY      0.47409     0.46639
            160  AU 1 XZ      0.47409     0.46639
            161  AU 1 YZ      0.00000     0.46639
            162  AU 1 XX      0.36260     0.44973
            163  AU 1 YY      0.36260     0.44973
            164  AU 1 ZZ      0.36260     0.44973
            165  AU 1 XY      0.36260     0.43891
            166  AU 1 XZ      0.36260     0.43891
            167  AU 1 YZ      0.00000     0.43891
            168  AU 1 XX      0.95803     0.76046
            169  AU 1 YY      0.95803     0.76046
            170  AU 1 ZZ      0.95803     0.76046
            171  AU 1 XY      0.95803     0.86317
            172  AU 1 XZ      0.95803     0.86317
            173  AU 1 YZ      0.00000     0.86317
            174  AU 1 XX      0.68692     0.69088
            175  AU 1 YY      0.68692     0.69088
            176  AU 1 ZZ      0.68692     0.69088
            177  AU 1 XY      0.68692     0.67199
            178  AU 1 XZ      0.68692     0.67199
            179  AU 1 YZ      0.00000     0.67199
            180  AU 1 XX      0.52140     0.50210
            181  AU 1 YY      0.52140     0.50210
            182  AU 1 ZZ      0.52140     0.50210
            183  AU 1 XY      0.52140     0.52360
            184  AU 1 XZ      0.52140     0.52360
            185  AU 1 YZ      0.00000     0.52360
            186  AU 1 XX      0.85021     0.76862
            187  AU 1 YY      0.85021     0.76862
            188  AU 1 ZZ      0.85021     0.76862
            189  AU 1 XY      0.85021     0.77511
            190  AU 1 XZ      0.85021     0.77511
            191  AU 1 YZ      0.00000     0.77511
            192  AU 1 XX      0.50471     0.48847
            193  AU 1 YY      0.50471     0.48847
            194  AU 1 ZZ      0.50471     0.48847
            195  AU 1 XY      0.50471     0.54319
            196  AU 1 XZ      0.50471     0.54319
            197  AU 1 YZ      0.00000     0.54319
            198  AU 1 XX      0.14555     0.28603
            199  AU 1 YY      0.14555     0.28603
            200  AU 1 ZZ      0.14555     0.28603
            201  AU 1 XY      0.14555     0.18720
            202  AU 1 XZ      0.14555     0.18720
            203  AU 1 YZ      0.00000     0.18720
            204  AU 1 XX      0.02560     0.19236
            205  AU 1 YY      0.02560     0.19236
            206  AU 1 ZZ      0.02560     0.19236
            207  AU 1 XY      0.02560     0.03902
            208  AU 1 XZ      0.02560     0.03902
            209  AU 1 YZ      0.00000     0.03902
            210  AU 1 XX      0.00349     0.08046
            211  AU 1 YY      0.00349     0.08046
            212  AU 1 ZZ      0.00349     0.08046
            213  AU 1 XY      0.00349     0.00577
            214  AU 1 XZ      0.00349     0.00577
            215  AU 1 YZ      0.00000     0.00577
            216  AU 1 XX      0.00037     0.06348
            217  AU 1 YY      0.00037     0.06348
            218  AU 1 ZZ      0.00037     0.06348
            219  AU 1 XY      0.00037     0.00068
            220  AU 1 XZ      0.00037     0.00068
            221  AU 1 YZ      0.00000     0.00068
            222  AU 1 XX      0.00005     0.08704
            223  AU 1 YY      0.00005     0.08704
            224  AU 1 ZZ      0.00005     0.08704
            225  AU 1 XY      0.00005     0.00007
            226  AU 1 XZ      0.00005     0.00007
            227  AU 1 YZ      0.00000     0.00007
            228  AU 1 XX      0.00000     0.08365
            229  AU 1 YY      0.00000     0.08365
            230  AU 1 ZZ      0.00000     0.08365
            231  AU 1 XY      0.00000     0.00001
            232  AU 1 XZ      0.00000     0.00001
            233  AU 1 YZ      0.00000     0.00001
            234  AU 1 XX      0.00000     0.07026
            235  AU 1 YY      0.00000     0.07026
            236  AU 1 ZZ      0.00000     0.07026
            237  AU 1 XY      0.00000     0.00000
            238  AU 1 XZ      0.00000     0.00000
            239  AU 1 YZ      0.00000     0.00000
            240  AU 1 XXX     0.00000     0.00000
            241  AU 1 YYY     0.00000     0.00000
            242  AU 1 ZZZ     0.00000     0.00000
            243  AU 1 XXY     0.00000     0.00000
            244  AU 1 XXZ     0.00000     0.00000
            245  AU 1 YYX     0.00000     0.00000
            246  AU 1 YYZ     0.00000     0.00000
            247  AU 1 ZZX     0.00000     0.00000
            248  AU 1 ZZY     0.00000     0.00000
            249  AU 1 XYZ     0.00000     0.00000
            250  AU 1 XXX     0.00000     0.00000
            251  AU 1 YYY     0.00000     0.00000
            252  AU 1 ZZZ     0.00000     0.00000
            253  AU 1 XXY     0.00000     0.00000
            254  AU 1 XXZ     0.00000     0.00000
            255  AU 1 YYX     0.00000     0.00000
            256  AU 1 YYZ     0.00000     0.00000
            257  AU 1 ZZX     0.00000     0.00000
            258  AU 1 ZZY     0.00000     0.00000
            259  AU 1 XYZ     0.00000     0.00000
            260  AU 1 XXX     0.00000     0.00000
            261  AU 1 YYY     0.00000     0.00000
            262  AU 1 ZZZ     0.00000     0.00000
            263  AU 1 XXY     0.00000     0.00000
            264  AU 1 XXZ     0.00000     0.00000
            265  AU 1 YYX     0.00000     0.00000
            266  AU 1 YYZ     0.00000     0.00000
            267  AU 1 ZZX     0.00000     0.00000
            268  AU 1 ZZY     0.00000     0.00000
            269  AU 1 XYZ     0.00000     0.00000
            270  AU 1 XXX     0.00002     0.00061
            271  AU 1 YYY     0.00002     0.00061
            272  AU 1 ZZZ     0.00002     0.00061
            273  AU 1 XXY     0.00002     0.00033
            274  AU 1 XXZ     0.00002     0.00033
            275  AU 1 YYX     0.00002     0.00033
            276  AU 1 YYZ     0.00002     0.00033
            277  AU 1 ZZX     0.00000     0.00033
            278  AU 1 ZZY     0.00000     0.00033
            279  AU 1 XYZ     0.00000     0.00005
            280  AU 1 XXX     0.00023     0.01688
            281  AU 1 YYY     0.00023     0.01688
            282  AU 1 ZZZ     0.00023     0.01688
            283  AU 1 XXY     0.00023     0.00786
            284  AU 1 XXZ     0.00023     0.00786
            285  AU 1 YYX     0.00023     0.00786
            286  AU 1 YYZ     0.00023     0.00786
            287  AU 1 ZZX     0.00000     0.00786
            288  AU 1 ZZY     0.00000     0.00786
            289  AU 1 XYZ     0.00000     0.00096
            290  AU 1 XXX     0.00756     0.13258
            291  AU 1 YYY     0.00756     0.13258
            292  AU 1 ZZZ     0.00756     0.13258
            293  AU 1 XXY     0.00756     0.06353
            294  AU 1 XXZ     0.00756     0.06353
            295  AU 1 YYX     0.00756     0.06353
            296  AU 1 YYZ     0.00756     0.06353
            297  AU 1 ZZX     0.00000     0.06353
            298  AU 1 ZZY     0.00000     0.06353
            299  AU 1 XYZ     0.00000     0.01304
            300  AU 1 XXX     0.07814     0.34859
            301  AU 1 YYY     0.07814     0.34859
            302  AU 1 ZZZ     0.07814     0.34859
            303  AU 1 XXY     0.07814     0.20485
            304  AU 1 XXZ     0.07814     0.20485
            305  AU 1 YYX     0.07814     0.20485
            306  AU 1 YYZ     0.07814     0.20485
            307  AU 1 ZZX     0.00000     0.20485
            308  AU 1 ZZY     0.00000     0.20485
            309  AU 1 XYZ     0.00000     0.09448
            310  AU 1 XXX     0.34210     0.35466
            311  AU 1 YYY     0.34210     0.35466
            312  AU 1 ZZZ     0.34210     0.35466
            313  AU 1 XXY     0.34210     0.36897
            314  AU 1 XXZ     0.34210     0.36897
            315  AU 1 YYX     0.34210     0.36897
            316  AU 1 YYZ     0.34210     0.36897
            317  AU 1 ZZX     0.00000     0.36897
            318  AU 1 ZZY     0.00000     0.36897
            319  AU 1 XYZ     0.00000     0.34285
            320  AU 1 XXX     0.64758     0.48043
            321  AU 1 YYY     0.64758     0.48043
            322  AU 1 ZZZ     0.64758     0.48043
            323  AU 1 XXY     0.64758     0.59710
            324  AU 1 XXZ     0.64758     0.59710
            325  AU 1 YYX     0.64758     0.59710
            326  AU 1 YYZ     0.64758     0.59710
            327  AU 1 ZZX     0.00000     0.59710
            328  AU 1 ZZY     0.00000     0.59710
            329  AU 1 XYZ     0.00000     0.61730
            330  AU 1 XXX     0.58715     0.59174
            331  AU 1 YYY     0.58715     0.59174
            332  AU 1 ZZZ     0.58715     0.59174
            333  AU 1 XXY     0.58715     0.61037
            334  AU 1 XXZ     0.58715     0.61037
            335  AU 1 YYX     0.58715     0.61037
            336  AU 1 YYZ     0.58715     0.61037
            337  AU 1 ZZX     0.00000     0.61037
            338  AU 1 ZZY     0.00000     0.61037
            339  AU 1 XYZ     0.00000     0.56849
            340  AU 1 XXX     0.26708     0.31165
            341  AU 1 YYY     0.26708     0.31165
            342  AU 1 ZZZ     0.26708     0.31165
            343  AU 1 XXY     0.26708     0.30868
            344  AU 1 XXZ     0.26708     0.30868
            345  AU 1 YYX     0.26708     0.30868
            346  AU 1 YYZ     0.26708     0.30868
            347  AU 1 ZZX     0.00000     0.30868
            348  AU 1 ZZY     0.00000     0.30868
            349  AU 1 XYZ     0.00000     0.27644
            350  AU 1 XXX     0.06086     0.37232
            351  AU 1 YYY     0.06086     0.37232
            352  AU 1 ZZZ     0.06086     0.37232
            353  AU 1 XXY     0.06086     0.20036
            354  AU 1 XXZ     0.06086     0.20036
            355  AU 1 YYX     0.06086     0.20036
            356  AU 1 YYZ     0.06086     0.20036
            357  AU 1 ZZX     0.00000     0.20036
            358  AU 1 ZZY     0.00000     0.20036
            359  AU 1 XYZ     0.00000     0.07350
            360  AU 1 XXX     0.00854     0.24340
            361  AU 1 YYY     0.00854     0.24340
            362  AU 1 ZZZ     0.00854     0.24340
            363  AU 1 XXY     0.00854     0.10746
            364  AU 1 XXZ     0.00854     0.10746
            365  AU 1 YYX     0.00854     0.10746
            366  AU 1 YYZ     0.00854     0.10746
            367  AU 1 ZZX     0.00000     0.10746
            368  AU 1 ZZY     0.00000     0.10746
            369  AU 1 XYZ     0.00000     0.01160
            370  AU 1 XXX     0.00068     0.15190
            371  AU 1 YYY     0.00068     0.15190
            372  AU 1 ZZZ     0.00068     0.15190
            373  AU 1 XXY     0.00068     0.06407
            374  AU 1 XXZ     0.00068     0.06407
            375  AU 1 YYX     0.00068     0.06407
            376  AU 1 YYZ     0.00068     0.06407
            377  AU 1 ZZX     0.00000     0.06407
            378  AU 1 ZZY     0.00000     0.06407
            379  AU 1 XYZ     0.00000     0.00119
            380  AU 1 XXX     0.00007     0.25446
            381  AU 1 YYY     0.00007     0.25446
            382  AU 1 ZZZ     0.00007     0.25446
            383  AU 1 XXY     0.00007     0.11072
            384  AU 1 XXZ     0.00007     0.11072
            385  AU 1 YYX     0.00007     0.11072
            386  AU 1 YYZ     0.00007     0.11072
            387  AU 1 ZZX     0.00000     0.11072
            388  AU 1 ZZY     0.00000     0.11072
            389  AU 1 XYZ     0.00000     0.00009

          ----- MULLIKEN ATOMIC OVERLAP POPULATIONS -----
          (OFF-DIAGONAL ELEMENTS NEED TO BE MULTIPLIED BY 2)

             1

    1   79.0000000

          TOTAL MULLIKEN AND LOWDIN ATOMIC POPULATIONS
       ATOM         MULL.POP.    CHARGE          LOW.POP.     CHARGE
    1 AU           79.000000    0.000000        79.000000    0.000000

          MULLIKEN SPHERICAL HARMONIC POPULATIONS
       ATOM           S       P       D      F      G      H      I    TOTAL
    1 AU           11.00   24.00   30.00  14.00   0.00   0.00   0.00   79.00

          -------------------------------
          BOND ORDER AND VALENCE ANALYSIS     BOND ORDER THRESHOLD=0.050
          -------------------------------

                   BOND                       BOND                       BOND
  ATOM PAIR DIST  ORDER      ATOM PAIR DIST  ORDER      ATOM PAIR DIST  ORDER

                       TOTAL       BONDED        FREE
      ATOM            VALENCE     VALENCE     VALENCE
    1 AU                1.000       0.000       1.000

          -----------------------------------------
          ATOMIC SPIN DENSITY AT THE NUCLEUS (A.U.)
          -----------------------------------------
                            SPIN DENS    ALPHA DENS     BETA DENS
    1  AU          79.0   485.8277225 4841397.97475 4840912.14703

          ---------------------
          ELECTROSTATIC MOMENTS
          ---------------------

 POINT   1           X           Y           Z (BOHR)    CHARGE
                 0.000000    0.000000    0.000000        0.00 (A.U.)
         DX          DY          DZ         /D/  (DEBYE)
     0.000000    0.000000    0.000000    0.000000
 ...... END OF PROPERTY EVALUATION ......
 STEP CPU TIME =     1.16 TOTAL CPU TIME =      169.3 (    2.8 MIN)
 TOTAL WALL CLOCK TIME=      177.4 SECONDS, CPU UTILIZATION IS  95.41%
               3643767  WORDS OF DYNAMIC MEMORY USED
 EXECUTION OF GAMESS TERMINATED NORMALLY Fri Dec  2 16:54:52 2016
 DDI: 263640 bytes (0.3 MB / 0 MWords) used by master data server.

 ----------------------------------------
 CPU timing information for all processes
 ========================================
 0: 148.722 + 20.574 = 169.297
 ----------------------------------------
 ddikick.x: exited gracefully.
unset echo
----- accounting info -----
Files used on the master node cu.msg.chem.iastate.edu were:
-rw-r--r-- 1 sarom gordon       4078 Dec  2 16:51 /scr/sarom/relwfn_au-dk.F05
-rw-r--r-- 1 sarom gordon 3452150128 Dec  2 16:53 /scr/sarom/relwfn_au-dk.F08
-rw-r--r-- 1 sarom gordon   22053280 Dec  2 16:54 /scr/sarom/relwfn_au-dk.F10
ls: No match.
ls: No match.
ls: No match.
Fri Dec  2 16:54:59 CST 2016
0.098u 0.975s 3:09.26 0.5%	0+0k 1888+200io 34pf+0w
