----- GAMESS execution script 'rungms' -----
This job is running on host compute-3-0
under operating system Linux at Mon Nov 28 22:36:58 CST 2016
Available scratch disk space (Kbyte units) at beginning of the job is
Filesystem            1K-blocks       Used  Available Use% Mounted on
bolt.local:/export/home/sarom
                     9590469632 1553129472 7550172160  18% /home/sarom
Copying input file au-resc.inp to your run's scratch directory...
cp au-resc.inp .//au-resc.F05
unset echo
/home/sarom/gamessGH/ddikick.x /home/sarom/gamessGH/gamess.00.x au-resc -ddi 1 1 localhost -scr ./

 Distributed Data Interface kickoff program.
 Initiating 1 compute processes on 1 nodes to run the following command:
 /home/sarom/gamessGH/gamess.00.x au-resc 

          ******************************************************
          *         GAMESS VERSION = 18 AUG 2016 (R1)          *
          *             FROM IOWA STATE UNIVERSITY             *
          * M.W.SCHMIDT, K.K.BALDRIDGE, J.A.BOATZ, S.T.ELBERT, *
          *   M.S.GORDON, J.H.JENSEN, S.KOSEKI, N.MATSUNAGA,   *
          *          K.A.NGUYEN, S.J.SU, T.L.WINDUS,           *
          *       TOGETHER WITH M.DUPUIS, J.A.MONTGOMERY       *
          *         J.COMPUT.CHEM.  14, 1347-1363(1993)        *
          **************** 64 BIT LINUX VERSION ****************

  SINCE 1993, STUDENTS AND POSTDOCS WORKING AT IOWA STATE UNIVERSITY
  AND ALSO IN THEIR VARIOUS JOBS AFTER LEAVING ISU HAVE MADE IMPORTANT
  CONTRIBUTIONS TO THE CODE:
     IVANA ADAMOVIC, CHRISTINE AIKENS, YURI ALEXEEV, POOJA ARORA,
     ANDREY ASADCHEV, ROB BELL, PRADIPTA BANDYOPADHYAY, JONATHAN BENTZ,
     BRETT BODE, KURT BRORSEN, CALEB CARLIN, GALINA CHABAN, WEI CHEN,
     CHEOL HO CHOI, PAUL DAY, ALBERT DEFUSCO, NUWAN DESILVA, TIM DUDLEY,
     DMITRI FEDOROV, GRAHAM FLETCHER, MARK FREITAG, KURT GLAESEMANN,
     DAN KEMP, GRANT MERRILL, NORIYUKI MINEZAWA, JONATHAN MULLIN,
     TAKESHI NAGATA, SEAN NEDD, HEATHER NETZLOFF, BOSILJKA NJEGIC, RYAN OLSON,
     MIKE PAK, SPENCER PRUITT, LUKE ROSKOP, JIM SHOEMAKER, LYUDMILA SLIPCHENKO,
     TONY SMITH, SAROM SOK LEANG, JIE SONG, TETSUYA TAKETSUGU, SIMON WEBB,
     PENG XU, SOOHAENG YOO, FEDERICO ZAHARIEV

  ADDITIONAL CODE HAS BEEN PROVIDED BY COLLABORATORS IN OTHER GROUPS:
     IOWA STATE UNIVERSITY:
          JOE IVANIC, AARON WEST, LAIMUTIS BYTAUTAS, KLAUS RUEDENBERG
     UNIVERSITY OF TOKYO: KIMIHIKO HIRAO, TAKAHITO NAKAJIMA,
          TAKAO TSUNEDA, MUNEAKI KAMIYA, SUSUMU YANAGISAWA,
          KIYOSHI YAGI, MAHITO CHIBA, SEIKEN TOKURA, NAOAKI KAWAKAMI
     UNIVERSITY OF AARHUS: FRANK JENSEN
     UNIVERSITY OF IOWA: VISVALDAS KAIRYS, HUI LI
     NATIONAL INST. OF STANDARDS AND TECHNOLOGY: WALT STEVENS, DAVID GARMER
     UNIVERSITY OF PISA: BENEDETTA MENNUCCI, JACOPO TOMASI
     UNIVERSITY OF MEMPHIS: HENRY KURTZ, PRAKASHAN KORAMBATH
     UNIVERSITY OF ALBERTA: TOBY ZENG, MARIUSZ KLOBUKOWSKI
     UNIVERSITY OF NEW ENGLAND: MARK SPACKMAN
     MIE UNIVERSITY: HIROAKI UMEDA
     NAT. INST. OF ADVANCED INDUSTRIAL SCIENCE AND TECHNOLOGY: KAZUO KITAURA
     MICHIGAN STATE UNIVERSITY:
          KAROL KOWALSKI, MARTA WLOCH, JEFFREY GOUR, JESSE LUTZ,
          WEI LI, PIOTR PIECUCH
     UNIVERSITY OF SILESIA: MONIKA MUSIAL, STANISLAW KUCHARSKI
     FACULTES UNIVERSITAIRES NOTRE-DAME DE LA PAIX:
          OLIVIER QUINET, BENOIT CHAMPAGNE
     UNIVERSITY OF CALIFORNIA - SANTA BARBARA: BERNARD KIRTMAN
     INSTITUTE FOR MOLECULAR SCIENCE:
          KAZUYA ISHIMURA, MICHIO KATOUDA, AND SHIGERU NAGASE
     UNIVERSITY OF NOTRE DAME: ANNA POMOGAEVA, DAN CHIPMAN
     KYUSHU UNIVERSITY:
          HARUYUKI NAKANO,
          FENG LONG GU, JACEK KORCHOWIEC, MARCIN MAKOWSKI, AND YURIKO AOKI,
          HIROTOSHI MORI AND EISAKU MIYOSHI
     PENNSYLVANIA STATE UNIVERSITY:
          TZVETELIN IORDANOV, CHET SWALINA, JONATHAN SKONE,
          SHARON HAMMES-SCHIFFER
     WASEDA UNIVERSITY:
          MASATO KOBAYASHI, TOMOKO AKAMA, TSUGUKI TOUMA,
          TAKESHI YOSHIKAWA, YASUHIRO IKABATA, JUNJI SEINO,
          YUYA NAKAJIMA, HIROMI NAKAI
     NANJING UNIVERSITY: SHUHUA LI
     UNIVERSITY OF NEBRASKA:
          PEIFENG SU, DEJUN SI, NANDUN THELLAMUREGE, YALI WANG, HUI LI
     UNIVERSITY OF ZURICH: ROBERTO PEVERATI, KIM BALDRIDGE
     N. COPERNICUS UNIVERSITY AND JACKSON STATE UNIVERSITY:
          MARIA BARYSZ
     UNIVERSITY OF COPENHAGEN: Jimmy Kromann, CASPER STEINMANN
     TOKYO INSTITUTE OF TECHNOLOGY: HIROYA NAKATA
     NAGOYA UNIVERSITY: YOSHIO NISHIMOTO, STEPHAN IRLE
     MOSCOW STATE UNIVERSITY: VLADIMIR MIRONOV

 EXECUTION OF GAMESS BEGUN Mon Nov 28 22:36:58 2016

            ECHO OF THE FIRST FEW INPUT CARDS -
 INPUT CARD>!   RESC correction to the 5d10,6s1 2-S state of Au atom                        
 INPUT CARD>!                                                                               
 INPUT CARD>!   FINAL E= -19,035.9775642633, 12 iterations                                  
 INPUT CARD>!                                                                               
 INPUT CARD>!   This run takes 9 seconds on a 2.66 GHz Cloverton (7 May 2013)               
 INPUT CARD>!   This run uses about 160 MBytes of disk space.                               
 INPUT CARD>!   This test case is in use since 2005.                                        
 INPUT CARD>!                                                                               
 INPUT CARD>!   -------------------------------------------------------------               
 INPUT CARD>!   This is an attempt to duplicate table 1 from the RESC paper                 
 INPUT CARD>!   T. Nakajima and K. Hirao, Chem.Phys.Lett. 302, 383-391(1999)                
 INPUT CARD>!   The basis set is the (19s,14p,8d,5f) uncontracted set from                  
 INPUT CARD>!   O. Gropen, J. Comput. Chem. 8, 982-1003(1987) and contains                  
 INPUT CARD>!   171 AOs, retaining 146 of these using spherical harmonics.                  
 INPUT CARD>!   Cartesian Gaussians have an overlap eigenvalue down to 1.8d-8,              
 INPUT CARD>!   and convergence is hurt if keeping near linear dependencies.                
 INPUT CARD>!   The two QMTTOL settings drop/keep 4 nearly linearly dependent               
 INPUT CARD>!   orbitals in the SCF step, but retain everything in the                      
 INPUT CARD>!   Resolution of the Identity during relativistic integrals.                   
 INPUT CARD>!                                                                               
 INPUT CARD>!   The ROHF energy w/o relativistic corrections is                             
 INPUT CARD>!       -17,864.8959480839 in the present case (spherical harmonics)            
 INPUT CARD>!       -17,864.895913     according to Gropen                                  
 INPUT CARD>!       -17,864.9137484495 in the present case (Cartesian Gaussians)            
 INPUT CARD>!       -17,864.9137       according to Nakajima/Hirao                          
 INPUT CARD>!   With the RESC correction turned on,                                         
 INPUT CARD>!   F.NAL E= -19,035.9779663667, >30 iterations, with QMTTOL=1d-9/1d-9          
 INPUT CARD>!   F.NAL E= -19,035.9775642633,  12 iterations, with QMTTOL=1d-6/1d-9          
 INPUT CARD>!   F.NAL E= -19,035.9775642576,  27 iterations, on AXP in 4/2010               
 INPUT CARD>!            -19,035.9825  according to Nakajima/Hirao                          
 INPUT CARD>!                                                                               
 INPUT CARD>!   Inside information from U. Tokyo indicates that the values in the           
 INPUT CARD>!   paper by Nakajima and Hirao were obtained with an incorrect value           
 INPUT CARD>!   for the first p exponent, namely 0.16673054e+5.  If one uses this           
 INPUT CARD>!   incorrect value, the results are as follows:                                
 INPUT CARD>!                         NR             RESC                                   
 INPUT CARD>!           GAMESS= -17864.913372   -19035.982157                               
 INPUT CARD>!            paper= -17864.9137     -19035.9825                                 
 INPUT CARD>!   Since the difference is 0.0003 for each, it is plausible that the           
 INPUT CARD>!   remaining error is integral accuracy, or something of this nature.          
 INPUT CARD>!                                                                               
 INPUT CARD> $contrl scftyp=rohf mult=2 runtyp=energy relwfn=resc                           
 INPUT CARD>         ispher=-1 qmttol=1.0d-6 $end                                           
 INPUT CARD> $system mwords=1 $end                                                          
 INPUT CARD> $relwfn modeqr=0 qmttol=1d-9 $end                                              
 INPUT CARD> $data                                                                          
 INPUT CARD>Au atom..Gropen's basis set                                                     
 INPUT CARD>Dnh 2                                                                           
 INPUT CARD>                                                                                
 INPUT CARD>Au   79.0   0.0  0.0  0.0                                                       
    1000000 WORDS OF MEMORY AVAILABLE


     RUN TITLE
     ---------
 Au atom..Gropen's basis set                                                     

 THE POINT GROUP OF THE MOLECULE IS DNH     
 THE ORDER OF THE PRINCIPAL AXIS IS     2

 ATOM      ATOMIC                      COORDINATES (BOHR)
           CHARGE         X                   Y                   Z
 AU         79.0     0.0000000000        0.0000000000        0.0000000000

          INTERNUCLEAR DISTANCES (ANGS.)
          ------------------------------

                1 AU    

   1 AU      0.0000000  

  * ... LESS THAN  3.000


     ATOMIC BASIS SET
     ----------------
 THE CONTRACTED PRIMITIVE FUNCTIONS HAVE BEEN UNNORMALIZED
 THE CONTRACTED BASIS FUNCTIONS ARE NOW NORMALIZED TO UNITY

  SHELL TYPE  PRIMITIVE        EXPONENT          CONTRACTION COEFFICIENT(S)

 AU        

      1   S       1       9424086.3000000    1.000000000000

      2   S       2       1375442.2000000    1.000000000000

      3   S       3        306690.8000000    1.000000000000

      4   S       4         84491.4920000    1.000000000000

      5   S       5         26543.6200000    1.000000000000

      6   S       6          9304.6797000    1.000000000000

      7   S       7          3564.1327000    1.000000000000

      8   S       8          1445.9715000    1.000000000000

      9   S       9           603.6450600    1.000000000000

     10   S      10           204.9145800    1.000000000000

     11   S      11            94.8667680    1.000000000000

     12   S      12            35.2346070    1.000000000000

     13   S      13            19.5403860    1.000000000000

     14   S      14             7.2801752    1.000000000000

     15   S      15             3.8905484    1.000000000000

     16   S      16             1.2522517    1.000000000000

     17   S      17             0.5531111    1.000000000000

     18   S      18             0.0755071    1.000000000000

     19   S      19             0.0285347    1.000000000000

     20   P      20         16873.0540000    1.000000000000

     21   P      21         72158.4560000    1.000000000000

     22   P      22          5336.5550000    1.000000000000

     23   P      23          1970.9859000    1.000000000000

     24   P      24           806.3357200    1.000000000000

     25   P      25           355.5252600    1.000000000000

     26   P      26           165.7916700    1.000000000000

     27   P      27            80.2163660    1.000000000000

     28   P      28            38.7905360    1.000000000000

     29   P      29            19.3371990    1.000000000000

     30   P      30             8.6522832    1.000000000000

     31   P      31             4.0697338    1.000000000000

     32   P      32             1.3807124    1.000000000000

     33   P      33             0.5097264    1.000000000000

     34   D      34          4726.8080000    1.000000000000

     35   D      35          1329.0893000    1.000000000000

     36   D      36           464.6509400    1.000000000000

     37   D      37           180.0301400    1.000000000000

     38   D      38            74.1719250    1.000000000000

     39   D      39            31.6163620    1.000000000000

     40   D      40            12.3571040    1.000000000000

     41   D      41             4.9448522    1.000000000000

     42   D      42             1.3681377    1.000000000000

     43   D      43             0.3899109    1.000000000000

     44   F      44           164.5789100    1.000000000000

     45   F      45            54.5108670    1.000000000000

     46   F      46            20.8871590    1.000000000000

     47   F      47             8.0698463    1.000000000000

     48   F      48             2.8511552    1.000000000000

 TOTAL NUMBER OF BASIS SET SHELLS             =   48
 NUMBER OF CARTESIAN GAUSSIAN BASIS FUNCTIONS =  171
 NUMBER OF ELECTRONS                          =   79
 CHARGE OF MOLECULE                           =    0
 SPIN MULTIPLICITY                            =    2
 NUMBER OF OCCUPIED ORBITALS (ALPHA)          =   40
 NUMBER OF OCCUPIED ORBITALS (BETA )          =   39
 TOTAL NUMBER OF ATOMS                        =    1
 THE NUCLEAR REPULSION ENERGY IS        0.0000000000

     ---------------------------------
     RELATIVISTIC WAVEFUNCTION OPTIONS
     ---------------------------------
     METHOD=RESC     NORDER= 2       NESOC=  0      MODEQR=      0
     NRATOM=  0      QMTTOL= 1.000E-09      QRTOL= 1.000E-09
     CLIGHT=137.03598950     TAU= 3.500E+00

 THIS MOLECULE IS RECOGNIZED AS BEING LINEAR,
 ORBITAL LZ DEGENERACY TOLERANCE ETOLLZ= 1.00E-06

     $CONTRL OPTIONS
     ---------------
 SCFTYP=ROHF         RUNTYP=ENERGY       EXETYP=RUN     
 MPLEVL=       0     CITYP =NONE         CCTYP =NONE         VBTYP =NONE    
 DFTTYP=NONE         TDDFT =NONE    
 MULT  =       2     ICHARG=       0     NZVAR =       0     COORD =UNIQUE  
 PP    =NONE         RELWFN=RESC         LOCAL =NONE         NUMGRD=       F
 ISPHER=      -1     NOSYM =       0     MAXIT =      30     UNITS =ANGS    
 PLTORB=       F     MOLPLT=       F     AIMPAC=       F     FRIEND=        
 NPRINT=       7     IREST =       0     GEOM  =INPUT   
 NORMF =       0     NORMP =       0     ITOL  =      20     ICUT  =       9
 INTTYP=BEST         GRDTYP=BEST         QMTTOL= 1.0E-06

     $SYSTEM OPTIONS
     ---------------
  REPLICATED MEMORY=     1000000 WORDS (ON EVERY NODE).
 DISTRIBUTED MEMDDI=           0 MILLION WORDS IN AGGREGATE,
 MEMDDI DISTRIBUTED OVER   1 PROCESSORS IS           0 WORDS/PROCESSOR.
 TOTAL MEMORY REQUESTED ON EACH PROCESSOR=     1000000 WORDS.
 TIMLIM=      525600.00 MINUTES, OR     365.0 DAYS.
 PARALL= F  BALTYP=  DLB     KDIAG=    0  COREFL= F
 MXSEQ2=     300 MXSEQ3=     150  mem10=         0

          ----------------
          PROPERTIES INPUT
          ----------------

     MOMENTS            FIELD           POTENTIAL          DENSITY
 IEMOM =       1   IEFLD =       0   IEPOT =       0   IEDEN =       0
 WHERE =COMASS     WHERE =NUCLEI     WHERE =NUCLEI     WHERE =NUCLEI  
 OUTPUT=BOTH       OUTPUT=BOTH       OUTPUT=BOTH       OUTPUT=BOTH    
 IEMINT=       0   IEFINT=       0                     IEDINT=       0
                                                       MORB  =       0
          EXTRAPOLATION IN EFFECT
          SOSCF IN EFFECT
 ORBITAL PRINTING OPTION: NPREO=     1   171     2     1

     -------------------------------
     INTEGRAL TRANSFORMATION OPTIONS
     -------------------------------
     NWORD  =            0
     CUTOFF = 1.0E-09     MPTRAN =       0
     DIRTRF =       F     AOINTS =DUP     

          ----------------------
          INTEGRAL INPUT OPTIONS
          ----------------------
 NOPK  =       1 NORDER=       0 SCHWRZ=       F

     ------------------------------------------
     THE POINT GROUP IS DNH, NAXIS= 2, ORDER= 8
     ------------------------------------------

     DIMENSIONS OF THE SYMMETRY SUBSPACES ARE
 AG  =   49     AU  =    5     B3U =   29     B3G =   10     B1G =   10
 B1U =   29     B2U =   29     B2G =   10

 ..... DONE SETTING UP THE RUN .....
 STEP CPU TIME =     0.02 TOTAL CPU TIME =        0.0 (    0.0 MIN)
 TOTAL WALL CLOCK TIME=        0.1 SECONDS, CPU UTILIZATION IS  33.33%

          ********************
          1 ELECTRON INTEGRALS
          ********************
 TIME TO DO ORDINARY INTEGRALS=      0.02

 ----------------------------------------------------------------------
         RELATIVISTIC ELIMINATION OF SMALL COMPONENT (RESC)
            T.NAKAJIMA, K.HIRAO, CPL 302 (1999) 383-391
     D.G.FEDOROV, T.NAKAJIMA, K.HIRAO, CPL, 335 (2001) 183-187
 ----------------------------------------------------------------------

 TIME TO DO  RELATIVISTIC INTS=      0.15
 ...... END OF ONE-ELECTRON INTEGRALS ......
 STEP CPU TIME =     0.17 TOTAL CPU TIME =        0.2 (    0.0 MIN)
 TOTAL WALL CLOCK TIME=        0.2 SECONDS, CPU UTILIZATION IS  90.48%

          -------------
          GUESS OPTIONS
          -------------
          GUESS =HUCKEL            NORB  =       0          NORDER=       0
          MIX   =       F          PRTMO =       F          PUNMO =       F
          TOLZ  = 1.0E-08          TOLE  = 1.0E-05
          SYMDEN=       F          PURIFY=       F

 INITIAL GUESS ORBITALS GENERATED BY HUCKEL   ROUTINE.
 HUCKEL GUESS REQUIRES    222480 WORDS.

 STATISTICS FOR GENERATION OF SYMMETRY ORBITAL -Q- MATRIX
 NUMBER OF CARTESIAN ATOMIC ORBITALS=        171
 NUMBER OF SPHERICAL CONTAMINANTS DROPPED=     0
 NUMBER OF LINEARLY DEPENDENT MOS DROPPED=     4
 TOTAL NUMBER OF MOS IN VARIATION SPACE=     167

 ...WARNING (SYMORB.SRC)...
 THE INPUT BASIS SET CONTAINS APPROXIMATE LINEAR DEPENDENCE.
 THE SMALLEST EIGENVALUE OF THE OVERLAP MATRIX IS   1.828525E-08
 THERE ARE    4 EIGENVALUES LESS THAN QMTTOL=  1.00E-06
 EIGENVECTORS BELOW -QMTTOL- ARE DROPPED FROM THE MO SPACE,
 IN ORDER TO ELIMINATE THE APPROXIMATE LINEAR DEPENDENCE.

 THIS WILL MOST LIKELY CHANGE THE ENERGY ON THE ORDER OF TENS OF MICROHARTREES,
 DEPENDING ON THE NUMBER OF ORBITALS REMOVED.  THE VALUE OF QMTTOL CAN BE 
 CHANGED IN $CONTRL: JOBS WITH EIGENVALUES BELOW 1.0E-07 PROBABLY WON'T
 CONVERGE.  EIGENVALUES BETWEEN 1.0E-07 AND 1.0E-06 MAY REQUIRE LOOSENING OF
 THE DENSITY CRITERION (CONV IN $SCF), MORE ACCURATE INTEGRAL EVALUATION
 (ICUT=11 IN $CONTRL), MORE ACCURATE DIRECT SCF FOCK MATRIX
 CONSTRUCTION (FDIFF=.FALSE. IN $SCF), OR CHANGING THE SCF CONVERGER
 (DIIS=.TRUE. IN $SCF).

                    * * * * * WARNING * * * * *
 POSSIBLE LINEAR DEPENDENCE PROBLEMS DETECTED, INPUT QMTTOL= 1.0E-06,
 WITH     1 OVERLAP EIGENVALUES LYING BETWEEN 1.0E-05 AND QMTTOL.
 IF YOU EXPERIENCE SCF CONVERGENCE DIFFICULTIES WITH THE DENSITY ALMOST BUT
 NOT QUITE CONVERGED, YOU MAY NEED TO LOOSEN -QMTTOL- BY A FACTOR 5 TO 10.

 SYMMETRIES FOR INITIAL GUESS ORBITALS FOLLOW.  ALPHA SET(S).
    40 ORBITALS ARE OCCUPIED (   34 CORE ORBITALS).
    35=AG      36=AG      37=B1G     38=B2G     39=B3G     40=AG      41=AG  
    42=AG      43=AG      44=AG      45=AG      46=AG      47=AG      48=AG  
    49=AG      50=AG  

 SYMMETRIES FOR INITIAL GUESS ORBITALS FOLLOW.   BETA SET(S).
    39 ORBITALS ARE OCCUPIED (   34 CORE ORBITALS).
    35=AG      36=AG      37=B1G     38=B2G     39=B3G     40=AG      41=AG  
    42=AG      43=AG      44=AG      45=AG      46=AG      47=AG      48=AG  
    49=AG  
 ...... END OF INITIAL ORBITAL SELECTION ......
 STEP CPU TIME =     0.07 TOTAL CPU TIME =        0.3 (    0.0 MIN)
 TOTAL WALL CLOCK TIME=        0.3 SECONDS, CPU UTILIZATION IS  89.66%

                    ----------------------
                    AO INTEGRAL TECHNOLOGY
                    ----------------------
     S,P,L SHELL ROTATED AXIS INTEGRALS, REPROGRAMMED BY
        KAZUYA ISHIMURA (IMS) AND JOSE SIERRA (SYNSTAR).
     S,P,D,L SHELL ROTATED AXIS INTEGRALS PROGRAMMED BY
        KAZUYA ISHIMURA (INSTITUTE FOR MOLECULAR SCIENCE).
     S,P,D,F,G SHELL TO TOTAL QUARTET ANGULAR MOMENTUM SUM 5,
        ERIC PROGRAM BY GRAHAM FLETCHER (ELORET AND NASA ADVANCED
        SUPERCOMPUTING DIVISION, AMES RESEARCH CENTER).
     S,P,D,F,G,L SHELL GENERAL RYS QUADRATURE PROGRAMMED BY
        MICHEL DUPUIS (PACIFIC NORTHWEST NATIONAL LABORATORY).

          --------------------
          2 ELECTRON INTEGRALS
          --------------------

 THE -PK- OPTION IS OFF, THE INTEGRALS ARE NOT IN SUPERMATRIX FORM.
 STORING   15000 INTEGRALS/RECORD ON DISK, USING 12 BYTES/INTEGRAL.
 TWO ELECTRON INTEGRAL EVALUATION REQUIRES  100276 WORDS OF MEMORY.
 II,JST,KST,LST =  1  1  1  1 NREC =         1 INTLOC =    1
 II,JST,KST,LST =  2  1  1  1 NREC =         1 INTLOC =    2
 II,JST,KST,LST =  3  1  1  1 NREC =         1 INTLOC =    7
 II,JST,KST,LST =  4  1  1  1 NREC =         1 INTLOC =   22
 II,JST,KST,LST =  5  1  1  1 NREC =         1 INTLOC =   56
 II,JST,KST,LST =  6  1  1  1 NREC =         1 INTLOC =  121
 II,JST,KST,LST =  7  1  1  1 NREC =         1 INTLOC =  232
 II,JST,KST,LST =  8  1  1  1 NREC =         1 INTLOC =  407
 II,JST,KST,LST =  9  1  1  1 NREC =         1 INTLOC =  667
 II,JST,KST,LST = 10  1  1  1 NREC =         1 INTLOC = 1036
 II,JST,KST,LST = 11  1  1  1 NREC =         1 INTLOC = 1541
 II,JST,KST,LST = 12  1  1  1 NREC =         1 INTLOC = 2212
 II,JST,KST,LST = 13  1  1  1 NREC =         1 INTLOC = 3082
 II,JST,KST,LST = 14  1  1  1 NREC =         1 INTLOC = 4187
 II,JST,KST,LST = 15  1  1  1 NREC =         1 INTLOC = 5566
 II,JST,KST,LST = 16  1  1  1 NREC =         1 INTLOC = 7261
 II,JST,KST,LST = 17  1  1  1 NREC =         1 INTLOC = 9317
 II,JST,KST,LST = 18  1  1  1 NREC =         1 INTLOC =11782
 II,JST,KST,LST = 19  1  1  1 NREC =         1 INTLOC =14707
 II,JST,KST,LST = 20  1  1  1 NREC =         2 INTLOC = 3146
 II,JST,KST,LST = 21  1  1  1 NREC =         2 INTLOC = 4295
 II,JST,KST,LST = 22  1  1  1 NREC =         2 INTLOC = 7154
 II,JST,KST,LST = 23  1  1  1 NREC =         2 INTLOC =11831
 II,JST,KST,LST = 24  1  1  1 NREC =         3 INTLOC = 3497
 II,JST,KST,LST = 25  1  1  1 NREC =         3 INTLOC =12386
 II,JST,KST,LST = 26  1  1  1 NREC =         4 INTLOC = 8795
 II,JST,KST,LST = 27  1  1  1 NREC =         5 INTLOC = 8075
 II,JST,KST,LST = 28  1  1  1 NREC =         6 INTLOC =10625
 II,JST,KST,LST = 29  1  1  1 NREC =         8 INTLOC = 1922
 II,JST,KST,LST = 30  1  1  1 NREC =         9 INTLOC =12440
 II,JST,KST,LST = 31  1  1  1 NREC =        11 INTLOC =12647
 II,JST,KST,LST = 32  1  1  1 NREC =        14 INTLOC = 3128
 II,JST,KST,LST = 33  1  1  1 NREC =        16 INTLOC =14222
 II,JST,KST,LST = 34  1  1  1 NREC =        20 INTLOC = 1037
 II,JST,KST,LST = 35  1  1  1 NREC =        27 INTLOC = 8366
 II,JST,KST,LST = 36  1  1  1 NREC =        37 INTLOC = 6407
 II,JST,KST,LST = 37  1  1  1 NREC =        49 INTLOC =14813
 II,JST,KST,LST = 38  1  1  1 NREC =        65 INTLOC = 9035
 II,JST,KST,LST = 39  1  1  1 NREC =        84 INTLOC =10196
 II,JST,KST,LST = 40  1  1  1 NREC =       107 INTLOC = 9752
 II,JST,KST,LST = 41  1  1  1 NREC =       134 INTLOC =12578
 II,JST,KST,LST = 42  1  1  1 NREC =       166 INTLOC = 8576
 II,JST,KST,LST = 43  1  1  1 NREC =       202 INTLOC = 6989
 II,JST,KST,LST = 44  1  1  1 NREC =       241 INTLOC =10694
 II,JST,KST,LST = 45  1  1  1 NREC =       323 INTLOC =10353
 II,JST,KST,LST = 46  1  1  1 NREC =       426 INTLOC = 2677
 II,JST,KST,LST = 47  1  1  1 NREC =       550 INTLOC =10312
 II,JST,KST,LST = 48  1  1  1 NREC =       698 INTLOC = 3710
 TOTAL NUMBER OF NONZERO TWO-ELECTRON INTEGRALS =            13002894
        867 INTEGRAL RECORDS WERE STORED ON DISK FILE  8.
  ...... END OF TWO-ELECTRON INTEGRALS .....
 STEP CPU TIME =     1.98 TOTAL CPU TIME =        2.2 (    0.0 MIN)
 TOTAL WALL CLOCK TIME=        2.3 SECONDS, CPU UTILIZATION IS  96.55%

          ---------------------------
                 ROHF SCF CALCULATION
          ---------------------------

     NUCLEAR ENERGY =         0.0000000000
     MAXIT = 30     NPUNCH=  2     MULT=  2
     EXTRAP=T  DAMP=F  SHIFT=F  RSTRCT=F  DIIS=F  SOSCF=T
     DENSITY MATRIX CONV=  1.00E-05
     ROHF CANONICALIZATION PARAMETERS
             C-C     O-O     V-V
     ALPHA -0.5000  0.5000  1.5000
     BETA   1.5000  0.5000 -0.5000
     SOSCF WILL OPTIMIZE    5119 ORBITAL ROTATION ANGLES. SOGTOL= 2.500E-01
     MEMORY REQUIRED FOR UHF/ROHF ITERS=    326282 WORDS.

 ITER EX      TOTAL ENERGY        E CHANGE  DENSITY CHANGE    ORB. GRAD 
   1  0   -18411.9803019410-18411.9803019410   1.858514350   0.000000000
   2  1   -19034.6161414465  -622.6358395055   0.248183139   1.770570991
   3  2   -19035.3781840162    -0.7620425696   0.526500424   0.571678512
   4  3   -19035.5010174516    -0.1228334354   0.529688623   0.502083369
   5  0   -19035.5667715366    -0.0657540850   0.272357928   0.469893445
          ---------------START SECOND ORDER SCF---------------
   6  1   -19035.9775465127    -0.4107749761   0.004844577   0.002017271
   7  2   -19035.9775594005    -0.0000128878   0.002150917   0.001049350
   8  3   -19035.9775640588    -0.0000046583   0.000317973   0.000380141
   9  4   -19035.9775642041    -0.0000001452   0.000109965   0.000194564
  10  5   -19035.9775642647    -0.0000000606   0.000010884   0.000002446
  11  6   -19035.9775642649    -0.0000000002   0.000001887   0.000000398
  12  7   -19035.9775642649     0.0000000000   0.000000132   0.000000062

          -----------------
          DENSITY CONVERGED
          -----------------
     TIME TO FORM FOCK OPERATORS=       2.8 SECONDS (       0.2 SEC/ITER)
     TIME TO SOLVE SCF EQUATIONS=       0.2 SECONDS (       0.0 SEC/ITER)

 FINAL ROHF ENERGY IS   -19035.9775642649 AFTER  12 ITERATIONS

          --------------------
          SPIN SZ   =    0.500
          S-SQUARED =    0.750
          --------------------

 LZ VALUE ANALYSIS FOR THE MOS
 ----------------------------------------
 MO     1 (    1) HAS LZ(WEIGHT)= 0.00(100.0%) 
 MO     2 (    2) HAS LZ(WEIGHT)= 0.00(100.0%) 
 MO     3 (    3) HAS LZ(WEIGHT)=-1.00( 50.0%)  1.00( 50.0%) 
 MO     4 (    3) HAS LZ(WEIGHT)=-1.00( 50.0%)  1.00( 50.0%) 
 MO     5 (    3) HAS LZ(WEIGHT)= 0.00(100.0%) 
 MO     6 (    4) HAS LZ(WEIGHT)= 0.00(100.0%) 
 MO     7 (    5) HAS LZ(WEIGHT)= 0.00(100.0%) 
 MO     8 (    5) HAS LZ(WEIGHT)=-1.00( 50.0%)  1.00( 50.0%) 
 MO     9 (    5) HAS LZ(WEIGHT)=-1.00( 50.0%)  1.00( 50.0%) 
 MO    10 (    6) HAS LZ(WEIGHT)=-2.00( 49.4%)  0.00(  1.2%)  2.00( 49.4%) 
 MO    11 (    6) HAS LZ(WEIGHT)= 0.00( 98.8%) 
 MO    12 (    6) HAS LZ(WEIGHT)=-1.00( 50.0%)  1.00( 50.0%) 
 MO    13 (    6) HAS LZ(WEIGHT)=-1.00( 50.0%)  1.00( 50.0%) 
 MO    14 (    6) HAS LZ(WEIGHT)=-2.00( 50.0%)  2.00( 50.0%) 
 MO    15 (    7) HAS LZ(WEIGHT)= 0.00(100.0%) 
 MO    16 (    8) HAS LZ(WEIGHT)= 0.00(100.0%) 
 MO    17 (    8) HAS LZ(WEIGHT)=-1.00( 50.0%)  1.00( 50.0%) 
 MO    18 (    8) HAS LZ(WEIGHT)=-1.00( 50.0%)  1.00( 50.0%) 
 MO    19 (    9) HAS LZ(WEIGHT)=-2.00( 46.5%)  0.00(  6.9%)  2.00( 46.5%) 
 MO    20 (    9) HAS LZ(WEIGHT)=-2.00(  3.5%)  0.00( 93.1%)  2.00(  3.5%) 
 MO    21 (    9) HAS LZ(WEIGHT)=-1.00( 50.0%)  1.00( 50.0%) 
 MO    22 (    9) HAS LZ(WEIGHT)=-2.00( 50.0%)  2.00( 50.0%) 
 MO    23 (    9) HAS LZ(WEIGHT)=-1.00( 50.0%)  1.00( 50.0%) 
 MO    24 (   10) HAS LZ(WEIGHT)= 0.00(100.0%) 
 MO    25 (   11) HAS LZ(WEIGHT)=-2.00( 50.0%)  2.00( 50.0%) 
 MO    26 (   11) HAS LZ(WEIGHT)=-3.00( 18.8%) -1.00( 31.2%)  1.00( 31.2%)  3.00( 18.8%) 
 MO    27 (   11) HAS LZ(WEIGHT)=-3.00( 18.8%) -1.00( 31.2%)  1.00( 31.2%)  3.00( 18.8%) 
 MO    28 (   11) HAS LZ(WEIGHT)=-2.00( 50.0%)  2.00( 50.0%) 
 MO    29 (   11) HAS LZ(WEIGHT)=-3.00( 31.2%) -1.00( 18.8%)  1.00( 18.8%)  3.00( 31.2%) 
 MO    30 (   11) HAS LZ(WEIGHT)= 0.00(100.0%) 
 MO    31 (   11) HAS LZ(WEIGHT)=-3.00( 31.2%) -1.00( 18.8%)  1.00( 18.8%)  3.00( 31.2%) 
 MO    32 (   12) HAS LZ(WEIGHT)= 0.00(100.0%) 
 MO    33 (   12) HAS LZ(WEIGHT)=-1.00( 50.0%)  1.00( 50.0%) 
 MO    34 (   12) HAS LZ(WEIGHT)=-1.00( 50.0%)  1.00( 50.0%) 
 MO    35 (   13) HAS LZ(WEIGHT)=-2.00( 44.4%) -0.00( 11.2%)  2.00( 44.4%) 
 MO    36 (   13) HAS LZ(WEIGHT)=-2.00(  5.6%) -0.00( 88.8%)  2.00(  5.6%) 
 MO    37 (   13) HAS LZ(WEIGHT)=-1.00( 50.0%)  1.00( 50.0%) 
 MO    38 (   13) HAS LZ(WEIGHT)=-2.00( 50.0%)  2.00( 50.0%) 
 MO    39 (   13) HAS LZ(WEIGHT)=-1.00( 50.0%)  1.00( 50.0%) 
 MO    40 (   14) HAS LZ(WEIGHT)= 0.00(100.0%) 
 MO    41 (   15) HAS LZ(WEIGHT)= 0.00(100.0%) 
 MO    42 (   16) HAS LZ(WEIGHT)= 0.00(100.0%) 
 MO    43 (   17) HAS LZ(WEIGHT)=-1.00( 50.0%)  1.00( 50.0%) 
 MO    44 (   17) HAS LZ(WEIGHT)= 0.00(100.0%) 
 MO    45 (   17) HAS LZ(WEIGHT)=-1.00( 50.0%)  1.00( 50.0%) 
 MO    46 (   18) HAS LZ(WEIGHT)=-2.00( 32.7%) -0.00( 34.5%)  2.00( 32.7%) 
 MO    47 (   18) HAS LZ(WEIGHT)=-2.00( 17.3%) -0.00( 65.5%)  2.00( 17.3%) 
 MO    48 (   18) HAS LZ(WEIGHT)=-1.00( 50.0%)  1.00( 50.0%) 
 MO    49 (   18) HAS LZ(WEIGHT)=-1.00( 50.0%)  1.00( 50.0%) 
 MO    50 (   18) HAS LZ(WEIGHT)=-2.00( 50.0%)  2.00( 50.0%) 
 MO    51 (   19) HAS LZ(WEIGHT)= 0.00(100.0%) 
 MO    52 (   20) HAS LZ(WEIGHT)=-1.00( 50.0%)  1.00( 50.0%) 
 MO    53 (   20) HAS LZ(WEIGHT)= 0.00(100.0%) 
 MO    54 (   20) HAS LZ(WEIGHT)=-1.00( 50.0%)  1.00( 50.0%) 
 MO    55 (   21) HAS LZ(WEIGHT)=-3.00( 31.3%) -1.00( 18.7%)  1.00( 18.7%)  3.00( 31.3%) 
 MO    56 (   21) HAS LZ(WEIGHT)=-3.00( 31.2%) -1.00( 18.8%)  1.00( 18.8%)  3.00( 31.2%) 
 MO    57 (   21) HAS LZ(WEIGHT)= 0.00(100.0%) 
 MO    58 (   21) HAS LZ(WEIGHT)=-2.00( 50.0%)  2.00( 50.0%) 
 MO    59 (   21) HAS LZ(WEIGHT)=-3.00( 18.8%) -1.00( 31.2%)  1.00( 31.2%)  3.00( 18.8%) 
 MO    60 (   21) HAS LZ(WEIGHT)=-2.00( 50.0%)  2.00( 50.0%) 
 MO    61 (   21) HAS LZ(WEIGHT)=-3.00( 18.7%) -1.00( 31.3%)  1.00( 31.3%)  3.00( 18.7%) 
 MO    62 (   22) HAS LZ(WEIGHT)= 0.00(100.0%) 
 MO    63 (   23) HAS LZ(WEIGHT)=-2.00( 50.0%)  2.00( 50.0%) 
 MO    64 (   23) HAS LZ(WEIGHT)=-1.00( 50.0%)  1.00( 50.0%) 
 MO    65 (   23) HAS LZ(WEIGHT)=-1.00( 50.0%)  1.00( 50.0%) 
 MO    66 (   23) HAS LZ(WEIGHT)=-2.00( 45.9%)  0.00(  8.3%)  2.00( 45.9%) 
 MO    67 (   23) HAS LZ(WEIGHT)=-2.00(  4.1%)  0.00( 91.7%)  2.00(  4.1%) 
 MO    68 (   24) HAS LZ(WEIGHT)= 0.00(100.0%) 
 MO    69 (   25) HAS LZ(WEIGHT)=-1.00( 50.0%)  1.00( 50.0%) 
 MO    70 (   25) HAS LZ(WEIGHT)= 0.00(100.0%) 
 MO    71 (   25) HAS LZ(WEIGHT)=-1.00( 50.0%)  1.00( 50.0%) 
 MO    72 (   26) HAS LZ(WEIGHT)=-2.00( 50.0%)  2.00( 50.0%) 
 MO    73 (   26) HAS LZ(WEIGHT)=-2.00( 50.0%)  2.00( 50.0%) 
 MO    74 (   26) HAS LZ(WEIGHT)=-3.00( 18.8%) -1.00( 31.2%)  1.00( 31.2%)  3.00( 18.8%) 
 MO    75 (   26) HAS LZ(WEIGHT)=-3.00( 18.7%) -1.00( 31.3%)  1.00( 31.3%)  3.00( 18.7%) 
 MO    76 (   26) HAS LZ(WEIGHT)= 0.00(100.0%) 
 MO    77 (   26) HAS LZ(WEIGHT)=-3.00( 31.3%) -1.00( 18.7%)  1.00( 18.7%)  3.00( 31.3%) 
 MO    78 (   26) HAS LZ(WEIGHT)=-3.00( 31.2%) -1.00( 18.8%)  1.00( 18.8%)  3.00( 31.2%) 
 MO    79 (   27) HAS LZ(WEIGHT)=-1.00( 50.0%)  1.00( 50.0%) 
 MO    80 (   27) HAS LZ(WEIGHT)= 0.00(100.0%) 
 MO    81 (   27) HAS LZ(WEIGHT)=-1.00( 50.0%)  1.00( 50.0%) 
 MO    82 (   28) HAS LZ(WEIGHT)= 0.00(100.0%) 
 MO    83 (   29) HAS LZ(WEIGHT)=-1.00( 50.0%)  1.00( 50.0%) 
 MO    84 (   29) HAS LZ(WEIGHT)= 0.00(100.0%) 
 MO    85 (   29) HAS LZ(WEIGHT)=-1.00( 50.0%)  1.00( 50.0%) 
 MO    86 (   30) HAS LZ(WEIGHT)=-2.00( 23.9%)  0.00( 52.2%)  2.00( 23.9%) 
 MO    87 (   30) HAS LZ(WEIGHT)=-2.00( 26.1%)  0.00( 47.8%)  2.00( 26.1%) 
 MO    88 (   30) HAS LZ(WEIGHT)=-2.00( 50.0%)  2.00( 50.0%) 
 MO    89 (   30) HAS LZ(WEIGHT)=-1.00( 50.0%)  1.00( 50.0%) 
 MO    90 (   30) HAS LZ(WEIGHT)=-1.00( 50.0%)  1.00( 50.0%) 
 MO    91 (   31) HAS LZ(WEIGHT)= 0.00(100.0%) 
 MO    92 (   32) HAS LZ(WEIGHT)=-2.00( 50.0%)  2.00( 50.0%) 
 MO    93 (   32) HAS LZ(WEIGHT)=-0.50( 50.0%)  0.50( 50.0%) 
 MO    94 (   32) HAS LZ(WEIGHT)=-2.00( 50.0%)  2.00( 50.0%) 
 MO    95 (   32) HAS LZ(WEIGHT)=-0.50( 50.0%)  0.50( 50.0%) 
 MO    96 (   33) HAS LZ(WEIGHT)= 0.00(100.0%) 
 MO    97 (   33) HAS LZ(WEIGHT)=-1.50( 50.0%)  1.50( 50.0%) 
 MO    98 (   33) HAS LZ(WEIGHT)=-1.50( 50.0%)  1.50( 50.0%) 
 MO    99 (   34) HAS LZ(WEIGHT)=-1.00( 50.0%)  1.00( 50.0%) 
 MO   100 (   34) HAS LZ(WEIGHT)=-1.00( 50.0%)  1.00( 50.0%) 
 MO   101 (   34) HAS LZ(WEIGHT)= 0.00(100.0%) 
 MO   102 (   35) HAS LZ(WEIGHT)= 0.00(100.0%) 
 MO   103 (   36) HAS LZ(WEIGHT)=-1.00( 50.0%)  1.00( 50.0%) 
 MO   104 (   36) HAS LZ(WEIGHT)= 0.00(100.0%) 
 MO   105 (   36) HAS LZ(WEIGHT)=-1.00( 50.0%)  1.00( 50.0%) 
 MO   106 (   37) HAS LZ(WEIGHT)= 0.00(100.0%) 
 MO   107 (   38) HAS LZ(WEIGHT)=-2.00( 23.6%)  0.00( 52.7%)  2.00( 23.6%) 
 MO   108 (   38) HAS LZ(WEIGHT)=-2.00( 26.4%)  0.00( 47.3%)  2.00( 26.4%) 
 MO   109 (   38) HAS LZ(WEIGHT)=-1.00( 50.0%)  1.00( 50.0%) 
 MO   110 (   38) HAS LZ(WEIGHT)=-2.00( 50.0%)  2.00( 50.0%) 
 MO   111 (   38) HAS LZ(WEIGHT)=-1.00( 50.0%)  1.00( 50.0%) 
 MO   112 (   39) HAS LZ(WEIGHT)=-2.00( 50.0%)  2.00( 50.0%) 
 MO   113 (   39) HAS LZ(WEIGHT)=-2.00( 50.0%)  2.00( 50.0%) 
 MO   114 (   39) HAS LZ(WEIGHT)=-3.00( 18.8%) -1.00( 31.2%)  1.00( 31.2%)  3.00( 18.8%) 
 MO   115 (   39) HAS LZ(WEIGHT)=-3.00( 18.8%) -1.00( 31.2%)  1.00( 31.2%)  3.00( 18.8%) 
 MO   116 (   39) HAS LZ(WEIGHT)= 0.00(100.0%) 
 MO   117 (   39) HAS LZ(WEIGHT)=-3.00( 31.2%) -1.00( 18.8%)  1.00( 18.8%)  3.00( 31.2%) 
 MO   118 (   39) HAS LZ(WEIGHT)=-3.00( 31.2%) -1.00( 18.8%)  1.00( 18.8%)  3.00( 31.2%) 
 MO   119 (   40) HAS LZ(WEIGHT)= 0.00(100.0%) 
 MO   120 (   41) HAS LZ(WEIGHT)=-1.00( 50.0%)  1.00( 50.0%) 
 MO   121 (   41) HAS LZ(WEIGHT)= 0.00(100.0%) 
 MO   122 (   41) HAS LZ(WEIGHT)=-1.00( 50.0%)  1.00( 50.0%) 
 MO   123 (   42) HAS LZ(WEIGHT)= 0.00(100.0%) 
 MO   124 (   43) HAS LZ(WEIGHT)=-1.00( 50.0%)  1.00( 50.0%) 
 MO   125 (   43) HAS LZ(WEIGHT)=-2.00( 50.0%)  2.00( 50.0%) 
 MO   126 (   43) HAS LZ(WEIGHT)=-1.00( 50.0%)  1.00( 50.0%) 
 MO   127 (   43) HAS LZ(WEIGHT)=-2.00( 15.6%)  0.00( 68.8%)  2.00( 15.6%) 
 MO   128 (   43) HAS LZ(WEIGHT)=-2.00( 34.4%)  0.00( 31.2%)  2.00( 34.4%) 
 MO   129 (   44) HAS LZ(WEIGHT)= 0.00(100.0%) 
 MO   130 (   44) HAS LZ(WEIGHT)=-1.00( 50.0%)  1.00( 50.0%) 
 MO   131 (   44) HAS LZ(WEIGHT)=-1.00( 50.0%)  1.00( 50.0%) 
 MO   132 (   45) HAS LZ(WEIGHT)= 0.00(100.0%) 
 MO   133 (   46) HAS LZ(WEIGHT)=-1.00( 50.0%)  1.00( 50.0%) 
 MO   134 (   46) HAS LZ(WEIGHT)= 0.00(100.0%) 
 MO   135 (   46) HAS LZ(WEIGHT)=-1.00( 50.0%)  1.00( 50.0%) 
 MO   136 (   47) HAS LZ(WEIGHT)= 0.00(100.0%) 
 MO   137 (   48) HAS LZ(WEIGHT)=-1.00( 50.0%)  1.00( 50.0%) 
 MO   138 (   48) HAS LZ(WEIGHT)=-1.00( 50.0%)  1.00( 50.0%) 
 MO   139 (   48) HAS LZ(WEIGHT)=-2.00( 50.0%)  2.00( 50.0%) 
 MO   140 (   48) HAS LZ(WEIGHT)=-2.00( 10.9%)  0.00( 78.2%)  2.00( 10.9%) 
 MO   141 (   48) HAS LZ(WEIGHT)=-2.00( 39.1%)  0.00( 21.8%)  2.00( 39.1%) 
 MO   142 (   49) HAS LZ(WEIGHT)=-1.00( 50.0%)  1.00( 50.0%) 
 MO   143 (   49) HAS LZ(WEIGHT)= 0.00(100.0%) 
 MO   144 (   49) HAS LZ(WEIGHT)=-1.00( 50.0%)  1.00( 50.0%) 
 MO   145 (   50) HAS LZ(WEIGHT)= 0.00(100.0%) 
 MO   146 (   51) HAS LZ(WEIGHT)= 0.00(100.0%) 
 MO   147 (   52) HAS LZ(WEIGHT)=-1.00( 50.0%)  1.00( 50.0%) 
 MO   148 (   52) HAS LZ(WEIGHT)=-1.00( 50.0%)  1.00( 50.0%) 
 MO   149 (   52) HAS LZ(WEIGHT)= 0.00(100.0%) 
 MO   150 (   53) HAS LZ(WEIGHT)=-2.00( 50.0%)  2.00( 50.0%) 
 MO   151 (   53) HAS LZ(WEIGHT)=-1.00( 50.0%)  1.00( 50.0%) 
 MO   152 (   53) HAS LZ(WEIGHT)=-1.00( 50.0%)  1.00( 50.0%) 
 MO   153 (   53) HAS LZ(WEIGHT)=-2.00( 10.1%)  0.00( 79.7%)  2.00( 10.1%) 
 MO   154 (   53) HAS LZ(WEIGHT)=-2.00( 39.9%)  0.00( 20.3%)  2.00( 39.9%) 
 MO   155 (   54) HAS LZ(WEIGHT)= 0.00(100.0%) 
 MO   156 (   55) HAS LZ(WEIGHT)= 0.00(100.0%) 
 MO   157 (   56) HAS LZ(WEIGHT)=-1.00( 50.0%)  1.00( 50.0%) 
 MO   158 (   56) HAS LZ(WEIGHT)=-1.00( 50.0%)  1.00( 50.0%) 
 MO   159 (   56) HAS LZ(WEIGHT)= 0.00(100.0%) 
 MO   160 (   57) HAS LZ(WEIGHT)= 0.00(100.0%) 
 MO   161 (   58) HAS LZ(WEIGHT)=-1.00( 50.0%)  1.00( 50.0%) 
 MO   162 (   58) HAS LZ(WEIGHT)=-1.00( 50.0%)  1.00( 50.0%) 
 MO   163 (   58) HAS LZ(WEIGHT)= 0.00(100.0%) 
 MO   164 (   59) HAS LZ(WEIGHT)= 0.00(100.0%) 
 MO   165 (   60) HAS LZ(WEIGHT)= 0.00(100.0%) 
 MO   166 (   61) HAS LZ(WEIGHT)= 0.00(100.0%) 
 MO   167 (   62) HAS LZ(WEIGHT)= 0.00(100.0%) 

          ------------
          EIGENVECTORS
          ------------

                      1          2          3          4          5
                -2999.7045  -527.8998  -462.1078  -462.1078  -462.1078
                     AG         AG         B2U        B3U        B1U 
    1  AU 1  S    0.005026  -0.001812  -0.000000  -0.000000  -0.000000
    2  AU 1  S    0.008813  -0.003230  -0.000000  -0.000000  -0.000000
    3  AU 1  S    0.019388  -0.007239  -0.000000  -0.000000  -0.000000
    4  AU 1  S    0.038798  -0.014967  -0.000000  -0.000000  -0.000000
    5  AU 1  S    0.088843  -0.035690  -0.000000  -0.000000  -0.000000
    6  AU 1  S    0.163613  -0.071203  -0.000000  -0.000000  -0.000000
    7  AU 1  S    0.311645  -0.149905  -0.000000  -0.000000  -0.000000
    8  AU 1  S    0.358429  -0.212960  -0.000000  -0.000000  -0.000000
    9  AU 1  S    0.199555   0.009189  -0.000000  -0.000000  -0.000000
   10  AU 1  S    0.044330   0.511485  -0.000000  -0.000000  -0.000000
   11  AU 1  S    0.066231   0.369679  -0.000000  -0.000000  -0.000000
   12  AU 1  S    0.053166  -0.003347  -0.000000  -0.000000  -0.000000
   13  AU 1  S    0.048362  -0.026487  -0.000000  -0.000000  -0.000000
   14  AU 1  S    0.016040  -0.012803  -0.000000  -0.000000  -0.000000
   15  AU 1  S    0.001971   0.000371  -0.000000  -0.000000  -0.000000
   16  AU 1  S    0.001316  -0.001033  -0.000000  -0.000000  -0.000000
   17  AU 1  S    0.000444  -0.000346  -0.000000  -0.000000  -0.000000
   18  AU 1  S    0.000026  -0.000020  -0.000000  -0.000000  -0.000000
   19  AU 1  S   -0.000009   0.000007  -0.000000  -0.000000  -0.000000
   20  AU 1  X    0.000000   0.000000  -0.000000   0.007580  -0.000000
   21  AU 1  Y    0.000000   0.000000   0.007580  -0.000000  -0.000000
   22  AU 1  Z    0.000000   0.000000  -0.000000  -0.000000   0.007580
   23  AU 1  X    0.000000   0.000000  -0.000000   0.003495  -0.000000
   24  AU 1  Y    0.000000   0.000000   0.003495  -0.000000  -0.000000
   25  AU 1  Z    0.000000   0.000000  -0.000000  -0.000000   0.003495
   26  AU 1  X    0.000000   0.000000  -0.000000   0.025894  -0.000000
   27  AU 1  Y    0.000000   0.000000   0.025894  -0.000000  -0.000000
   28  AU 1  Z    0.000000   0.000000  -0.000000  -0.000000   0.025894
   29  AU 1  X    0.000000   0.000000  -0.000000   0.076086  -0.000000
   30  AU 1  Y    0.000000   0.000000   0.076086  -0.000000  -0.000000
   31  AU 1  Z    0.000000   0.000000  -0.000000  -0.000000   0.076086
   32  AU 1  X    0.000000   0.000000  -0.000000   0.198148  -0.000000
   33  AU 1  Y    0.000000   0.000000   0.198148  -0.000000  -0.000000
   34  AU 1  Z    0.000000   0.000000  -0.000000  -0.000000   0.198148
   35  AU 1  X    0.000000   0.000000  -0.000000   0.358560  -0.000000
   36  AU 1  Y    0.000000   0.000000   0.358560  -0.000000  -0.000000
   37  AU 1  Z    0.000000   0.000000  -0.000000  -0.000000   0.358560
   38  AU 1  X    0.000000   0.000000  -0.000000   0.374583  -0.000000
   39  AU 1  Y    0.000000   0.000000   0.374583  -0.000000  -0.000000
   40  AU 1  Z    0.000000   0.000000  -0.000000  -0.000000   0.374583
   41  AU 1  X    0.000000   0.000000  -0.000000   0.138859  -0.000000
   42  AU 1  Y    0.000000   0.000000   0.138859  -0.000000  -0.000000
   43  AU 1  Z    0.000000   0.000000  -0.000000  -0.000000   0.138859
   44  AU 1  X    0.000000   0.000000  -0.000000   0.043183  -0.000000
   45  AU 1  Y    0.000000   0.000000   0.043183  -0.000000  -0.000000
   46  AU 1  Z    0.000000   0.000000  -0.000000  -0.000000   0.043183
   47  AU 1  X    0.000000   0.000000  -0.000000  -0.001884  -0.000000
   48  AU 1  Y    0.000000   0.000000  -0.001884  -0.000000  -0.000000
   49  AU 1  Z    0.000000   0.000000  -0.000000  -0.000000  -0.001884
   50  AU 1  X    0.000000   0.000000  -0.000000   0.003665  -0.000000
   51  AU 1  Y    0.000000   0.000000   0.003665  -0.000000  -0.000000
   52  AU 1  Z    0.000000   0.000000  -0.000000  -0.000000   0.003665
   53  AU 1  X    0.000000   0.000000  -0.000000   0.001795  -0.000000
   54  AU 1  Y    0.000000   0.000000   0.001795  -0.000000  -0.000000
   55  AU 1  Z    0.000000   0.000000  -0.000000  -0.000000   0.001795
   56  AU 1  X    0.000000   0.000000  -0.000000   0.000291  -0.000000
   57  AU 1  Y    0.000000   0.000000   0.000291  -0.000000  -0.000000
   58  AU 1  Z    0.000000   0.000000  -0.000000  -0.000000   0.000291
   59  AU 1  X    0.000000   0.000000  -0.000000  -0.000031  -0.000000
   60  AU 1  Y    0.000000   0.000000  -0.000031  -0.000000  -0.000000
   61  AU 1  Z    0.000000   0.000000  -0.000000  -0.000000  -0.000031
   62  AU 1 XX   -0.005655   0.002098  -0.000000  -0.000000  -0.000000
   63  AU 1 YY   -0.005655   0.002098  -0.000000  -0.000000  -0.000000
   64  AU 1 ZZ   -0.005655   0.002098  -0.000000  -0.000000  -0.000000
   65  AU 1 XY    0.000000   0.000000  -0.000000  -0.000000  -0.000000
   66  AU 1 XZ    0.000000   0.000000  -0.000000  -0.000000  -0.000000
   67  AU 1 YZ    0.000000   0.000000  -0.000000  -0.000000  -0.000000
   68  AU 1 XX   -0.008576   0.003227  -0.000000  -0.000000  -0.000000
   69  AU 1 YY   -0.008576   0.003227  -0.000000  -0.000000  -0.000000
   70  AU 1 ZZ   -0.008576   0.003227  -0.000000  -0.000000  -0.000000
   71  AU 1 XY    0.000000   0.000000  -0.000000  -0.000000  -0.000000
   72  AU 1 XZ    0.000000   0.000000  -0.000000  -0.000000  -0.000000
   73  AU 1 YZ    0.000000   0.000000  -0.000000  -0.000000  -0.000000
   74  AU 1 XX   -0.020882   0.039409  -0.000000  -0.000000  -0.000000
   75  AU 1 YY   -0.020882   0.039409  -0.000000  -0.000000  -0.000000
   76  AU 1 ZZ   -0.020882   0.039409  -0.000000  -0.000000  -0.000000
   77  AU 1 XY    0.000000   0.000000  -0.000000  -0.000000  -0.000000
   78  AU 1 XZ    0.000000   0.000000  -0.000000  -0.000000  -0.000000
   79  AU 1 YZ    0.000000   0.000000  -0.000000  -0.000000  -0.000000
   80  AU 1 XX   -0.031880   0.043331  -0.000000  -0.000000  -0.000000
   81  AU 1 YY   -0.031880   0.043331  -0.000000  -0.000000  -0.000000
   82  AU 1 ZZ   -0.031880   0.043331  -0.000000  -0.000000  -0.000000
   83  AU 1 XY    0.000000   0.000000  -0.000000  -0.000000  -0.000000
   84  AU 1 XZ    0.000000   0.000000  -0.000000  -0.000000  -0.000000
   85  AU 1 YZ    0.000000   0.000000  -0.000000  -0.000000  -0.000000
   86  AU 1 XX   -0.025536   0.025451  -0.000000  -0.000000  -0.000000
   87  AU 1 YY   -0.025536   0.025451  -0.000000  -0.000000  -0.000000
   88  AU 1 ZZ   -0.025536   0.025451  -0.000000  -0.000000  -0.000000
   89  AU 1 XY    0.000000   0.000000  -0.000000  -0.000000  -0.000000
   90  AU 1 XZ    0.000000   0.000000  -0.000000  -0.000000  -0.000000
   91  AU 1 YZ    0.000000   0.000000  -0.000000  -0.000000  -0.000000
   92  AU 1 XX   -0.020322   0.010750  -0.000000  -0.000000  -0.000000
   93  AU 1 YY   -0.020322   0.010750  -0.000000  -0.000000  -0.000000
   94  AU 1 ZZ   -0.020322   0.010750  -0.000000  -0.000000  -0.000000
   95  AU 1 XY    0.000000   0.000000  -0.000000  -0.000000  -0.000000
   96  AU 1 XZ    0.000000   0.000000  -0.000000  -0.000000  -0.000000
   97  AU 1 YZ    0.000000   0.000000  -0.000000  -0.000000  -0.000000
   98  AU 1 XX   -0.005994   0.004123  -0.000000  -0.000000  -0.000000
   99  AU 1 YY   -0.005994   0.004123  -0.000000  -0.000000  -0.000000
  100  AU 1 ZZ   -0.005994   0.004123  -0.000000  -0.000000  -0.000000
  101  AU 1 XY    0.000000   0.000000  -0.000000  -0.000000  -0.000000
  102  AU 1 XZ    0.000000   0.000000  -0.000000  -0.000000  -0.000000
  103  AU 1 YZ    0.000000   0.000000  -0.000000  -0.000000  -0.000000
  104  AU 1 XX   -0.001300   0.000624  -0.000000  -0.000000  -0.000000
  105  AU 1 YY   -0.001300   0.000624  -0.000000  -0.000000  -0.000000
  106  AU 1 ZZ   -0.001300   0.000624  -0.000000  -0.000000  -0.000000
  107  AU 1 XY    0.000000   0.000000  -0.000000  -0.000000  -0.000000
  108  AU 1 XZ    0.000000   0.000000  -0.000000  -0.000000  -0.000000
  109  AU 1 YZ    0.000000   0.000000  -0.000000  -0.000000  -0.000000
  110  AU 1 XX   -0.000405   0.000317  -0.000000  -0.000000  -0.000000
  111  AU 1 YY   -0.000405   0.000317  -0.000000  -0.000000  -0.000000
  112  AU 1 ZZ   -0.000405   0.000317  -0.000000  -0.000000  -0.000000
  113  AU 1 XY    0.000000   0.000000  -0.000000  -0.000000  -0.000000
  114  AU 1 XZ    0.000000   0.000000  -0.000000  -0.000000  -0.000000
  115  AU 1 YZ    0.000000   0.000000  -0.000000  -0.000000  -0.000000
  116  AU 1 XX   -0.000038   0.000029  -0.000000  -0.000000  -0.000000
  117  AU 1 YY   -0.000038   0.000029  -0.000000  -0.000000  -0.000000
  118  AU 1 ZZ   -0.000038   0.000029  -0.000000  -0.000000  -0.000000
  119  AU 1 XY    0.000000   0.000000  -0.000000  -0.000000  -0.000000
  120  AU 1 XZ    0.000000   0.000000  -0.000000  -0.000000  -0.000000
  121  AU 1 YZ    0.000000   0.000000  -0.000000  -0.000000  -0.000000
  122  AU 1 XXX   0.000000   0.000000  -0.000000  -0.003006  -0.000000
  123  AU 1 YYY   0.000000   0.000000  -0.003006  -0.000000  -0.000000
  124  AU 1 ZZZ   0.000000   0.000000  -0.000000  -0.000000  -0.003006
  125  AU 1 XXY   0.000000   0.000000  -0.001344  -0.000000  -0.000000
  126  AU 1 XXZ   0.000000   0.000000  -0.000000  -0.000000  -0.001344
  127  AU 1 YYX   0.000000   0.000000  -0.000000  -0.001344  -0.000000
  128  AU 1 YYZ   0.000000   0.000000  -0.000000  -0.000000  -0.001344
  129  AU 1 ZZX   0.000000   0.000000  -0.000000  -0.001344  -0.000000
  130  AU 1 ZZY   0.000000   0.000000  -0.001344  -0.000000  -0.000000
  131  AU 1 XYZ   0.000000   0.000000  -0.000000  -0.000000  -0.000000
  132  AU 1 XXX   0.000000   0.000000  -0.000000  -0.013356  -0.000000
  133  AU 1 YYY   0.000000   0.000000  -0.013356  -0.000000  -0.000000
  134  AU 1 ZZZ   0.000000   0.000000  -0.000000  -0.000000  -0.013356
  135  AU 1 XXY   0.000000   0.000000  -0.005973  -0.000000  -0.000000
  136  AU 1 XXZ   0.000000   0.000000  -0.000000  -0.000000  -0.005973
  137  AU 1 YYX   0.000000   0.000000  -0.000000  -0.005973  -0.000000
  138  AU 1 YYZ   0.000000   0.000000  -0.000000  -0.000000  -0.005973
  139  AU 1 ZZX   0.000000   0.000000  -0.000000  -0.005973  -0.000000
  140  AU 1 ZZY   0.000000   0.000000  -0.005973  -0.000000  -0.000000
  141  AU 1 XYZ   0.000000   0.000000  -0.000000  -0.000000  -0.000000
  142  AU 1 XXX   0.000000   0.000000  -0.000000  -0.001859  -0.000000
  143  AU 1 YYY   0.000000   0.000000  -0.001859  -0.000000  -0.000000
  144  AU 1 ZZZ   0.000000   0.000000  -0.000000  -0.000000  -0.001859
  145  AU 1 XXY   0.000000   0.000000  -0.000831  -0.000000  -0.000000
  146  AU 1 XXZ   0.000000   0.000000  -0.000000  -0.000000  -0.000831
  147  AU 1 YYX   0.000000   0.000000  -0.000000  -0.000831  -0.000000
  148  AU 1 YYZ   0.000000   0.000000  -0.000000  -0.000000  -0.000831
  149  AU 1 ZZX   0.000000   0.000000  -0.000000  -0.000831  -0.000000
  150  AU 1 ZZY   0.000000   0.000000  -0.000831  -0.000000  -0.000000
  151  AU 1 XYZ   0.000000   0.000000  -0.000000  -0.000000  -0.000000
  152  AU 1 XXX   0.000000   0.000000  -0.000000  -0.001881  -0.000000
  153  AU 1 YYY   0.000000   0.000000  -0.001881  -0.000000  -0.000000
  154  AU 1 ZZZ   0.000000   0.000000  -0.000000  -0.000000  -0.001881
  155  AU 1 XXY   0.000000   0.000000  -0.000841  -0.000000  -0.000000
  156  AU 1 XXZ   0.000000   0.000000  -0.000000  -0.000000  -0.000841
  157  AU 1 YYX   0.000000   0.000000  -0.000000  -0.000841  -0.000000
  158  AU 1 YYZ   0.000000   0.000000  -0.000000  -0.000000  -0.000841
  159  AU 1 ZZX   0.000000   0.000000  -0.000000  -0.000841  -0.000000
  160  AU 1 ZZY   0.000000   0.000000  -0.000841  -0.000000  -0.000000
  161  AU 1 XYZ   0.000000   0.000000  -0.000000  -0.000000  -0.000000
  162  AU 1 XXX   0.000000   0.000000  -0.000000  -0.000338  -0.000000
  163  AU 1 YYY   0.000000   0.000000  -0.000338  -0.000000  -0.000000
  164  AU 1 ZZZ   0.000000   0.000000  -0.000000  -0.000000  -0.000338
  165  AU 1 XXY   0.000000   0.000000  -0.000151  -0.000000  -0.000000
  166  AU 1 XXZ   0.000000   0.000000  -0.000000  -0.000000  -0.000151
  167  AU 1 YYX   0.000000   0.000000  -0.000000  -0.000151  -0.000000
  168  AU 1 YYZ   0.000000   0.000000  -0.000000  -0.000000  -0.000151
  169  AU 1 ZZX   0.000000   0.000000  -0.000000  -0.000151  -0.000000
  170  AU 1 ZZY   0.000000   0.000000  -0.000151  -0.000000  -0.000000
  171  AU 1 XYZ   0.000000   0.000000  -0.000000  -0.000000  -0.000000

                      6          7          8          9         10
                 -126.8406  -107.2998  -107.2998  -107.2998   -83.9114
                     AG         B1U        B2U        B3U        AG  
    1  AU 1  S    0.000859   0.000000   0.000000   0.000000  -0.000000
    2  AU 1  S    0.001535   0.000000   0.000000   0.000000  -0.000000
    3  AU 1  S    0.003452   0.000000   0.000000   0.000000  -0.000000
    4  AU 1  S    0.007176   0.000000   0.000000   0.000000  -0.000000
    5  AU 1  S    0.017226   0.000000   0.000000   0.000000  -0.000000
    6  AU 1  S    0.034828   0.000000   0.000000   0.000000  -0.000000
    7  AU 1  S    0.074676   0.000000   0.000000   0.000000  -0.000000
    8  AU 1  S    0.110744   0.000000   0.000000   0.000000  -0.000000
    9  AU 1  S   -0.031123   0.000000   0.000000   0.000000  -0.000000
   10  AU 1  S   -0.491102   0.000000   0.000000   0.000000   0.000000
   11  AU 1  S   -0.309547   0.000000   0.000000   0.000000   0.000000
   12  AU 1  S    0.706414   0.000000   0.000000   0.000000  -0.000000
   13  AU 1  S    0.588424   0.000000   0.000000   0.000000  -0.000000
   14  AU 1  S    0.068576   0.000000   0.000000   0.000000  -0.000000
   15  AU 1  S   -0.074898   0.000000   0.000000   0.000000  -0.000000
   16  AU 1  S    0.002490   0.000000   0.000000   0.000000   0.000000
   17  AU 1  S    0.000333   0.000000   0.000000   0.000000  -0.000000
   18  AU 1  S    0.000017   0.000000   0.000000   0.000000  -0.000000
   19  AU 1  S   -0.000005   0.000000   0.000000   0.000000  -0.000000
   20  AU 1  X    0.000000   0.000000   0.000000  -0.003972  -0.000000
   21  AU 1  Y    0.000000   0.000000  -0.003972   0.000000  -0.000000
   22  AU 1  Z    0.000000  -0.003972   0.000000   0.000000  -0.000000
   23  AU 1  X    0.000000   0.000000   0.000000  -0.001808  -0.000000
   24  AU 1  Y    0.000000   0.000000  -0.001808   0.000000  -0.000000
   25  AU 1  Z    0.000000  -0.001808   0.000000   0.000000  -0.000000
   26  AU 1  X    0.000000   0.000000   0.000000  -0.013697  -0.000000
   27  AU 1  Y    0.000000   0.000000  -0.013697   0.000000  -0.000000
   28  AU 1  Z    0.000000  -0.013697   0.000000   0.000000  -0.000000
   29  AU 1  X    0.000000   0.000000   0.000000  -0.041435  -0.000000
   30  AU 1  Y    0.000000   0.000000  -0.041435   0.000000  -0.000000
   31  AU 1  Z    0.000000  -0.041435   0.000000   0.000000  -0.000000
   32  AU 1  X    0.000000   0.000000   0.000000  -0.111576  -0.000000
   33  AU 1  Y    0.000000   0.000000  -0.111576   0.000000  -0.000000
   34  AU 1  Z    0.000000  -0.111576   0.000000   0.000000  -0.000000
   35  AU 1  X    0.000000   0.000000   0.000000  -0.217796  -0.000000
   36  AU 1  Y    0.000000   0.000000  -0.217796   0.000000  -0.000000
   37  AU 1  Z    0.000000  -0.217796   0.000000   0.000000  -0.000000
   38  AU 1  X    0.000000   0.000000   0.000000  -0.212445  -0.000000
   39  AU 1  Y    0.000000   0.000000  -0.212445   0.000000  -0.000000
   40  AU 1  Z    0.000000  -0.212445   0.000000   0.000000  -0.000000
   41  AU 1  X    0.000000   0.000000   0.000000   0.319890  -0.000000
   42  AU 1  Y    0.000000   0.000000   0.319890   0.000000  -0.000000
   43  AU 1  Z    0.000000   0.319890   0.000000   0.000000  -0.000000
   44  AU 1  X    0.000000   0.000000   0.000000   0.321550  -0.000000
   45  AU 1  Y    0.000000   0.000000   0.321550   0.000000  -0.000000
   46  AU 1  Z    0.000000   0.321550   0.000000   0.000000  -0.000000
   47  AU 1  X    0.000000   0.000000   0.000000   0.400601  -0.000000
   48  AU 1  Y    0.000000   0.000000   0.400601   0.000000  -0.000000
   49  AU 1  Z    0.000000   0.400601   0.000000   0.000000  -0.000000
   50  AU 1  X    0.000000   0.000000   0.000000   0.030802  -0.000000
   51  AU 1  Y    0.000000   0.000000   0.030802   0.000000  -0.000000
   52  AU 1  Z    0.000000   0.030802   0.000000   0.000000  -0.000000
   53  AU 1  X    0.000000   0.000000   0.000000  -0.005045  -0.000000
   54  AU 1  Y    0.000000   0.000000  -0.005045   0.000000  -0.000000
   55  AU 1  Z    0.000000  -0.005045   0.000000   0.000000  -0.000000
   56  AU 1  X    0.000000   0.000000   0.000000  -0.001345  -0.000000
   57  AU 1  Y    0.000000   0.000000  -0.001345   0.000000  -0.000000
   58  AU 1  Z    0.000000  -0.001345   0.000000   0.000000  -0.000000
   59  AU 1  X    0.000000   0.000000   0.000000   0.000131  -0.000000
   60  AU 1  Y    0.000000   0.000000   0.000131   0.000000  -0.000000
   61  AU 1  Z    0.000000   0.000131   0.000000   0.000000  -0.000000
   62  AU 1 XX   -0.000998   0.000000   0.000000   0.000000  -0.000942
   63  AU 1 YY   -0.000998   0.000000   0.000000   0.000000   0.001068
   64  AU 1 ZZ   -0.000998   0.000000   0.000000   0.000000  -0.000126
   65  AU 1 XY    0.000000   0.000000   0.000000   0.000000  -0.000000
   66  AU 1 XZ    0.000000   0.000000   0.000000   0.000000  -0.000000
   67  AU 1 YZ    0.000000   0.000000   0.000000   0.000000  -0.000000
   68  AU 1 XX   -0.001469   0.000000   0.000000   0.000000  -0.007079
   69  AU 1 YY   -0.001469   0.000000   0.000000   0.000000   0.008024
   70  AU 1 ZZ   -0.001469   0.000000   0.000000   0.000000  -0.000945
   71  AU 1 XY    0.000000   0.000000   0.000000   0.000000  -0.000000
   72  AU 1 XZ    0.000000   0.000000   0.000000   0.000000  -0.000000
   73  AU 1 YZ    0.000000   0.000000   0.000000   0.000000  -0.000000
   74  AU 1 XX   -0.026635   0.000000   0.000000   0.000000  -0.041191
   75  AU 1 YY   -0.026635   0.000000   0.000000   0.000000   0.046692
   76  AU 1 ZZ   -0.026635   0.000000   0.000000   0.000000  -0.005500
   77  AU 1 XY    0.000000   0.000000   0.000000   0.000000  -0.000000
   78  AU 1 XZ    0.000000   0.000000   0.000000   0.000000  -0.000000
   79  AU 1 YZ    0.000000   0.000000   0.000000   0.000000  -0.000000
   80  AU 1 XX   -0.038006   0.000000   0.000000   0.000000  -0.163649
   81  AU 1 YY   -0.038006   0.000000   0.000000   0.000000   0.185502
   82  AU 1 ZZ   -0.038006   0.000000   0.000000   0.000000  -0.021852
   83  AU 1 XY    0.000000   0.000000   0.000000   0.000000  -0.000000
   84  AU 1 XZ    0.000000   0.000000   0.000000   0.000000  -0.000000
   85  AU 1 YZ    0.000000   0.000000   0.000000   0.000000  -0.000000
   86  AU 1 XX    0.007872   0.000000   0.000000   0.000000  -0.364148
   87  AU 1 YY    0.007872   0.000000   0.000000   0.000000   0.412773
   88  AU 1 ZZ    0.007872   0.000000   0.000000   0.000000  -0.048625
   89  AU 1 XY    0.000000   0.000000   0.000000   0.000000  -0.000000
   90  AU 1 XZ    0.000000   0.000000   0.000000   0.000000  -0.000000
   91  AU 1 YZ    0.000000   0.000000   0.000000   0.000000  -0.000000
   92  AU 1 XX   -0.004995   0.000000   0.000000   0.000000  -0.339039
   93  AU 1 YY   -0.004995   0.000000   0.000000   0.000000   0.384312
   94  AU 1 ZZ   -0.004995   0.000000   0.000000   0.000000  -0.045273
   95  AU 1 XY    0.000000   0.000000   0.000000   0.000000  -0.000000
   96  AU 1 XZ    0.000000   0.000000   0.000000   0.000000  -0.000000
   97  AU 1 YZ    0.000000   0.000000   0.000000   0.000000  -0.000000
   98  AU 1 XX    0.008913   0.000000   0.000000   0.000000  -0.070662
   99  AU 1 YY    0.008913   0.000000   0.000000   0.000000   0.080098
  100  AU 1 ZZ    0.008913   0.000000   0.000000   0.000000  -0.009436
  101  AU 1 XY    0.000000   0.000000   0.000000   0.000000  -0.000000
  102  AU 1 XZ    0.000000   0.000000   0.000000   0.000000  -0.000000
  103  AU 1 YZ    0.000000   0.000000   0.000000   0.000000  -0.000000
  104  AU 1 XX    0.013486   0.000000   0.000000   0.000000   0.003259
  105  AU 1 YY    0.013486   0.000000   0.000000   0.000000  -0.003695
  106  AU 1 ZZ    0.013486   0.000000   0.000000   0.000000   0.000435
  107  AU 1 XY    0.000000   0.000000   0.000000   0.000000  -0.000000
  108  AU 1 XZ    0.000000   0.000000   0.000000   0.000000  -0.000000
  109  AU 1 YZ    0.000000   0.000000   0.000000   0.000000  -0.000000
  110  AU 1 XX   -0.000540   0.000000   0.000000   0.000000  -0.001245
  111  AU 1 YY   -0.000540   0.000000   0.000000   0.000000   0.001411
  112  AU 1 ZZ   -0.000540   0.000000   0.000000   0.000000  -0.000166
  113  AU 1 XY    0.000000   0.000000   0.000000   0.000000  -0.000000
  114  AU 1 XZ    0.000000   0.000000   0.000000   0.000000  -0.000000
  115  AU 1 YZ    0.000000   0.000000   0.000000   0.000000  -0.000000
  116  AU 1 XX   -0.000027   0.000000   0.000000   0.000000   0.000384
  117  AU 1 YY   -0.000027   0.000000   0.000000   0.000000  -0.000435
  118  AU 1 ZZ   -0.000027   0.000000   0.000000   0.000000   0.000051
  119  AU 1 XY    0.000000   0.000000   0.000000   0.000000  -0.000000
  120  AU 1 XZ    0.000000   0.000000   0.000000   0.000000  -0.000000
  121  AU 1 YZ    0.000000   0.000000   0.000000   0.000000  -0.000000
  122  AU 1 XXX   0.000000   0.000000   0.000000  -0.006582  -0.000000
  123  AU 1 YYY   0.000000   0.000000  -0.006582   0.000000  -0.000000
  124  AU 1 ZZZ   0.000000  -0.006582   0.000000   0.000000  -0.000000
  125  AU 1 XXY   0.000000   0.000000  -0.002944   0.000000  -0.000000
  126  AU 1 XXZ   0.000000  -0.002944   0.000000   0.000000  -0.000000
  127  AU 1 YYX   0.000000   0.000000   0.000000  -0.002944  -0.000000
  128  AU 1 YYZ   0.000000  -0.002944   0.000000   0.000000  -0.000000
  129  AU 1 ZZX   0.000000   0.000000   0.000000  -0.002944  -0.000000
  130  AU 1 ZZY   0.000000   0.000000  -0.002944   0.000000  -0.000000
  131  AU 1 XYZ   0.000000   0.000000   0.000000   0.000000  -0.000000
  132  AU 1 XXX   0.000000   0.000000   0.000000   0.093062  -0.000000
  133  AU 1 YYY   0.000000   0.000000   0.093062   0.000000  -0.000000
  134  AU 1 ZZZ   0.000000   0.093062   0.000000   0.000000  -0.000000
  135  AU 1 XXY   0.000000   0.000000   0.041619   0.000000  -0.000000
  136  AU 1 XXZ   0.000000   0.041619   0.000000   0.000000  -0.000000
  137  AU 1 YYX   0.000000   0.000000   0.000000   0.041619  -0.000000
  138  AU 1 YYZ   0.000000   0.041619   0.000000   0.000000  -0.000000
  139  AU 1 ZZX   0.000000   0.000000   0.000000   0.041619  -0.000000
  140  AU 1 ZZY   0.000000   0.000000   0.041619   0.000000  -0.000000
  141  AU 1 XYZ   0.000000   0.000000   0.000000   0.000000  -0.000000
  142  AU 1 XXX   0.000000   0.000000   0.000000  -0.019643  -0.000000
  143  AU 1 YYY   0.000000   0.000000  -0.019643   0.000000  -0.000000
  144  AU 1 ZZZ   0.000000  -0.019643   0.000000   0.000000  -0.000000
  145  AU 1 XXY   0.000000   0.000000  -0.008785   0.000000  -0.000000
  146  AU 1 XXZ   0.000000  -0.008785   0.000000   0.000000  -0.000000
  147  AU 1 YYX   0.000000   0.000000   0.000000  -0.008785  -0.000000
  148  AU 1 YYZ   0.000000  -0.008785   0.000000   0.000000  -0.000000
  149  AU 1 ZZX   0.000000   0.000000   0.000000  -0.008785  -0.000000
  150  AU 1 ZZY   0.000000   0.000000  -0.008785   0.000000  -0.000000
  151  AU 1 XYZ   0.000000   0.000000   0.000000   0.000000  -0.000000
  152  AU 1 XXX   0.000000   0.000000   0.000000   0.002499  -0.000000
  153  AU 1 YYY   0.000000   0.000000   0.002499   0.000000  -0.000000
  154  AU 1 ZZZ   0.000000   0.002499   0.000000   0.000000  -0.000000
  155  AU 1 XXY   0.000000   0.000000   0.001117   0.000000  -0.000000
  156  AU 1 XXZ   0.000000   0.001117   0.000000   0.000000  -0.000000
  157  AU 1 YYX   0.000000   0.000000   0.000000   0.001117  -0.000000
  158  AU 1 YYZ   0.000000   0.001117   0.000000   0.000000  -0.000000
  159  AU 1 ZZX   0.000000   0.000000   0.000000   0.001117  -0.000000
  160  AU 1 ZZY   0.000000   0.000000   0.001117   0.000000  -0.000000
  161  AU 1 XYZ   0.000000   0.000000   0.000000   0.000000  -0.000000
  162  AU 1 XXX   0.000000   0.000000   0.000000   0.001378  -0.000000
  163  AU 1 YYY   0.000000   0.000000   0.001378   0.000000  -0.000000
  164  AU 1 ZZZ   0.000000   0.001378   0.000000   0.000000  -0.000000
  165  AU 1 XXY   0.000000   0.000000   0.000616   0.000000  -0.000000
  166  AU 1 XXZ   0.000000   0.000616   0.000000   0.000000  -0.000000
  167  AU 1 YYX   0.000000   0.000000   0.000000   0.000616  -0.000000
  168  AU 1 YYZ   0.000000   0.000616   0.000000   0.000000  -0.000000
  169  AU 1 ZZX   0.000000   0.000000   0.000000   0.000616  -0.000000
  170  AU 1 ZZY   0.000000   0.000000   0.000616   0.000000  -0.000000
  171  AU 1 XYZ   0.000000   0.000000   0.000000   0.000000  -0.000000

                     11         12         13         14         15
                  -83.9114   -83.9114   -83.9114   -83.9114   -28.7344
                     AG         B3G        B2G        B1G        AG  
    1  AU 1  S    0.000000  -0.000000  -0.000000  -0.000000   0.000428
    2  AU 1  S    0.000000  -0.000000  -0.000000  -0.000000   0.000765
    3  AU 1  S    0.000000  -0.000000  -0.000000  -0.000000   0.001722
    4  AU 1  S    0.000000  -0.000000  -0.000000  -0.000000   0.003584
    5  AU 1  S    0.000000  -0.000000  -0.000000  -0.000000   0.008616
    6  AU 1  S    0.000000  -0.000000  -0.000000  -0.000000   0.017495
    7  AU 1  S    0.000000  -0.000000  -0.000000  -0.000000   0.037655
    8  AU 1  S    0.000000  -0.000000  -0.000000  -0.000000   0.056582
    9  AU 1  S    0.000000  -0.000000  -0.000000  -0.000000  -0.018671
   10  AU 1  S    0.000000  -0.000000  -0.000000  -0.000000  -0.288289
   11  AU 1  S    0.000000  -0.000000  -0.000000  -0.000000  -0.161635
   12  AU 1  S   -0.000000  -0.000000  -0.000000  -0.000000   0.923108
   13  AU 1  S   -0.000000  -0.000000  -0.000000  -0.000000   0.182600
   14  AU 1  S    0.000000  -0.000000  -0.000000  -0.000000  -0.701706
   15  AU 1  S    0.000000  -0.000000  -0.000000  -0.000000  -0.646592
   16  AU 1  S    0.000000  -0.000000  -0.000000  -0.000000  -0.015526
   17  AU 1  S    0.000000  -0.000000  -0.000000  -0.000000   0.002478
   18  AU 1  S    0.000000  -0.000000  -0.000000  -0.000000   0.000211
   19  AU 1  S    0.000000  -0.000000  -0.000000  -0.000000  -0.000069
   20  AU 1  X    0.000000  -0.000000  -0.000000  -0.000000  -0.000000
   21  AU 1  Y    0.000000  -0.000000  -0.000000  -0.000000  -0.000000
   22  AU 1  Z    0.000000  -0.000000  -0.000000  -0.000000  -0.000000
   23  AU 1  X    0.000000  -0.000000  -0.000000  -0.000000  -0.000000
   24  AU 1  Y    0.000000  -0.000000  -0.000000  -0.000000  -0.000000
   25  AU 1  Z    0.000000  -0.000000  -0.000000  -0.000000  -0.000000
   26  AU 1  X    0.000000  -0.000000  -0.000000  -0.000000  -0.000000
   27  AU 1  Y    0.000000  -0.000000  -0.000000  -0.000000  -0.000000
   28  AU 1  Z    0.000000  -0.000000  -0.000000  -0.000000  -0.000000
   29  AU 1  X    0.000000  -0.000000  -0.000000  -0.000000  -0.000000
   30  AU 1  Y    0.000000  -0.000000  -0.000000  -0.000000  -0.000000
   31  AU 1  Z    0.000000  -0.000000  -0.000000  -0.000000  -0.000000
   32  AU 1  X    0.000000  -0.000000  -0.000000  -0.000000  -0.000000
   33  AU 1  Y    0.000000  -0.000000  -0.000000  -0.000000  -0.000000
   34  AU 1  Z    0.000000  -0.000000  -0.000000  -0.000000  -0.000000
   35  AU 1  X    0.000000  -0.000000  -0.000000  -0.000000  -0.000000
   36  AU 1  Y    0.000000  -0.000000  -0.000000  -0.000000  -0.000000
   37  AU 1  Z    0.000000  -0.000000  -0.000000  -0.000000  -0.000000
   38  AU 1  X    0.000000  -0.000000  -0.000000  -0.000000  -0.000000
   39  AU 1  Y    0.000000  -0.000000  -0.000000  -0.000000  -0.000000
   40  AU 1  Z    0.000000  -0.000000  -0.000000  -0.000000  -0.000000
   41  AU 1  X    0.000000  -0.000000  -0.000000  -0.000000  -0.000000
   42  AU 1  Y    0.000000  -0.000000  -0.000000  -0.000000  -0.000000
   43  AU 1  Z    0.000000  -0.000000  -0.000000  -0.000000  -0.000000
   44  AU 1  X    0.000000  -0.000000  -0.000000  -0.000000  -0.000000
   45  AU 1  Y    0.000000  -0.000000  -0.000000  -0.000000  -0.000000
   46  AU 1  Z    0.000000  -0.000000  -0.000000  -0.000000  -0.000000
   47  AU 1  X    0.000000  -0.000000  -0.000000  -0.000000  -0.000000
   48  AU 1  Y    0.000000  -0.000000  -0.000000  -0.000000  -0.000000
   49  AU 1  Z    0.000000  -0.000000  -0.000000  -0.000000  -0.000000
   50  AU 1  X    0.000000  -0.000000  -0.000000  -0.000000  -0.000000
   51  AU 1  Y    0.000000  -0.000000  -0.000000  -0.000000  -0.000000
   52  AU 1  Z    0.000000  -0.000000  -0.000000  -0.000000  -0.000000
   53  AU 1  X    0.000000  -0.000000  -0.000000  -0.000000  -0.000000
   54  AU 1  Y    0.000000  -0.000000  -0.000000  -0.000000  -0.000000
   55  AU 1  Z    0.000000  -0.000000  -0.000000  -0.000000  -0.000000
   56  AU 1  X    0.000000  -0.000000  -0.000000  -0.000000  -0.000000
   57  AU 1  Y    0.000000  -0.000000  -0.000000  -0.000000  -0.000000
   58  AU 1  Z    0.000000  -0.000000  -0.000000  -0.000000  -0.000000
   59  AU 1  X    0.000000  -0.000000  -0.000000  -0.000000  -0.000000
   60  AU 1  Y    0.000000  -0.000000  -0.000000  -0.000000  -0.000000
   61  AU 1  Z    0.000000  -0.000000  -0.000000  -0.000000  -0.000000
   62  AU 1 XX   -0.000689  -0.000000  -0.000000  -0.000000  -0.000486
   63  AU 1 YY   -0.000471  -0.000000  -0.000000  -0.000000  -0.000486
   64  AU 1 ZZ    0.001160  -0.000000  -0.000000  -0.000000  -0.000486
   65  AU 1 XY    0.000000  -0.000000  -0.000000   0.001167  -0.000000
   66  AU 1 XZ    0.000000  -0.000000   0.001167  -0.000000  -0.000000
   67  AU 1 YZ    0.000000   0.001167  -0.000000  -0.000000  -0.000000
   68  AU 1 XX   -0.005178  -0.000000  -0.000000  -0.000000  -0.000648
   69  AU 1 YY   -0.003541  -0.000000  -0.000000  -0.000000  -0.000648
   70  AU 1 ZZ    0.008719  -0.000000  -0.000000  -0.000000  -0.000648
   71  AU 1 XY    0.000000  -0.000000  -0.000000   0.008770  -0.000000
   72  AU 1 XZ    0.000000  -0.000000   0.008770  -0.000000  -0.000000
   73  AU 1 YZ    0.000000   0.008770  -0.000000  -0.000000  -0.000000
   74  AU 1 XX   -0.030133  -0.000000  -0.000000  -0.000000  -0.013884
   75  AU 1 YY   -0.020606  -0.000000  -0.000000  -0.000000  -0.013884
   76  AU 1 ZZ    0.050739  -0.000000  -0.000000  -0.000000  -0.013884
   77  AU 1 XY    0.000000  -0.000000  -0.000000   0.051036  -0.000000
   78  AU 1 XZ    0.000000  -0.000000   0.051036  -0.000000  -0.000000
   79  AU 1 YZ    0.000000   0.051036  -0.000000  -0.000000  -0.000000
   80  AU 1 XX   -0.119716  -0.000000  -0.000000  -0.000000  -0.019795
   81  AU 1 YY   -0.081866  -0.000000  -0.000000  -0.000000  -0.019795
   82  AU 1 ZZ    0.201582  -0.000000  -0.000000  -0.000000  -0.019795
   83  AU 1 XY    0.000000  -0.000000  -0.000000   0.202763  -0.000000
   84  AU 1 XZ    0.000000  -0.000000   0.202763  -0.000000  -0.000000
   85  AU 1 YZ    0.000000   0.202763  -0.000000  -0.000000  -0.000000
   86  AU 1 XX   -0.266388  -0.000000  -0.000000  -0.000000   0.022191
   87  AU 1 YY   -0.182167  -0.000000  -0.000000  -0.000000   0.022191
   88  AU 1 ZZ    0.448555  -0.000000  -0.000000  -0.000000   0.022191
   89  AU 1 XY    0.000000  -0.000000  -0.000000   0.451183  -0.000000
   90  AU 1 XZ    0.000000  -0.000000   0.451183  -0.000000  -0.000000
   91  AU 1 YZ    0.000000   0.451183  -0.000000  -0.000000  -0.000000
   92  AU 1 XX   -0.248021  -0.000000  -0.000000  -0.000000   0.053770
   93  AU 1 YY   -0.169606  -0.000000  -0.000000  -0.000000   0.053770
   94  AU 1 ZZ    0.417627  -0.000000  -0.000000  -0.000000   0.053770
   95  AU 1 XY    0.000000  -0.000000  -0.000000   0.420074  -0.000000
   96  AU 1 XZ    0.000000  -0.000000   0.420074  -0.000000  -0.000000
   97  AU 1 YZ    0.000000   0.420074  -0.000000  -0.000000  -0.000000
   98  AU 1 XX   -0.051692  -0.000000  -0.000000  -0.000000  -0.033999
   99  AU 1 YY   -0.035349  -0.000000  -0.000000  -0.000000  -0.033999
  100  AU 1 ZZ    0.087042  -0.000000  -0.000000  -0.000000  -0.033999
  101  AU 1 XY    0.000000  -0.000000  -0.000000   0.087551  -0.000000
  102  AU 1 XZ    0.000000  -0.000000   0.087551  -0.000000  -0.000000
  103  AU 1 YZ    0.000000   0.087551  -0.000000  -0.000000  -0.000000
  104  AU 1 XX    0.002384  -0.000000  -0.000000  -0.000000   0.028345
  105  AU 1 YY    0.001631  -0.000000  -0.000000  -0.000000   0.028345
  106  AU 1 ZZ   -0.004015  -0.000000  -0.000000  -0.000000   0.028345
  107  AU 1 XY    0.000000  -0.000000  -0.000000  -0.004038  -0.000000
  108  AU 1 XZ    0.000000  -0.000000  -0.004038  -0.000000  -0.000000
  109  AU 1 YZ    0.000000  -0.004038  -0.000000  -0.000000  -0.000000
  110  AU 1 XX   -0.000911  -0.000000  -0.000000  -0.000000  -0.000084
  111  AU 1 YY   -0.000623  -0.000000  -0.000000  -0.000000  -0.000084
  112  AU 1 ZZ    0.001533  -0.000000  -0.000000  -0.000000  -0.000084
  113  AU 1 XY    0.000000  -0.000000  -0.000000   0.001542  -0.000000
  114  AU 1 XZ    0.000000  -0.000000   0.001542  -0.000000  -0.000000
  115  AU 1 YZ    0.000000   0.001542  -0.000000  -0.000000  -0.000000
  116  AU 1 XX    0.000281  -0.000000  -0.000000  -0.000000  -0.000283
  117  AU 1 YY    0.000192  -0.000000  -0.000000  -0.000000  -0.000283
  118  AU 1 ZZ   -0.000473  -0.000000  -0.000000  -0.000000  -0.000283
  119  AU 1 XY    0.000000  -0.000000  -0.000000  -0.000475  -0.000000
  120  AU 1 XZ    0.000000  -0.000000  -0.000475  -0.000000  -0.000000
  121  AU 1 YZ    0.000000  -0.000475  -0.000000  -0.000000  -0.000000
  122  AU 1 XXX   0.000000  -0.000000  -0.000000  -0.000000  -0.000000
  123  AU 1 YYY   0.000000  -0.000000  -0.000000  -0.000000  -0.000000
  124  AU 1 ZZZ   0.000000  -0.000000  -0.000000  -0.000000  -0.000000
  125  AU 1 XXY   0.000000  -0.000000  -0.000000  -0.000000  -0.000000
  126  AU 1 XXZ   0.000000  -0.000000  -0.000000  -0.000000  -0.000000
  127  AU 1 YYX   0.000000  -0.000000  -0.000000  -0.000000  -0.000000
  128  AU 1 YYZ   0.000000  -0.000000  -0.000000  -0.000000  -0.000000
  129  AU 1 ZZX   0.000000  -0.000000  -0.000000  -0.000000  -0.000000
  130  AU 1 ZZY   0.000000  -0.000000  -0.000000  -0.000000  -0.000000
  131  AU 1 XYZ   0.000000  -0.000000  -0.000000  -0.000000  -0.000000
  132  AU 1 XXX   0.000000  -0.000000  -0.000000  -0.000000  -0.000000
  133  AU 1 YYY   0.000000  -0.000000  -0.000000  -0.000000  -0.000000
  134  AU 1 ZZZ   0.000000  -0.000000  -0.000000  -0.000000  -0.000000
  135  AU 1 XXY   0.000000  -0.000000  -0.000000  -0.000000  -0.000000
  136  AU 1 XXZ   0.000000  -0.000000  -0.000000  -0.000000  -0.000000
  137  AU 1 YYX   0.000000  -0.000000  -0.000000  -0.000000  -0.000000
  138  AU 1 YYZ   0.000000  -0.000000  -0.000000  -0.000000  -0.000000
  139  AU 1 ZZX   0.000000  -0.000000  -0.000000  -0.000000  -0.000000
  140  AU 1 ZZY   0.000000  -0.000000  -0.000000  -0.000000  -0.000000
  141  AU 1 XYZ   0.000000  -0.000000  -0.000000  -0.000000  -0.000000
  142  AU 1 XXX   0.000000  -0.000000  -0.000000  -0.000000  -0.000000
  143  AU 1 YYY   0.000000  -0.000000  -0.000000  -0.000000  -0.000000
  144  AU 1 ZZZ   0.000000  -0.000000  -0.000000  -0.000000  -0.000000
  145  AU 1 XXY   0.000000  -0.000000  -0.000000  -0.000000  -0.000000
  146  AU 1 XXZ   0.000000  -0.000000  -0.000000  -0.000000  -0.000000
  147  AU 1 YYX   0.000000  -0.000000  -0.000000  -0.000000  -0.000000
  148  AU 1 YYZ   0.000000  -0.000000  -0.000000  -0.000000  -0.000000
  149  AU 1 ZZX   0.000000  -0.000000  -0.000000  -0.000000  -0.000000
  150  AU 1 ZZY   0.000000  -0.000000  -0.000000  -0.000000  -0.000000
  151  AU 1 XYZ   0.000000  -0.000000  -0.000000  -0.000000  -0.000000
  152  AU 1 XXX   0.000000  -0.000000  -0.000000  -0.000000  -0.000000
  153  AU 1 YYY   0.000000  -0.000000  -0.000000  -0.000000  -0.000000
  154  AU 1 ZZZ   0.000000  -0.000000  -0.000000  -0.000000  -0.000000
  155  AU 1 XXY   0.000000  -0.000000  -0.000000  -0.000000  -0.000000
  156  AU 1 XXZ   0.000000  -0.000000  -0.000000  -0.000000  -0.000000
  157  AU 1 YYX   0.000000  -0.000000  -0.000000  -0.000000  -0.000000
  158  AU 1 YYZ   0.000000  -0.000000  -0.000000  -0.000000  -0.000000
  159  AU 1 ZZX   0.000000  -0.000000  -0.000000  -0.000000  -0.000000
  160  AU 1 ZZY   0.000000  -0.000000  -0.000000  -0.000000  -0.000000
  161  AU 1 XYZ   0.000000  -0.000000  -0.000000  -0.000000  -0.000000
  162  AU 1 XXX   0.000000  -0.000000  -0.000000  -0.000000  -0.000000
  163  AU 1 YYY   0.000000  -0.000000  -0.000000  -0.000000  -0.000000
  164  AU 1 ZZZ   0.000000  -0.000000  -0.000000  -0.000000  -0.000000
  165  AU 1 XXY   0.000000  -0.000000  -0.000000  -0.000000  -0.000000
  166  AU 1 XXZ   0.000000  -0.000000  -0.000000  -0.000000  -0.000000
  167  AU 1 YYX   0.000000  -0.000000  -0.000000  -0.000000  -0.000000
  168  AU 1 YYZ   0.000000  -0.000000  -0.000000  -0.000000  -0.000000
  169  AU 1 ZZX   0.000000  -0.000000  -0.000000  -0.000000  -0.000000
  170  AU 1 ZZY   0.000000  -0.000000  -0.000000  -0.000000  -0.000000
  171  AU 1 XYZ   0.000000  -0.000000  -0.000000  -0.000000  -0.000000

                     16         17         18         19         20
                  -22.1018   -22.1018   -22.1018   -13.3410   -13.3410
                     B1U        B3U        B2U        AG         AG  
    1  AU 1  S    0.000000   0.000000   0.000000  -0.000000   0.000000
    2  AU 1  S    0.000000   0.000000   0.000000  -0.000000   0.000000
    3  AU 1  S    0.000000   0.000000   0.000000  -0.000000   0.000000
    4  AU 1  S    0.000000   0.000000   0.000000  -0.000000   0.000000
    5  AU 1  S    0.000000   0.000000   0.000000  -0.000000   0.000000
    6  AU 1  S    0.000000   0.000000   0.000000  -0.000000   0.000000
    7  AU 1  S    0.000000   0.000000   0.000000  -0.000000   0.000000
    8  AU 1  S    0.000000   0.000000   0.000000  -0.000000   0.000000
    9  AU 1  S    0.000000   0.000000   0.000000  -0.000000   0.000000
   10  AU 1  S    0.000000   0.000000   0.000000  -0.000000   0.000000
   11  AU 1  S    0.000000   0.000000   0.000000   0.000000   0.000000
   12  AU 1  S    0.000000   0.000000   0.000000   0.000000   0.000000
   13  AU 1  S    0.000000   0.000000   0.000000  -0.000000  -0.000000
   14  AU 1  S    0.000000   0.000000   0.000000  -0.000000   0.000000
   15  AU 1  S    0.000000   0.000000   0.000000   0.000000   0.000000
   16  AU 1  S    0.000000   0.000000   0.000000  -0.000000   0.000000
   17  AU 1  S    0.000000   0.000000   0.000000  -0.000000   0.000000
   18  AU 1  S    0.000000   0.000000   0.000000  -0.000000   0.000000
   19  AU 1  S    0.000000   0.000000   0.000000  -0.000000   0.000000
   20  AU 1  X    0.000000   0.001981   0.000000  -0.000000   0.000000
   21  AU 1  Y    0.000000   0.000000   0.001981  -0.000000   0.000000
   22  AU 1  Z    0.001981   0.000000   0.000000  -0.000000   0.000000
   23  AU 1  X    0.000000   0.000898   0.000000  -0.000000   0.000000
   24  AU 1  Y    0.000000   0.000000   0.000898  -0.000000   0.000000
   25  AU 1  Z    0.000898   0.000000   0.000000  -0.000000   0.000000
   26  AU 1  X    0.000000   0.006830   0.000000  -0.000000   0.000000
   27  AU 1  Y    0.000000   0.000000   0.006830  -0.000000   0.000000
   28  AU 1  Z    0.006830   0.000000   0.000000  -0.000000   0.000000
   29  AU 1  X    0.000000   0.020881   0.000000  -0.000000   0.000000
   30  AU 1  Y    0.000000   0.000000   0.020881  -0.000000   0.000000
   31  AU 1  Z    0.020881   0.000000   0.000000  -0.000000   0.000000
   32  AU 1  X    0.000000   0.056368   0.000000  -0.000000   0.000000
   33  AU 1  Y    0.000000   0.000000   0.056368  -0.000000   0.000000
   34  AU 1  Z    0.056368   0.000000   0.000000  -0.000000   0.000000
   35  AU 1  X    0.000000   0.113899   0.000000  -0.000000   0.000000
   36  AU 1  Y    0.000000   0.000000   0.113899  -0.000000   0.000000
   37  AU 1  Z    0.113899   0.000000   0.000000  -0.000000   0.000000
   38  AU 1  X    0.000000   0.109989   0.000000  -0.000000   0.000000
   39  AU 1  Y    0.000000   0.000000   0.109989  -0.000000   0.000000
   40  AU 1  Z    0.109989   0.000000   0.000000  -0.000000   0.000000
   41  AU 1  X    0.000000  -0.287450   0.000000  -0.000000   0.000000
   42  AU 1  Y    0.000000   0.000000  -0.287450  -0.000000   0.000000
   43  AU 1  Z   -0.287450   0.000000   0.000000  -0.000000   0.000000
   44  AU 1  X    0.000000  -0.198381   0.000000  -0.000000   0.000000
   45  AU 1  Y    0.000000   0.000000  -0.198381  -0.000000   0.000000
   46  AU 1  Z   -0.198381   0.000000   0.000000  -0.000000   0.000000
   47  AU 1  X    0.000000  -0.182252   0.000000  -0.000000   0.000000
   48  AU 1  Y    0.000000   0.000000  -0.182252  -0.000000   0.000000
   49  AU 1  Z   -0.182252   0.000000   0.000000  -0.000000   0.000000
   50  AU 1  X    0.000000   0.686579   0.000000  -0.000000   0.000000
   51  AU 1  Y    0.000000   0.000000   0.686579  -0.000000   0.000000
   52  AU 1  Z    0.686579   0.000000   0.000000  -0.000000   0.000000
   53  AU 1  X    0.000000   0.384197   0.000000  -0.000000   0.000000
   54  AU 1  Y    0.000000   0.000000   0.384197  -0.000000   0.000000
   55  AU 1  Z    0.384197   0.000000   0.000000  -0.000000   0.000000
   56  AU 1  X    0.000000   0.015806   0.000000  -0.000000   0.000000
   57  AU 1  Y    0.000000   0.000000   0.015806  -0.000000   0.000000
   58  AU 1  Z    0.015806   0.000000   0.000000  -0.000000   0.000000
   59  AU 1  X    0.000000  -0.000886   0.000000  -0.000000   0.000000
   60  AU 1  Y    0.000000   0.000000  -0.000886  -0.000000   0.000000
   61  AU 1  Z   -0.000886   0.000000   0.000000  -0.000000   0.000000
   62  AU 1 XX    0.000000   0.000000   0.000000   0.000435   0.000438
   63  AU 1 YY    0.000000   0.000000   0.000000  -0.000597   0.000157
   64  AU 1 ZZ    0.000000   0.000000   0.000000   0.000162  -0.000595
   65  AU 1 XY    0.000000   0.000000   0.000000  -0.000000   0.000000
   66  AU 1 XZ    0.000000   0.000000   0.000000  -0.000000   0.000000
   67  AU 1 YZ    0.000000   0.000000   0.000000  -0.000000   0.000000
   68  AU 1 XX    0.000000   0.000000   0.000000   0.003159   0.003184
   69  AU 1 YY    0.000000   0.000000   0.000000  -0.004337   0.001143
   70  AU 1 ZZ    0.000000   0.000000   0.000000   0.001178  -0.004327
   71  AU 1 XY    0.000000   0.000000   0.000000  -0.000000   0.000000
   72  AU 1 XZ    0.000000   0.000000   0.000000  -0.000000   0.000000
   73  AU 1 YZ    0.000000   0.000000   0.000000  -0.000000   0.000000
   74  AU 1 XX    0.000000   0.000000   0.000000   0.019305   0.019460
   75  AU 1 YY    0.000000   0.000000   0.000000  -0.026505   0.006988
   76  AU 1 ZZ    0.000000   0.000000   0.000000   0.007201  -0.026448
   77  AU 1 XY    0.000000   0.000000   0.000000  -0.000000   0.000000
   78  AU 1 XZ    0.000000   0.000000   0.000000  -0.000000   0.000000
   79  AU 1 YZ    0.000000   0.000000   0.000000  -0.000000   0.000000
   80  AU 1 XX    0.000000   0.000000   0.000000   0.075794   0.076406
   81  AU 1 YY    0.000000   0.000000   0.000000  -0.104066   0.027437
   82  AU 1 ZZ    0.000000   0.000000   0.000000   0.028272  -0.103843
   83  AU 1 XY    0.000000   0.000000   0.000000  -0.000000   0.000000
   84  AU 1 XZ    0.000000   0.000000   0.000000  -0.000000   0.000000
   85  AU 1 YZ    0.000000   0.000000   0.000000  -0.000000   0.000000
   86  AU 1 XX    0.000000   0.000000   0.000000   0.174520   0.175928
[...]
   29  AU 1  X   -0.000000  -0.000000
   30  AU 1  Y   -0.000000  -0.000000
   31  AU 1  Z   -0.000000  -0.000000
   32  AU 1  X   -0.000000  -0.000000
   33  AU 1  Y   -0.000000  -0.000000
   34  AU 1  Z   -0.000000  -0.000000
   35  AU 1  X   -0.000000  -0.000000
   36  AU 1  Y   -0.000000  -0.000000
   37  AU 1  Z   -0.000000  -0.000000
   38  AU 1  X   -0.000000  -0.000000
   39  AU 1  Y   -0.000000  -0.000000
   40  AU 1  Z   -0.000000  -0.000000
   41  AU 1  X   -0.000000  -0.000000
   42  AU 1  Y   -0.000000  -0.000000
   43  AU 1  Z   -0.000000  -0.000000
   44  AU 1  X   -0.000000  -0.000000
   45  AU 1  Y   -0.000000  -0.000000
   46  AU 1  Z   -0.000000  -0.000000
   47  AU 1  X   -0.000000  -0.000000
   48  AU 1  Y   -0.000000  -0.000000
   49  AU 1  Z   -0.000000  -0.000000
   50  AU 1  X   -0.000000  -0.000000
   51  AU 1  Y   -0.000000  -0.000000
   52  AU 1  Z   -0.000000  -0.000000
   53  AU 1  X   -0.000000  -0.000000
   54  AU 1  Y   -0.000000  -0.000000
   55  AU 1  Z   -0.000000  -0.000000
   56  AU 1  X   -0.000000  -0.000000
   57  AU 1  Y   -0.000000  -0.000000
   58  AU 1  Z   -0.000000  -0.000000
   59  AU 1  X   -0.000000  -0.000000
   60  AU 1  Y   -0.000000  -0.000000
   61  AU 1  Z   -0.000000  -0.000000
   62  AU 1 XX   -1.667511  -0.452117
   63  AU 1 YY   -1.667511  -0.452117
   64  AU 1 ZZ   -1.667511  -0.452117
   65  AU 1 XY   -0.000000  -0.000000
   66  AU 1 XZ   -0.000000  -0.000000
   67  AU 1 YZ   -0.000000  -0.000000
   68  AU 1 XX   -0.678660  -0.158442
   69  AU 1 YY   -0.678660  -0.158442
   70  AU 1 ZZ   -0.678660  -0.158442
   71  AU 1 XY   -0.000000  -0.000000
   72  AU 1 XZ   -0.000000  -0.000000
   73  AU 1 YZ   -0.000000  -0.000000
   74  AU 1 XX   -0.778031  -0.169274
   75  AU 1 YY   -0.778031  -0.169274
   76  AU 1 ZZ   -0.778031  -0.169274
   77  AU 1 XY   -0.000000  -0.000000
   78  AU 1 XZ   -0.000000  -0.000000
   79  AU 1 YZ   -0.000000  -0.000000
   80  AU 1 XX   -0.877424  -0.184005
   81  AU 1 YY   -0.877424  -0.184005
   82  AU 1 ZZ   -0.877424  -0.184005
   83  AU 1 XY   -0.000000  -0.000000
   84  AU 1 XZ   -0.000000  -0.000000
   85  AU 1 YZ   -0.000000  -0.000000
   86  AU 1 XX   -0.634900  -0.129623
   87  AU 1 YY   -0.634900  -0.129623
   88  AU 1 ZZ   -0.634900  -0.129623
   89  AU 1 XY   -0.000000  -0.000000
   90  AU 1 XZ   -0.000000  -0.000000
   91  AU 1 YZ   -0.000000  -0.000000
   92  AU 1 XX   -0.474280  -0.095715
   93  AU 1 YY   -0.474280  -0.095715
   94  AU 1 ZZ   -0.474280  -0.095715
   95  AU 1 XY   -0.000000  -0.000000
   96  AU 1 XZ   -0.000000  -0.000000
   97  AU 1 YZ   -0.000000  -0.000000
   98  AU 1 XX   -0.131964  -0.026395
   99  AU 1 YY   -0.131964  -0.026395
  100  AU 1 ZZ   -0.131964  -0.026395
  101  AU 1 XY   -0.000000  -0.000000
  102  AU 1 XZ   -0.000000  -0.000000
  103  AU 1 YZ   -0.000000  -0.000000
  104  AU 1 XX   -0.025962  -0.005140
  105  AU 1 YY   -0.025962  -0.005140
  106  AU 1 ZZ   -0.025962  -0.005140
  107  AU 1 XY   -0.000000  -0.000000
  108  AU 1 XZ   -0.000000  -0.000000
  109  AU 1 YZ   -0.000000  -0.000000
  110  AU 1 XX   -0.008655  -0.001725
  111  AU 1 YY   -0.008655  -0.001725
  112  AU 1 ZZ   -0.008655  -0.001725
  113  AU 1 XY   -0.000000  -0.000000
  114  AU 1 XZ   -0.000000  -0.000000
  115  AU 1 YZ   -0.000000  -0.000000
  116  AU 1 XX   -0.000792  -0.000158
  117  AU 1 YY   -0.000792  -0.000158
  118  AU 1 ZZ   -0.000792  -0.000158
  119  AU 1 XY   -0.000000  -0.000000
  120  AU 1 XZ   -0.000000  -0.000000
  121  AU 1 YZ   -0.000000  -0.000000
  122  AU 1 XXX  -0.000000  -0.000000
  123  AU 1 YYY  -0.000000  -0.000000
  124  AU 1 ZZZ  -0.000000  -0.000000
  125  AU 1 XXY  -0.000000  -0.000000
  126  AU 1 XXZ  -0.000000  -0.000000
  127  AU 1 YYX  -0.000000  -0.000000
  128  AU 1 YYZ  -0.000000  -0.000000
  129  AU 1 ZZX  -0.000000  -0.000000
  130  AU 1 ZZY  -0.000000  -0.000000
  131  AU 1 XYZ  -0.000000  -0.000000
  132  AU 1 XXX  -0.000000  -0.000000
  133  AU 1 YYY  -0.000000  -0.000000
  134  AU 1 ZZZ  -0.000000  -0.000000
  135  AU 1 XXY  -0.000000  -0.000000
  136  AU 1 XXZ  -0.000000  -0.000000
  137  AU 1 YYX  -0.000000  -0.000000
  138  AU 1 YYZ  -0.000000  -0.000000
  139  AU 1 ZZX  -0.000000  -0.000000
  140  AU 1 ZZY  -0.000000  -0.000000
  141  AU 1 XYZ  -0.000000  -0.000000
  142  AU 1 XXX  -0.000000  -0.000000
  143  AU 1 YYY  -0.000000  -0.000000
  144  AU 1 ZZZ  -0.000000  -0.000000
  145  AU 1 XXY  -0.000000  -0.000000
  146  AU 1 XXZ  -0.000000  -0.000000
  147  AU 1 YYX  -0.000000  -0.000000
  148  AU 1 YYZ  -0.000000  -0.000000
  149  AU 1 ZZX  -0.000000  -0.000000
  150  AU 1 ZZY  -0.000000  -0.000000
  151  AU 1 XYZ  -0.000000  -0.000000
  152  AU 1 XXX  -0.000000  -0.000000
  153  AU 1 YYY  -0.000000  -0.000000
  154  AU 1 ZZZ  -0.000000  -0.000000
  155  AU 1 XXY  -0.000000  -0.000000
  156  AU 1 XXZ  -0.000000  -0.000000
  157  AU 1 YYX  -0.000000  -0.000000
  158  AU 1 YYZ  -0.000000  -0.000000
  159  AU 1 ZZX  -0.000000  -0.000000
  160  AU 1 ZZY  -0.000000  -0.000000
  161  AU 1 XYZ  -0.000000  -0.000000
  162  AU 1 XXX  -0.000000  -0.000000
  163  AU 1 YYY  -0.000000  -0.000000
  164  AU 1 ZZZ  -0.000000  -0.000000
  165  AU 1 XXY  -0.000000  -0.000000
  166  AU 1 XXZ  -0.000000  -0.000000
  167  AU 1 YYX  -0.000000  -0.000000
  168  AU 1 YYZ  -0.000000  -0.000000
  169  AU 1 ZZX  -0.000000  -0.000000
  170  AU 1 ZZY  -0.000000  -0.000000
  171  AU 1 XYZ  -0.000000  -0.000000
 ...... END OF ROHF CALCULATION ......
 STEP CPU TIME =     3.16 TOTAL CPU TIME =        5.4 (    0.1 MIN)
 TOTAL WALL CLOCK TIME=        9.3 SECONDS, CPU UTILIZATION IS  57.82%

     ----------------------------------------------------------------
     PROPERTY VALUES FOR THE ROHF  SELF-CONSISTENT FIELD WAVEFUNCTION
     ----------------------------------------------------------------

          -----------------
          ENERGY COMPONENTS
          -----------------

         WAVEFUNCTION NORMALIZATION =       1.0000000000

                ONE ELECTRON ENERGY =  -26103.1680434155
                TWO ELECTRON ENERGY =    7067.1904791507
           NUCLEAR REPULSION ENERGY =       0.0000000000
                                      ------------------
                       TOTAL ENERGY =  -19035.9775642649

 ELECTRON-ELECTRON POTENTIAL ENERGY =    7067.1904791507
  NUCLEUS-ELECTRON POTENTIAL ENERGY =  -47782.9301841384
   NUCLEUS-NUCLEUS POTENTIAL ENERGY =       0.0000000000
                                      ------------------
             TOTAL POTENTIAL ENERGY =  -40715.7397049878
               TOTAL KINETIC ENERGY =   21679.7621407229
                 VIRIAL RATIO (V/T) =       1.8780528790

          ---------------------------------------
          MULLIKEN AND LOWDIN POPULATION ANALYSES
          ---------------------------------------

     ATOMIC MULLIKEN POPULATION IN EACH MOLECULAR ORBITAL

                      1          2          3          4          5

                  2.000000   2.000000   2.000000   2.000000   2.000000

    1             2.000000   2.000000   2.000000   2.000000   2.000000

                      6          7          8          9         10

                  2.000000   2.000000   2.000000   2.000000   2.000000

    1             2.000000   2.000000   2.000000   2.000000   2.000000

                     11         12         13         14         15

                  2.000000   2.000000   2.000000   2.000000   2.000000

    1             2.000000   2.000000   2.000000   2.000000   2.000000

                     16         17         18         19         20

                  2.000000   2.000000   2.000000   2.000000   2.000000

    1             2.000000   2.000000   2.000000   2.000000   2.000000

                     21         22         23         24         25

                  2.000000   2.000000   2.000000   2.000000   2.000000

    1             2.000000   2.000000   2.000000   2.000000   2.000000

                     26         27         28         29         30

                  2.000000   2.000000   2.000000   2.000000   2.000000

    1             2.000000   2.000000   2.000000   2.000000   2.000000

                     31         32         33         34         35

                  2.000000   2.000000   2.000000   2.000000   2.000000

    1             2.000000   2.000000   2.000000   2.000000   2.000000

                     36         37         38         39         40

                  2.000000   2.000000   2.000000   2.000000   1.000000

    1             2.000000   2.000000   2.000000   2.000000   1.000000

     ATOMIC SPIN POPULATION (ALPHA MINUS BETA)
       ATOM         MULL.POP.                    LOW.POP.
    1 AU            1.000000                     1.000000

               ----- POPULATIONS IN EACH AO -----
                             MULLIKEN      LOWDIN
              1  AU 1  S      0.00032     0.00026
              2  AU 1  S      0.00163     0.00176
              3  AU 1  S      0.00815     0.00954
              4  AU 1  S      0.03142     0.04313
              5  AU 1  S      0.11889     0.17004
              6  AU 1  S      0.30450     0.38832
              7  AU 1  S      0.65495     0.42118
              8  AU 1  S      0.64058     0.32849
              9  AU 1  S      0.33580     0.23247
             10  AU 1  S      1.08996     0.35437
             11  AU 1  S      0.60425     0.28732
             12  AU 1  S      1.14104     0.32979
             13  AU 1  S      0.88846     0.29770
             14  AU 1  S      1.03306     0.34994
             15  AU 1  S      0.72002     0.32069
             16  AU 1  S      1.59582     0.48485
             17  AU 1  S      0.56412     0.35807
             18  AU 1  S      0.71754     0.45912
             19  AU 1  S      0.18336     0.30626
             20  AU 1  X      0.00193     0.00251
             21  AU 1  Y      0.00193     0.00251
             22  AU 1  Z      0.00193     0.00251
             23  AU 1  X      0.00023     0.00019
             24  AU 1  Y      0.00023     0.00019
             25  AU 1  Z      0.00023     0.00019
             26  AU 1  X      0.01736     0.02362
             27  AU 1  Y      0.01736     0.02362
             28  AU 1  Z      0.01736     0.02362
             29  AU 1  X      0.10117     0.13832
             30  AU 1  Y      0.10117     0.13832
             31  AU 1  Z      0.10117     0.13832
             32  AU 1  X      0.39347     0.46194
             33  AU 1  Y      0.39347     0.46194
             34  AU 1  Z      0.39347     0.46194
             35  AU 1  X      0.78461     0.73988
             36  AU 1  Y      0.78461     0.73988
             37  AU 1  Z      0.78461     0.73988
             38  AU 1  X      0.60975     0.46994
             39  AU 1  Y      0.60975     0.46994
             40  AU 1  Z      0.60975     0.46994
             41  AU 1  X      0.70450     0.33104
             42  AU 1  Y      0.70450     0.33104
             43  AU 1  Z      0.70450     0.33104
             44  AU 1  X      0.64524     0.40821
             45  AU 1  Y      0.64524     0.40821
             46  AU 1  Z      0.64524     0.40821
             47  AU 1  X      0.58884     0.29571
             48  AU 1  Y      0.58884     0.29571
             49  AU 1  Z      0.58884     0.29571
             50  AU 1  X      1.17166     0.41510
             51  AU 1  Y      1.17166     0.41510
             52  AU 1  Z      1.17166     0.41510
             53  AU 1  X      0.67005     0.33257
             54  AU 1  Y      0.67005     0.33257
             55  AU 1  Z      0.67005     0.33257
             56  AU 1  X      1.27476     0.58533
             57  AU 1  Y      1.27476     0.58533
             58  AU 1  Z      1.27476     0.58533
             59  AU 1  X      0.60679     0.67773
             60  AU 1  Y      0.60679     0.67773
             61  AU 1  Z      0.60679     0.67773
             62  AU 1 XX     -0.00729     0.13725
             63  AU 1 YY     -0.00729     0.13725
             64  AU 1 ZZ     -0.00729     0.13725
             65  AU 1 XY      0.00007     0.00010
             66  AU 1 XZ      0.00007     0.00010
             67  AU 1 YZ      0.00007     0.00010
             68  AU 1 XX     -0.00318     0.08934
             69  AU 1 YY     -0.00318     0.08934
             70  AU 1 ZZ     -0.00318     0.08934
             71  AU 1 XY      0.00268     0.00428
             72  AU 1 XZ      0.00268     0.00428
             73  AU 1 YZ      0.00268     0.00428
             74  AU 1 XX      0.08513     0.27895
             75  AU 1 YY      0.08513     0.27895
             76  AU 1 ZZ      0.08513     0.27895
             77  AU 1 XY      0.04601     0.06562
             78  AU 1 XZ      0.04601     0.06562
             79  AU 1 YZ      0.04601     0.06562
             80  AU 1 XX      0.26817     0.42691
             81  AU 1 YY      0.26817     0.42691
             82  AU 1 ZZ      0.26817     0.42691
             83  AU 1 XY      0.34791     0.40956
             84  AU 1 XZ      0.34791     0.40956
             85  AU 1 YZ      0.34791     0.40956
             86  AU 1 XX      0.67651     0.86908
             87  AU 1 YY      0.67651     0.86908
             88  AU 1 ZZ      0.67651     0.86908
             89  AU 1 XY      0.95762     0.91516
             90  AU 1 XZ      0.95762     0.91516
             91  AU 1 YZ      0.95762     0.91516
             92  AU 1 XX      0.44027     0.65298
             93  AU 1 YY      0.44027     0.65298
             94  AU 1 ZZ      0.44027     0.65298
             95  AU 1 XY      0.69656     0.68385
             96  AU 1 XZ      0.69656     0.68385
             97  AU 1 YZ      0.69656     0.68385
             98  AU 1 XX      0.71495     0.95750
             99  AU 1 YY      0.71495     0.95750
            100  AU 1 ZZ      0.71495     0.95750
            101  AU 1 XY      1.00571     0.95621
            102  AU 1 XZ      1.00571     0.95621
            103  AU 1 YZ      1.00571     0.95621
            104  AU 1 XX      0.63846     0.82190
            105  AU 1 YY      0.63846     0.82190
            106  AU 1 ZZ      0.63846     0.82190
            107  AU 1 XY      0.94773     0.95954
            108  AU 1 XZ      0.94773     0.95954
            109  AU 1 YZ      0.94773     0.95954
            110  AU 1 XX      0.55873     0.90181
            111  AU 1 YY      0.55873     0.90181
            112  AU 1 ZZ      0.55873     0.90181
            113  AU 1 XY      0.92309     0.92417
            114  AU 1 XZ      0.92309     0.92417
            115  AU 1 YZ      0.92309     0.92417
            116  AU 1 XX      0.75030     0.81652
            117  AU 1 YY      0.75030     0.81652
            118  AU 1 ZZ      0.75030     0.81652
            119  AU 1 XY      1.07261     1.08151
            120  AU 1 XZ      1.07261     1.08151
            121  AU 1 YZ      1.07261     1.08151
            122  AU 1 XXX    -0.01155     0.22065
            123  AU 1 YYY    -0.01155     0.22065
            124  AU 1 ZZZ    -0.01155     0.22065
            125  AU 1 XXY    -0.00016     0.10048
            126  AU 1 XXZ    -0.00016     0.10048
            127  AU 1 YYX    -0.00016     0.10048
            128  AU 1 YYZ    -0.00016     0.10048
            129  AU 1 ZZX    -0.00016     0.10048
            130  AU 1 ZZY    -0.00016     0.10048
            131  AU 1 XYZ     0.00553     0.00736
            132  AU 1 XXX     0.20225     0.44999
            133  AU 1 YYY     0.20225     0.44999
            134  AU 1 ZZZ     0.20225     0.44999
            135  AU 1 XXY     0.13674     0.26827
            136  AU 1 XXZ     0.13674     0.26827
            137  AU 1 YYX     0.13674     0.26827
            138  AU 1 YYZ     0.13674     0.26827
            139  AU 1 ZZX     0.13674     0.26827
            140  AU 1 ZZY     0.13674     0.26827
            141  AU 1 XYZ     0.10439     0.12069
            142  AU 1 XXX     0.29253     0.52436
            143  AU 1 YYY     0.29253     0.52436
            144  AU 1 ZZZ     0.29253     0.52436
            145  AU 1 XXY     0.45908     0.57522
            146  AU 1 XXZ     0.45908     0.57522
            147  AU 1 YYX     0.45908     0.57522
            148  AU 1 YYZ     0.45908     0.57522
            149  AU 1 ZZX     0.45908     0.57522
            150  AU 1 ZZY     0.45908     0.57522
            151  AU 1 XYZ     0.54208     0.54739
            152  AU 1 XXX     0.38940     0.71580
            153  AU 1 YYY     0.38940     0.71580
            154  AU 1 ZZZ     0.38940     0.71580
            155  AU 1 XXY     0.74195     0.86976
            156  AU 1 XXZ     0.74195     0.86976
            157  AU 1 YYX     0.74195     0.86976
            158  AU 1 YYZ     0.74195     0.86976
            159  AU 1 ZZX     0.74195     0.86976
            160  AU 1 ZZY     0.74195     0.86976
            161  AU 1 XYZ     0.91816     0.88452
            162  AU 1 XXX     0.18519     0.54269
            163  AU 1 YYY     0.18519     0.54269
            164  AU 1 ZZZ     0.18519     0.54269
            165  AU 1 XXY     0.34829     0.51848
            166  AU 1 XXZ     0.34829     0.51848
            167  AU 1 YYX     0.34829     0.51848
            168  AU 1 YYZ     0.34829     0.51848
            169  AU 1 ZZX     0.34829     0.51848
            170  AU 1 ZZY     0.34829     0.51848
            171  AU 1 XYZ     0.42984     0.44003

          ----- MULLIKEN ATOMIC OVERLAP POPULATIONS -----
          (OFF-DIAGONAL ELEMENTS NEED TO BE MULTIPLIED BY 2)

             1

    1   79.0000000

          TOTAL MULLIKEN AND LOWDIN ATOMIC POPULATIONS
       ATOM         MULL.POP.    CHARGE          LOW.POP.     CHARGE
    1 AU           79.000000   -0.000000        79.000000    0.000000

          -------------------------------
          BOND ORDER AND VALENCE ANALYSIS     BOND ORDER THRESHOLD=0.050
          -------------------------------

                   BOND                       BOND                       BOND
  ATOM PAIR DIST  ORDER      ATOM PAIR DIST  ORDER      ATOM PAIR DIST  ORDER

                       TOTAL       BONDED        FREE
      ATOM            VALENCE     VALENCE     VALENCE
    1 AU                1.000       0.000       1.000

          -----------------------------------------
          ATOMIC SPIN DENSITY AT THE NUCLEUS (A.U.)
          -----------------------------------------
                            SPIN DENS    ALPHA DENS     BETA DENS
    1  AU          79.0   236.5428475 3024328.26503 3024091.72219

          ---------------------
          ELECTROSTATIC MOMENTS
          ---------------------

 POINT   1           X           Y           Z (BOHR)    CHARGE
                 0.000000    0.000000    0.000000       -0.00 (A.U.)
         DX          DY          DZ         /D/  (DEBYE)
    -0.000000   -0.000000    0.000000    0.000000
 ...... END OF PROPERTY EVALUATION ......
 STEP CPU TIME =     0.07 TOTAL CPU TIME =        5.5 (    0.1 MIN)
 TOTAL WALL CLOCK TIME=        9.4 SECONDS, CPU UTILIZATION IS  58.19%
               580000  WORDS OF DYNAMIC MEMORY USED
 EXECUTION OF GAMESS TERMINATED NORMALLY Mon Nov 28 22:37:07 2016
 DDI: 263640 bytes (0.3 MB / 0 MWords) used by master data server.

 ----------------------------------------
 CPU timing information for all processes
 ========================================
 0: 5.28 + 0.460 = 5.489
 ----------------------------------------
 ddikick.x: exited gracefully.
unset echo
----- accounting info -----
Files used on the master node compute-3-0 were:
-rw-rw-r-- 1 sarom sarom    466808 Nov 29  2016 .//au-resc.dat
-rw-rw-r-- 1 sarom sarom      3741 Nov 29  2016 .//au-resc.F05
-rw-rw-r-- 1 sarom sarom 156073872 Nov 29  2016 .//au-resc.F08
-rw-rw-r-- 1 sarom sarom   5562400 Nov 29  2016 .//au-resc.F10
-rw-rw-r-- 1 sarom sarom      3741 Nov 28 17:27 .//au-resc.inp
-rw-rw-r-- 1 sarom sarom    464886 Nov 29  2016 .//au-resc.log
Mon Nov 28 22:37:10 CST 2016
0.183u 0.602s 0:13.37 5.8%	0+0k 0+136io 0pf+0w
