----- GAMESS execution script 'rungms' -----
This job is running on host compute-3-0
under operating system Linux at Mon Nov 28 22:37:08 CST 2016
Available scratch disk space (Kbyte units) at beginning of the job is
Filesystem            1K-blocks       Used  Available Use% Mounted on
bolt.local:/export/home/sarom
                     9590469632 1553516544 7549785088  18% /home/sarom
Copying input file h-spinor-soc.inp to your run's scratch directory...
cp h-spinor-soc.inp .//h-spinor-soc.F05
unset echo
/home/sarom/gamessGH/ddikick.x /home/sarom/gamessGH/gamess.00.x h-spinor-soc -ddi 1 1 localhost -scr ./

 Distributed Data Interface kickoff program.
 Initiating 1 compute processes on 1 nodes to run the following command:
 /home/sarom/gamessGH/gamess.00.x h-spinor-soc 

          ******************************************************
          *         GAMESS VERSION = 18 AUG 2016 (R1)          *
          *             FROM IOWA STATE UNIVERSITY             *
          * M.W.SCHMIDT, K.K.BALDRIDGE, J.A.BOATZ, S.T.ELBERT, *
          *   M.S.GORDON, J.H.JENSEN, S.KOSEKI, N.MATSUNAGA,   *
          *          K.A.NGUYEN, S.J.SU, T.L.WINDUS,           *
          *       TOGETHER WITH M.DUPUIS, J.A.MONTGOMERY       *
          *         J.COMPUT.CHEM.  14, 1347-1363(1993)        *
          **************** 64 BIT LINUX VERSION ****************

  SINCE 1993, STUDENTS AND POSTDOCS WORKING AT IOWA STATE UNIVERSITY
  AND ALSO IN THEIR VARIOUS JOBS AFTER LEAVING ISU HAVE MADE IMPORTANT
  CONTRIBUTIONS TO THE CODE:
     IVANA ADAMOVIC, CHRISTINE AIKENS, YURI ALEXEEV, POOJA ARORA,
     ANDREY ASADCHEV, ROB BELL, PRADIPTA BANDYOPADHYAY, JONATHAN BENTZ,
     BRETT BODE, KURT BRORSEN, CALEB CARLIN, GALINA CHABAN, WEI CHEN,
     CHEOL HO CHOI, PAUL DAY, ALBERT DEFUSCO, NUWAN DESILVA, TIM DUDLEY,
     DMITRI FEDOROV, GRAHAM FLETCHER, MARK FREITAG, KURT GLAESEMANN,
     DAN KEMP, GRANT MERRILL, NORIYUKI MINEZAWA, JONATHAN MULLIN,
     TAKESHI NAGATA, SEAN NEDD, HEATHER NETZLOFF, BOSILJKA NJEGIC, RYAN OLSON,
     MIKE PAK, SPENCER PRUITT, LUKE ROSKOP, JIM SHOEMAKER, LYUDMILA SLIPCHENKO,
     TONY SMITH, SAROM SOK LEANG, JIE SONG, TETSUYA TAKETSUGU, SIMON WEBB,
     PENG XU, SOOHAENG YOO, FEDERICO ZAHARIEV

  ADDITIONAL CODE HAS BEEN PROVIDED BY COLLABORATORS IN OTHER GROUPS:
     IOWA STATE UNIVERSITY:
          JOE IVANIC, AARON WEST, LAIMUTIS BYTAUTAS, KLAUS RUEDENBERG
     UNIVERSITY OF TOKYO: KIMIHIKO HIRAO, TAKAHITO NAKAJIMA,
          TAKAO TSUNEDA, MUNEAKI KAMIYA, SUSUMU YANAGISAWA,
          KIYOSHI YAGI, MAHITO CHIBA, SEIKEN TOKURA, NAOAKI KAWAKAMI
     UNIVERSITY OF AARHUS: FRANK JENSEN
     UNIVERSITY OF IOWA: VISVALDAS KAIRYS, HUI LI
     NATIONAL INST. OF STANDARDS AND TECHNOLOGY: WALT STEVENS, DAVID GARMER
     UNIVERSITY OF PISA: BENEDETTA MENNUCCI, JACOPO TOMASI
     UNIVERSITY OF MEMPHIS: HENRY KURTZ, PRAKASHAN KORAMBATH
     UNIVERSITY OF ALBERTA: TOBY ZENG, MARIUSZ KLOBUKOWSKI
     UNIVERSITY OF NEW ENGLAND: MARK SPACKMAN
     MIE UNIVERSITY: HIROAKI UMEDA
     NAT. INST. OF ADVANCED INDUSTRIAL SCIENCE AND TECHNOLOGY: KAZUO KITAURA
     MICHIGAN STATE UNIVERSITY:
          KAROL KOWALSKI, MARTA WLOCH, JEFFREY GOUR, JESSE LUTZ,
          WEI LI, PIOTR PIECUCH
     UNIVERSITY OF SILESIA: MONIKA MUSIAL, STANISLAW KUCHARSKI
     FACULTES UNIVERSITAIRES NOTRE-DAME DE LA PAIX:
          OLIVIER QUINET, BENOIT CHAMPAGNE
     UNIVERSITY OF CALIFORNIA - SANTA BARBARA: BERNARD KIRTMAN
     INSTITUTE FOR MOLECULAR SCIENCE:
          KAZUYA ISHIMURA, MICHIO KATOUDA, AND SHIGERU NAGASE
     UNIVERSITY OF NOTRE DAME: ANNA POMOGAEVA, DAN CHIPMAN
     KYUSHU UNIVERSITY:
          HARUYUKI NAKANO,
          FENG LONG GU, JACEK KORCHOWIEC, MARCIN MAKOWSKI, AND YURIKO AOKI,
          HIROTOSHI MORI AND EISAKU MIYOSHI
     PENNSYLVANIA STATE UNIVERSITY:
          TZVETELIN IORDANOV, CHET SWALINA, JONATHAN SKONE,
          SHARON HAMMES-SCHIFFER
     WASEDA UNIVERSITY:
          MASATO KOBAYASHI, TOMOKO AKAMA, TSUGUKI TOUMA,
          TAKESHI YOSHIKAWA, YASUHIRO IKABATA, JUNJI SEINO,
          YUYA NAKAJIMA, HIROMI NAKAI
     NANJING UNIVERSITY: SHUHUA LI
     UNIVERSITY OF NEBRASKA:
          PEIFENG SU, DEJUN SI, NANDUN THELLAMUREGE, YALI WANG, HUI LI
     UNIVERSITY OF ZURICH: ROBERTO PEVERATI, KIM BALDRIDGE
     N. COPERNICUS UNIVERSITY AND JACKSON STATE UNIVERSITY:
          MARIA BARYSZ
     UNIVERSITY OF COPENHAGEN: Jimmy Kromann, CASPER STEINMANN
     TOKYO INSTITUTE OF TECHNOLOGY: HIROYA NAKATA
     NAGOYA UNIVERSITY: YOSHIO NISHIMOTO, STEPHAN IRLE
     MOSCOW STATE UNIVERSITY: VLADIMIR MIRONOV

 EXECUTION OF GAMESS BEGUN Mon Nov 28 22:37:08 2016

            ECHO OF THE FIRST FEW INPUT CARDS -
 INPUT CARD>!   H atom excited state...test case from Toby Zeng...August 2011               
 INPUT CARD>!   the 2-P spinor of H atom is generated.                                      
 INPUT CARD>!                                                                               
 INPUT CARD>!   This generates the spinor shown at equation (3) of the paper:               
 INPUT CARD>!       T.Zeng, D.G.Fedorov, M.W.Schmidt, M.Klobukowski                         
 INPUT CARD>!           J.Chem.Theory Comput. 7, 2864-2875(2011)                            
 INPUT CARD>!   energy is -0.0063557 due to using only a single GTO, not -1/8               
 INPUT CARD>!                                                                               
 INPUT CARD>!   The 2nd spinor in this run will have occupation number 0.50,                
 INPUT CARD>!   and j=1/2, jz= -0.5, with spinor components obeying eq. (3):                
 INPUT CARD>!          5.77350 * px * alpha                                                 
 INPUT CARD>!    - i * 5.77350 * py * alpha                                                 
 INPUT CARD>!        + 5.77350 * pz * beta                                                  
 INPUT CARD>!   but note this is an eigenvector, so the phase is arbitrary, and             
 INPUT CARD>!   this run has been observed to have phase factor i times the above.          
 INPUT CARD>!                                                                               
 INPUT CARD>!   This test requires 0 seconds on 2.66 GHz Cloverton (17 Apr 2015)            
 INPUT CARD>!   results the same since creation in 2011                                     
 INPUT CARD>!                                                                               
 INPUT CARD> $contrl scftyp=none cityp=guga mult=2 runtyp=transitn relwfn=dk ispher=1 $end  
 INPUT CARD> $system mwords=1 $end                                                          
 INPUT CARD> $relwfn norder=2 $end                                                          
 INPUT CARD> $transt operat=hso1 numci=3 numvec=1 nfzc=0 nocc=3                             
 INPUT CARD>         iroots(1)=1,1,1                                                        
 INPUT CARD>         nstate(1)=1,1,1 prtprm=.t.                                             
 INPUT CARD>         parmp=1 istno(1)=-1,-2 $end                                            
 INPUT CARD>!             a p shell lies in the D2h irreps shown below                      
 INPUT CARD> $drt1   fors=.t. group=d2h nalp=1 nval=2                                       
 INPUT CARD>         MXNINT=100000 stsym=b1u $end                                           
 INPUT CARD> $drt2   fors=.t. group=d2h nalp=1 nval=2                                       
 INPUT CARD>         MXNINT=100000 stsym=b2u $end                                           
 INPUT CARD> $drt3   fors=.t. group=d2h nalp=1 nval=2                                       
 INPUT CARD>         MXNINT=100000 stsym=b3u $end                                           
 INPUT CARD> $data                                                                          
 INPUT CARD>hydrogen atom spinor...STO-1G...note that there is no s basis function          
 INPUT CARD>Dnh 2                                                                           
 INPUT CARD>                                                                                
 INPUT CARD>H      1.0                                                                      
 INPUT CARD>  p 1 ; 1 0.1759666885 1.0                                                      
 INPUT CARD>                                                                                
 INPUT CARD> $end                                                                           
 INPUT CARD>--- CLOSED SHELL ORBITALS --- GENERATED AT Mon Apr  4 07:54:41 2011             
 INPUT CARD> h    title                                                                     
 INPUT CARD>                                                                                
 INPUT CARD>Use of single GTO means we can make our LCAO matrix by hand:                    
 INPUT CARD> $VEC1                                                                          
 INPUT CARD> 1  1 1.00000000E+00 0.00000000E+00 0.00000000E+00                              
 INPUT CARD> 2  1 0.00000000E+00 1.00000000E+00 0.00000000E+00                              
 INPUT CARD> 3  1 0.00000000E+00 0.00000000E+00 1.00000000E+00                              
 INPUT CARD> $END                                                                           
    1000000 WORDS OF MEMORY AVAILABLE


     RUN TITLE
     ---------
 hydrogen atom spinor...STO-1G...note that there is no s basis function          

 THE POINT GROUP OF THE MOLECULE IS DNH     
 THE ORDER OF THE PRINCIPAL AXIS IS     2

 ATOM      ATOMIC                      COORDINATES (BOHR)
           CHARGE         X                   Y                   Z
 H           1.0     0.0000000000        0.0000000000        0.0000000000

          INTERNUCLEAR DISTANCES (ANGS.)
          ------------------------------

                1 H     

   1 H       0.0000000  

  * ... LESS THAN  3.000


     ATOMIC BASIS SET
     ----------------
 THE CONTRACTED PRIMITIVE FUNCTIONS HAVE BEEN UNNORMALIZED
 THE CONTRACTED BASIS FUNCTIONS ARE NOW NORMALIZED TO UNITY

  SHELL TYPE  PRIMITIVE        EXPONENT          CONTRACTION COEFFICIENT(S)

 H         

      1   P       1             0.1759667    1.000000000000

 TOTAL NUMBER OF BASIS SET SHELLS             =    1
 NUMBER OF CARTESIAN GAUSSIAN BASIS FUNCTIONS =    3
 NOTE: THIS RUN WILL RESTRICT THE MO VARIATION SPACE TO SPHERICAL HARMONICS.
 THE NUMBER OF ORBITALS KEPT IN THE VARIATIONAL SPACE WILL BE PRINTED LATER.
 NUMBER OF ELECTRONS                          =    1
 CHARGE OF MOLECULE                           =    0
 SPIN MULTIPLICITY                            =    2
 NUMBER OF OCCUPIED ORBITALS (ALPHA)          =    1
 NUMBER OF OCCUPIED ORBITALS (BETA )          =    0
 TOTAL NUMBER OF ATOMS                        =    1
 THE NUCLEAR REPULSION ENERGY IS        0.0000000000

     ---------------------------------
     RELATIVISTIC WAVEFUNCTION OPTIONS
     ---------------------------------
     METHOD=DK       NORDER= 2       NESOC=  1      MODEQR=      1
     NRATOM=  0      QMTTOL= 1.000E-10      QRTOL= 1.000E-02
     CLIGHT=137.03598950     TAU= 3.500E+00

 INTERNAL BASIS SET UNCONTRACTION FOR RESC/DK/IOTC/LUT-IOTC:
     1 SHELLS AND      3 AOS ARE CONSTRUCTED, COMPARED TO
     1 SHELLS AND      3 AOS IN THE CONTRACTED BASIS SET


 THIS MOLECULE IS RECOGNIZED AS BEING LINEAR,
 ORBITAL LZ DEGENERACY TOLERANCE ETOLLZ= 1.00E-06

     $CONTRL OPTIONS
     ---------------
 SCFTYP=NONE         RUNTYP=TRANSITN     EXETYP=RUN     
 MPLEVL=       0     CITYP =GUGA         CCTYP =NONE         VBTYP =NONE    
 DFTTYP=NONE         TDDFT =NONE    
 MULT  =       2     ICHARG=       0     NZVAR =       0     COORD =UNIQUE  
 PP    =NONE         RELWFN=DK           LOCAL =NONE         NUMGRD=       F
 ISPHER=       1     NOSYM =       0     MAXIT =      30     UNITS =ANGS    
 PLTORB=       F     MOLPLT=       F     AIMPAC=       F     FRIEND=        
 NPRINT=       7     IREST =       0     GEOM  =INPUT   
 NORMF =       0     NORMP =       0     ITOL  =      20     ICUT  =       9
 INTTYP=BEST         GRDTYP=BEST         QMTTOL= 1.0E-06

     $SYSTEM OPTIONS
     ---------------
  REPLICATED MEMORY=     1000000 WORDS (ON EVERY NODE).
 DISTRIBUTED MEMDDI=           0 MILLION WORDS IN AGGREGATE,
 MEMDDI DISTRIBUTED OVER   1 PROCESSORS IS           0 WORDS/PROCESSOR.
 TOTAL MEMORY REQUESTED ON EACH PROCESSOR=     1000000 WORDS.
 TIMLIM=      525600.00 MINUTES, OR     365.0 DAYS.
 PARALL= F  BALTYP=  DLB     KDIAG=    0  COREFL= F
 MXSEQ2=     300 MXSEQ3=     150  mem10=         0

          ----------------
          PROPERTIES INPUT
          ----------------

     MOMENTS            FIELD           POTENTIAL          DENSITY
 IEMOM =       1   IEFLD =       0   IEPOT =       0   IEDEN =       0
 WHERE =COMASS     WHERE =NUCLEI     WHERE =NUCLEI     WHERE =NUCLEI  
 OUTPUT=BOTH       OUTPUT=BOTH       OUTPUT=BOTH       OUTPUT=BOTH    
 IEMINT=       0   IEFINT=       0                     IEDINT=       0
                                                       MORB  =       0
          EXTRAPOLATION IN EFFECT
 ORBITAL PRINTING OPTION: NPREO=     1     3     2     1

     -------------------------------
     INTEGRAL TRANSFORMATION OPTIONS
     -------------------------------
     NWORD  =            0
     CUTOFF = 1.0E-09     MPTRAN =       0
     DIRTRF =       F     AOINTS =DUP     

          ----------------------
          INTEGRAL INPUT OPTIONS
          ----------------------
 NOPK  =       1 NORDER=       0 SCHWRZ=       F

     ------------------------------------------
     THE POINT GROUP IS DNH, NAXIS= 2, ORDER= 8
     ------------------------------------------

 -- VARIATIONAL SPACE WILL BE RESTRICTED TO PURE SPHERICAL HARMONICS ONLY --
 AFTER EXCLUDING CONTAMINANT COMBINATIONS FROM THE CARTESIAN GAUSSIAN BASIS
 SET, THE NUMBER OF SPHERICAL HARMONICS KEPT IN THE VARIATION SPACE IS    3

     DIMENSIONS OF THE SYMMETRY SUBSPACES ARE
 AG  =    0     AU  =    0     B3U =    1     B3G =    0     B1G =    0
 B1U =    1     B2U =    1     B2G =    0

 ..... DONE SETTING UP THE RUN .....
 STEP CPU TIME =     0.02 TOTAL CPU TIME =        0.0 (    0.0 MIN)
 TOTAL WALL CLOCK TIME=        0.0 SECONDS, CPU UTILIZATION IS  66.67%

     ------------------------
     TRANSITION MOMENT DRIVER
     ------------------------

     -------------------------------
     INPUT FOR TRANSITION MOMENT RUN
     -------------------------------
     OPERAT=HSO1         NFZC  =       0     NOCC  =       3
     NUMCI =       3     NUMVEC=       1     SYMTOL=   1.0E-04
     IPRHSO=       0     NOSYM =       0     ETOL  =   100.000000
     UPPER ENERGY LIMIT FOR SPIN-ORBIT CI MATRIX   =      100.000 HARTREE.
     TMOMNT=       F     SKIPDM=       T     PRTPRM=       T
     SLOWFF=       F     PHYSRC=       F     MODPAR=       3
     JZ    =       1     PARMP =       1     ZEFTYP=TRUE    
     MCP2E =       0     ONECNT=       0     NFFBUF=      -1
     EEQTOL=   0.10E-05  ISTNO = -1 -2
     DEGTOL= .0200 .0020

     L2VAL =        -1 -1 -1
     IROOTS=         1  1  1
     NSTATE=         1  1  1
     IVEX  =         1  1  1
     ZEFF  =        1.0

          ********************
          1 ELECTRON INTEGRALS
          ********************
 TIME TO DO ORDINARY INTEGRALS=      0.01

 ------------------------------------------------------------------
 2ND ORDER DOUGLAS-KROLL-HESS RELATIVISTIC ONE-ELECTRON HAMILTONIAN
            CODED BY TAKAHITO NAKAJIMA AND DMITRI FEDOROV
 ------------------------------------------------------------------

 TIME TO DO  RELATIVISTIC INTS=      0.00
 ...... END OF ONE-ELECTRON INTEGRALS ......
 STEP CPU TIME =     0.01 TOTAL CPU TIME =        0.0 (    0.0 MIN)
 TOTAL WALL CLOCK TIME=        0.0 SECONDS, CPU UTILIZATION IS 100.00%
 OPENING FILE SOCCDAT WITH      18 LOGICAL RECORDS OF       0 WORDS
 WITH A MAXIMUM OF          18 PHYSICAL RECORDS OF    2048 WORDS


          ----------------------
          CORRESPONDING ORBITALS
          ----------------------
 THE CORRESPONDING ORBITAL OVERLAPS ARE
  1.0000000000 1.0000000000 1.0000000000
 STEP CPU TIME =     0.00 TOTAL CPU TIME =        0.0 (    0.0 MIN)
 TOTAL WALL CLOCK TIME=        0.0 SECONDS, CPU UTILIZATION IS 100.00%

                    ----------------------
                    AO INTEGRAL TECHNOLOGY
                    ----------------------
     S,P,L SHELL ROTATED AXIS INTEGRALS, REPROGRAMMED BY
        KAZUYA ISHIMURA (IMS) AND JOSE SIERRA (SYNSTAR).
     S,P,D,L SHELL ROTATED AXIS INTEGRALS PROGRAMMED BY
        KAZUYA ISHIMURA (INSTITUTE FOR MOLECULAR SCIENCE).
     S,P,D,F,G SHELL TO TOTAL QUARTET ANGULAR MOMENTUM SUM 5,
        ERIC PROGRAM BY GRAHAM FLETCHER (ELORET AND NASA ADVANCED
        SUPERCOMPUTING DIVISION, AMES RESEARCH CENTER).
     S,P,D,F,G,L SHELL GENERAL RYS QUADRATURE PROGRAMMED BY
        MICHEL DUPUIS (PACIFIC NORTHWEST NATIONAL LABORATORY).

          --------------------
          2 ELECTRON INTEGRALS
          --------------------

 THE -PK- OPTION IS OFF, THE INTEGRALS ARE NOT IN SUPERMATRIX FORM.
 STORING   15000 INTEGRALS/RECORD ON DISK, USING 12 BYTES/INTEGRAL.
 TWO ELECTRON INTEGRAL EVALUATION REQUIRES   89357 WORDS OF MEMORY.
 II,JST,KST,LST =  1  1  1  1 NREC =         1 INTLOC =    1
 TOTAL NUMBER OF NONZERO TWO-ELECTRON INTEGRALS =                   9
          1 INTEGRAL RECORDS WERE STORED ON DISK FILE  8.
  ...... END OF TWO-ELECTRON INTEGRALS .....
 STEP CPU TIME =     0.02 TOTAL CPU TIME =        0.0 (    0.0 MIN)
 TOTAL WALL CLOCK TIME=        0.1 SECONDS, CPU UTILIZATION IS  55.56%
 ...... END OF ORBITAL SELECTION ......


     -------------------------
      1-ST     CI CALCULATION
     -------------------------

          -----------------------     ----------------------------
          GUGA DISTINCT ROW TABLE     WRITTEN BY B.R.BROOKS,P.SAXE
          -----------------------     ----------------------------

      GROUP=D2H          NPRT=       0
       FORS=       T   INTACT=       F
       FOCI=       F   MXNINT=  100000
       SOCI=       F   MXNEME=   10000
     IEXCIT=       0

      -CORE-    -INTERNAL-  -EXTERNAL-
     NFZC=   0   NDOC=   0   NEXT=   0
     NMCC=   0   NAOS=   0   NFZV=   0
                 NBOS=   0
                 NALP=   1
                 NVAL=   2

 THE MAXIMUM ELECTRON EXCITATION WILL BE   1

 SYMMETRIES FOR THE   0 CORE,   3 ACTIVE,   0 EXTERNAL MO-S ARE
   ACTIVE= B3U   B2U   B1U 
           ALP   VAL   VAL 

 MOLECULAR CHARGE          =    0
 NUMBER OF ALPHA ELECTRONS =    1
 NUMBER OF  BETA ELECTRONS =    0

 THE ELECTRONIC STATE IS  2-B1U 

 THE DISTINCT ROW TABLE HAS         4 ROWS.
  THE WAVEFUNCTION CONTAINS         1 WALKS (CSF-S).

 TOTAL NUMBER OF INTEGRALS =         12
 NUMBER OF INTEGRALS/GROUP =         12
 NUMBER OF INTEGRAL GROUPS =          1
 MAXIMUM RECORD SIZES ARE     500 FOR UNIT 11      22 FOR UNIT 12
                            30001 FOR UNIT 15   30001 FOR UNIT 16
 ...... END OF -DRT- GENERATION ...... 
 STEP CPU TIME =     0.00 TOTAL CPU TIME =        0.0 (    0.0 MIN)
 TOTAL WALL CLOCK TIME=        0.1 SECONDS, CPU UTILIZATION IS  55.56%

     --------------------------------------------
     PARTIAL TWO ELECTRON INTEGRAL TRANSFORMATION
     --------------------------------------------

 NUMBER OF CORE MOLECULAR ORBITALS     =    0
 NUMBER OF OCCUPIED MOLECULAR ORBITALS =    1
 TOTAL NUMBER OF MOLECULAR ORBITALS    =    3
 TOTAL NUMBER OF ATOMIC ORBITALS       =    3
 THRESHOLD FOR KEEPING TRANSFORMED 2E- INTEGRALS = 1.000E-09
 AO INTEGRALS WILL BE READ IN FROM DISK...

 PLAN A: REQUIREMENTS FOR FULLY IN-MEMORY TRANSFORMATION:
 # OF WORDS AVAILABLE =               971310
 # OF WORDS NEEDED    =                60071

 CHOOSING IN MEMORY PARTIAL TRANSFORMATION...
 TOTAL NUMBER OF TRANSFORMED 2E- INTEGRALS KEPT =            5
 ... END OF INTEGRAL TRANSFORMATION ...
 STEP CPU TIME =     0.00 TOTAL CPU TIME =        0.0 (    0.0 MIN)
 TOTAL WALL CLOCK TIME=        0.1 SECONDS, CPU UTILIZATION IS  55.56%

          ------------------------
          GUGA-CI INTEGRAL SORTING
          ------------------------

    130073 WORDS NEEDED TO SORT             12 GUGA INTEGRALS IN MEMORY
    971310 WORDS ARE AVAILABLE
 CHOOSING IN-MEMORY SORTING...
 IN CORE ALGORITHM SORTED              3 NON-ZERO 1E- INTEGRALS
 IN CORE ALGORITHM SORTED              5 NON-ZERO 2E- INTEGRALS
 ...... END OF INTEGRAL SORTING ...... 
 STEP CPU TIME =     0.00 TOTAL CPU TIME =        0.0 (    0.0 MIN)
 TOTAL WALL CLOCK TIME=        0.1 SECONDS, CPU UTILIZATION IS  50.00%

 -------------------------     ---------------------------------------
 ENERGY MATRIX CALCULATION     WRITTEN BY B.R.BROOKS,W.D.LAIDIG,P.SAXE
 -------------------------     ---------------------------------------

 COMPUTING THE HAMILTONIAN FOR THE         1 CSF-S...

           1 IS THE TOTAL NUMBER OF GENERATED LOOPS
           1 WERE CREATED BY THE LOOP-DRIVEN ALGORITHM
           0 WERE CREATED IMPLICITLY

           1 IS THE TOTAL NUMBER OF PROCESSED LOOPS
           1     DIAGONAL LOOPS ARE STORED ON WORK15 IN     1 BUFFERS OF  10000 ELEMENTS.
           0 OFF DIAGONAL LOOPS ARE STORED ON WORK16 IN     1 BUFFERS OF  10000 ELEMENTS.
 ...... END OF ENERGY MATRIX CALCULATION ...... 
 STEP CPU TIME =     0.00 TOTAL CPU TIME =        0.0 (    0.0 MIN)
 TOTAL WALL CLOCK TIME=        0.1 SECONDS, CPU UTILIZATION IS  45.45%

          -----------------------------------------
          DAVIDSON METHOD CI-MATRIX DIAGONALIZATION
                   WRITTEN BY STEVE ELBERT
          -----------------------------------------
 NUMBER OF STATES REQUESTED =     1
 MAX. NUMB. OF EXPAN. VEC   =    30
 MAX. NUMB. IMPROVED STATES =     1
 MAX. NUMB. OF ITERATIONS   =    50
 CONVERGENCE CRITERION      =    1.0E-06

 CHOOSING TO SOLVE SECULAR EQUATION IN MEMORY
 NUMBER OF WORDS AVAILABLE =     971310
 NUMBER OF WORDS USED      =      30960
 ENERGY MATRIX BUFFER SIZE =      10000
 SOLUTION FOUND WITH DIRECT METHOD

 STATE #    1  ENERGY =      -0.006355712

      CSF      COEF    OCCUPANCY (IGNORING CORE)
      ---      ----    --------- --------- -----
        1    1.000000  001

 THE PROJECTION OF THIS CI STATE ONTO SPACE SYMMETRY B1U  WEIGHS 1.0000E+00

 ...... END OF CI-MATRIX DIAGONALIZATION ......
 STEP CPU TIME =     0.00 TOTAL CPU TIME =        0.0 (    0.0 MIN)
 TOTAL WALL CLOCK TIME=        0.1 SECONDS, CPU UTILIZATION IS  45.45%

          ---------------------
          STORE CSF INFORMATION
          --------------------

 READING THE DRT FILE
 TITLE=DRT1    Mon Nov 28 22:37:08 2016                                                
 NUMBER OF CONFIGURATIONS =          1

 READING THE CI VECTOR FILE
 RUN TITLE=hydrogen atom spinor...STO-1G...note that there is no s basis function          
 DRT TITLE=DRT1    Mon Nov 28 22:37:08 2016                                                
     1 STATES WERE COMPUTED, NWKS=         1

 STORING CSF AND CI COEF. INFORMATION FOR    1 STATES ON FILE  17.
     ENERGIES ARE ...
      -0.0063557
 SAVING CSFS WITH COEFS LARGER THAN 3.33E-05
 SAVED CSFS:          1
 TOTAL CSFS:          1

 ...... DONE STORING CSF INFORMATION ......
 STEP CPU TIME =     0.00 TOTAL CPU TIME =        0.0 (    0.0 MIN)
 TOTAL WALL CLOCK TIME=        0.1 SECONDS, CPU UTILIZATION IS  45.45%


     -------------------------
      2-ND     CI CALCULATION
     -------------------------

          -----------------------     ----------------------------
          GUGA DISTINCT ROW TABLE     WRITTEN BY B.R.BROOKS,P.SAXE
          -----------------------     ----------------------------

      GROUP=D2H          NPRT=       0
       FORS=       T   INTACT=       F
       FOCI=       F   MXNINT=  100000
       SOCI=       F   MXNEME=   10000
     IEXCIT=       0

      -CORE-    -INTERNAL-  -EXTERNAL-
     NFZC=   0   NDOC=   0   NEXT=   0
     NMCC=   0   NAOS=   0   NFZV=   0
                 NBOS=   0
                 NALP=   1
                 NVAL=   2

 THE MAXIMUM ELECTRON EXCITATION WILL BE   1

 SYMMETRIES FOR THE   0 CORE,   3 ACTIVE,   0 EXTERNAL MO-S ARE
   ACTIVE= B3U   B2U   B1U 
           ALP   VAL   VAL 

 MOLECULAR CHARGE          =    0
 NUMBER OF ALPHA ELECTRONS =    1
 NUMBER OF  BETA ELECTRONS =    0

 THE ELECTRONIC STATE IS  2-B2U 

 THE DISTINCT ROW TABLE HAS         4 ROWS.
  THE WAVEFUNCTION CONTAINS         1 WALKS (CSF-S).

 TOTAL NUMBER OF INTEGRALS =         12
 NUMBER OF INTEGRALS/GROUP =         12
 NUMBER OF INTEGRAL GROUPS =          1
 MAXIMUM RECORD SIZES ARE     500 FOR UNIT 11      22 FOR UNIT 12
                            30001 FOR UNIT 15   30001 FOR UNIT 16
 ...... END OF -DRT- GENERATION ...... 
 STEP CPU TIME =     0.00 TOTAL CPU TIME =        0.0 (    0.0 MIN)
 TOTAL WALL CLOCK TIME=        0.1 SECONDS, CPU UTILIZATION IS  41.67%

     --------------------------------------------
     PARTIAL TWO ELECTRON INTEGRAL TRANSFORMATION
     --------------------------------------------

 NUMBER OF CORE MOLECULAR ORBITALS     =    0
 NUMBER OF OCCUPIED MOLECULAR ORBITALS =    1
 TOTAL NUMBER OF MOLECULAR ORBITALS    =    3
 TOTAL NUMBER OF ATOMIC ORBITALS       =    3
 THRESHOLD FOR KEEPING TRANSFORMED 2E- INTEGRALS = 1.000E-09
 AO INTEGRALS WILL BE READ IN FROM DISK...

 PLAN A: REQUIREMENTS FOR FULLY IN-MEMORY TRANSFORMATION:
 # OF WORDS AVAILABLE =               971310
 # OF WORDS NEEDED    =                60071

 CHOOSING IN MEMORY PARTIAL TRANSFORMATION...
 TOTAL NUMBER OF TRANSFORMED 2E- INTEGRALS KEPT =            5
 ... END OF INTEGRAL TRANSFORMATION ...
 STEP CPU TIME =     0.00 TOTAL CPU TIME =        0.0 (    0.0 MIN)
 TOTAL WALL CLOCK TIME=        0.1 SECONDS, CPU UTILIZATION IS  38.46%

          ------------------------
          GUGA-CI INTEGRAL SORTING
          ------------------------

    130073 WORDS NEEDED TO SORT             12 GUGA INTEGRALS IN MEMORY
    971310 WORDS ARE AVAILABLE
 CHOOSING IN-MEMORY SORTING...
 IN CORE ALGORITHM SORTED              3 NON-ZERO 1E- INTEGRALS
 IN CORE ALGORITHM SORTED              5 NON-ZERO 2E- INTEGRALS
 ...... END OF INTEGRAL SORTING ...... 
 STEP CPU TIME =     0.00 TOTAL CPU TIME =        0.0 (    0.0 MIN)
 TOTAL WALL CLOCK TIME=        0.1 SECONDS, CPU UTILIZATION IS  35.71%

 -------------------------     ---------------------------------------
 ENERGY MATRIX CALCULATION     WRITTEN BY B.R.BROOKS,W.D.LAIDIG,P.SAXE
 -------------------------     ---------------------------------------

 COMPUTING THE HAMILTONIAN FOR THE         1 CSF-S...

           1 IS THE TOTAL NUMBER OF GENERATED LOOPS
           1 WERE CREATED BY THE LOOP-DRIVEN ALGORITHM
           0 WERE CREATED IMPLICITLY

           1 IS THE TOTAL NUMBER OF PROCESSED LOOPS
           1     DIAGONAL LOOPS ARE STORED ON WORK15 IN     1 BUFFERS OF  10000 ELEMENTS.
           0 OFF DIAGONAL LOOPS ARE STORED ON WORK16 IN     1 BUFFERS OF  10000 ELEMENTS.
 ...... END OF ENERGY MATRIX CALCULATION ...... 
 STEP CPU TIME =     0.00 TOTAL CPU TIME =        0.0 (    0.0 MIN)
 TOTAL WALL CLOCK TIME=        0.2 SECONDS, CPU UTILIZATION IS  33.33%

          -----------------------------------------
          DAVIDSON METHOD CI-MATRIX DIAGONALIZATION
                   WRITTEN BY STEVE ELBERT
          -----------------------------------------
 NUMBER OF STATES REQUESTED =     1
 MAX. NUMB. OF EXPAN. VEC   =    30
 MAX. NUMB. IMPROVED STATES =     1
 MAX. NUMB. OF ITERATIONS   =    50
 CONVERGENCE CRITERION      =    1.0E-06

 CHOOSING TO SOLVE SECULAR EQUATION IN MEMORY
 NUMBER OF WORDS AVAILABLE =     971310
 NUMBER OF WORDS USED      =      30960
 ENERGY MATRIX BUFFER SIZE =      10000
 SOLUTION FOUND WITH DIRECT METHOD

 STATE #    1  ENERGY =      -0.006355712

      CSF      COEF    OCCUPANCY (IGNORING CORE)
      ---      ----    --------- --------- -----
        1    1.000000  010

 THE PROJECTION OF THIS CI STATE ONTO SPACE SYMMETRY B2U  WEIGHS 1.0000E+00

 ...... END OF CI-MATRIX DIAGONALIZATION ......
 STEP CPU TIME =     0.00 TOTAL CPU TIME =        0.0 (    0.0 MIN)
 TOTAL WALL CLOCK TIME=        0.2 SECONDS, CPU UTILIZATION IS  33.33%

          ---------------------
          STORE CSF INFORMATION
          --------------------

 READING THE DRT FILE
 TITLE=DRT2    Mon Nov 28 22:37:08 2016                                                
 NUMBER OF CONFIGURATIONS =          1

 READING THE CI VECTOR FILE
 RUN TITLE=hydrogen atom spinor...STO-1G...note that there is no s basis function          
 DRT TITLE=DRT2    Mon Nov 28 22:37:08 2016                                                
     1 STATES WERE COMPUTED, NWKS=         1

 STORING CSF AND CI COEF. INFORMATION FOR    1 STATES ON FILE  17.
     ENERGIES ARE ...
      -0.0063557
 SAVING CSFS WITH COEFS LARGER THAN 3.33E-05
 SAVED CSFS:          1
 TOTAL CSFS:          1

 ...... DONE STORING CSF INFORMATION ......
 STEP CPU TIME =     0.00 TOTAL CPU TIME =        0.0 (    0.0 MIN)
 TOTAL WALL CLOCK TIME=        0.2 SECONDS, CPU UTILIZATION IS  33.33%


     -------------------------
      3-RD     CI CALCULATION
     -------------------------

          -----------------------     ----------------------------
          GUGA DISTINCT ROW TABLE     WRITTEN BY B.R.BROOKS,P.SAXE
          -----------------------     ----------------------------

      GROUP=D2H          NPRT=       0
       FORS=       T   INTACT=       F
       FOCI=       F   MXNINT=  100000
       SOCI=       F   MXNEME=   10000
     IEXCIT=       0

      -CORE-    -INTERNAL-  -EXTERNAL-
     NFZC=   0   NDOC=   0   NEXT=   0
     NMCC=   0   NAOS=   0   NFZV=   0
                 NBOS=   0
                 NALP=   1
                 NVAL=   2

 THE MAXIMUM ELECTRON EXCITATION WILL BE   1

 SYMMETRIES FOR THE   0 CORE,   3 ACTIVE,   0 EXTERNAL MO-S ARE
   ACTIVE= B3U   B2U   B1U 
           ALP   VAL   VAL 

 MOLECULAR CHARGE          =    0
 NUMBER OF ALPHA ELECTRONS =    1
 NUMBER OF  BETA ELECTRONS =    0

 THE ELECTRONIC STATE IS  2-B3U 

 THE DISTINCT ROW TABLE HAS         4 ROWS.
  THE WAVEFUNCTION CONTAINS         1 WALKS (CSF-S).

 TOTAL NUMBER OF INTEGRALS =         12
 NUMBER OF INTEGRALS/GROUP =         12
 NUMBER OF INTEGRAL GROUPS =          1
 MAXIMUM RECORD SIZES ARE     500 FOR UNIT 11      22 FOR UNIT 12
                            30001 FOR UNIT 15   30001 FOR UNIT 16
 ...... END OF -DRT- GENERATION ...... 
 STEP CPU TIME =     0.00 TOTAL CPU TIME =        0.0 (    0.0 MIN)
 TOTAL WALL CLOCK TIME=        0.2 SECONDS, CPU UTILIZATION IS  33.33%

     --------------------------------------------
     PARTIAL TWO ELECTRON INTEGRAL TRANSFORMATION
     --------------------------------------------

 NUMBER OF CORE MOLECULAR ORBITALS     =    0
 NUMBER OF OCCUPIED MOLECULAR ORBITALS =    1
 TOTAL NUMBER OF MOLECULAR ORBITALS    =    3
 TOTAL NUMBER OF ATOMIC ORBITALS       =    3
 THRESHOLD FOR KEEPING TRANSFORMED 2E- INTEGRALS = 1.000E-09
 AO INTEGRALS WILL BE READ IN FROM DISK...

 PLAN A: REQUIREMENTS FOR FULLY IN-MEMORY TRANSFORMATION:
 # OF WORDS AVAILABLE =               971310
 # OF WORDS NEEDED    =                60071

 CHOOSING IN MEMORY PARTIAL TRANSFORMATION...
 TOTAL NUMBER OF TRANSFORMED 2E- INTEGRALS KEPT =            5
 ... END OF INTEGRAL TRANSFORMATION ...
 STEP CPU TIME =     0.00 TOTAL CPU TIME =        0.0 (    0.0 MIN)
 TOTAL WALL CLOCK TIME=        0.2 SECONDS, CPU UTILIZATION IS  33.33%

          ------------------------
          GUGA-CI INTEGRAL SORTING
          ------------------------

    130073 WORDS NEEDED TO SORT             12 GUGA INTEGRALS IN MEMORY
    971310 WORDS ARE AVAILABLE
 CHOOSING IN-MEMORY SORTING...
 IN CORE ALGORITHM SORTED              3 NON-ZERO 1E- INTEGRALS
 IN CORE ALGORITHM SORTED              5 NON-ZERO 2E- INTEGRALS
 ...... END OF INTEGRAL SORTING ...... 
 STEP CPU TIME =     0.00 TOTAL CPU TIME =        0.0 (    0.0 MIN)
 TOTAL WALL CLOCK TIME=        0.2 SECONDS, CPU UTILIZATION IS  31.25%

 -------------------------     ---------------------------------------
 ENERGY MATRIX CALCULATION     WRITTEN BY B.R.BROOKS,W.D.LAIDIG,P.SAXE
 -------------------------     ---------------------------------------

 COMPUTING THE HAMILTONIAN FOR THE         1 CSF-S...

           1 IS THE TOTAL NUMBER OF GENERATED LOOPS
           1 WERE CREATED BY THE LOOP-DRIVEN ALGORITHM
           0 WERE CREATED IMPLICITLY

           1 IS THE TOTAL NUMBER OF PROCESSED LOOPS
           1     DIAGONAL LOOPS ARE STORED ON WORK15 IN     1 BUFFERS OF  10000 ELEMENTS.
           0 OFF DIAGONAL LOOPS ARE STORED ON WORK16 IN     1 BUFFERS OF  10000 ELEMENTS.
 ...... END OF ENERGY MATRIX CALCULATION ...... 
 STEP CPU TIME =     0.00 TOTAL CPU TIME =        0.0 (    0.0 MIN)
 TOTAL WALL CLOCK TIME=        0.2 SECONDS, CPU UTILIZATION IS  29.41%

          -----------------------------------------
          DAVIDSON METHOD CI-MATRIX DIAGONALIZATION
                   WRITTEN BY STEVE ELBERT
          -----------------------------------------
 NUMBER OF STATES REQUESTED =     1
 MAX. NUMB. OF EXPAN. VEC   =    30
 MAX. NUMB. IMPROVED STATES =     1
 MAX. NUMB. OF ITERATIONS   =    50
 CONVERGENCE CRITERION      =    1.0E-06

 CHOOSING TO SOLVE SECULAR EQUATION IN MEMORY
 NUMBER OF WORDS AVAILABLE =     971310
 NUMBER OF WORDS USED      =      30960
 ENERGY MATRIX BUFFER SIZE =      10000
 SOLUTION FOUND WITH DIRECT METHOD

 STATE #    1  ENERGY =      -0.006355712

      CSF      COEF    OCCUPANCY (IGNORING CORE)
      ---      ----    --------- --------- -----
        1    1.000000  100

 THE PROJECTION OF THIS CI STATE ONTO SPACE SYMMETRY B3U  WEIGHS 1.0000E+00

 ...... END OF CI-MATRIX DIAGONALIZATION ......
 STEP CPU TIME =     0.01 TOTAL CPU TIME =        0.1 (    0.0 MIN)
 TOTAL WALL CLOCK TIME=        0.2 SECONDS, CPU UTILIZATION IS  33.33%

          ---------------------
          STORE CSF INFORMATION
          --------------------

 READING THE DRT FILE
 TITLE=DRT3    Mon Nov 28 22:37:08 2016                                                
 NUMBER OF CONFIGURATIONS =          1

 READING THE CI VECTOR FILE
 RUN TITLE=hydrogen atom spinor...STO-1G...note that there is no s basis function          
 DRT TITLE=DRT3    Mon Nov 28 22:37:08 2016                                                
     1 STATES WERE COMPUTED, NWKS=         1

 STORING CSF AND CI COEF. INFORMATION FOR    1 STATES ON FILE  17.
     ENERGIES ARE ...
      -0.0063557
 SAVING CSFS WITH COEFS LARGER THAN 3.33E-05
 SAVED CSFS:          1
 TOTAL CSFS:          1

 ...... DONE STORING CSF INFORMATION ......
 STEP CPU TIME =     0.00 TOTAL CPU TIME =        0.1 (    0.0 MIN)
 TOTAL WALL CLOCK TIME=        0.2 SECONDS, CPU UTILIZATION IS  33.33%
 STEP CPU TIME =     0.00 TOTAL CPU TIME =        0.1 (    0.0 MIN)
 TOTAL WALL CLOCK TIME=        0.2 SECONDS, CPU UTILIZATION IS  33.33%

 ++++++++++++++++++++++++++++++++++++++++++++++++++++++++++++++++++++++


 THE SYMMETRIES OF THE ANGULAR MOMENTUM L AND TRANSLATION R:
 LX BELONGS TO B3G 
 LY BELONGS TO B2G 
 LZ BELONGS TO B1G 
 RX BELONGS TO B3U 
 RY BELONGS TO B2U 
 RZ BELONGS TO B1U 
 SOC INTEGRALS NEED BE CALCULATED FOR LX: YEA 
 SOC INTEGRALS NEED BE CALCULATED FOR LY: YEA 
 SOC INTEGRALS NEED BE CALCULATED FOR LZ: YEA 

     -------------------------------------------
            DIRECT SPIN-ORBIT COUPLING
         (SHIRO KOSEKI AND DMITRI FEDOROV)

             ONE ELECTRON SO OPERATOR.
     -------------------------------------------


ENERGY FOR THE LOWEST STATE     =       -0.0063557116
ENERGY TOLERANCE FOR SOC MATRIX =       99.9936442884 (HIGHEST STATE)
                           ETOL =      100.0000000000
                         UPPREN =       99.9936442884

  CI# RTS#     LOWEST ENERGY      HIGHEST ENERGY     NEXT ENERGY
    1    1       -0.0063557116       -0.0063557116
    2    1       -0.0063557116       -0.0063557116
    3    1       -0.0063557116       -0.0063557116

         -------------------------------------
          ONE-ELECTRON SPIN-ORBIT AO INTEGRALS
         -------------------------------------
         USING       5369 WORDS OF MEMORY
      ...... DONE WITH SPIN-ORBIT INTEGRALS ......
 STEP CPU TIME =     0.00 TOTAL CPU TIME =        0.1 (    0.0 MIN)
 TOTAL WALL CLOCK TIME=        0.2 SECONDS, CPU UTILIZATION IS  33.33%

     17176 WORDS OF MEMORY ARE REQUIRED  FOR 1 PASS(ES)
     17176 WORDS FOR INTEGRALS,     17160 WORDS FOR CSFS.

 REFERENCE STATE IS SET TO    1 IN THE DRT NO. 1 (  1001).

 THE FOLLOWING LEGEND IS USED BELOW:
 [C] - THE MATRIX ELEMENT ACTUALLY CALCULATED
 [P] - OBTAINED FROM [C] BY THE WIGNER-ECKART THEOREM (<HSO>)
 [Z] - ZERO BY POINT GROUP SYMMETRY
 [W] - ZERO BY THE WIGNER-ECKART THEOREM (<HSO>)
 [S] - ZERO BY SPIN ORTHOGONALITY (<R>)

 [Z]'S ARE NOT CALCULATED.


 CI STATE FORMAT:   N-(2S+1)G:B
 G- IRREP LABEL, B NUMBERS DEGENERATE COMPONENTS OF G
 N NUMBERS EQUIVALENT TERMS (2S+1)G:B

 STATE ID FORMAT: NCI*1000+IROOT,
 WHERE NCI IS THE NTH $DRT GROUP
 AND IROOT IS THE CI ROOT'S ORDINAL NUMBER.

 < 1-2B1U  (MS= 0.5)|HSO| 1-2B2U  (MS= 0.5)> =     0.0000    -0.0000I    [Z]
 < 1-2B1U  (MS=-0.5)|HSO| 1-2B2U  (MS=-0.5)> =    -0.0000     0.0000I    [P]
 < 1-2B1U  (MS=-0.5)|HSO| 1-2B2U  (MS= 0.5)> =    -0.0000    -0.4589I    [C]
 < 1-2B1U  (MS= 0.5)|HSO| 1-2B2U  (MS=-0.5)> =     0.0000    -0.4589I    [P]
  
 STEP CPU TIME =     0.00 TOTAL CPU TIME =        0.1 (    0.0 MIN)
 TOTAL WALL CLOCK TIME=        0.2 SECONDS, CPU UTILIZATION IS  33.33%
 < 1-2B1U  (MS= 0.5)|HSO| 1-2B3U  (MS= 0.5)> =     0.0000    -0.0000I    [Z]
 < 1-2B1U  (MS=-0.5)|HSO| 1-2B3U  (MS=-0.5)> =    -0.0000     0.0000I    [P]
 < 1-2B1U  (MS=-0.5)|HSO| 1-2B3U  (MS= 0.5)> =    -0.4589     0.0000I    [C]
 < 1-2B1U  (MS= 0.5)|HSO| 1-2B3U  (MS=-0.5)> =     0.4589     0.0000I    [P]
  
 STEP CPU TIME =     0.00 TOTAL CPU TIME =        0.1 (    0.0 MIN)
 TOTAL WALL CLOCK TIME=        0.2 SECONDS, CPU UTILIZATION IS  33.33%
 < 1-2B2U  (MS= 0.5)|HSO| 1-2B3U  (MS= 0.5)> =     0.0000     0.4589I    [C]
 < 1-2B2U  (MS=-0.5)|HSO| 1-2B3U  (MS=-0.5)> =    -0.0000    -0.4589I    [P]
 < 1-2B2U  (MS=-0.5)|HSO| 1-2B3U  (MS= 0.5)> =    -0.0000     0.0000I    [Z]
 < 1-2B2U  (MS= 0.5)|HSO| 1-2B3U  (MS=-0.5)> =     0.0000     0.0000I    [P]
  
 STEP CPU TIME =     0.00 TOTAL CPU TIME =        0.1 (    0.0 MIN)
 TOTAL WALL CLOCK TIME=        0.2 SECONDS, CPU UTILIZATION IS  33.33%

 >>> DIMENSION OF HSO MATRIX =       6
     LARGEST NUMBER OF WALKS =       1

     THE MAX HSO MATRIX ELEMENT ABSOLUTE ERROR IS 4.59E-05 CM-1.
     TO DECREASE THE ERROR MAKE SYMTOL SMALLER.

     CI   ADIABATIC STATES (CM-1 UNIT) ---
             0.000          0.000         -0.000         -0.000         -0.000
            -0.000

 WEIGHTS OF SO   CI   STATES ---

 STATE   1: RELATIVE E=         -0.918 CM-1; WEIGHT = 0.333  2001
         1.0000
          1      2      3
         0.3333 0.3333 0.3333

 STATE   2: RELATIVE E=         -0.918 CM-1; WEIGHT = 0.333  2001
         1.0000
          1      2      3
         0.3333 0.3333 0.3333

 STATE   3: RELATIVE E=          0.459 CM-1; WEIGHT = 0.500  2001
         1.0000
          1      2      3
         0.0000 0.5000 0.5000

 STATE   4: RELATIVE E=          0.459 CM-1; WEIGHT = 0.500  2001
         1.0000
          1      2      3
         0.0000 0.5000 0.5000

 STATE   5: RELATIVE E=          0.459 CM-1; WEIGHT = 0.667  1001
         1.0000
          1      2      3
         0.6667 0.1667 0.1667

 STATE   6: RELATIVE E=          0.459 CM-1; WEIGHT = 0.667  1001
         1.0000
          1      2      3
         0.6667 0.1667 0.1667


 -----------------------------------------------------------
 EIGENVALUES AND EIGENVECTORS OF THE SO   CI   HAMILTONIAN
 -----------------------------------------------------------

                          1          2          3          4          5
   STATE ENERGY ---       -0.92      -0.92       0.46       0.46       0.46
       STATE ID ---       2001       2001       2001       2001       1001

    1< 1>  2(  0.5) R  -0.577350   0.000000   0.000000   0.000000  -0.187317
                   I   0.000000   0.000000   0.000000   0.000000   0.000000
    2< 1>  2( -0.5) R   0.000000  -0.577350  -0.000000   0.000000   0.794719
                   I  -0.000000  -0.000000   0.000000   0.000000  -0.000000
    3< 1>  2(  0.5) R   0.000000   0.000000   0.577350   0.155558   0.000000
                   I   0.000000   0.577350   0.136083  -0.352065   0.397360
    4< 1>  2( -0.5) R   0.000000   0.000000   0.384900  -0.108863   0.000000
                   I   0.577350  -0.000000  -0.000000   0.583096  -0.093659
    5< 1>  2(  0.5) R  -0.000000  -0.577350   0.136083  -0.352065  -0.397360
                   I   0.000000   0.000000  -0.577350  -0.155558   0.000000
    6< 1>  2( -0.5) R   0.577350  -0.000000  -0.000000  -0.583096  -0.093659
                   I   0.000000  -0.000000   0.384900  -0.108863  -0.000000

                          6
   STATE ENERGY ---        0.46
       STATE ID ---       1001

    1< 1>  2(  0.5) R   0.794719
                   I   0.000000
    2< 1>  2( -0.5) R   0.187317
                   I  -0.000000
    3< 1>  2(  0.5) R   0.000000
                   I   0.093659
    4< 1>  2( -0.5) R   0.000000
                   I   0.397360
    5< 1>  2(  0.5) R  -0.093659
                   I   0.000000
    6< 1>  2( -0.5) R   0.397360
                   I  -0.000000

   SPIN-MIXED   CI   STATES (CM-1 UNIT) ---
          -0.918         -0.918          0.459          0.459          0.459
           0.459

   SPIN-MIXED   CI   STATES (CM-1 UNIT) ---
      1(   2001)     2(   2001)     3(   2001)     4(   2001)     5(   1001)
          -0.918         -0.918          0.459          0.459          0.459
      6(   1001)
           0.459

 NON-ZERO   CI   SPIN-ORBIT COUPLING CONSTANTS (CM-1)
 ---------------------------------------------------------------------
 MUL1(CI)|MUL2(CI)| CI ROOT 1 | CI ROOT 2 |    FULL     | 1E ONLY
 ---------------------------------------------------------------------
  2 ( 1) | 2 ( 2) |     1     |     1     |         0.65|
  2 ( 1) | 2 ( 3) |     1     |     1     |         0.65|
  2 ( 2) | 2 ( 3) |     1     |     1     |         0.65|
 ---------------------------------------------------------------------


 SAVING THE SO-CASCI STATE VECTORS FOR NATURAL ORBITAL CALCULATION


 -I*LZ MATRIX IN THE CI STATE BASIS


             1           2           3

    1    0.0000000   0.0000000   0.0000000
    2   -0.0000000   0.0000000  -1.0000000
    3   -0.0000000   1.0000000   0.0000000

 ASSIGNMENT OF JZ VALUES TO THE EIGENVECTORS OF SO   CI   HAMILTONIAN:

 STATE   1: <JZ>=   0.5(100.0%)
 STATE   2: <JZ>=  -0.5(100.0%)
 STATE   3: <JZ>=  -1.5( 29.6%)   1.5( 70.4%)
 STATE   4: <JZ>=  -1.5( 70.4%)   1.5( 29.6%)
 STATE   5: <JZ>=  -0.5( 94.7%)   0.5(  5.3%)
 STATE   6: <JZ>=  -0.5(  5.3%)   0.5( 94.7%)


 ---------------------------------------------
 EIGENVALUES AND EIGENVECTORS OF THE JZ MATRIX
  IN THE BASIS OF SO HAMILTONIAN EIGENVECTORS 
 ---------------------------------------------

                          1          2          3          4          5
   STATE   JZ   ---     -1.5000    -0.5000    -0.5000     0.5000     0.5000

    1 <    2>       R  -0.000000  -0.000000  -0.000000   0.516185  -0.856477
                   I   0.000000   0.000000   0.000000  -0.000000   0.000000
    2 <    4>       R   0.000000   0.037074  -0.949146  -0.000000  -0.000000
                   I   0.000000   0.234510  -0.206766  -0.000000  -0.000000
    3 <    0>       R  -0.503723   0.000000  -0.000000  -0.000000  -0.000000
                   I  -0.206300  -0.000000   0.000000   0.000000   0.000000
    4 <    0>       R  -0.170059  -0.000000   0.000000   0.000000   0.000000
                   I   0.821452   0.000000  -0.000000  -0.000000  -0.000000
    5 <    0>       R  -0.000000   0.920483   0.130831   0.196489   0.118421
                   I   0.000000   0.216047  -0.190488  -0.000000  -0.000000
    6 <    0>       R  -0.000000   0.216960   0.030837  -0.833633  -0.502418
                   I   0.000000   0.050923  -0.044898   0.000000   0.000000

                          6
   STATE   JZ   ---      1.5000

    1 <    2>       R   0.000000
                   I   0.000000
    2 <    4>       R  -0.000000
                   I  -0.000000
    3 <    0>       R  -0.830042
                   I   0.121385
    4 <    0>       R  -0.176275
                   I  -0.514998
    5 <    0>       R  -0.000000
                   I  -0.000000
    6 <    0>       R  -0.000000
                   I  -0.000000
 STEP CPU TIME =     0.00 TOTAL CPU TIME =        0.1 (    0.0 MIN)
 TOTAL WALL CLOCK TIME=        0.2 SECONDS, CPU UTILIZATION IS  33.33%

 CI ENERGY LEVELS IN CM-1 AND CI ABSOLUTE LEVELS IN A.U.

    1            0.0000     -0.0063598932
    2            0.0000     -0.0063598932
    3            1.3766     -0.0063536208
    4            1.3766     -0.0063536208
    5            1.3766     -0.0063536208
    6            1.3766     -0.0063536208

 *******************************************************
     ENTERING SOCI NATURAL ORBITAL CALCULATION AND
     PROPERTIES EVALUATION WRITTEN BY TOBY ZENG
     FROM UNIVERSITY OF ALBERTA (TZENG@UALBERTA.CA)
 *******************************************************

 SEEKING COMMON EIGENVECTORS FOR HSO AND JZ OPERATORS

 BY THE TOLERANCE OF 0.0200 THERE ARE   2 GROUPS OF DEGENERACY:

 DEGENERACY: FROM STATE  1 TO STATE  2
 DEGENERACY: FROM STATE  3 TO STATE  6

 STATES FROM  1 TO  2 AVERAGED TO MAKE ONE-ELECTRON DENSITY MATRIX

                          1          2          3          4          5
   STATE ENERGY ---       -0.92      -0.92       0.46       0.46       0.46
   STATE   JZ   ---     -0.5000     0.5000    -1.5000    -0.5000     0.5000

       1          R   0.000000   0.000000  -0.000000  -0.000000   0.816497
                   I  -0.000000   0.577350   0.000000   0.000000   0.000000
       2          R  -0.000000  -0.000000  -0.000000   0.816497   0.000000
                   I   0.577350  -0.000000  -0.000000   0.000000   0.000000
       3          R   0.577350   0.000000   0.000000  -0.000000   0.000000
                   I   0.000000  -0.000000  -0.000000   0.408248  -0.000000
       4          R   0.000000   0.577350   0.707107  -0.000000   0.000000
                   I  -0.000000  -0.000000   0.000000   0.000000   0.408248
       5          R  -0.000000  -0.000000  -0.000000  -0.408248   0.000000
                   I   0.577350   0.000000  -0.000000  -0.000000   0.000000
       6          R  -0.000000  -0.000000  -0.000000   0.000000   0.408248
                   I  -0.000000  -0.577350   0.707107  -0.000000   0.000000

                          6
   STATE ENERGY ---        0.46
   STATE   JZ   ---      1.5000

       1          R  -0.000000
                   I   0.000000
       2          R  -0.000000
                   I   0.000000
       3          R   0.707107
                   I  -0.000000
       4          R   0.000000
                   I  -0.000000
       5          R  -0.000000
                   I  -0.707107
       6          R   0.000000
                   I   0.000000

 ONE-ELECTRON TRANSITION DENSITY WILL BE FORMED
 AVERAGING FROM STATES   1 TO   2


 ONE-ELECTRON DENSITY MATRIX IN THE BASIS OF ACTIVE MO
 THE FIRST HALF OF INDICES ARE ALPHA MO AND THE SECOND HALF BETA
 IF THERE ARE 7 ACTIVE MO, 1 -> THE FIRST ALPHA ACTIVE MO
 AND 8 -> THE FIRST BETA ACTIVE MO


              1                   2                   3                   4                   5

    1  0.16667+ 0.00000*I  0.00000+ 0.16667*I -0.00000+ 0.00000*I -0.00000+-0.00000*I -0.00000+ 0.00000*I
    2  0.00000+-0.16667*I  0.16667+ 0.00000*I -0.00000+ 0.00000*I  0.00000+ 0.00000*I  0.00000+-0.00000*I
    3 -0.00000+-0.00000*I -0.00000+-0.00000*I  0.16667+ 0.00000*I -0.16667+-0.00000*I  0.00000+ 0.16667*I
    4 -0.00000+ 0.00000*I  0.00000+-0.00000*I -0.16667+ 0.00000*I  0.16667+ 0.00000*I -0.00000+-0.16667*I
    5 -0.00000+-0.00000*I  0.00000+ 0.00000*I  0.00000+-0.16667*I -0.00000+ 0.16667*I  0.16667+ 0.00000*I
    6  0.16667+ 0.00000*I -0.00000+ 0.16667*I -0.00000+ 0.00000*I  0.00000+-0.00000*I -0.00000+-0.00000*I

              6
    1  0.16667+-0.00000*I
    2 -0.00000+-0.16667*I
    3 -0.00000+-0.00000*I
    4  0.00000+ 0.00000*I
    5 -0.00000+ 0.00000*I
    6  0.16667+ 0.00000*I

 CHECKING WHETHER THE DENSITY MATRIX REPRODUCE THE TOTAL JZ
 JZ CHECK PASSED

 CONSTRUCTING EIGENORBITALS OF DENSITY OPERATOR AND ONE-ELECTRON JZ OPERATOR


 BY THE TOLERANCE OF 0.0020 THERE ARE   2 GROUPS OF DEGENERACY:

 DEGENERACY: FROM STATE  1 TO STATE  4
 DEGENERACY: FROM STATE  5 TO STATE  6

 REPHASING THE NATURAL ORBITALS TO LET THE COEFFICIENT WITH THE
 GREATEST MODULE TO BE REAL


 NATURAL ORBITALS IN THE ACTIVE MO SPACE
 COLUMN INDEX I MEANS THE I-TH MO IN THE ACTIVE SPACE


                          1          2          3          4          5
   OCCUPATION # ---      0.5000     0.5000     0.0000    -0.0000    -0.0000
      1-E JZ    ---      0.5000    -0.5000     1.5000     0.5000    -0.5000

    1     ALPHA  REAL   0.000000   0.577350   0.707107  -0.000000  -0.408248
                 IMAG  -0.000000   0.000000   0.000000  -0.000000   0.000000
           BETA  REAL   0.577350   0.000000   0.000000   0.408248   0.000000
                 IMAG   0.000000   0.000000  -0.000000   0.000000  -0.000000
    2     ALPHA  REAL   0.000000   0.000000  -0.000000   0.000000   0.000000
                 IMAG   0.000000  -0.577350   0.707107  -0.000000   0.408248
           BETA  REAL   0.000000  -0.000000   0.000000  -0.000000   0.000000
                 IMAG   0.577350   0.000000   0.000000   0.408248  -0.000000
    3     ALPHA  REAL  -0.577350  -0.000000   0.000000   0.816497  -0.000000
                 IMAG   0.000000   0.000000   0.000000   0.000000   0.000000
           BETA  REAL   0.000000   0.577350  -0.000000  -0.000000   0.816497
                 IMAG   0.000000   0.000000   0.000000   0.000000   0.000000

                          6
   OCCUPATION # ---     -0.0000
      1-E JZ    ---     -1.5000

    1     ALPHA  REAL  -0.000000
                 IMAG  -0.000000
           BETA  REAL   0.707107
                 IMAG   0.000000
    2     ALPHA  REAL  -0.000000
                 IMAG   0.000000
           BETA  REAL   0.000000
                 IMAG  -0.707107
    3     ALPHA  REAL  -0.000000
                 IMAG  -0.000000
           BETA  REAL  -0.000000
                 IMAG   0.000000

 NATURAL ORBITALS IN THE BASIS SPIN FUNCTION SPACE
 ROW INDEX I MEANS THE I-TH BASIS FUNCTION


                          1          2          3          4          5
   OCCUPATION # ---      0.5000     0.5000     0.0000    -0.0000    -0.0000
      1-E JZ    ---      0.5000    -0.5000     1.5000     0.5000    -0.5000

    1     ALPHA  REAL   0.000000   0.577350   0.707107  -0.000000  -0.408248
       H  1  X   IMAG  -0.000000   0.000000   0.000000  -0.000000   0.000000
           BETA  REAL   0.577350   0.000000   0.000000   0.408248   0.000000
                 IMAG   0.000000   0.000000  -0.000000   0.000000  -0.000000
    2     ALPHA  REAL   0.000000   0.000000  -0.000000   0.000000   0.000000
       H  1  Y   IMAG   0.000000  -0.577350   0.707107  -0.000000   0.408248
           BETA  REAL   0.000000  -0.000000   0.000000  -0.000000   0.000000
                 IMAG   0.577350   0.000000   0.000000   0.408248  -0.000000
    3     ALPHA  REAL  -0.577350  -0.000000   0.000000   0.816497  -0.000000
       H  1  Z   IMAG   0.000000   0.000000   0.000000   0.000000   0.000000
           BETA  REAL   0.000000   0.577350  -0.000000  -0.000000   0.816497
                 IMAG   0.000000   0.000000   0.000000   0.000000   0.000000

                          6
   OCCUPATION # ---     -0.0000
      1-E JZ    ---     -1.5000

    1     ALPHA  REAL  -0.000000
       H  1  X   IMAG  -0.000000
           BETA  REAL   0.707107
                 IMAG   0.000000
    2     ALPHA  REAL  -0.000000
       H  1  Y   IMAG   0.000000
           BETA  REAL   0.000000
                 IMAG  -0.707107
    3     ALPHA  REAL  -0.000000
       H  1  Z   IMAG  -0.000000
           BETA  REAL  -0.000000
                 IMAG   0.000000

     ------------------------------------------
     PROPERTIES FOR THE SOCI WAVE FUNCTION
     ------------------------------------------
 SINCE ONLY THE REAL PART OF THE ALPHA AND BETA DENSITY MATRICES
 ARE STORED, POPULATION AND BOND ORDER ANALYSES ARE SKIPPED.


          -----------------------------------------
          ATOMIC SPIN DENSITY AT THE NUCLEUS (A.U.)
          -----------------------------------------
                            SPIN DENS    ALPHA DENS     BETA DENS

 NB! FOR SOCI STATE, SX AND SY DENSITIES ARE NOT
 NECESSARILY ZERO, BUT ONLY SZ DENSITY IS CALCULATED HERE.

    1  H            1.0     0.0000000       0.00000       0.00000

          ---------------------
          ELECTROSTATIC MOMENTS
          ---------------------

 POINT   1           X           Y           Z (BOHR)    CHARGE
                 0.000000    0.000000    0.000000       -0.00 (A.U.)
         DX          DY          DZ         /D/  (DEBYE)
     0.000000    0.000000    0.000000    0.000000
 ...... END OF PROPERTY EVALUATION ......
 STEP CPU TIME =     0.01 TOTAL CPU TIME =        0.1 (    0.0 MIN)
 TOTAL WALL CLOCK TIME=        0.2 SECONDS, CPU UTILIZATION IS  36.84%

          -------------------------------
          BOND ORDER AND VALENCE ANALYSIS     BOND ORDER THRESHOLD=0.050
          -------------------------------

                   BOND
  ATOM PAIR DIST  ORDER

                       TOTAL       BONDED        FREE    MULLIKEN
      ATOM            VALENCE     VALENCE     VALENCE      CHARGE
    1 H                 1.000       0.000       1.000      -0.000

 ....... DONE WITH TRANSITION MOMENT .......

 STEP CPU TIME =     0.00 TOTAL CPU TIME =        0.1 (    0.0 MIN)
 TOTAL WALL CLOCK TIME=        0.2 SECONDS, CPU UTILIZATION IS  36.84%
               580000  WORDS OF DYNAMIC MEMORY USED
 EXECUTION OF GAMESS TERMINATED NORMALLY Mon Nov 28 22:37:08 2016
 DDI: 263640 bytes (0.3 MB / 0 MWords) used by master data server.

 ----------------------------------------
 CPU timing information for all processes
 ========================================
 0: 0.43 + 0.31 = 0.75
 ----------------------------------------
 ddikick.x: exited gracefully.
unset echo
----- accounting info -----
Files used on the master node compute-3-0 were:
-rw-rw-r-- 1 sarom sarom    6096 Nov 29  2016 .//h-spinor-soc.dat
-rw-rw-r-- 1 sarom sarom    1927 Nov 29  2016 .//h-spinor-soc.F05
-rw-rw-r-- 1 sarom sarom  180016 Nov 29  2016 .//h-spinor-soc.F08
-rw-rw-r-- 1 sarom sarom  180072 Nov 29  2016 .//h-spinor-soc.F09
-rw-rw-r-- 1 sarom sarom 4188160 Nov 29  2016 .//h-spinor-soc.F10
-rw-rw-r-- 1 sarom sarom  275472 Nov 29  2016 .//h-spinor-soc.F11
-rw-rw-r-- 1 sarom sarom     200 Nov 29  2016 .//h-spinor-soc.F12
-rw-rw-r-- 1 sarom sarom  800008 Nov 29  2016 .//h-spinor-soc.F14
-rw-rw-r-- 1 sarom sarom  160232 Nov 29  2016 .//h-spinor-soc.F15
-rw-rw-r-- 1 sarom sarom  200216 Nov 29  2016 .//h-spinor-soc.F16
-rw-rw-r-- 1 sarom sarom     264 Nov 29  2016 .//h-spinor-soc.F17
-rw-rw-r-- 1 sarom sarom   98304 Nov 29  2016 .//h-spinor-soc.F40
-rw-rw-r-- 1 sarom sarom    1927 Nov 28 17:27 .//h-spinor-soc.inp
-rw-rw-r-- 1 sarom sarom   54473 Nov 29  2016 .//h-spinor-soc.log
Mon Nov 28 22:37:11 CST 2016
0.208u 0.088s 0:03.66 7.6%	0+0k 0+136io 0pf+0w
