-catch_rsh /opt/gridengine/default/spool/compute-0-2/active_jobs/23758.1/pe_hostfile
compute-0-2
The primary node assigned by SGE to this run is compute-0-2
Warning: no access to tty (Bad file descriptor).
Thus no job control in this shell.
Deleting shmid=3964928.
Deleting shmid=3997697.
Deleting shmid=4227074.
source /home/sarom/gamess.github.2017-05-31.14.06/install.info
setenv GMS_PATH /home/sarom/gamess.github.2017-05-31.14.06
setenv GMS_BUILD_DIR /home/sarom/gamess.github.2017-05-31.14.06
setenv GMS_TARGET linux64
setenv GMS_FORTRAN gfortran
setenv GMS_GFORTRAN_VERNO 4.4
setenv GMS_MATHLIB mkl-so
setenv GMS_MATHLIB_PATH /share/apps/intel/compilers_and_libraries_2017.1.132/linux/mkl/lib/intel64
setenv GMS_MKL_VERNO 12
setenv GMS_DDI_COMM sockets
setenv GMS_LIBCCHEM false
setenv GMS_EIGEN_PATH
setenv GMS_PHI false
setenv GMS_SHMTYPE sysv
setenv GMS_OPENMP false
unset echo
h2o-nesc-soc
tests/relwfn
----- GAMESS execution script 'rungms' -----
This job is running on host compute-0-2.local
under operating system Linux at Fri Jun 2 02:34:57 CDT 2017
Available scratch disk space (Kbyte units) at beginning of the job is
Filesystem           1K-blocks      Used Available Use% Mounted on
/dev/sda1             16126920   3867312  11440408  26% /
GAMESS temporary binary files will be written to /scratch
GAMESS supplementary output files will be written to /home/sarom/restart
Copying input file h2o-nesc-soc.inp to your run's scratch directory...
cp tests/relwfn/h2o-nesc-soc.inp /scratch/h2o-nesc-soc.F05
unset echo
The generated host list is
compute-0-2.local
/home/sarom/gamess.github.2017-05-31.14.06/ddikick.x /home/sarom/gamess.github.2017-05-31.14.06/gamess.00.x h2o-nesc-soc -ddi 1 1 compute-0-2.local -scr /scratch

 Distributed Data Interface kickoff program.
 Initiating 1 compute processes on 1 nodes to run the following command:
 /home/sarom/gamess.github.2017-05-31.14.06/gamess.00.x h2o-nesc-soc 

          ******************************************************
          *         GAMESS VERSION = 20 APR 2017 (R1)          *
          *             FROM IOWA STATE UNIVERSITY             *
          * M.W.SCHMIDT, K.K.BALDRIDGE, J.A.BOATZ, S.T.ELBERT, *
          *   M.S.GORDON, J.H.JENSEN, S.KOSEKI, N.MATSUNAGA,   *
          *          K.A.NGUYEN, S.J.SU, T.L.WINDUS,           *
          *       TOGETHER WITH M.DUPUIS, J.A.MONTGOMERY       *
          *         J.COMPUT.CHEM.  14, 1347-1363(1993)        *
          **************** 64 BIT LINUX VERSION ****************

  SINCE 1993, STUDENTS AND POSTDOCS WORKING AT IOWA STATE UNIVERSITY
  AND ALSO IN THEIR VARIOUS JOBS AFTER LEAVING ISU HAVE MADE IMPORTANT
  CONTRIBUTIONS TO THE CODE:
     IVANA ADAMOVIC, CHRISTINE AIKENS, YURI ALEXEEV, POOJA ARORA,
     ANDREY ASADCHEV, ROB BELL, PRADIPTA BANDYOPADHYAY, JONATHAN BENTZ,
     BRETT BODE, KURT BRORSEN, CALEB CARLIN, GALINA CHABAN, WEI CHEN,
     CHEOL HO CHOI, PAUL DAY, ALBERT DEFUSCO, NUWAN DESILVA, TIM DUDLEY,
     DMITRI FEDOROV, GRAHAM FLETCHER, MARK FREITAG, KURT GLAESEMANN,
     DAN KEMP, GRANT MERRILL, NORIYUKI MINEZAWA, JONATHAN MULLIN,
     TAKESHI NAGATA, SEAN NEDD, HEATHER NETZLOFF, BOSILJKA NJEGIC, RYAN OLSON,
     MIKE PAK, SPENCER PRUITT, LUKE ROSKOP, JIM SHOEMAKER, LYUDMILA SLIPCHENKO,
     TONY SMITH, SAROM SOK LEANG, JIE SONG, TETSUYA TAKETSUGU, SIMON WEBB,
     PENG XU, SOOHAENG YOO, FEDERICO ZAHARIEV

  ADDITIONAL CODE HAS BEEN PROVIDED BY COLLABORATORS IN OTHER GROUPS:
     IOWA STATE UNIVERSITY:
          JOE IVANIC, AARON WEST, LAIMUTIS BYTAUTAS, KLAUS RUEDENBERG
     UNIVERSITY OF TOKYO: KIMIHIKO HIRAO, TAKAHITO NAKAJIMA,
          TAKAO TSUNEDA, MUNEAKI KAMIYA, SUSUMU YANAGISAWA,
          KIYOSHI YAGI, MAHITO CHIBA, SEIKEN TOKURA, NAOAKI KAWAKAMI
     UNIVERSITY OF AARHUS: FRANK JENSEN
     UNIVERSITY OF IOWA: VISVALDAS KAIRYS, HUI LI
     NATIONAL INST. OF STANDARDS AND TECHNOLOGY: WALT STEVENS, DAVID GARMER
     UNIVERSITY OF PISA: BENEDETTA MENNUCCI, JACOPO TOMASI
     UNIVERSITY OF MEMPHIS: HENRY KURTZ, PRAKASHAN KORAMBATH
     UNIVERSITY OF ALBERTA: TOBY ZENG, MARIUSZ KLOBUKOWSKI
     UNIVERSITY OF NEW ENGLAND: MARK SPACKMAN
     MIE UNIVERSITY: HIROAKI UMEDA
     NAT. INST. OF ADVANCED INDUSTRIAL SCIENCE AND TECHNOLOGY: KAZUO KITAURA
     MICHIGAN STATE UNIVERSITY:
          KAROL KOWALSKI, MARTA WLOCH, JEFFREY GOUR, JESSE LUTZ,
          WEI LI, PIOTR PIECUCH
     UNIVERSITY OF SILESIA: MONIKA MUSIAL, STANISLAW KUCHARSKI
     FACULTES UNIVERSITAIRES NOTRE-DAME DE LA PAIX:
          OLIVIER QUINET, BENOIT CHAMPAGNE
     UNIVERSITY OF CALIFORNIA - SANTA BARBARA: BERNARD KIRTMAN
     INSTITUTE FOR MOLECULAR SCIENCE:
          KAZUYA ISHIMURA, MICHIO KATOUDA, AND SHIGERU NAGASE
     UNIVERSITY OF NOTRE DAME: ANNA POMOGAEVA, DAN CHIPMAN
     KYUSHU UNIVERSITY:
          HARUYUKI NAKANO,
          FENG LONG GU, JACEK KORCHOWIEC, MARCIN MAKOWSKI, AND YURIKO AOKI,
          HIROTOSHI MORI AND EISAKU MIYOSHI
     PENNSYLVANIA STATE UNIVERSITY:
          TZVETELIN IORDANOV, CHET SWALINA, JONATHAN SKONE,
          SHARON HAMMES-SCHIFFER
     WASEDA UNIVERSITY:
          MASATO KOBAYASHI, TOMOKO AKAMA, TSUGUKI TOUMA,
          TAKESHI YOSHIKAWA, YASUHIRO IKABATA, JUNJI SEINO,
          YUYA NAKAJIMA, HIROMI NAKAI
     NANJING UNIVERSITY: SHUHUA LI
     UNIVERSITY OF NEBRASKA:
          PEIFENG SU, DEJUN SI, NANDUN THELLAMUREGE, YALI WANG, HUI LI
     UNIVERSITY OF ZURICH: ROBERTO PEVERATI, KIM BALDRIDGE
     N. COPERNICUS UNIVERSITY AND JACKSON STATE UNIVERSITY:
          MARIA BARYSZ
     UNIVERSITY OF COPENHAGEN: Jimmy Kromann, CASPER STEINMANN
     TOKYO INSTITUTE OF TECHNOLOGY: HIROYA NAKATA
     NAGOYA UNIVERSITY: YOSHIO NISHIMOTO, STEPHAN IRLE
     MOSCOW STATE UNIVERSITY: VLADIMIR MIRONOV

 EXECUTION OF GAMESS BEGUN Fri Jun  2 02:34:57 2017

            ECHO OF THE FIRST FEW INPUT CARDS -
 INPUT CARD>!   water...test of NESC 1e- correction to full spin-orbit coupling operator    
 INPUT CARD>!                                                                               
 INPUT CARD>!   RELATIVE E=  -.057, 150080.803, 150080.809 (2), 201286.134,                 
 INPUT CARD>!   RELATIVE E=  271061.973, 322127.297, 322136.847 (2), 322539.819,            
 INPUT CARD>!   RELATIVE E = 335526.766 (3), 358625.823 (2), 358625.831                     
 INPUT CARD>!                                                                               
 INPUT CARD>!   This run takes 1 second on 2.66 GHz Cloverton (17 APr 2015)                 
 INPUT CARD>!   results have been unchanging since at least 2000.                           
 INPUT CARD>!                                                                               
 INPUT CARD> $contrl scftyp=none cityp=guga runtyp=transitn relwfn=nesc                     
 INPUT CARD>         ispher=+1 units=bohr $end                                              
 INPUT CARD> $relwfn nesoc=1 $end                                                           
 INPUT CARD> $system mwords=1 $end                                                          
 INPUT CARD> $guess  guess=moread norb=24 $end                                              
 INPUT CARD> $mcscf  cistep=guga fullnr=.t. $end                                            
 INPUT CARD> $drt1   group=c2v fors=.t. nfzc=1 ndoc=4 nval=2 istsym=1 $end                  
 INPUT CARD> $drt2   group=c2v fors=.t. nfzc=1 ndoc=3 nval=1 nalp=2 istsym=3 $end           
 INPUT CARD> $transt OPERAT=hso2 NOCC=7 NUMVEC=1 NUMCI=2 iroots(1)=4,4 nfzc=1 $end          
 INPUT CARD> $datal                                                                         
 INPUT CARD>H2O molecule, large component                                                   
 INPUT CARD>Cnv 2                                                                           
 INPUT CARD>                                                                                
 INPUT CARD>O 8 0.00000000  0.00000000  0.00000000                                          
 INPUT CARD>  s 9                                                                           
 INPUT CARD>  1 1.1720000E+04  7.44044680157E-04                                            
 INPUT CARD>  2 1.7590000E+03  5.56870462130E-03                                            
 INPUT CARD>  3 4.0080000E+02  2.80763828518E-02                                            
 INPUT CARD>  4 1.1370000E+02  1.05191790218E-01                                            
 INPUT CARD>  5 3.7030000E+01  2.83329917867E-01                                            
 INPUT CARD>  6 1.3270000E+01  4.48337980954E-01                                            
 INPUT CARD>  7 5.0250000E+00  2.70266898852E-01                                            
 INPUT CARD>  8 1.0130000E+00  1.53634765310E-02                                            
 INPUT CARD>  9 3.0230000E-01 -2.56497431972E-03                                            
 INPUT CARD>  s 9                                                                           
 INPUT CARD>  1 1.1720000E+04  -1.67721663938E-04                                           
 INPUT CARD>  2 1.7590000E+03  -1.28952465760E-03                                           
 INPUT CARD>  3 4.0080000E+02  -6.33916230689E-03                                           
 INPUT CARD>  4 1.1370000E+02  -2.58933434608E-02                                           
 INPUT CARD>  5 3.7030000E+01  -7.11471075413E-02                                           
 INPUT CARD>  6 1.3270000E+01  -1.65833473039E-01                                           
 INPUT CARD>  7 5.0250000E+00  -1.16110339415E-01                                           
 INPUT CARD>  8 1.0130000E+00   5.60081019117E-01                                           
 INPUT CARD>  9 3.0230000E-01   5.69945620854E-01                                           
 INPUT CARD>  s 1                                                                           
 INPUT CARD>  1 3.0230000E-01  9.99993963493E-01                                            
 INPUT CARD>  p 4                                                                           
 INPUT CARD>  1 1.7700000E+01  4.30553387768E-02                                            
 INPUT CARD>  2 3.8540000E+00  2.28715136176E-01                                            
 INPUT CARD>  3 1.0460000E+00  5.04977579175E-01                                            
 INPUT CARD>  4 2.7530000E-01  4.64951562012E-01                                            
    1000000 WORDS OF MEMORY AVAILABLE

 READING $DATAS GROUP FOR SMALL COMPONENT BASIS SET...


     RUN TITLE
     ---------
 H2O molecule, small component                                                   

 THE POINT GROUP OF THE MOLECULE IS CNV     
 THE ORDER OF THE PRINCIPAL AXIS IS     2
 *** WARNING! ATOM   1 SHELL    1 TYPE S HAS NORMALIZATION   1.00046490
 *** WARNING! ATOM   1 SHELL    2 TYPE S HAS NORMALIZATION   1.00006265
 *** WARNING! ATOM   1 SHELL    3 TYPE S HAS NORMALIZATION   1.00001811
 *** WARNING! ATOM   1 SHELL    4 TYPE P HAS NORMALIZATION   1.00014460
 *** WARNING! ATOM   1 SHELL    5 TYPE P HAS NORMALIZATION   1.00002749
 *** WARNING! ATOM   1 SHELL    6 TYPE D HAS NORMALIZATION   1.00016563
 *** WARNING! ATOM   2 SHELL    7 TYPE S HAS NORMALIZATION   1.00000785
 *** WARNING! ATOM   2 SHELL    8 TYPE S HAS NORMALIZATION   1.00000731
 *** WARNING! ATOM   2 SHELL    9 TYPE P HAS NORMALIZATION   1.00007258

 ATOM      ATOMIC                      COORDINATES (BOHR)
           CHARGE         X                   Y                   Z
 O           8.0     0.0000000000        0.0000000000        0.0000000000
 H           1.0     0.0000000000        1.4304280900       -1.1071526600
 H           1.0     0.0000000000       -1.4304280900       -1.1071526600

          INTERNUCLEAR DISTANCES (ANGS.)
          ------------------------------

                1 O          2 H          3 H     

   1 O       0.0000000    0.9571983 *  0.9571983 *
   2 H       0.9571983 *  0.0000000    1.5139000 *
   3 H       0.9571983 *  1.5139000 *  0.0000000  

  * ... LESS THAN  3.000


     ATOMIC BASIS SET
     ----------------
 THE CONTRACTED PRIMITIVE FUNCTIONS HAVE BEEN UNNORMALIZED
 THE CONTRACTED BASIS FUNCTIONS ARE NOW NORMALIZED TO UNITY

  SHELL TYPE  PRIMITIVE        EXPONENT          CONTRACTION COEFFICIENT(S)

 O         

      1   S       1         11720.0000000    0.000714947553
      1   S       2          1759.0000000    0.005497331061
      1   S       3           400.8000000    0.027931245492
      1   S       4           113.7000000    0.105003175140
      1   S       5            37.0300000    0.283217400244
      1   S       6            13.2700000    0.448439637506
      1   S       7             5.0250000    0.270394371014
      1   S       8             1.0130000    0.015371512489
      1   S       9             0.3023000   -0.002566700211

      2   S      10         11720.0000000   -0.000160998782
      2   S      11          1759.0000000   -0.001272268460
      2   S      12           400.8000000   -0.006301518857
      2   S      13           113.7000000   -0.025832133388
      2   S      14            37.0300000   -0.071078488999
      2   S      15            13.2700000   -0.165785586753
      2   S      16             5.0250000   -0.116123980996
      2   S      17             1.0130000    0.560067284642
      2   S      18             0.3023000    0.569964283412

      3   S      19             0.3023000    0.999981890442

      4   P      20            17.7000000    0.042988400328
      4   P      21             3.8540000    0.228661481498
      4   P      22             1.0460000    0.504932700389
      4   P      23             0.2753000    0.464928541998

      5   P      24             0.2753000    0.999972513614

      6   D      25             1.1850000    0.999834402221

 H         

     10   S      26            13.0100000    0.019686206790
     10   S      27             1.9620000    0.137981446500
     10   S      28             0.4446000    0.478149251945
     10   S      29             0.1220000    0.501225973793

     11   S      30             0.1220000    0.999992691343

     12   P      31             0.7270000    0.999927420810

 TOTAL NUMBER OF BASIS SET SHELLS             =   12
 NUMBER OF CARTESIAN GAUSSIAN BASIS FUNCTIONS =   25
 NOTE: THIS RUN WILL RESTRICT THE MO VARIATION SPACE TO SPHERICAL HARMONICS.
 THE NUMBER OF ORBITALS KEPT IN THE VARIATIONAL SPACE WILL BE PRINTED LATER.
 NUMBER OF ELECTRONS                          =   10
 CHARGE OF MOLECULE                           =    0
 SPIN MULTIPLICITY                            =    1
 NUMBER OF OCCUPIED ORBITALS (ALPHA)          =    5
 NUMBER OF OCCUPIED ORBITALS (BETA )          =    5
 TOTAL NUMBER OF ATOMS                        =    3
 THE NUCLEAR REPULSION ENERGY IS        9.1949809303

     ---------------------------------
     RELATIVISTIC WAVEFUNCTION OPTIONS
     ---------------------------------
     METHOD=NESC     NORDER= 2       NESOC=  1      MODEQR=      0
     NRATOM=  0      QMTTOL= 1.000E-10      QRTOL= 0.000E+00
     CLIGHT=137.03598950     TAU= 3.500E+00
 AO NON-RELATIVISTIC NORMALISATION WILL BE OMITTED.

 READING $DATAL GROUP FOR LARGE COMPONENT BASIS SET...


     RUN TITLE
     ---------
 H2O molecule, large component                                                   

 THE POINT GROUP OF THE MOLECULE IS CNV     
 THE ORDER OF THE PRINCIPAL AXIS IS     2
 *** WARNING! ATOM   1 SHELL    1 TYPE S HAS NORMALIZATION   1.00038950
 *** WARNING! ATOM   1 SHELL    2 TYPE S HAS NORMALIZATION   1.00004149
 *** WARNING! ATOM   1 SHELL    3 TYPE S HAS NORMALIZATION   1.00000604
 *** WARNING! ATOM   1 SHELL    4 TYPE P HAS NORMALIZATION   1.00003359
 *** WARNING! ATOM   1 SHELL    5 TYPE P HAS NORMALIZATION   1.00000916
 *** WARNING! ATOM   1 SHELL    6 TYPE D HAS NORMALIZATION   1.00005520
 *** WARNING! ATOM   2 SHELL    7 TYPE S HAS NORMALIZATION   1.00000665
 *** WARNING! ATOM   2 SHELL    8 TYPE S HAS NORMALIZATION   1.00000244
 *** WARNING! ATOM   2 SHELL    9 TYPE P HAS NORMALIZATION   1.00002419

 ATOM      ATOMIC                      COORDINATES (BOHR)
           CHARGE         X                   Y                   Z
 O           8.0     0.0000000000        0.0000000000        0.0000000000
 H           1.0     0.0000000000        1.4304280900       -1.1071526600
 H           1.0     0.0000000000       -1.4304280900       -1.1071526600

          INTERNUCLEAR DISTANCES (ANGS.)
          ------------------------------

                1 O          2 H          3 H     

   1 O       0.0000000    0.9571983 *  0.9571983 *
   2 H       0.9571983 *  0.0000000    1.5139000 *
   3 H       0.9571983 *  1.5139000 *  0.0000000  

  * ... LESS THAN  3.000


     ATOMIC BASIS SET
     ----------------
 THE CONTRACTED PRIMITIVE FUNCTIONS HAVE BEEN UNNORMALIZED
 THE CONTRACTED BASIS FUNCTIONS ARE NOW NORMALIZED TO UNITY

  SHELL TYPE  PRIMITIVE        EXPONENT          CONTRACTION COEFFICIENT(S)

 O         

      1   S       1         11720.0000000    0.000744044680
      1   S       2          1759.0000000    0.005568704621
      1   S       3           400.8000000    0.028076382852
      1   S       4           113.7000000    0.105191790218
      1   S       5            37.0300000    0.283329917867
      1   S       6            13.2700000    0.448337980954
      1   S       7             5.0250000    0.270266898852
      1   S       8             1.0130000    0.015363476531
      1   S       9             0.3023000   -0.002564974320

      2   S      10         11720.0000000   -0.000167721664
      2   S      11          1759.0000000   -0.001289524658
      2   S      12           400.8000000   -0.006339162307
      2   S      13           113.7000000   -0.025893343461
      2   S      14            37.0300000   -0.071147107541
      2   S      15            13.2700000   -0.165833473039
      2   S      16             5.0250000   -0.116110339415
      2   S      17             1.0130000    0.560081019117
      2   S      18             0.3023000    0.569945620854

      3   S      19             0.3023000    0.999993963493

      4   P      20            17.7000000    0.043055338777
      4   P      21             3.8540000    0.228715136176
      4   P      22             1.0460000    0.504977579175
      4   P      23             0.2753000    0.464951562012

      5   P      24             0.2753000    0.999990837899

      6   D      25             1.1850000    0.999944801756

 H         

     10   S      26            13.0100000    0.019689051231
     10   S      27             1.9620000    0.137985789892
     10   S      28             0.4446000    0.478150708254
     10   S      29             0.1220000    0.501221958354

     11   S      30             0.1220000    0.999997563783

     12   P      31             0.7270000    0.999975807132

 TOTAL NUMBER OF BASIS SET SHELLS             =   12
 NUMBER OF CARTESIAN GAUSSIAN BASIS FUNCTIONS =   25
 NOTE: THIS RUN WILL RESTRICT THE MO VARIATION SPACE TO SPHERICAL HARMONICS.
 THE NUMBER OF ORBITALS KEPT IN THE VARIATIONAL SPACE WILL BE PRINTED LATER.
 NUMBER OF ELECTRONS                          =   10
 CHARGE OF MOLECULE                           =    0
 SPIN MULTIPLICITY                            =    1
 NUMBER OF OCCUPIED ORBITALS (ALPHA)          =    5
 NUMBER OF OCCUPIED ORBITALS (BETA )          =    5
 TOTAL NUMBER OF ATOMS                        =    3
 THE NUCLEAR REPULSION ENERGY IS        9.1949809303

     ---------------------------------
     RELATIVISTIC WAVEFUNCTION OPTIONS
     ---------------------------------
     METHOD=NESC     NORDER= 2       NESOC=  1      MODEQR=      0
     NRATOM=  0      QMTTOL= 1.000E-10      QRTOL= 0.000E+00
     CLIGHT=137.03598950     TAU= 3.500E+00
 AO NON-RELATIVISTIC NORMALISATION WILL BE OMITTED.


     RUN TITLE
     ---------
 H2O molecule, FW basis set                                                      

 THE POINT GROUP OF THE MOLECULE IS CNV     
 THE ORDER OF THE PRINCIPAL AXIS IS     2

 ATOM      ATOMIC                      COORDINATES (BOHR)
           CHARGE         X                   Y                   Z
 O           8.0     0.0000000000        0.0000000000        0.0000000000
 H           1.0     0.0000000000        1.4304280900       -1.1071526600
 H           1.0     0.0000000000       -1.4304280900       -1.1071526600

          INTERNUCLEAR DISTANCES (ANGS.)
          ------------------------------

                1 O          2 H          3 H     

   1 O       0.0000000    0.9571983 *  0.9571983 *
   2 H       0.9571983 *  0.0000000    1.5139000 *
   3 H       0.9571983 *  1.5139000 *  0.0000000  

  * ... LESS THAN  3.000


     ATOMIC BASIS SET
     ----------------
 THE CONTRACTED PRIMITIVE FUNCTIONS HAVE BEEN UNNORMALIZED
 THE CONTRACTED BASIS FUNCTIONS ARE NOW NORMALIZED TO UNITY

  SHELL TYPE  PRIMITIVE        EXPONENT          CONTRACTION COEFFICIENT(S)

 O         

      1   S       1         11720.0000000    0.000697868055
      1   S       2          1759.0000000    0.005558710125
      1   S       3           400.8000000    0.028181377620
      1   S       4           113.7000000    0.105405968897
      1   S       5            37.0300000    0.283558347726
      1   S       6            13.2700000    0.448405544731
      1   S       7             5.0250000    0.270210312267
      1   S       8             1.0130000    0.015353935303
      1   S       9             0.3023000   -0.002566552104

      2   S      10         11720.0000000   -0.000154012534
      2   S      11          1759.0000000   -0.001286581477
      2   S      12           400.8000000   -0.006353451476
      2   S      13           113.7000000   -0.025948040064
      2   S      14            37.0300000   -0.071194666666
      2   S      15            13.2700000   -0.165901685446
      2   S      16             5.0250000   -0.116087309265
      2   S      17             1.0130000    0.560107102424
      2   S      18             0.3023000    0.569941309942

      3   S      19             0.3023000    1.000000000000

      4   P      20            17.7000000    0.043074977590
      4   P      21             3.8540000    0.228742613602
      4   P      22             1.0460000    0.504989831799
      4   P      23             0.2753000    0.464951331673

      5   P      24             0.2753000    1.000000000000

      6   D      25             1.1850000    1.000000000000

 H         

     10   S      26            13.0100000    0.019689775312
     10   S      27             1.9620000    0.137990530014
     10   S      28             0.4446000    0.478155377919
     10   S      29             0.1220000    0.501220868481

     11   S      30             0.1220000    1.000000000000

     12   P      31             0.7270000    1.000000000000

 TOTAL NUMBER OF BASIS SET SHELLS             =   12
 NUMBER OF CARTESIAN GAUSSIAN BASIS FUNCTIONS =   25
 NOTE: THIS RUN WILL RESTRICT THE MO VARIATION SPACE TO SPHERICAL HARMONICS.
 THE NUMBER OF ORBITALS KEPT IN THE VARIATIONAL SPACE WILL BE PRINTED LATER.
 NUMBER OF ELECTRONS                          =   10
 CHARGE OF MOLECULE                           =    0
 SPIN MULTIPLICITY                            =    1
 NUMBER OF OCCUPIED ORBITALS (ALPHA)          =    5
 NUMBER OF OCCUPIED ORBITALS (BETA )          =    5
 TOTAL NUMBER OF ATOMS                        =    3
 THE NUCLEAR REPULSION ENERGY IS        9.1949809303

     ---------------------------------
     RELATIVISTIC WAVEFUNCTION OPTIONS
     ---------------------------------
     METHOD=NESC     NORDER= 2       NESOC=  1      MODEQR=      0
     NRATOM=  0      QMTTOL= 1.000E-10      QRTOL= 0.000E+00
     CLIGHT=137.03598950     TAU= 3.500E+00
 AO NON-RELATIVISTIC NORMALISATION WILL BE OMITTED.

     $CONTRL OPTIONS
     ---------------
 SCFTYP=NONE         RUNTYP=TRANSITN     EXETYP=RUN     
 MPLEVL=       0     CITYP =GUGA         CCTYP =NONE         VBTYP =NONE    
 DFTTYP=NONE         TDDFT =NONE    
 MULT  =       1     ICHARG=       0     NZVAR =       0     COORD =UNIQUE  
 PP    =NONE         RELWFN=NESC         LOCAL =NONE         NUMGRD=       F
 ISPHER=       1     NOSYM =       0     MAXIT =      30     UNITS =BOHR    
 PLTORB=       F     MOLPLT=       F     AIMPAC=       F     FRIEND=        
 NPRINT=       7     IREST =       0     GEOM  =INPUT   
 NORMF =       0     NORMP =       0     ITOL  =      20     ICUT  =       9
 INTTYP=BEST         GRDTYP=BEST         QMTTOL= 1.0E-06

     $SYSTEM OPTIONS
     ---------------
  REPLICATED MEMORY=     1000000 WORDS (ON EVERY NODE).
 DISTRIBUTED MEMDDI=           0 MILLION WORDS IN AGGREGATE,
 MEMDDI DISTRIBUTED OVER   1 PROCESSORS IS           0 WORDS/PROCESSOR.
 TOTAL MEMORY REQUESTED ON EACH PROCESSOR=     1000000 WORDS.
 TIMLIM=      525600.00 MINUTES, OR     365.0 DAYS.
 PARALL= F  BALTYP=  DLB     KDIAG=    0  COREFL= F
 MXSEQ2=     300 MXSEQ3=     150  mem10=         0

          ----------------
          PROPERTIES INPUT
          ----------------

     MOMENTS            FIELD           POTENTIAL          DENSITY
 IEMOM =       1   IEFLD =       0   IEPOT =       0   IEDEN =       0
 WHERE =COMASS     WHERE =NUCLEI     WHERE =NUCLEI     WHERE =NUCLEI  
 OUTPUT=BOTH       OUTPUT=BOTH       OUTPUT=BOTH       OUTPUT=BOTH    
 IEMINT=       0   IEFINT=       0                     IEDINT=       0
                                                       MORB  =       0
          EXTRAPOLATION IN EFFECT
          SOSCF IN EFFECT
 ORBITAL PRINTING OPTION: NPREO=     1    25     2     1

     -------------------------------
     INTEGRAL TRANSFORMATION OPTIONS
     -------------------------------
     NWORD  =            0
     CUTOFF = 1.0E-09     MPTRAN =       0
     DIRTRF =       F     AOINTS =DUP     

          ----------------------
          INTEGRAL INPUT OPTIONS
          ----------------------
 NOPK  =       1 NORDER=       0 SCHWRZ=       F

     ------------------------------------------
     THE POINT GROUP IS CNV, NAXIS= 2, ORDER= 4
     ------------------------------------------

 -- VARIATIONAL SPACE WILL BE RESTRICTED TO PURE SPHERICAL HARMONICS ONLY --
 AFTER EXCLUDING CONTAMINANT COMBINATIONS FROM THE CARTESIAN GAUSSIAN BASIS
 SET, THE NUMBER OF SPHERICAL HARMONICS KEPT IN THE VARIATION SPACE IS   24

     DIMENSIONS OF THE SYMMETRY SUBSPACES ARE
 A1  =   11     A2  =    2     B1  =    4     B2  =    7

 ..... DONE SETTING UP THE RUN .....
 STEP CPU TIME =     0.03 TOTAL CPU TIME =        0.0 (    0.0 MIN)
 TOTAL WALL CLOCK TIME=        0.0 SECONDS, CPU UTILIZATION IS  75.00%

     ------------------------
     TRANSITION MOMENT DRIVER
     ------------------------

     -------------------------------
     INPUT FOR TRANSITION MOMENT RUN
     -------------------------------
     OPERAT=HSO2         NFZC  =       1     NOCC  =       7
     NUMCI =       2     NUMVEC=       1     SYMTOL=   1.0E-04
     IPRHSO=       0     NOSYM =       0     ETOL  =   100.000000
     UPPER ENERGY LIMIT FOR SPIN-ORBIT CI MATRIX   =      100.000 HARTREE.
     TMOMNT=       F     SKIPDM=       T     PRTPRM=       F
     SLOWFF=       F     PHYSRC=       F     MODPAR=       3
     JZ    =       0     PARMP =       0     ZEFTYP=TRUE    
     MCP2E =       0     ONECNT=       0     NFFBUF=      -1
     EEQTOL=   0.10E-05  ISTNO =  0  0
     DEGTOL= .0200 .0020

     IROOTS=         4  4
     NSTATE=         4  4
     IVEX  =         1  1
     ZEFF  =        8.0   1.0   1.0

          ********************
          1 ELECTRON INTEGRALS
          ********************
 TIME TO DO ORDINARY INTEGRALS=      0.00

 --------------------------------------------------------
     NORMALISED ELIMINATION OF SMALL COMPONENT (NESC)
           CODED BY DMITRI FEDOROV, BASED UPON:
             K. G. DYALL JCP 100, 2118 (1994)
             K. G. DYALL JCP 106, 9618 (1997)
   K. G. DYALL AND T. ENEVOLDSEN, JCP 111, 10000 (1999)
 --------------------------------------------------------

 TIME TO DO  RELATIVISTIC INTS=      0.00
 ...... END OF ONE-ELECTRON INTEGRALS ......
 STEP CPU TIME =     0.00 TOTAL CPU TIME =        0.0 (    0.0 MIN)
 TOTAL WALL CLOCK TIME=        0.0 SECONDS, CPU UTILIZATION IS  60.00%
 OPENING FILE SOCCDAT WITH      12 LOGICAL RECORDS OF       0 WORDS
 WITH A MAXIMUM OF          12 PHYSICAL RECORDS OF    2048 WORDS

 STATISTICS FOR GENERATION OF SYMMETRY ORBITAL -Q- MATRIX
 NUMBER OF CARTESIAN ATOMIC ORBITALS=         25
 NUMBER OF SPHERICAL CONTAMINANTS DROPPED=     1
 NUMBER OF LINEARLY DEPENDENT MOS DROPPED=     0
 TOTAL NUMBER OF MOS IN VARIATION SPACE=      24


          ----------------------
          CORRESPONDING ORBITALS
          ----------------------
 THE CORRESPONDING ORBITAL OVERLAPS ARE
  1.0000000000 1.0000000000 1.0000000000 1.0000000000 1.0000000000
  1.0000000000 1.0000000000
 STEP CPU TIME =     0.00 TOTAL CPU TIME =        0.0 (    0.0 MIN)
 TOTAL WALL CLOCK TIME=        0.0 SECONDS, CPU UTILIZATION IS  60.00%

                    ----------------------
                    AO INTEGRAL TECHNOLOGY
                    ----------------------
     S,P,L SHELL ROTATED AXIS INTEGRALS, REPROGRAMMED BY
        KAZUYA ISHIMURA (IMS) AND JOSE SIERRA (SYNSTAR).
     S,P,D,L SHELL ROTATED AXIS INTEGRALS PROGRAMMED BY
        KAZUYA ISHIMURA (INSTITUTE FOR MOLECULAR SCIENCE).
     S,P,D,F,G SHELL TO TOTAL QUARTET ANGULAR MOMENTUM SUM 5,
        ERIC PROGRAM BY GRAHAM FLETCHER (ELORET AND NASA ADVANCED
        SUPERCOMPUTING DIVISION, AMES RESEARCH CENTER).
     S,P,D,F,G,L SHELL GENERAL RYS QUADRATURE PROGRAMMED BY
        MICHEL DUPUIS (PACIFIC NORTHWEST NATIONAL LABORATORY).

          --------------------
          2 ELECTRON INTEGRALS
          --------------------

 THE -PK- OPTION IS OFF, THE INTEGRALS ARE NOT IN SUPERMATRIX FORM.
 STORING   15000 INTEGRALS/RECORD ON DISK, USING 12 BYTES/INTEGRAL.
 TWO ELECTRON INTEGRAL EVALUATION REQUIRES   90474 WORDS OF MEMORY.
 II,JST,KST,LST =  1  1  1  1 NREC =         1 INTLOC =    1
 II,JST,KST,LST =  2  1  1  1 NREC =         1 INTLOC =    2
 II,JST,KST,LST =  3  1  1  1 NREC =         1 INTLOC =    7
 II,JST,KST,LST =  4  1  1  1 NREC =         1 INTLOC =   22
 II,JST,KST,LST =  5  1  1  1 NREC =         1 INTLOC =   67
 II,JST,KST,LST =  6  1  1  1 NREC =         1 INTLOC =  214
 II,JST,KST,LST =  7  1  1  1 NREC =         1 INTLOC = 1189
 II,JST,KST,LST =  8  1  1  1 NREC =         1 INTLOC = 1189
 II,JST,KST,LST =  9  1  1  1 NREC =         1 INTLOC = 1189
 II,JST,KST,LST = 10  1  1  1 NREC =         1 INTLOC = 1189
 II,JST,KST,LST = 11  1  1  1 NREC =         1 INTLOC = 2524
 II,JST,KST,LST = 12  1  1  1 NREC =         1 INTLOC = 4462
 TOTAL NUMBER OF NONZERO TWO-ELECTRON INTEGRALS =               13863
          1 INTEGRAL RECORDS WERE STORED ON DISK FILE  8.
  ...... END OF TWO-ELECTRON INTEGRALS .....
 STEP CPU TIME =     0.03 TOTAL CPU TIME =        0.1 (    0.0 MIN)
 TOTAL WALL CLOCK TIME=        0.1 SECONDS, CPU UTILIZATION IS  85.71%
 ...... END OF ORBITAL SELECTION ......


     -------------------------
      1-ST     CI CALCULATION
     -------------------------

          -----------------------     ----------------------------
          GUGA DISTINCT ROW TABLE     WRITTEN BY B.R.BROOKS,P.SAXE
          -----------------------     ----------------------------

      GROUP=C2V          NPRT=       0
       FORS=       T   INTACT=       F
       FOCI=       F   MXNINT=   50000
       SOCI=       F   MXNEME=   10000
     IEXCIT=       0

      -CORE-    -INTERNAL-  -EXTERNAL-
     NFZC=   1   NDOC=   4   NEXT=   0
     NMCC=   0   NAOS=   0   NFZV=   0
                 NBOS=   0
                 NALP=   0
                 NVAL=   2

 THE MAXIMUM ELECTRON EXCITATION WILL BE   4

 SYMMETRIES FOR THE   1 CORE,   6 ACTIVE,   0 EXTERNAL MO-S ARE
     CORE= A1  
   ACTIVE= A1    B2    A1    B1    A1    B2  
           DOC   DOC   DOC   DOC   VAL   VAL 

 MOLECULAR CHARGE          =    0
 NUMBER OF ALPHA ELECTRONS =    5
 NUMBER OF  BETA ELECTRONS =    5

 THE ELECTRONIC STATE IS  1-A1  

 THE DISTINCT ROW TABLE HAS        32 ROWS.
  THE WAVEFUNCTION CONTAINS        37 WALKS (CSF-S).

 TOTAL NUMBER OF INTEGRALS =        106
 NUMBER OF INTEGRALS/GROUP =        106
 NUMBER OF INTEGRAL GROUPS =          1
 MAXIMUM RECORD SIZES ARE     500 FOR UNIT 11      37 FOR UNIT 12
                            30001 FOR UNIT 15   30001 FOR UNIT 16
 ...... END OF -DRT- GENERATION ...... 
 STEP CPU TIME =     0.00 TOTAL CPU TIME =        0.1 (    0.0 MIN)
 TOTAL WALL CLOCK TIME=        0.1 SECONDS, CPU UTILIZATION IS  75.00%

     --------------------------------------------
     PARTIAL TWO ELECTRON INTEGRAL TRANSFORMATION
     --------------------------------------------

 NUMBER OF CORE MOLECULAR ORBITALS     =    1
 NUMBER OF OCCUPIED MOLECULAR ORBITALS =    7
 TOTAL NUMBER OF MOLECULAR ORBITALS    =    7
 TOTAL NUMBER OF ATOMIC ORBITALS       =   25
 THRESHOLD FOR KEEPING TRANSFORMED 2E- INTEGRALS = 1.000E-09
 AO INTEGRALS WILL BE READ IN FROM DISK...
 EVALUATING THE FROZEN CORE ENERGY...
 ----- FROZEN CORE ENERGY =       -61.1725609831

 PLAN A: REQUIREMENTS FOR FULLY IN-MEMORY TRANSFORMATION:
 # OF WORDS AVAILABLE =               970021
 # OF WORDS NEEDED    =               111927

 CHOOSING IN MEMORY PARTIAL TRANSFORMATION...
 TOTAL NUMBER OF TRANSFORMED 2E- INTEGRALS KEPT =           85
 ... END OF INTEGRAL TRANSFORMATION ...
 STEP CPU TIME =     0.00 TOTAL CPU TIME =        0.1 (    0.0 MIN)
 TOTAL WALL CLOCK TIME=        0.1 SECONDS, CPU UTILIZATION IS  75.00%

          ------------------------
          GUGA-CI INTEGRAL SORTING
          ------------------------

     80133 WORDS NEEDED TO SORT            106 GUGA INTEGRALS IN MEMORY
    970021 WORDS ARE AVAILABLE
 CHOOSING IN-MEMORY SORTING...
 IN CORE ALGORITHM SORTED             10 NON-ZERO 1E- INTEGRALS
 IN CORE ALGORITHM SORTED             85 NON-ZERO 2E- INTEGRALS
 ...... END OF INTEGRAL SORTING ...... 
 STEP CPU TIME =     0.00 TOTAL CPU TIME =        0.1 (    0.0 MIN)
 TOTAL WALL CLOCK TIME=        0.1 SECONDS, CPU UTILIZATION IS  75.00%

 -------------------------     ---------------------------------------
 ENERGY MATRIX CALCULATION     WRITTEN BY B.R.BROOKS,W.D.LAIDIG,P.SAXE
 -------------------------     ---------------------------------------

 COMPUTING THE HAMILTONIAN FOR THE        37 CSF-S...

         800 IS THE TOTAL NUMBER OF GENERATED LOOPS
         800 WERE CREATED BY THE LOOP-DRIVEN ALGORITHM
           0 WERE CREATED IMPLICITLY

         800 IS THE TOTAL NUMBER OF PROCESSED LOOPS
         255     DIAGONAL LOOPS ARE STORED ON WORK15 IN     1 BUFFERS OF  10000 ELEMENTS.
         545 OFF DIAGONAL LOOPS ARE STORED ON WORK16 IN     1 BUFFERS OF  10000 ELEMENTS.
 ...... END OF ENERGY MATRIX CALCULATION ...... 
 STEP CPU TIME =     0.00 TOTAL CPU TIME =        0.1 (    0.0 MIN)
 TOTAL WALL CLOCK TIME=        0.1 SECONDS, CPU UTILIZATION IS  75.00%

          -----------------------------------------
          DAVIDSON METHOD CI-MATRIX DIAGONALIZATION
                   WRITTEN BY STEVE ELBERT
          -----------------------------------------
 NUMBER OF STATES REQUESTED =     4
 MAX. NUMB. OF EXPAN. VEC   =    30
 MAX. NUMB. IMPROVED STATES =     4
 MAX. NUMB. OF ITERATIONS   =    50
 CONVERGENCE CRITERION      =    1.0E-06

 CHOOSING TO SOLVE SECULAR EQUATION IN MEMORY
 NUMBER OF WORDS AVAILABLE =     970021
 NUMBER OF WORDS USED      =      32299
 ENERGY MATRIX BUFFER SIZE =      10000
 SOLUTION FOUND WITH DIRECT METHOD

 STATE #    1  ENERGY =     -76.133194595

      CSF      COEF    OCCUPANCY (IGNORING CORE)
      ---      ----    --------- --------- -----
        1    0.988580  222200
        4   -0.074614  202202
       12    0.068548  211211
       13    0.050851  112211

 THE PROJECTION OF THIS CI STATE ONTO SPACE SYMMETRY A1   WEIGHS 1.0000E+00


 STATE #    2  ENERGY =     -75.216083194

      CSF      COEF    OCCUPANCY (IGNORING CORE)
      ---      ----    --------- --------- -----
        2    0.478203  212201
        5    0.070747  220202
        8    0.865900  221210
       12   -0.051458  211211
       21   -0.052741  202220

 THE PROJECTION OF THIS CI STATE ONTO SPACE SYMMETRY A1   WEIGHS 1.0000E+00


 STATE #    3  ENERGY =     -74.898166418

      CSF      COEF    OCCUPANCY (IGNORING CORE)
      ---      ----    --------- --------- -----
        2    0.844196  212201
        3   -0.066871  222002
        8   -0.461220  221210
        9    0.154445  122210
       10   -0.057204  211211
       12    0.067605  211211
       16    0.118562  201212
       21   -0.059985  202220
       27   -0.079782  210221

 THE PROJECTION OF THIS CI STATE ONTO SPACE SYMMETRY A1   WEIGHS 1.0000E+00


 STATE #    4  ENERGY =     -74.663663723

      CSF      COEF    OCCUPANCY (IGNORING CORE)
      ---      ----    --------- --------- -----
        2    0.097505  212201
        3    0.785863  222002
        5   -0.080099  220202
        7   -0.056059  022202
        9   -0.101378  122210
       14    0.059342  221012
       20   -0.575033  222020
       22    0.055645  220220
       25   -0.091747  212021

 THE PROJECTION OF THIS CI STATE ONTO SPACE SYMMETRY A1   WEIGHS 1.0000E+00

 ...... END OF CI-MATRIX DIAGONALIZATION ......
 STEP CPU TIME =     0.00 TOTAL CPU TIME =        0.1 (    0.0 MIN)
 TOTAL WALL CLOCK TIME=        0.1 SECONDS, CPU UTILIZATION IS  75.00%

          ---------------------
          STORE CSF INFORMATION
          --------------------

 READING THE DRT FILE
 TITLE=DRT1    Fri Jun  2 02:34:57 2017                                                
 NUMBER OF CONFIGURATIONS =         37

 READING THE CI VECTOR FILE
 RUN TITLE=H2O molecule, FW basis set                                                      
 DRT TITLE=DRT1    Fri Jun  2 02:34:57 2017                                                
     4 STATES WERE COMPUTED, NWKS=        37

 STORING CSF AND CI COEF. INFORMATION FOR    4 STATES ON FILE  17.
     ENERGIES ARE ...
     -76.1331946    -75.2160832    -74.8981664    -74.6636637
 SAVING CSFS WITH COEFS LARGER THAN 8.33E-06
 SAVED CSFS:         37
 TOTAL CSFS:         37

 ...... DONE STORING CSF INFORMATION ......
 STEP CPU TIME =     0.00 TOTAL CPU TIME =        0.1 (    0.0 MIN)
 TOTAL WALL CLOCK TIME=        0.1 SECONDS, CPU UTILIZATION IS  75.00%


     -------------------------
      2-ND     CI CALCULATION
     -------------------------

          -----------------------     ----------------------------
          GUGA DISTINCT ROW TABLE     WRITTEN BY B.R.BROOKS,P.SAXE
          -----------------------     ----------------------------

      GROUP=C2V          NPRT=       0
       FORS=       T   INTACT=       F
       FOCI=       F   MXNINT=   50000
       SOCI=       F   MXNEME=   10000
     IEXCIT=       0

      -CORE-    -INTERNAL-  -EXTERNAL-
     NFZC=   1   NDOC=   3   NEXT=   0
     NMCC=   0   NAOS=   0   NFZV=   0
                 NBOS=   0
                 NALP=   2
                 NVAL=   1

 THE MAXIMUM ELECTRON EXCITATION WILL BE   4

 SYMMETRIES FOR THE   1 CORE,   6 ACTIVE,   0 EXTERNAL MO-S ARE
     CORE= A1  
   ACTIVE= A1    B2    A1    B1    A1    B2  
           DOC   DOC   DOC   ALP   ALP   VAL 

 MOLECULAR CHARGE          =    0
 NUMBER OF ALPHA ELECTRONS =    6
 NUMBER OF  BETA ELECTRONS =    4

 THE ELECTRONIC STATE IS  3-B1  

 THE DISTINCT ROW TABLE HAS        23 ROWS.
  THE WAVEFUNCTION CONTAINS        24 WALKS (CSF-S).

 TOTAL NUMBER OF INTEGRALS =        104
 NUMBER OF INTEGRALS/GROUP =        104
 NUMBER OF INTEGRAL GROUPS =          1
 MAXIMUM RECORD SIZES ARE     500 FOR UNIT 11      24 FOR UNIT 12
                            30001 FOR UNIT 15   30001 FOR UNIT 16
 ...... END OF -DRT- GENERATION ...... 
 STEP CPU TIME =     0.00 TOTAL CPU TIME =        0.1 (    0.0 MIN)
 TOTAL WALL CLOCK TIME=        0.1 SECONDS, CPU UTILIZATION IS  75.00%

     --------------------------------------------
     PARTIAL TWO ELECTRON INTEGRAL TRANSFORMATION
     --------------------------------------------

 NUMBER OF CORE MOLECULAR ORBITALS     =    1
 NUMBER OF OCCUPIED MOLECULAR ORBITALS =    7
 TOTAL NUMBER OF MOLECULAR ORBITALS    =    7
 TOTAL NUMBER OF ATOMIC ORBITALS       =   25
 THRESHOLD FOR KEEPING TRANSFORMED 2E- INTEGRALS = 1.000E-09
 AO INTEGRALS WILL BE READ IN FROM DISK...
 EVALUATING THE FROZEN CORE ENERGY...
 ----- FROZEN CORE ENERGY =       -61.1725609831

 PLAN A: REQUIREMENTS FOR FULLY IN-MEMORY TRANSFORMATION:
 # OF WORDS AVAILABLE =               970021
 # OF WORDS NEEDED    =               111927

 CHOOSING IN MEMORY PARTIAL TRANSFORMATION...
 TOTAL NUMBER OF TRANSFORMED 2E- INTEGRALS KEPT =           85
 ... END OF INTEGRAL TRANSFORMATION ...
 STEP CPU TIME =     0.00 TOTAL CPU TIME =        0.1 (    0.0 MIN)
 TOTAL WALL CLOCK TIME=        0.1 SECONDS, CPU UTILIZATION IS  75.00%

          ------------------------
          GUGA-CI INTEGRAL SORTING
          ------------------------

     80133 WORDS NEEDED TO SORT            104 GUGA INTEGRALS IN MEMORY
    970021 WORDS ARE AVAILABLE
 CHOOSING IN-MEMORY SORTING...
 IN CORE ALGORITHM SORTED             10 NON-ZERO 1E- INTEGRALS
 IN CORE ALGORITHM SORTED             85 NON-ZERO 2E- INTEGRALS
 ...... END OF INTEGRAL SORTING ...... 
 STEP CPU TIME =     0.01 TOTAL CPU TIME =        0.1 (    0.0 MIN)
 TOTAL WALL CLOCK TIME=        0.1 SECONDS, CPU UTILIZATION IS  87.50%

 -------------------------     ---------------------------------------
 ENERGY MATRIX CALCULATION     WRITTEN BY B.R.BROOKS,W.D.LAIDIG,P.SAXE
 -------------------------     ---------------------------------------

 COMPUTING THE HAMILTONIAN FOR THE        24 CSF-S...

         617 IS THE TOTAL NUMBER OF GENERATED LOOPS
         617 WERE CREATED BY THE LOOP-DRIVEN ALGORITHM
           0 WERE CREATED IMPLICITLY

         617 IS THE TOTAL NUMBER OF PROCESSED LOOPS
         239     DIAGONAL LOOPS ARE STORED ON WORK15 IN     1 BUFFERS OF  10000 ELEMENTS.
         378 OFF DIAGONAL LOOPS ARE STORED ON WORK16 IN     1 BUFFERS OF  10000 ELEMENTS.
 ...... END OF ENERGY MATRIX CALCULATION ...... 
 STEP CPU TIME =     0.00 TOTAL CPU TIME =        0.1 (    0.0 MIN)
 TOTAL WALL CLOCK TIME=        0.1 SECONDS, CPU UTILIZATION IS  87.50%

          -----------------------------------------
          DAVIDSON METHOD CI-MATRIX DIAGONALIZATION
                   WRITTEN BY STEVE ELBERT
          -----------------------------------------
 NUMBER OF STATES REQUESTED =     4
 MAX. NUMB. OF EXPAN. VEC   =    30
 MAX. NUMB. IMPROVED STATES =     4
 MAX. NUMB. OF ITERATIONS   =    50
 CONVERGENCE CRITERION      =    1.0E-06

 CHOOSING TO SOLVE SECULAR EQUATION IN MEMORY
 NUMBER OF WORDS AVAILABLE =     970021
 NUMBER OF WORDS USED      =      31662
 ENERGY MATRIX BUFFER SIZE =      10000
 SOLUTION FOUND WITH DIRECT METHOD

 STATE #    1  ENERGY =     -75.449387759

      CSF      COEF    OCCUPANCY (IGNORING CORE)
      ---      ----    --------- --------- -----
        3    0.989602  222110
       10    0.055793  211121
       15   -0.077716  202112
       22   -0.055782  221102

 THE PROJECTION OF THIS CI STATE ONTO SPACE SYMMETRY B1   WEIGHS 1.0000E+00


 STATE #    2  ENERGY =     -74.665456118

      CSF      COEF    OCCUPANCY (IGNORING CORE)
      ---      ----    --------- --------- -----
        1   -0.560795  221120
        2   -0.137507  122120
        3    0.053187  222110
        8    0.216260  212111
       10   -0.071856  211121
       12   -0.320059  212111
       22    0.702993  221102
       24    0.092749  122102

 THE PROJECTION OF THIS CI STATE ONTO SPACE SYMMETRY B1   WEIGHS 1.0000E+00


 STATE #    3  ENERGY =     -74.604448197

      CSF      COEF    OCCUPANCY (IGNORING CORE)
      ---      ----    --------- --------- -----
        8    0.291196  212111
        9    0.953263  212111

 THE PROJECTION OF THIS CI STATE ONTO SPACE SYMMETRY B1   WEIGHS 1.0000E+00


 STATE #    4  ENERGY =     -74.499202937

      CSF      COEF    OCCUPANCY (IGNORING CORE)
      ---      ----    --------- --------- -----
        1   -0.242971  221120
        2   -0.184672  122120
        3   -0.050271  222110
        8    0.742897  212111
        9   -0.241862  212111
       12   -0.141663  212111
       22   -0.509913  221102
       24   -0.086597  122102

 THE PROJECTION OF THIS CI STATE ONTO SPACE SYMMETRY B1   WEIGHS 1.0000E+00

 ...... END OF CI-MATRIX DIAGONALIZATION ......
 STEP CPU TIME =     0.00 TOTAL CPU TIME =        0.1 (    0.0 MIN)
 TOTAL WALL CLOCK TIME=        0.1 SECONDS, CPU UTILIZATION IS  77.78%

          ---------------------
          STORE CSF INFORMATION
          --------------------

 READING THE DRT FILE
 TITLE=DRT2    Fri Jun  2 02:34:57 2017                                                
 NUMBER OF CONFIGURATIONS =         24

 READING THE CI VECTOR FILE
 RUN TITLE=H2O molecule, FW basis set                                                      
 DRT TITLE=DRT2    Fri Jun  2 02:34:57 2017                                                
     4 STATES WERE COMPUTED, NWKS=        24

 STORING CSF AND CI COEF. INFORMATION FOR    4 STATES ON FILE  17.
     ENERGIES ARE ...
     -75.4493878    -74.6654561    -74.6044482    -74.4992029
 SAVING CSFS WITH COEFS LARGER THAN 8.33E-06
 SAVED CSFS:         24
 TOTAL CSFS:         24

 ...... DONE STORING CSF INFORMATION ......
 STEP CPU TIME =     0.00 TOTAL CPU TIME =        0.1 (    0.0 MIN)
 TOTAL WALL CLOCK TIME=        0.1 SECONDS, CPU UTILIZATION IS  77.78%
 STEP CPU TIME =     0.00 TOTAL CPU TIME =        0.1 (    0.0 MIN)
 TOTAL WALL CLOCK TIME=        0.1 SECONDS, CPU UTILIZATION IS  77.78%

 ++++++++++++++++++++++++++++++++++++++++++++++++++++++++++++++++++++++


 THE SYMMETRIES OF THE ANGULAR MOMENTUM L AND TRANSLATION R:
 LX BELONGS TO B2  
 LY BELONGS TO B1  
 LZ BELONGS TO A2  
 RX BELONGS TO B1  
 RY BELONGS TO B2  
 RZ BELONGS TO A1  
 SOC INTEGRALS NEED BE CALCULATED FOR LX: NAY 
 SOC INTEGRALS NEED BE CALCULATED FOR LY: YEA 
 SOC INTEGRALS NEED BE CALCULATED FOR LZ: NAY 

     -------------------------------------------
            DIRECT SPIN-ORBIT COUPLING
         (SHIRO KOSEKI AND DMITRI FEDOROV)

           FULL PAULI-BREIT HAMILTONIAN.
     -------------------------------------------


ENERGY FOR THE LOWEST STATE     =      -76.1331945953
ENERGY TOLERANCE FOR SOC MATRIX =       23.8668054047 (HIGHEST STATE)
                           ETOL =      100.0000000000
                         UPPREN =       23.8668054047

  CI# RTS#     LOWEST ENERGY      HIGHEST ENERGY     NEXT ENERGY
    1    4      -76.1331945953      -74.6636637231
    2    4      -75.4493877588      -74.4992029374

         -------------------------------------
          TWO-ELECTRON SPIN-ORBIT AO INTEGRALS
         -------------------------------------
         USING     207671 WORDS OF MEMORY

         SAVING 2E INTEGRALS:         0(LX),     72350(LY),         0(LZ)
      ...... DONE WITH SPIN-ORBIT INTEGRALS ......
 STEP CPU TIME =     0.27 TOTAL CPU TIME =        0.3 (    0.0 MIN)
 TOTAL WALL CLOCK TIME=        0.4 SECONDS, CPU UTILIZATION IS  94.44%

    185601 WORDS OF MEMORY ARE REQUESTED FOR 3 PASS(ES)
    185601 WORDS FOR INTEGRALS,     32187 WORDS FOR CSFS.

 REFERENCE STATE IS SET TO    1 IN THE DRT NO. 1 (  1001).

 THE FOLLOWING LEGEND IS USED BELOW:
 [C] - THE MATRIX ELEMENT ACTUALLY CALCULATED
 [P] - OBTAINED FROM [C] BY THE WIGNER-ECKART THEOREM (<HSO>)
 [Z] - ZERO BY POINT GROUP SYMMETRY
 [W] - ZERO BY THE WIGNER-ECKART THEOREM (<HSO>)
 [S] - ZERO BY SPIN ORTHOGONALITY (<R>)

 [Z]'S ARE NOT CALCULATED.


 CI STATE FORMAT:   N-(2S+1)G:B
 G- IRREP LABEL, B NUMBERS DEGENERATE COMPONENTS OF G
 N NUMBERS EQUIVALENT TERMS (2S+1)G:B

 STATE ID FORMAT: NCI*1000+IROOT,
 WHERE NCI IS THE NTH $DRT GROUP
 AND IROOT IS THE CI ROOT'S ORDINAL NUMBER.


 -----------------------------------------------------
 4-INDEX TRANSFORMATION AO->MO 2E SO INTEGRALS, PASS 2
 -----------------------------------------------------

 PROCESSING   1-   6 OUT OF   6 MOS, <LY>
 STEP CPU TIME =     0.01 TOTAL CPU TIME =        0.3 (    0.0 MIN)
 TOTAL WALL CLOCK TIME=        0.4 SECONDS, CPU UTILIZATION IS  94.59%
  
 < 1-1A1   (MS= 0.0)|HSO| 1-3B1   (MS= 0.0)> =     0.0000    -0.0000I    [Z]
 1-EL. CONTRIBUTION(CM-1)         0.0000    -0.0000I
 2-EL. CONTRIBUTION(CM-1)        -0.0000    -0.0000I
 < 1-1A1   (MS= 0.0)|HSO| 1-3B1   (MS= 1.0)> =    65.3154    -0.0000I    [C]
 1-EL. CONTRIBUTION(CM-1)        97.3320    -0.0000I
 2-EL. CONTRIBUTION(CM-1)       -32.0166     0.0000I
 < 1-1A1   (MS= 0.0)|HSO| 1-3B1   (MS=-1.0)> =    65.3154     0.0000I    [P]
 1-EL. CONTRIBUTION(CM-1)        97.3320     0.0000I
 2-EL. CONTRIBUTION(CM-1)       -32.0166    -0.0000I
  
 < 1-1A1   (MS= 0.0)|HSO| 2-3B1   (MS= 0.0)> =     0.0000    -0.0000I    [Z]
 1-EL. CONTRIBUTION(CM-1)         0.0000    -0.0000I
 2-EL. CONTRIBUTION(CM-1)        -0.0000    -0.0000I
 < 1-1A1   (MS= 0.0)|HSO| 2-3B1   (MS= 1.0)> =     5.4031    -0.0000I    [C]
 1-EL. CONTRIBUTION(CM-1)         5.3477    -0.0000I
 2-EL. CONTRIBUTION(CM-1)         0.0554     0.0000I
 < 1-1A1   (MS= 0.0)|HSO| 2-3B1   (MS=-1.0)> =     5.4031     0.0000I    [P]
 1-EL. CONTRIBUTION(CM-1)         5.3477     0.0000I
 2-EL. CONTRIBUTION(CM-1)         0.0554    -0.0000I
  
 < 1-1A1   (MS= 0.0)|HSO| 3-3B1   (MS= 0.0)> =     0.0000    -0.0000I    [Z]
 1-EL. CONTRIBUTION(CM-1)         0.0000    -0.0000I
 2-EL. CONTRIBUTION(CM-1)        -0.0000    -0.0000I
 < 1-1A1   (MS= 0.0)|HSO| 3-3B1   (MS= 1.0)> =     0.8410    -0.0000I    [C]
 1-EL. CONTRIBUTION(CM-1)        -2.8155    -0.0000I
 2-EL. CONTRIBUTION(CM-1)         3.6565     0.0000I
 < 1-1A1   (MS= 0.0)|HSO| 3-3B1   (MS=-1.0)> =     0.8410     0.0000I    [P]
 1-EL. CONTRIBUTION(CM-1)        -2.8155     0.0000I
 2-EL. CONTRIBUTION(CM-1)         3.6565    -0.0000I
  
 < 1-1A1   (MS= 0.0)|HSO| 4-3B1   (MS= 0.0)> =     0.0000    -0.0000I    [Z]
 1-EL. CONTRIBUTION(CM-1)         0.0000    -0.0000I
 2-EL. CONTRIBUTION(CM-1)        -0.0000    -0.0000I
 < 1-1A1   (MS= 0.0)|HSO| 4-3B1   (MS= 1.0)> =     1.3063    -0.0000I    [C]
 1-EL. CONTRIBUTION(CM-1)        -0.0407    -0.0000I
 2-EL. CONTRIBUTION(CM-1)         1.3469     0.0000I
 < 1-1A1   (MS= 0.0)|HSO| 4-3B1   (MS=-1.0)> =     1.3063     0.0000I    [P]
 1-EL. CONTRIBUTION(CM-1)        -0.0407     0.0000I
 2-EL. CONTRIBUTION(CM-1)         1.3469    -0.0000I
  
 < 2-1A1   (MS= 0.0)|HSO| 1-3B1   (MS= 0.0)> =     0.0000    -0.0000I    [Z]
 1-EL. CONTRIBUTION(CM-1)         0.0000    -0.0000I
 2-EL. CONTRIBUTION(CM-1)        -0.0000    -0.0000I
 < 2-1A1   (MS= 0.0)|HSO| 1-3B1   (MS= 1.0)> =   -31.8561    -0.0000I    [C]
 1-EL. CONTRIBUTION(CM-1)       -54.3438    -0.0000I
 2-EL. CONTRIBUTION(CM-1)        22.4877     0.0000I
 < 2-1A1   (MS= 0.0)|HSO| 1-3B1   (MS=-1.0)> =   -31.8561     0.0000I    [P]
 1-EL. CONTRIBUTION(CM-1)       -54.3438     0.0000I
 2-EL. CONTRIBUTION(CM-1)        22.4877    -0.0000I
  
 < 2-1A1   (MS= 0.0)|HSO| 2-3B1   (MS= 0.0)> =     0.0000    -0.0000I    [Z]
 1-EL. CONTRIBUTION(CM-1)         0.0000    -0.0000I
 2-EL. CONTRIBUTION(CM-1)        -0.0000    -0.0000I
 < 2-1A1   (MS= 0.0)|HSO| 2-3B1   (MS= 1.0)> =    32.5018    -0.0000I    [C]
 1-EL. CONTRIBUTION(CM-1)        49.8660    -0.0000I
 2-EL. CONTRIBUTION(CM-1)       -17.3642     0.0000I
 < 2-1A1   (MS= 0.0)|HSO| 2-3B1   (MS=-1.0)> =    32.5018     0.0000I    [P]
 1-EL. CONTRIBUTION(CM-1)        49.8660     0.0000I
 2-EL. CONTRIBUTION(CM-1)       -17.3642    -0.0000I
  
 < 2-1A1   (MS= 0.0)|HSO| 3-3B1   (MS= 0.0)> =     0.0000    -0.0000I    [Z]
 1-EL. CONTRIBUTION(CM-1)         0.0000    -0.0000I
 2-EL. CONTRIBUTION(CM-1)        -0.0000    -0.0000I
 < 2-1A1   (MS= 0.0)|HSO| 3-3B1   (MS= 1.0)> =    -3.1432    -0.0000I    [C]
 1-EL. CONTRIBUTION(CM-1)        -0.7870    -0.0000I
 2-EL. CONTRIBUTION(CM-1)        -2.3562     0.0000I
 < 2-1A1   (MS= 0.0)|HSO| 3-3B1   (MS=-1.0)> =    -3.1432     0.0000I    [P]
 1-EL. CONTRIBUTION(CM-1)        -0.7870     0.0000I
 2-EL. CONTRIBUTION(CM-1)        -2.3562    -0.0000I
  
 < 2-1A1   (MS= 0.0)|HSO| 4-3B1   (MS= 0.0)> =     0.0000    -0.0000I    [Z]
 1-EL. CONTRIBUTION(CM-1)         0.0000    -0.0000I
 2-EL. CONTRIBUTION(CM-1)        -0.0000    -0.0000I
 < 2-1A1   (MS= 0.0)|HSO| 4-3B1   (MS= 1.0)> =    11.8399    -0.0000I    [C]
 1-EL. CONTRIBUTION(CM-1)        20.5013    -0.0000I
 2-EL. CONTRIBUTION(CM-1)        -8.6613     0.0000I
 < 2-1A1   (MS= 0.0)|HSO| 4-3B1   (MS=-1.0)> =    11.8399     0.0000I    [P]
 1-EL. CONTRIBUTION(CM-1)        20.5013     0.0000I
 2-EL. CONTRIBUTION(CM-1)        -8.6613    -0.0000I
  
 < 3-1A1   (MS= 0.0)|HSO| 1-3B1   (MS= 0.0)> =     0.0000    -0.0000I    [Z]
 1-EL. CONTRIBUTION(CM-1)         0.0000    -0.0000I
 2-EL. CONTRIBUTION(CM-1)        -0.0000    -0.0000I
 < 3-1A1   (MS= 0.0)|HSO| 1-3B1   (MS= 1.0)> =    17.6866    -0.0000I    [C]
 1-EL. CONTRIBUTION(CM-1)        26.8806    -0.0000I
 2-EL. CONTRIBUTION(CM-1)        -9.1940     0.0000I
 < 3-1A1   (MS= 0.0)|HSO| 1-3B1   (MS=-1.0)> =    17.6866     0.0000I    [P]
 1-EL. CONTRIBUTION(CM-1)        26.8806     0.0000I
 2-EL. CONTRIBUTION(CM-1)        -9.1940    -0.0000I
  
 < 3-1A1   (MS= 0.0)|HSO| 2-3B1   (MS= 0.0)> =     0.0000    -0.0000I    [Z]
 1-EL. CONTRIBUTION(CM-1)         0.0000    -0.0000I
 2-EL. CONTRIBUTION(CM-1)        -0.0000    -0.0000I
 < 3-1A1   (MS= 0.0)|HSO| 2-3B1   (MS= 1.0)> =     3.9117    -0.0000I    [C]
 1-EL. CONTRIBUTION(CM-1)         4.5526    -0.0000I
 2-EL. CONTRIBUTION(CM-1)        -0.6408     0.0000I
 < 3-1A1   (MS= 0.0)|HSO| 2-3B1   (MS=-1.0)> =     3.9117     0.0000I    [P]
 1-EL. CONTRIBUTION(CM-1)         4.5526     0.0000I
 2-EL. CONTRIBUTION(CM-1)        -0.6408    -0.0000I
  
 < 3-1A1   (MS= 0.0)|HSO| 3-3B1   (MS= 0.0)> =     0.0000    -0.0000I    [Z]
 1-EL. CONTRIBUTION(CM-1)         0.0000    -0.0000I
 2-EL. CONTRIBUTION(CM-1)        -0.0000    -0.0000I
 < 3-1A1   (MS= 0.0)|HSO| 3-3B1   (MS= 1.0)> =     0.1879    -0.0000I    [C]
 1-EL. CONTRIBUTION(CM-1)         0.8402    -0.0000I
 2-EL. CONTRIBUTION(CM-1)        -0.6523     0.0000I
 < 3-1A1   (MS= 0.0)|HSO| 3-3B1   (MS=-1.0)> =     0.1879     0.0000I    [P]
 1-EL. CONTRIBUTION(CM-1)         0.8402     0.0000I
 2-EL. CONTRIBUTION(CM-1)        -0.6523    -0.0000I
  
 < 3-1A1   (MS= 0.0)|HSO| 4-3B1   (MS= 0.0)> =     0.0000    -0.0000I    [Z]
 1-EL. CONTRIBUTION(CM-1)         0.0000    -0.0000I
 2-EL. CONTRIBUTION(CM-1)        -0.0000    -0.0000I
 < 3-1A1   (MS= 0.0)|HSO| 4-3B1   (MS= 1.0)> =     6.4239    -0.0000I    [C]
 1-EL. CONTRIBUTION(CM-1)        11.1254    -0.0000I
 2-EL. CONTRIBUTION(CM-1)        -4.7016     0.0000I
 < 3-1A1   (MS= 0.0)|HSO| 4-3B1   (MS=-1.0)> =     6.4239     0.0000I    [P]
 1-EL. CONTRIBUTION(CM-1)        11.1254     0.0000I
 2-EL. CONTRIBUTION(CM-1)        -4.7016    -0.0000I
  
 < 4-1A1   (MS= 0.0)|HSO| 1-3B1   (MS= 0.0)> =     0.0000    -0.0000I    [Z]
 1-EL. CONTRIBUTION(CM-1)         0.0000    -0.0000I
 2-EL. CONTRIBUTION(CM-1)        -0.0000    -0.0000I
 < 4-1A1   (MS= 0.0)|HSO| 1-3B1   (MS= 1.0)> =   -39.1976    -0.0000I    [C]
 1-EL. CONTRIBUTION(CM-1)       -58.7222    -0.0000I
 2-EL. CONTRIBUTION(CM-1)        19.5246     0.0000I
 < 4-1A1   (MS= 0.0)|HSO| 1-3B1   (MS=-1.0)> =   -39.1976     0.0000I    [P]
 1-EL. CONTRIBUTION(CM-1)       -58.7222     0.0000I
 2-EL. CONTRIBUTION(CM-1)        19.5246    -0.0000I
  
 < 4-1A1   (MS= 0.0)|HSO| 2-3B1   (MS= 0.0)> =     0.0000    -0.0000I    [Z]
 1-EL. CONTRIBUTION(CM-1)         0.0000    -0.0000I
 2-EL. CONTRIBUTION(CM-1)        -0.0000    -0.0000I
 < 4-1A1   (MS= 0.0)|HSO| 2-3B1   (MS= 1.0)> =    43.9051    -0.0000I    [C]
 1-EL. CONTRIBUTION(CM-1)        75.1452    -0.0000I
 2-EL. CONTRIBUTION(CM-1)       -31.2401     0.0000I
 < 4-1A1   (MS= 0.0)|HSO| 2-3B1   (MS=-1.0)> =    43.9051     0.0000I    [P]
 1-EL. CONTRIBUTION(CM-1)        75.1452     0.0000I
 2-EL. CONTRIBUTION(CM-1)       -31.2401    -0.0000I
  
 < 4-1A1   (MS= 0.0)|HSO| 3-3B1   (MS= 0.0)> =     0.0000    -0.0000I    [Z]
 1-EL. CONTRIBUTION(CM-1)         0.0000    -0.0000I
 2-EL. CONTRIBUTION(CM-1)        -0.0000    -0.0000I
 < 4-1A1   (MS= 0.0)|HSO| 3-3B1   (MS= 1.0)> =    -0.0402    -0.0000I    [C]
 1-EL. CONTRIBUTION(CM-1)        -2.9489    -0.0000I
 2-EL. CONTRIBUTION(CM-1)         2.9087     0.0000I
 < 4-1A1   (MS= 0.0)|HSO| 3-3B1   (MS=-1.0)> =    -0.0402     0.0000I    [P]
 1-EL. CONTRIBUTION(CM-1)        -2.9489     0.0000I
 2-EL. CONTRIBUTION(CM-1)         2.9087    -0.0000I
  
 < 4-1A1   (MS= 0.0)|HSO| 4-3B1   (MS= 0.0)> =     0.0000    -0.0000I    [Z]
 1-EL. CONTRIBUTION(CM-1)         0.0000    -0.0000I
 2-EL. CONTRIBUTION(CM-1)        -0.0000    -0.0000I
 < 4-1A1   (MS= 0.0)|HSO| 4-3B1   (MS= 1.0)> =    -9.3821    -0.0000I    [C]
 1-EL. CONTRIBUTION(CM-1)       -19.1934    -0.0000I
 2-EL. CONTRIBUTION(CM-1)         9.8113     0.0000I
 < 4-1A1   (MS= 0.0)|HSO| 4-3B1   (MS=-1.0)> =    -9.3821     0.0000I    [P]
 1-EL. CONTRIBUTION(CM-1)       -19.1934     0.0000I
 2-EL. CONTRIBUTION(CM-1)         9.8113    -0.0000I
  
 STEP CPU TIME =     0.00 TOTAL CPU TIME =        0.3 (    0.0 MIN)
 TOTAL WALL CLOCK TIME=        0.4 SECONDS, CPU UTILIZATION IS  94.59%
 < 1-3B1   (MS= 1.0)|HSO| 1-3B1   (MS= 1.0)> =     0.0000    -0.0000I    [Z]
 1-EL. CONTRIBUTION(CM-1)         0.0000    -0.0000I
 2-EL. CONTRIBUTION(CM-1)        -0.0000    -0.0000I
 < 1-3B1   (MS= 0.0)|HSO| 1-3B1   (MS= 0.0)> =    -0.0000     0.0000I    [W]
 1-EL. CONTRIBUTION(CM-1)        -0.0000     0.0000I
 2-EL. CONTRIBUTION(CM-1)         0.0000     0.0000I
 < 1-3B1   (MS=-1.0)|HSO| 1-3B1   (MS=-1.0)> =    -0.0000     0.0000I    [P]
 1-EL. CONTRIBUTION(CM-1)        -0.0000     0.0000I
 2-EL. CONTRIBUTION(CM-1)         0.0000     0.0000I
 < 1-3B1   (MS= 0.0)|HSO| 1-3B1   (MS= 1.0)> =    -0.0000     0.0000I    [Z]
 1-EL. CONTRIBUTION(CM-1)        -0.0000     0.0000I
 2-EL. CONTRIBUTION(CM-1)        -0.0000    -0.0000I
 < 1-3B1   (MS= 1.0)|HSO| 1-3B1   (MS= 0.0)> =     0.0000     0.0000I    [P]
 1-EL. CONTRIBUTION(CM-1)         0.0000     0.0000I
 2-EL. CONTRIBUTION(CM-1)         0.0000    -0.0000I
 < 1-3B1   (MS=-1.0)|HSO| 1-3B1   (MS= 0.0)> =    -0.0000     0.0000I    [P]
 1-EL. CONTRIBUTION(CM-1)        -0.0000     0.0000I
 2-EL. CONTRIBUTION(CM-1)        -0.0000    -0.0000I
 < 1-3B1   (MS= 0.0)|HSO| 1-3B1   (MS=-1.0)> =     0.0000     0.0000I    [P]
 1-EL. CONTRIBUTION(CM-1)         0.0000     0.0000I
 2-EL. CONTRIBUTION(CM-1)         0.0000    -0.0000I
  
 < 1-3B1   (MS= 1.0)|HSO| 2-3B1   (MS= 1.0)> =     0.0000    -0.0000I    [Z]
 1-EL. CONTRIBUTION(CM-1)         0.0000    -0.0000I
 2-EL. CONTRIBUTION(CM-1)        -0.0000    -0.0000I
 < 1-3B1   (MS= 0.0)|HSO| 2-3B1   (MS= 0.0)> =    -0.0000     0.0000I    [W]
 1-EL. CONTRIBUTION(CM-1)        -0.0000     0.0000I
 2-EL. CONTRIBUTION(CM-1)         0.0000     0.0000I
 < 1-3B1   (MS=-1.0)|HSO| 2-3B1   (MS=-1.0)> =    -0.0000     0.0000I    [P]
 1-EL. CONTRIBUTION(CM-1)        -0.0000     0.0000I
 2-EL. CONTRIBUTION(CM-1)         0.0000     0.0000I
 < 1-3B1   (MS= 0.0)|HSO| 2-3B1   (MS= 1.0)> =    -0.0000     0.0000I    [Z]
 1-EL. CONTRIBUTION(CM-1)        -0.0000     0.0000I
 2-EL. CONTRIBUTION(CM-1)        -0.0000    -0.0000I
 < 1-3B1   (MS= 1.0)|HSO| 2-3B1   (MS= 0.0)> =     0.0000     0.0000I    [P]
 1-EL. CONTRIBUTION(CM-1)         0.0000     0.0000I
 2-EL. CONTRIBUTION(CM-1)         0.0000    -0.0000I
 < 1-3B1   (MS=-1.0)|HSO| 2-3B1   (MS= 0.0)> =    -0.0000     0.0000I    [P]
 1-EL. CONTRIBUTION(CM-1)        -0.0000     0.0000I
 2-EL. CONTRIBUTION(CM-1)        -0.0000    -0.0000I
 < 1-3B1   (MS= 0.0)|HSO| 2-3B1   (MS=-1.0)> =     0.0000     0.0000I    [P]
 1-EL. CONTRIBUTION(CM-1)         0.0000     0.0000I
 2-EL. CONTRIBUTION(CM-1)         0.0000    -0.0000I
  
 < 1-3B1   (MS= 1.0)|HSO| 3-3B1   (MS= 1.0)> =     0.0000    -0.0000I    [Z]
 1-EL. CONTRIBUTION(CM-1)         0.0000    -0.0000I
 2-EL. CONTRIBUTION(CM-1)        -0.0000    -0.0000I
 < 1-3B1   (MS= 0.0)|HSO| 3-3B1   (MS= 0.0)> =    -0.0000     0.0000I    [W]
 1-EL. CONTRIBUTION(CM-1)        -0.0000     0.0000I
 2-EL. CONTRIBUTION(CM-1)         0.0000     0.0000I
 < 1-3B1   (MS=-1.0)|HSO| 3-3B1   (MS=-1.0)> =    -0.0000     0.0000I    [P]
 1-EL. CONTRIBUTION(CM-1)        -0.0000     0.0000I
 2-EL. CONTRIBUTION(CM-1)         0.0000     0.0000I
 < 1-3B1   (MS= 0.0)|HSO| 3-3B1   (MS= 1.0)> =    -0.0000     0.0000I    [Z]
 1-EL. CONTRIBUTION(CM-1)        -0.0000     0.0000I
 2-EL. CONTRIBUTION(CM-1)        -0.0000    -0.0000I
 < 1-3B1   (MS= 1.0)|HSO| 3-3B1   (MS= 0.0)> =     0.0000     0.0000I    [P]
 1-EL. CONTRIBUTION(CM-1)         0.0000     0.0000I
 2-EL. CONTRIBUTION(CM-1)         0.0000    -0.0000I
 < 1-3B1   (MS=-1.0)|HSO| 3-3B1   (MS= 0.0)> =    -0.0000     0.0000I    [P]
 1-EL. CONTRIBUTION(CM-1)        -0.0000     0.0000I
 2-EL. CONTRIBUTION(CM-1)        -0.0000    -0.0000I
 < 1-3B1   (MS= 0.0)|HSO| 3-3B1   (MS=-1.0)> =     0.0000     0.0000I    [P]
 1-EL. CONTRIBUTION(CM-1)         0.0000     0.0000I
 2-EL. CONTRIBUTION(CM-1)         0.0000    -0.0000I
  
 < 1-3B1   (MS= 1.0)|HSO| 4-3B1   (MS= 1.0)> =     0.0000    -0.0000I    [Z]
 1-EL. CONTRIBUTION(CM-1)         0.0000    -0.0000I
 2-EL. CONTRIBUTION(CM-1)        -0.0000    -0.0000I
 < 1-3B1   (MS= 0.0)|HSO| 4-3B1   (MS= 0.0)> =    -0.0000     0.0000I    [W]
 1-EL. CONTRIBUTION(CM-1)        -0.0000     0.0000I
 2-EL. CONTRIBUTION(CM-1)         0.0000     0.0000I
 < 1-3B1   (MS=-1.0)|HSO| 4-3B1   (MS=-1.0)> =    -0.0000     0.0000I    [P]
 1-EL. CONTRIBUTION(CM-1)        -0.0000     0.0000I
 2-EL. CONTRIBUTION(CM-1)         0.0000     0.0000I
 < 1-3B1   (MS= 0.0)|HSO| 4-3B1   (MS= 1.0)> =    -0.0000     0.0000I    [Z]
 1-EL. CONTRIBUTION(CM-1)        -0.0000     0.0000I
 2-EL. CONTRIBUTION(CM-1)        -0.0000    -0.0000I
 < 1-3B1   (MS= 1.0)|HSO| 4-3B1   (MS= 0.0)> =     0.0000     0.0000I    [P]
 1-EL. CONTRIBUTION(CM-1)         0.0000     0.0000I
 2-EL. CONTRIBUTION(CM-1)         0.0000    -0.0000I
 < 1-3B1   (MS=-1.0)|HSO| 4-3B1   (MS= 0.0)> =    -0.0000     0.0000I    [P]
 1-EL. CONTRIBUTION(CM-1)        -0.0000     0.0000I
 2-EL. CONTRIBUTION(CM-1)        -0.0000    -0.0000I
 < 1-3B1   (MS= 0.0)|HSO| 4-3B1   (MS=-1.0)> =     0.0000     0.0000I    [P]
 1-EL. CONTRIBUTION(CM-1)         0.0000     0.0000I
 2-EL. CONTRIBUTION(CM-1)         0.0000    -0.0000I
  
 < 2-3B1   (MS= 1.0)|HSO| 2-3B1   (MS= 1.0)> =     0.0000    -0.0000I    [Z]
 1-EL. CONTRIBUTION(CM-1)         0.0000    -0.0000I
 2-EL. CONTRIBUTION(CM-1)        -0.0000    -0.0000I
 < 2-3B1   (MS= 0.0)|HSO| 2-3B1   (MS= 0.0)> =    -0.0000     0.0000I    [W]
 1-EL. CONTRIBUTION(CM-1)        -0.0000     0.0000I
 2-EL. CONTRIBUTION(CM-1)         0.0000     0.0000I
 < 2-3B1   (MS=-1.0)|HSO| 2-3B1   (MS=-1.0)> =    -0.0000     0.0000I    [P]
 1-EL. CONTRIBUTION(CM-1)        -0.0000     0.0000I
 2-EL. CONTRIBUTION(CM-1)         0.0000     0.0000I
 < 2-3B1   (MS= 0.0)|HSO| 2-3B1   (MS= 1.0)> =    -0.0000     0.0000I    [Z]
 1-EL. CONTRIBUTION(CM-1)        -0.0000     0.0000I
 2-EL. CONTRIBUTION(CM-1)        -0.0000    -0.0000I
 < 2-3B1   (MS= 1.0)|HSO| 2-3B1   (MS= 0.0)> =     0.0000     0.0000I    [P]
 1-EL. CONTRIBUTION(CM-1)         0.0000     0.0000I
 2-EL. CONTRIBUTION(CM-1)         0.0000    -0.0000I
 < 2-3B1   (MS=-1.0)|HSO| 2-3B1   (MS= 0.0)> =    -0.0000     0.0000I    [P]
 1-EL. CONTRIBUTION(CM-1)        -0.0000     0.0000I
 2-EL. CONTRIBUTION(CM-1)        -0.0000    -0.0000I
 < 2-3B1   (MS= 0.0)|HSO| 2-3B1   (MS=-1.0)> =     0.0000     0.0000I    [P]
 1-EL. CONTRIBUTION(CM-1)         0.0000     0.0000I
 2-EL. CONTRIBUTION(CM-1)         0.0000    -0.0000I
  
 < 2-3B1   (MS= 1.0)|HSO| 3-3B1   (MS= 1.0)> =     0.0000    -0.0000I    [Z]
 1-EL. CONTRIBUTION(CM-1)         0.0000    -0.0000I
 2-EL. CONTRIBUTION(CM-1)        -0.0000    -0.0000I
 < 2-3B1   (MS= 0.0)|HSO| 3-3B1   (MS= 0.0)> =    -0.0000     0.0000I    [W]
 1-EL. CONTRIBUTION(CM-1)        -0.0000     0.0000I
 2-EL. CONTRIBUTION(CM-1)         0.0000     0.0000I
 < 2-3B1   (MS=-1.0)|HSO| 3-3B1   (MS=-1.0)> =    -0.0000     0.0000I    [P]
 1-EL. CONTRIBUTION(CM-1)        -0.0000     0.0000I
 2-EL. CONTRIBUTION(CM-1)         0.0000     0.0000I
 < 2-3B1   (MS= 0.0)|HSO| 3-3B1   (MS= 1.0)> =    -0.0000     0.0000I    [Z]
 1-EL. CONTRIBUTION(CM-1)        -0.0000     0.0000I
 2-EL. CONTRIBUTION(CM-1)        -0.0000    -0.0000I
 < 2-3B1   (MS= 1.0)|HSO| 3-3B1   (MS= 0.0)> =     0.0000     0.0000I    [P]
 1-EL. CONTRIBUTION(CM-1)         0.0000     0.0000I
 2-EL. CONTRIBUTION(CM-1)         0.0000    -0.0000I
 < 2-3B1   (MS=-1.0)|HSO| 3-3B1   (MS= 0.0)> =    -0.0000     0.0000I    [P]
 1-EL. CONTRIBUTION(CM-1)        -0.0000     0.0000I
 2-EL. CONTRIBUTION(CM-1)        -0.0000    -0.0000I
 < 2-3B1   (MS= 0.0)|HSO| 3-3B1   (MS=-1.0)> =     0.0000     0.0000I    [P]
 1-EL. CONTRIBUTION(CM-1)         0.0000     0.0000I
 2-EL. CONTRIBUTION(CM-1)         0.0000    -0.0000I
  
 < 2-3B1   (MS= 1.0)|HSO| 4-3B1   (MS= 1.0)> =     0.0000    -0.0000I    [Z]
 1-EL. CONTRIBUTION(CM-1)         0.0000    -0.0000I
 2-EL. CONTRIBUTION(CM-1)        -0.0000    -0.0000I
 < 2-3B1   (MS= 0.0)|HSO| 4-3B1   (MS= 0.0)> =    -0.0000     0.0000I    [W]
 1-EL. CONTRIBUTION(CM-1)        -0.0000     0.0000I
 2-EL. CONTRIBUTION(CM-1)         0.0000     0.0000I
 < 2-3B1   (MS=-1.0)|HSO| 4-3B1   (MS=-1.0)> =    -0.0000     0.0000I    [P]
 1-EL. CONTRIBUTION(CM-1)        -0.0000     0.0000I
 2-EL. CONTRIBUTION(CM-1)         0.0000     0.0000I
 < 2-3B1   (MS= 0.0)|HSO| 4-3B1   (MS= 1.0)> =    -0.0000     0.0000I    [Z]
 1-EL. CONTRIBUTION(CM-1)        -0.0000     0.0000I
 2-EL. CONTRIBUTION(CM-1)        -0.0000    -0.0000I
 < 2-3B1   (MS= 1.0)|HSO| 4-3B1   (MS= 0.0)> =     0.0000     0.0000I    [P]
 1-EL. CONTRIBUTION(CM-1)         0.0000     0.0000I
 2-EL. CONTRIBUTION(CM-1)         0.0000    -0.0000I
 < 2-3B1   (MS=-1.0)|HSO| 4-3B1   (MS= 0.0)> =    -0.0000     0.0000I    [P]
 1-EL. CONTRIBUTION(CM-1)        -0.0000     0.0000I
 2-EL. CONTRIBUTION(CM-1)        -0.0000    -0.0000I
 < 2-3B1   (MS= 0.0)|HSO| 4-3B1   (MS=-1.0)> =     0.0000     0.0000I    [P]
 1-EL. CONTRIBUTION(CM-1)         0.0000     0.0000I
 2-EL. CONTRIBUTION(CM-1)         0.0000    -0.0000I
  
 < 3-3B1   (MS= 1.0)|HSO| 3-3B1   (MS= 1.0)> =     0.0000    -0.0000I    [Z]
 1-EL. CONTRIBUTION(CM-1)         0.0000    -0.0000I
 2-EL. CONTRIBUTION(CM-1)        -0.0000    -0.0000I
 < 3-3B1   (MS= 0.0)|HSO| 3-3B1   (MS= 0.0)> =    -0.0000     0.0000I    [W]
 1-EL. CONTRIBUTION(CM-1)        -0.0000     0.0000I
 2-EL. CONTRIBUTION(CM-1)         0.0000     0.0000I
 < 3-3B1   (MS=-1.0)|HSO| 3-3B1   (MS=-1.0)> =    -0.0000     0.0000I    [P]
 1-EL. CONTRIBUTION(CM-1)        -0.0000     0.0000I
 2-EL. CONTRIBUTION(CM-1)         0.0000     0.0000I
 < 3-3B1   (MS= 0.0)|HSO| 3-3B1   (MS= 1.0)> =    -0.0000     0.0000I    [Z]
 1-EL. CONTRIBUTION(CM-1)        -0.0000     0.0000I
 2-EL. CONTRIBUTION(CM-1)        -0.0000    -0.0000I
 < 3-3B1   (MS= 1.0)|HSO| 3-3B1   (MS= 0.0)> =     0.0000     0.0000I    [P]
 1-EL. CONTRIBUTION(CM-1)         0.0000     0.0000I
 2-EL. CONTRIBUTION(CM-1)         0.0000    -0.0000I
 < 3-3B1   (MS=-1.0)|HSO| 3-3B1   (MS= 0.0)> =    -0.0000     0.0000I    [P]
 1-EL. CONTRIBUTION(CM-1)        -0.0000     0.0000I
 2-EL. CONTRIBUTION(CM-1)        -0.0000    -0.0000I
 < 3-3B1   (MS= 0.0)|HSO| 3-3B1   (MS=-1.0)> =     0.0000     0.0000I    [P]
 1-EL. CONTRIBUTION(CM-1)         0.0000     0.0000I
 2-EL. CONTRIBUTION(CM-1)         0.0000    -0.0000I
  
 < 3-3B1   (MS= 1.0)|HSO| 4-3B1   (MS= 1.0)> =     0.0000    -0.0000I    [Z]
 1-EL. CONTRIBUTION(CM-1)         0.0000    -0.0000I
 2-EL. CONTRIBUTION(CM-1)        -0.0000    -0.0000I
 < 3-3B1   (MS= 0.0)|HSO| 4-3B1   (MS= 0.0)> =    -0.0000     0.0000I    [W]
 1-EL. CONTRIBUTION(CM-1)        -0.0000     0.0000I
 2-EL. CONTRIBUTION(CM-1)         0.0000     0.0000I
 < 3-3B1   (MS=-1.0)|HSO| 4-3B1   (MS=-1.0)> =    -0.0000     0.0000I    [P]
 1-EL. CONTRIBUTION(CM-1)        -0.0000     0.0000I
 2-EL. CONTRIBUTION(CM-1)         0.0000     0.0000I
 < 3-3B1   (MS= 0.0)|HSO| 4-3B1   (MS= 1.0)> =    -0.0000     0.0000I    [Z]
 1-EL. CONTRIBUTION(CM-1)        -0.0000     0.0000I
 2-EL. CONTRIBUTION(CM-1)        -0.0000    -0.0000I
 < 3-3B1   (MS= 1.0)|HSO| 4-3B1   (MS= 0.0)> =     0.0000     0.0000I    [P]
 1-EL. CONTRIBUTION(CM-1)         0.0000     0.0000I
 2-EL. CONTRIBUTION(CM-1)         0.0000    -0.0000I
 < 3-3B1   (MS=-1.0)|HSO| 4-3B1   (MS= 0.0)> =    -0.0000     0.0000I    [P]
 1-EL. CONTRIBUTION(CM-1)        -0.0000     0.0000I
 2-EL. CONTRIBUTION(CM-1)        -0.0000    -0.0000I
 < 3-3B1   (MS= 0.0)|HSO| 4-3B1   (MS=-1.0)> =     0.0000     0.0000I    [P]
 1-EL. CONTRIBUTION(CM-1)         0.0000     0.0000I
 2-EL. CONTRIBUTION(CM-1)         0.0000    -0.0000I
  
 < 4-3B1   (MS= 1.0)|HSO| 4-3B1   (MS= 1.0)> =     0.0000    -0.0000I    [Z]
 1-EL. CONTRIBUTION(CM-1)         0.0000    -0.0000I
 2-EL. CONTRIBUTION(CM-1)        -0.0000    -0.0000I
 < 4-3B1   (MS= 0.0)|HSO| 4-3B1   (MS= 0.0)> =    -0.0000     0.0000I    [W]
 1-EL. CONTRIBUTION(CM-1)        -0.0000     0.0000I
 2-EL. CONTRIBUTION(CM-1)         0.0000     0.0000I
 < 4-3B1   (MS=-1.0)|HSO| 4-3B1   (MS=-1.0)> =    -0.0000     0.0000I    [P]
 1-EL. CONTRIBUTION(CM-1)        -0.0000     0.0000I
 2-EL. CONTRIBUTION(CM-1)         0.0000     0.0000I
 < 4-3B1   (MS= 0.0)|HSO| 4-3B1   (MS= 1.0)> =    -0.0000     0.0000I    [Z]
 1-EL. CONTRIBUTION(CM-1)        -0.0000     0.0000I
 2-EL. CONTRIBUTION(CM-1)        -0.0000    -0.0000I
 < 4-3B1   (MS= 1.0)|HSO| 4-3B1   (MS= 0.0)> =     0.0000     0.0000I    [P]
 1-EL. CONTRIBUTION(CM-1)         0.0000     0.0000I
 2-EL. CONTRIBUTION(CM-1)         0.0000    -0.0000I
 < 4-3B1   (MS=-1.0)|HSO| 4-3B1   (MS= 0.0)> =    -0.0000     0.0000I    [P]
 1-EL. CONTRIBUTION(CM-1)        -0.0000     0.0000I
 2-EL. CONTRIBUTION(CM-1)        -0.0000    -0.0000I
 < 4-3B1   (MS= 0.0)|HSO| 4-3B1   (MS=-1.0)> =     0.0000     0.0000I    [P]
 1-EL. CONTRIBUTION(CM-1)         0.0000     0.0000I
 2-EL. CONTRIBUTION(CM-1)         0.0000    -0.0000I
  
 STEP CPU TIME =     0.00 TOTAL CPU TIME =        0.3 (    0.0 MIN)
 TOTAL WALL CLOCK TIME=        0.4 SECONDS, CPU UTILIZATION IS  94.59%

 >>> DIMENSION OF HSO MATRIX =      16
     LARGEST NUMBER OF WALKS =      37

     THE MAX HSO MATRIX ELEMENT ABSOLUTE ERROR IS 6.53E-03 CM-1.
     TO DECREASE THE ERROR MAKE SYMTOL SMALLER.

     CI   ADIABATIC STATES (CM-1 UNIT) ---
             0.000     201286.114     271061.969     322530.238     150080.809
        150080.809     150080.809     322136.846     322136.846     322136.846
        335526.765     335526.765     335526.765     358625.823     358625.823
        358625.823

 WEIGHTS OF SO   CI   STATES ---

 STATE   1: RELATIVE E=         -0.057 CM-1; WEIGHT = 1.000  1001
         1.0000
          1      2      3      4      5      6      7      8
         1.0000 0.0000 0.0000 0.0000 0.0000 0.0000 0.0000 0.0000

 STATE   2: RELATIVE E=     150080.803 CM-1; WEIGHT = 1.000  2001
         1.0000
          1      2      3      4      5      6      7      8
         0.0000 0.0000 0.0000 0.0000 1.0000 0.0000 0.0000 0.0000

 STATE   3: RELATIVE E=     150080.809 CM-1; WEIGHT = 1.000  2001
         1.0000
          1      2      3      4      5      6      7      8
         0.0000 0.0000 0.0000 0.0000 1.0000 0.0000 0.0000 0.0000

 STATE   4: RELATIVE E=     150080.809 CM-1; WEIGHT = 1.000  2001
         1.0000
          1      2      3      4      5      6      7      8
         0.0000 0.0000 0.0000 0.0000 1.0000 0.0000 0.0000 0.0000

 STATE   5: RELATIVE E=     201286.134 CM-1; WEIGHT = 1.000  1002
         1.0000
          1      2      3      4      5      6      7      8
         0.0000 1.0000 0.0000 0.0000 0.0000 0.0000 0.0000 0.0000

 STATE   6: RELATIVE E=     271061.973 CM-1; WEIGHT = 1.000  1003
         1.0000
          1      2      3      4      5      6      7      8
         0.0000 0.0000 1.0000 0.0000 0.0000 0.0000 0.0000 0.0000

 STATE   7: RELATIVE E=     322127.297 CM-1; WEIGHT = 0.977  2002
         1.0000
          1      2      3      4      5      6      7      8
         0.0000 0.0000 0.0000 0.0232 0.0000 0.9768 0.0000 0.0000

 STATE   8: RELATIVE E=     322136.846 CM-1; WEIGHT = 1.000  2002
         1.0000
          1      2      3      4      5      6      7      8
         0.0000 0.0000 0.0000 0.0000 0.0000 1.0000 0.0000 0.0000

 STATE   9: RELATIVE E=     322136.846 CM-1; WEIGHT = 1.000  2002
         1.0000
          1      2      3      4      5      6      7      8
         0.0000 0.0000 0.0000 0.0000 0.0000 1.0000 0.0000 0.0000

 STATE  10: RELATIVE E=     322539.819 CM-1; WEIGHT = 0.977  1004
         1.0000
          1      2      3      4      5      6      7      8
         0.0000 0.0000 0.0000 0.9768 0.0000 0.0232 0.0000 0.0000

 STATE  11: RELATIVE E=     335526.765 CM-1; WEIGHT = 1.000  2003
         1.0000
          1      2      3      4      5      6      7      8
         0.0000 0.0000 0.0000 0.0000 0.0000 0.0000 1.0000 0.0000

 STATE  12: RELATIVE E=     335526.765 CM-1; WEIGHT = 1.000  2003
         1.0000
          1      2      3      4      5      6      7      8
         0.0000 0.0000 0.0000 0.0000 0.0000 0.0000 1.0000 0.0000

 STATE  13: RELATIVE E=     335526.765 CM-1; WEIGHT = 1.000  2003
         1.0000
          1      2      3      4      5      6      7      8
         0.0000 0.0000 0.0000 0.0000 0.0000 0.0000 1.0000 0.0000

 STATE  14: RELATIVE E=     358625.823 CM-1; WEIGHT = 1.000  2004
         1.0000
          1      2      3      4      5      6      7      8
         0.0000 0.0000 0.0000 0.0000 0.0000 0.0000 0.0000 1.0000

 STATE  15: RELATIVE E=     358625.823 CM-1; WEIGHT = 1.000  2004
         1.0000
          1      2      3      4      5      6      7      8
         0.0000 0.0000 0.0000 0.0000 0.0000 0.0000 0.0000 1.0000

 STATE  16: RELATIVE E=     358625.831 CM-1; WEIGHT = 1.000  2004
         1.0000
          1      2      3      4      5      6      7      8
         0.0000 0.0000 0.0000 0.0000 0.0000 0.0000 0.0000 1.0000

   SPIN-MIXED   CI   STATES (CM-1 UNIT) ---
          -0.057     150080.803     150080.809     150080.809     201286.134
      271061.973     322127.297     322136.846     322136.846     322539.819
      335526.765     335526.765     335526.765     358625.823     358625.823
      358625.831

   SPIN-MIXED   CI   STATES (CM-1 UNIT) ---
      1(   1001)     2(   2001)     3(   2001)     4(   2001)     5(   1002)
          -0.057     150080.803     150080.809     150080.809     201286.134
      6(   1003)     7(   2002)     8(   2002)     9(   2002)    10(   1004)
      271061.973     322127.297     322136.846     322136.846     322539.819
     11(   2003)    12(   2003)    13(   2003)    14(   2004)    15(   2004)
      335526.765     335526.765     335526.765     358625.823     358625.823
     16(   2004)
      358625.831

 NON-ZERO   CI   SPIN-ORBIT COUPLING CONSTANTS (CM-1)
 ---------------------------------------------------------------------
 MUL1(CI)|MUL2(CI)| CI ROOT 1 | CI ROOT 2 |    FULL     | 1E ONLY
 ---------------------------------------------------------------------
  1 ( 1) | 3 ( 2) |     1     |     1     |        92.37|       137.65
  1 ( 1) | 3 ( 2) |     1     |     2     |         7.64|         7.56
  1 ( 1) | 3 ( 2) |     1     |     3     |         1.19|         3.98
  1 ( 1) | 3 ( 2) |     1     |     4     |         1.85|         0.06
  1 ( 1) | 3 ( 2) |     2     |     1     |        45.05|        76.85
  1 ( 1) | 3 ( 2) |     2     |     2     |        45.96|        70.52
  1 ( 1) | 3 ( 2) |     2     |     3     |         4.45|         1.11
  1 ( 1) | 3 ( 2) |     2     |     4     |        16.74|        28.99
  1 ( 1) | 3 ( 2) |     3     |     1     |        25.01|        38.01
  1 ( 1) | 3 ( 2) |     3     |     2     |         5.53|         6.44
  1 ( 1) | 3 ( 2) |     3     |     3     |         0.27|         1.19
  1 ( 1) | 3 ( 2) |     3     |     4     |         9.08|        15.73
  1 ( 1) | 3 ( 2) |     4     |     1     |        55.43|        83.05
  1 ( 1) | 3 ( 2) |     4     |     2     |        62.09|       106.27
  1 ( 1) | 3 ( 2) |     4     |     3     |         0.06|         4.17
  1 ( 1) | 3 ( 2) |     4     |     4     |        13.27|        27.14
 ---------------------------------------------------------------------

 STEP CPU TIME =     0.00 TOTAL CPU TIME =        0.3 (    0.0 MIN)
 TOTAL WALL CLOCK TIME=        0.4 SECONDS, CPU UTILIZATION IS  94.59%

 CI ENERGY LEVELS IN CM-1 AND CI ABSOLUTE LEVELS IN A.U.

    1            0.0000    -76.1331948552
    2       150080.8602    -75.4493877851
    3       150080.8659    -75.4493877588
    4       150080.8659    -75.4493877588
    5       201286.1913    -75.2160831023
    6       271062.0301    -74.8981664016
    7       322127.3541    -74.6654996278
    8       322136.9034    -74.6654561184
    9       322136.9034    -74.6654561184
   10       322539.8760    -74.6636200715
   11       335526.8224    -74.6044481975
   12       335526.8224    -74.6044481975
   13       335526.8225    -74.6044481968
   14       358625.8804    -74.4992029374
   15       358625.8804    -74.4992029374
   16       358625.8880    -74.4992029028

 SKIPPING THE CALCULATION OF NATURAL ORBITALS...
 USE ISTNO IN $TRANST TO ASK FOR NATURAL ORBITALS
 AND SPIN-ORBIT COUPLED STATE'S PROPERTIES

 ....... DONE WITH TRANSITION MOMENT .......

 STEP CPU TIME =     0.00 TOTAL CPU TIME =        0.3 (    0.0 MIN)
 TOTAL WALL CLOCK TIME=        0.4 SECONDS, CPU UTILIZATION IS  94.59%
               580000  WORDS OF DYNAMIC MEMORY USED
 EXECUTION OF GAMESS TERMINATED NORMALLY Fri Jun  2 02:34:57 2017
 DDI: 263640 bytes (0.3 MB / 0 MWords) used by master data server.

 ----------------------------------------
 CPU timing information for all processes
 ========================================
 0: 0.349 + 0.18 = 0.368
 ----------------------------------------
 ddikick.x: exited gracefully.
unset echo
----- accounting info -----
Files used on the master node compute-0-2.local were:
-rw-rw-r-- 1 sarom sarom   15080 Jun  2 02:34 /scratch/h2o-nesc-soc.F05
-rw-rw-r-- 1 sarom sarom  180016 Jun  2 02:34 /scratch/h2o-nesc-soc.F08
-rw-rw-r-- 1 sarom sarom  180192 Jun  2 02:34 /scratch/h2o-nesc-soc.F09
-rw-rw-r-- 1 sarom sarom 5627840 Jun  2 02:34 /scratch/h2o-nesc-soc.F10
-rw-rw-r-- 1 sarom sarom  278024 Jun  2 02:34 /scratch/h2o-nesc-soc.F11
-rw-rw-r-- 1 sarom sarom     984 Jun  2 02:34 /scratch/h2o-nesc-soc.F12
-rw-rw-r-- 1 sarom sarom  400008 Jun  2 02:34 /scratch/h2o-nesc-soc.F14
-rw-rw-r-- 1 sarom sarom  160416 Jun  2 02:34 /scratch/h2o-nesc-soc.F15
-rw-rw-r-- 1 sarom sarom  200216 Jun  2 02:34 /scratch/h2o-nesc-soc.F16
-rw-rw-r-- 1 sarom sarom    8816 Jun  2 02:34 /scratch/h2o-nesc-soc.F17
-rw-rw-r-- 1 sarom sarom      56 Jun  2 02:34 /scratch/h2o-nesc-soc.F31
-rw-rw-r-- 1 sarom sarom  578904 Jun  2 02:34 /scratch/h2o-nesc-soc.F32
-rw-rw-r-- 1 sarom sarom      56 Jun  2 02:34 /scratch/h2o-nesc-soc.F33
-rw-rw-r-- 1 sarom sarom   65536 Jun  2 02:34 /scratch/h2o-nesc-soc.F40
rm: cannot remove `/scratch/sarom': Is a directory
rm: cannot remove `/scratch/tmp': Is a directory
ls: No match.
ls: No match.
ls: No match.
Fri Jun  2 02:35:00 CDT 2017
0.148u 0.058s 0:03.65 5.2%	0+0k 32+400io 0pf+0w
Deleting shmid=3964928.
Deleting shmid=3997697.
Deleting shmid=4227074.
/opt/gridengine/default/spool/compute-0-2/active_jobs/23758.1/pe_hostfile compute-0-2.local
