-catch_rsh /opt/gridengine/default/spool/compute-0-2/active_jobs/23760.1/pe_hostfile
compute-0-2
The primary node assigned by SGE to this run is compute-0-2
Warning: no access to tty (Bad file descriptor).
Thus no job control in this shell.
Deleting shmid=3964928.
Deleting shmid=3997697.
Deleting shmid=4227074.
source /home/sarom/gamess.github.2017-05-31.14.06/install.info
setenv GMS_PATH /home/sarom/gamess.github.2017-05-31.14.06
setenv GMS_BUILD_DIR /home/sarom/gamess.github.2017-05-31.14.06
setenv GMS_TARGET linux64
setenv GMS_FORTRAN gfortran
setenv GMS_GFORTRAN_VERNO 4.4
setenv GMS_MATHLIB mkl-so
setenv GMS_MATHLIB_PATH /share/apps/intel/compilers_and_libraries_2017.1.132/linux/mkl/lib/intel64
setenv GMS_MKL_VERNO 12
setenv GMS_DDI_COMM sockets
setenv GMS_LIBCCHEM false
setenv GMS_EIGEN_PATH
setenv GMS_PHI false
setenv GMS_SHMTYPE sysv
setenv GMS_OPENMP false
unset echo
heavyatm-dk
tests/relwfn
----- GAMESS execution script 'rungms' -----
This job is running on host compute-0-2.local
under operating system Linux at Fri Jun 2 02:35:27 CDT 2017
Available scratch disk space (Kbyte units) at beginning of the job is
Filesystem           1K-blocks      Used Available Use% Mounted on
/dev/sda1             16126920   3867312  11440408  26% /
GAMESS temporary binary files will be written to /scratch
GAMESS supplementary output files will be written to /home/sarom/restart
Copying input file heavyatm-dk.inp to your run's scratch directory...
cp tests/relwfn/heavyatm-dk.inp /scratch/heavyatm-dk.F05
unset echo
The generated host list is
compute-0-2.local
/home/sarom/gamess.github.2017-05-31.14.06/ddikick.x /home/sarom/gamess.github.2017-05-31.14.06/gamess.00.x heavyatm-dk -ddi 1 1 compute-0-2.local -scr /scratch

 Distributed Data Interface kickoff program.
 Initiating 1 compute processes on 1 nodes to run the following command:
 /home/sarom/gamess.github.2017-05-31.14.06/gamess.00.x heavyatm-dk 

          ******************************************************
          *         GAMESS VERSION = 20 APR 2017 (R1)          *
          *             FROM IOWA STATE UNIVERSITY             *
          * M.W.SCHMIDT, K.K.BALDRIDGE, J.A.BOATZ, S.T.ELBERT, *
          *   M.S.GORDON, J.H.JENSEN, S.KOSEKI, N.MATSUNAGA,   *
          *          K.A.NGUYEN, S.J.SU, T.L.WINDUS,           *
          *       TOGETHER WITH M.DUPUIS, J.A.MONTGOMERY       *
          *         J.COMPUT.CHEM.  14, 1347-1363(1993)        *
          **************** 64 BIT LINUX VERSION ****************

  SINCE 1993, STUDENTS AND POSTDOCS WORKING AT IOWA STATE UNIVERSITY
  AND ALSO IN THEIR VARIOUS JOBS AFTER LEAVING ISU HAVE MADE IMPORTANT
  CONTRIBUTIONS TO THE CODE:
     IVANA ADAMOVIC, CHRISTINE AIKENS, YURI ALEXEEV, POOJA ARORA,
     ANDREY ASADCHEV, ROB BELL, PRADIPTA BANDYOPADHYAY, JONATHAN BENTZ,
     BRETT BODE, KURT BRORSEN, CALEB CARLIN, GALINA CHABAN, WEI CHEN,
     CHEOL HO CHOI, PAUL DAY, ALBERT DEFUSCO, NUWAN DESILVA, TIM DUDLEY,
     DMITRI FEDOROV, GRAHAM FLETCHER, MARK FREITAG, KURT GLAESEMANN,
     DAN KEMP, GRANT MERRILL, NORIYUKI MINEZAWA, JONATHAN MULLIN,
     TAKESHI NAGATA, SEAN NEDD, HEATHER NETZLOFF, BOSILJKA NJEGIC, RYAN OLSON,
     MIKE PAK, SPENCER PRUITT, LUKE ROSKOP, JIM SHOEMAKER, LYUDMILA SLIPCHENKO,
     TONY SMITH, SAROM SOK LEANG, JIE SONG, TETSUYA TAKETSUGU, SIMON WEBB,
     PENG XU, SOOHAENG YOO, FEDERICO ZAHARIEV

  ADDITIONAL CODE HAS BEEN PROVIDED BY COLLABORATORS IN OTHER GROUPS:
     IOWA STATE UNIVERSITY:
          JOE IVANIC, AARON WEST, LAIMUTIS BYTAUTAS, KLAUS RUEDENBERG
     UNIVERSITY OF TOKYO: KIMIHIKO HIRAO, TAKAHITO NAKAJIMA,
          TAKAO TSUNEDA, MUNEAKI KAMIYA, SUSUMU YANAGISAWA,
          KIYOSHI YAGI, MAHITO CHIBA, SEIKEN TOKURA, NAOAKI KAWAKAMI
     UNIVERSITY OF AARHUS: FRANK JENSEN
     UNIVERSITY OF IOWA: VISVALDAS KAIRYS, HUI LI
     NATIONAL INST. OF STANDARDS AND TECHNOLOGY: WALT STEVENS, DAVID GARMER
     UNIVERSITY OF PISA: BENEDETTA MENNUCCI, JACOPO TOMASI
     UNIVERSITY OF MEMPHIS: HENRY KURTZ, PRAKASHAN KORAMBATH
     UNIVERSITY OF ALBERTA: TOBY ZENG, MARIUSZ KLOBUKOWSKI
     UNIVERSITY OF NEW ENGLAND: MARK SPACKMAN
     MIE UNIVERSITY: HIROAKI UMEDA
     NAT. INST. OF ADVANCED INDUSTRIAL SCIENCE AND TECHNOLOGY: KAZUO KITAURA
     MICHIGAN STATE UNIVERSITY:
          KAROL KOWALSKI, MARTA WLOCH, JEFFREY GOUR, JESSE LUTZ,
          WEI LI, PIOTR PIECUCH
     UNIVERSITY OF SILESIA: MONIKA MUSIAL, STANISLAW KUCHARSKI
     FACULTES UNIVERSITAIRES NOTRE-DAME DE LA PAIX:
          OLIVIER QUINET, BENOIT CHAMPAGNE
     UNIVERSITY OF CALIFORNIA - SANTA BARBARA: BERNARD KIRTMAN
     INSTITUTE FOR MOLECULAR SCIENCE:
          KAZUYA ISHIMURA, MICHIO KATOUDA, AND SHIGERU NAGASE
     UNIVERSITY OF NOTRE DAME: ANNA POMOGAEVA, DAN CHIPMAN
     KYUSHU UNIVERSITY:
          HARUYUKI NAKANO,
          FENG LONG GU, JACEK KORCHOWIEC, MARCIN MAKOWSKI, AND YURIKO AOKI,
          HIROTOSHI MORI AND EISAKU MIYOSHI
     PENNSYLVANIA STATE UNIVERSITY:
          TZVETELIN IORDANOV, CHET SWALINA, JONATHAN SKONE,
          SHARON HAMMES-SCHIFFER
     WASEDA UNIVERSITY:
          MASATO KOBAYASHI, TOMOKO AKAMA, TSUGUKI TOUMA,
          TAKESHI YOSHIKAWA, YASUHIRO IKABATA, JUNJI SEINO,
          YUYA NAKAJIMA, HIROMI NAKAI
     NANJING UNIVERSITY: SHUHUA LI
     UNIVERSITY OF NEBRASKA:
          PEIFENG SU, DEJUN SI, NANDUN THELLAMUREGE, YALI WANG, HUI LI
     UNIVERSITY OF ZURICH: ROBERTO PEVERATI, KIM BALDRIDGE
     N. COPERNICUS UNIVERSITY AND JACKSON STATE UNIVERSITY:
          MARIA BARYSZ
     UNIVERSITY OF COPENHAGEN: Jimmy Kromann, CASPER STEINMANN
     TOKYO INSTITUTE OF TECHNOLOGY: HIROYA NAKATA
     NAGOYA UNIVERSITY: YOSHIO NISHIMOTO, STEPHAN IRLE
     MOSCOW STATE UNIVERSITY: VLADIMIR MIRONOV

 EXECUTION OF GAMESS BEGUN Fri Jun  2 02:35:27 2017

            ECHO OF THE FIRST FEW INPUT CARDS -
 INPUT CARD>!   (SnH3)(SeH)(At)Bi=S...random molecule with many heavy atoms.                
 INPUT CARD>!   The test is energy at 3rd order Douglas/Kroll, created in 2004.             
 INPUT CARD>!   Energy will fluctuate somewhat, reflecting RI accuracy levels.              
 INPUT CARD>!   Gradient is skipped, because that takes an immense time when                
 INPUT CARD>!   using q.p. arithmetic.  Because of not doing a gradient, the                
 INPUT CARD>!   spherical harmonic RI basis set option is invoked.                          
 INPUT CARD>!                                                                               
 INPUT CARD>!   Basis set is a general contraction of the University of Tokyo               
 INPUT CARD>!   relativistic exponents.  Exponent range is very large,                      
 INPUT CARD>!   so the use of q.p. in resolution of identity is de riguer.                  
 INPUT CARD>!   There are 225 AOs, 205 MOs, and the RI step has 842 spherical               
 INPUT CARD>!   harmonics kept, from a total of 958 primitive GTOs.                         
 INPUT CARD>!   Using sph.har. RI is stabilizing for the energy calculation,                
 INPUT CARD>!   but should not be used for gradient runs.                                   
 INPUT CARD>!                                                                               
 INPUT CARD>!          FINAL E= -53418.3120967664, 19 iters on ifort/linux64                
 INPUT CARD>!                   -53418.3120967853 on Solaris                                
 INPUT CARD>!                    53418.3120967847 on HPUX                                   
 INPUT CARD>!                                                                               
 INPUT CARD>!   The run takes 8,528 seconds on 2.66 GHz Cloverton (17 Apr 2015)             
 INPUT CARD>!                                                                               
 INPUT CARD>!   because of the q.p. RI, relativistic 1e- integrals take long: 2020 secs     
 INPUT CARD>!   because of the general contraction,  2e- integrals take long: 6462          
 INPUT CARD>!                                              SCF is not so bad:   46          
 INPUT CARD>!            ...so it is easy to guess why this test is not direct SCF.         
 INPUT CARD>!   disk space for integrals is modest: 1.60 GBytes                             
 INPUT CARD>!    HP times: rel. 1e-=  5,747, 2e-= 25,237, SCF= 260 (31,136 total)           
 INPUT CARD>!   Sun times: rel. 1e-= 17,264, 2e-= 33,861, SCF= 617 (51,833 total)           
 INPUT CARD>!                                                                               
 INPUT CARD> $contrl scftyp=rhf runtyp=energy nzvar=21 relwfn=dk ispher=1 $end              
 INPUT CARD> $system mwords=40 $end                                                         
 INPUT CARD>!            11 = 1+2+8 = uncontract + spherical harmonic + q.p.                
 INPUT CARD> $relwfn norder=3 modeqr=11 $end                                                
 INPUT CARD> $guess  guess=huckel $end                                                      
 INPUT CARD> $basis  basnam(1)=BiBas,SnBas,HBas,HBas,HBas,SeBas,HBas,AtBas,SBas $end        
 INPUT CARD> $data                                                                          
 INPUT CARD>relativity test on artificial molecule...(SnH3)(SeH)(At)Bi=S                    
 INPUT CARD>C1                                                                              
 INPUT CARD>BI    83.0    .4070872775    .7782398266   -.3936725280                         
 INPUT CARD>SN    50.0   1.1414728458   1.1356145862   2.3848588864                         
 INPUT CARD>H      1.0   1.2527257999   -.4214651586   3.0224606970                         
 INPUT CARD>H      1.0   2.6177043590   1.9484947995   2.3495726821                         
 INPUT CARD>H      1.0   -.1127047214   2.0405969627   3.0535321693                         
 INPUT CARD>SE    34.0   2.0684890776  -1.1125182760  -1.2134154093                         
 INPUT CARD>H      1.0   2.1422107340   -.5803659875  -2.5852472725                         
 INPUT CARD>AT    85.0  -2.1302318016   -.6171154150   -.2143212107                         
 INPUT CARD>S     16.0    .3754817088   2.6319401078  -1.8885256240                         
 INPUT CARD> $end                                                                           
 INPUT CARD> $zmat izmat(1)=1,1,2,  1,2,3,  1,2,4,  1,2,5,                                  
 INPUT CARD>           1,1,6,  1,6,7,  1,1,8,  1,1,9                                        
   40000000 WORDS OF MEMORY AVAILABLE

     BASIS OPTIONS
     -------------
     GBASIS=             IGAUSS=       0      POLAR=NONE    
     NDFUNC=       0     NFFUNC=       0     DIFFSP=       F
     NPFUNC=       0      DIFFS=       F     BASNAM=BIBAS   

 USING BASNAM FOR ATOM CUSTOMIZED BASIS CONSTRUCTION
     ----------------
     ATOM  BASIS NAME
     ----------------
       1   BIBAS   
       2   SNBAS   
       3   HBAS    
       4   HBAS    
       5   HBAS    
       6   SEBAS   
       7   HBAS    
       8   ATBAS   
       9   SBAS    
 NOW LOCATING ALL    9 BASIS SETS IN YOUR INPUT FILE...
 FOUND BASIS SET  $BIBAS 
   s  27                       
      1 2.4062858E+11  5.182297
      2 2.2809639E+10  2.093683
      3 3.4462821E+09  6.405193
      4 6.7450223E+08  1.697303
      5 1.5569479E+08  4.081737
      6 4.0651160E+07  9.166220
      7 1.1560254E+07  1.973191
      8 3.5127552E+06  4.094621
      9 1.1280140E+06  8.264664
     10 3.8096930E+05  1.623632
     11 1.3537905E+05  3.116005
     12 5.0527834E+04  5.871896
     13 1.9697323E+04  1.087697
     14 7.9790262E+03  1.916711
     15 3.3497459E+03  2.955267
     16 1.4574575E+03  3.217955
     17 6.5841402E+02  1.706799
     18 2.8409184E+02  2.123394
     19 1.3178503E+02 -1.444336
     20 5.4629074E+01  6.571472
     21 2.8745817E+01 -4.481267
     22 1.2110242E+01  2.295689
     23 6.3011136E+00 -1.193602
     24 2.1494104E+00  4.686823
     25 1.0677106E+00 -2.381308
     26 2.6714109E-01  5.923688
     27 1.0206999E-01 -2.214226
   s  27                       
      1 2.4062858E+11 -2.075544
      2 2.2809639E+10 -8.353236
      3 3.4462821E+09 -2.548914
      4 6.7450223E+08 -6.742419
      5 1.5569479E+08 -1.619231
      6 4.0651160E+07 -3.634931
      7 1.1560254E+07 -7.824446
      8 3.5127552E+06 -1.627463
      9 1.1280140E+06 -3.294523
     10 3.8096930E+05 -6.530425
     11 1.3537905E+05 -1.266765
     12 5.0527834E+04 -2.448587
     13 1.9697323E+04 -4.685401
     14 7.9790262E+03 -8.866373
     15 3.3497459E+03 -1.511188
     16 1.4574575E+03 -1.971169
     17 6.5841402E+02 -4.092993
     18 2.8409184E+02  4.522075
     19 1.3178503E+02  5.767970
     20 5.4629074E+01  1.247097
     21 2.8745817E+01 -2.100934
     22 1.2110242E+01  8.616395
     23 6.3011136E+00 -4.445626
     24 2.1494104E+00  1.661407
     25 1.0677106E+00 -8.254384
     26 2.6714109E-01  2.064251
     27 1.0206999E-01 -7.564640
   p  23                       
      1 5.8730496E+07  1.674025
      2 8.3144760E+06  5.499357
      3 1.6976188E+06  1.591376
      4 4.2605330E+05  4.332407
      5 1.2403012E+05  1.158508
      6 4.0689092E+04  3.095183
      7 1.4811776E+04  8.307761
      8 5.8931265E+03  2.224725
      9 2.5262925E+03  5.768993
     10 1.1517227E+03  1.359509
     11 5.5107472E+02  2.631112
     12 2.7424988E+02  3.577040
     13 1.4046722E+02  2.708864
     14 7.2494510E+01  8.059392
     15 3.8653022E+01  3.457291
     16 2.0583442E+01  9.693421
     17 1.0692111E+01 -6.171686
     18 5.5586880E+00  2.435754
     19 2.5810616E+00 -1.179406
     20 1.2386791E+00  6.527069
     21 5.5495678E-01 -2.367619
     22 1.9599244E-01  7.765913
     23 6.9345825E-02 -2.315980
   s  27                       
      1 2.4062858E+11  1.002197
      2 2.2809639E+10  4.031030
      3 3.4462821E+09  1.229599
      4 6.7450223E+08  3.251496
      5 1.5569479E+08  7.807904
      6 4.0651160E+07  1.752371
      7 1.1560254E+07  3.773297
      8 3.5127552E+06  7.847609
      9 1.1280140E+06  1.590674
     10 3.8096930E+05  3.153947
     11 1.3537905E+05  6.140313
     12 5.0527834E+04  1.188826
     13 1.9697323E+04  2.296327
     14 7.9790262E+03  4.376826
     15 3.3497459E+03  7.661610
     16 1.4574575E+03  1.020765
     17 6.5841402E+02  1.458308
     18 2.8409184E+02 -3.862263
     19 1.3178503E+02 -6.264634
     20 5.4629074E+01  3.624931
     21 2.8745817E+01  8.680174
     22 1.2110242E+01  1.550014
     23 6.3011136E+00 -1.953621
     24 2.1494104E+00  5.815715
     25 1.0677106E+00 -2.808080
     26 2.6714109E-01  6.521761
     27 1.0206999E-01 -2.426416
   p  23                       
      1 5.8730496E+07 -8.677022
      2 8.3144760E+06 -2.852804
      3 1.6976188E+06 -8.266863
      4 4.2605330E+05 -2.255860
      5 1.2403012E+05 -6.051964
      6 4.0689092E+04 -1.625504
      7 1.4811776E+04 -4.393906
      8 5.8931265E+03 -1.191152
      9 2.5262925E+03 -3.147923
     10 1.1517227E+03 -7.666399
     11 5.5107472E+02 -1.551494
     12 2.7424988E+02 -2.179269
     13 1.4046722E+02 -8.980107
     14 7.2494510E+01  3.160822
     15 3.8653022E+01  5.414204
     16 2.0583442E+01  2.538159
     17 1.0692111E+01  2.867385
     18 5.5586880E+00  1.048224
     19 2.5810616E+00 -1.735240
     20 1.2386791E+00  1.400285
     21 5.5495678E-01 -3.539234
     22 1.9599244E-01  9.820847
     23 6.9345825E-02 -2.736249
   d  15                       
      1 1.6038922E+04  2.051555
      2 4.1627671E+03  1.427782
      3 1.4932680E+03  7.378719
      4 6.3617893E+02  2.944425
      5 3.0019669E+02  9.113490
      6 1.5071473E+02  2.137841
      7 7.8150152E+01  3.500133
      8 4.1403834E+01  3.426367
      9 2.1913244E+01  1.573207
     10 1.1392226E+01  2.421570
     11 5.8708730E+00  1.189500
     12 2.9079721E+00  5.271460
     13 1.3928501E+00  2.979313
     14 6.3220087E-01 -1.422832
     15 2.5747463E-01  4.939348
   s  27                       
      1 2.4062858E+11  5.073150
      2 2.2809639E+10  2.040250
      3 3.4462821E+09  6.222778
      4 6.7450223E+08  1.645454
      5 1.5569479E+08  3.950939
      6 4.0651160E+07  8.867773
      7 1.1560254E+07  1.909270
      8 3.5127552E+06  3.971894
      9 1.1280140E+06  8.049791
     10 3.8096930E+05  1.597308
     11 1.3537905E+05  3.109305
     12 5.0527834E+04  6.031452
     13 1.9697323E+04  1.165248
     14 7.9790262E+03  2.231603
     15 3.3497459E+03  3.915396
     16 1.4574575E+03  5.285480
     17 6.5841402E+02  5.906140
     18 2.8409184E+02 -2.235184
     19 1.3178503E+02 -4.011826
     20 5.4629074E+01  3.854499
     21 2.8745817E+01  1.087144
     22 1.2110242E+01 -4.423164
     23 6.3011136E+00 -1.000798
     24 2.1494104E+00 -9.508678
     25 1.0677106E+00  1.997181
     26 2.6714109E-01 -3.846119
     27 1.0206999E-01  1.321210
   p  23                       
      1 5.8730496E+07  4.377412
      2 8.3144760E+06  1.438833
      3 1.6976188E+06  4.173033
      4 4.2605330E+05  1.138750
      5 1.2403012E+05  3.058780
      6 4.0689092E+04  8.223481
      7 1.4811776E+04  2.226920
      8 5.8931265E+03  6.055375
      9 2.5262925E+03  1.607388
     10 1.1517227E+03  3.947899
     11 5.5107472E+02  8.080908
     12 2.7424988E+02  1.145356
     13 1.4046722E+02  3.234023
     14 7.2494510E+01 -2.536599
     15 3.8653022E+01 -4.637324
     16 2.0583442E+01  1.441213
     17 1.0692111E+01  6.337573
     18 5.5586880E+00  4.704379
     19 2.5810616E+00  6.492864
     20 1.2386791E+00 -2.923006
     21 5.5495678E-01  1.374020
     22 1.9599244E-01 -3.989183
     23 6.9345825E-02  1.097241
   d  15                       
      1 1.6038922E+04 -1.091172
      2 4.1627671E+03 -7.603733
      3 1.4932680E+03 -3.961578
      4 6.3617893E+02 -1.591675
      5 3.0019669E+02 -5.020750
      6 1.5071473E+02 -1.190739
      7 7.8150152E+01 -1.909405
      8 4.1403834E+01 -1.324751
      9 2.1913244E+01  1.811151
     10 1.1392226E+01  4.789125
     11 5.8708730E+00  3.858024
     12 2.9079721E+00  1.015019
     13 1.3928501E+00  4.280006
     14 6.3220087E-01  6.320049
     15 2.5747463E-01 -1.894469
   s  27                       
      1 2.4062858E+11 -2.303395
      2 2.2809639E+10 -9.263157
      3 3.4462821E+09 -2.825200
      4 6.7450223E+08 -7.470414
      5 1.5569479E+08 -1.793712
      6 4.0651160E+07 -4.025945
      7 1.1560254E+07 -8.667986
      8 3.5127552E+06 -1.803283
      9 1.1280140E+06 -3.654747
     10 3.8096930E+05 -7.252919
     11 1.3537905E+05 -1.411951
     12 5.0527834E+04 -2.739789
     13 1.9697323E+04 -5.294589
     14 7.9790262E+03 -1.014883
     15 3.3497459E+03 -1.782469
     16 1.4574575E+03 -2.412352
     17 6.5841402E+02 -2.527382
     18 2.8409184E+02  1.050177
     19 1.3178503E+02  1.936027
     20 5.4629074E+01 -2.097619
     21 2.8745817E+01 -6.276185
     22 1.2110242E+01  3.989420
     23 6.3011136E+00  1.109410
     24 2.1494104E+00 -7.262100
     25 1.0677106E+00 -7.452672
     26 2.6714109E-01 -3.470601
     27 1.0206999E-01  6.299686
   f  10                       
      1 1.2931490E+03  2.558440
      2 4.4245050E+02  2.300256
      3 1.8992104E+02  1.274637
      4 9.1584137E+01  4.694831
      5 4.7062874E+01  1.226971
      6 2.5131198E+01  2.368570
      7 1.3357806E+01  3.323572
      8 6.9337984E+00  3.267702
      9 3.4247290E+00  1.915663
     10 1.5159795E+00  4.722137
   p  23                       
      1 5.8730496E+07 -1.869229
      2 8.3144760E+06 -6.141536
      3 1.6976188E+06 -1.782650
      4 4.2605330E+05 -4.859972
      5 1.2403012E+05 -1.307627
      6 4.0689092E+04 -3.509572
      7 1.4811776E+04 -9.531524
      8 5.8931265E+03 -2.585821
      9 2.5262925E+03 -6.895470
     10 1.1517227E+03 -1.689895
     11 5.5107472E+02 -3.487063
     12 2.7424988E+02 -4.908753
     13 1.4046722E+02 -1.301996
     14 7.2494510E+01  1.218874
     15 3.8653022E+01  2.195781
     16 2.0583442E+01 -2.836468
     17 1.0692111E+01 -4.543730
     18 5.5586880E+00 -3.259310
     19 2.5810616E+00  4.907445
     20 1.2386791E+00  6.267702
     21 5.5495678E-01  1.528386
     22 1.9599244E-01  3.405191
     23 6.9345825E-02  3.243784
   d  15                       
      1 1.6038922E+04  3.899922
      2 4.1627671E+03  2.711065
      3 1.4932680E+03  1.418990
      4 6.3617893E+02  5.690554
      5 3.0019669E+02  1.807970
      6 1.5071473E+02  4.278844
      7 7.8150152E+01  6.878682
      8 4.1403834E+01  4.158797
      9 2.1913244E+01 -8.940220
     10 1.1392226E+01 -2.199849
     11 5.8708730E+00 -1.352659
     12 2.9079721E+00  2.397755
     13 1.3928501E+00  4.964590
     14 6.3220087E-01  3.725960
     15 2.5747463E-01  1.007640
   s  27                       
      1 2.4062858E+11 -8.103459
      2 2.2809639E+10 -3.258804
      3 3.4462821E+09 -9.939069
      4 6.7450223E+08 -2.628095
      5 1.5569479E+08 -6.310238
      6 4.0651160E+07 -1.416331
      7 1.1560254E+07 -3.049357
      8 3.5127552E+06 -6.344062
      9 1.1280140E+06 -1.285717
     10 3.8096930E+05 -2.551740
     11 1.3537905E+05 -4.967202
     12 5.0527834E+04 -9.640324
     13 1.9697323E+04 -1.862738
     14 7.9790262E+03 -3.572067
     15 3.3497459E+03 -6.272713
     16 1.4574575E+03 -8.498963
     17 6.5841402E+02 -8.700661
     18 2.8409184E+02  3.717335
     19 1.3178503E+02  6.897653
     20 5.4629074E+01 -7.656269
     21 2.8745817E+01 -2.314279
     22 1.2110242E+01  1.581984
     23 6.3011136E+00  4.788911
     24 2.1494104E+00 -4.742398
     25 1.0677106E+00 -5.641045
     26 2.6714109E-01  7.427494
     27 1.0206999E-01  5.496761
   p  23                       
      1 5.8730496E+07  5.174389
      2 8.3144760E+06  1.699459
      3 1.6976188E+06  4.936439
      4 4.2605330E+05  1.344210
      5 1.2403012E+05  3.623609
      6 4.0689092E+04  9.700057
      7 1.4811776E+04  2.643816
      8 5.8931265E+03  7.142366
      9 2.5262925E+03  1.914636
     10 1.1517227E+03  4.665637
     11 5.5107472E+02  9.705743
     12 2.7424988E+02  1.349597
     13 1.4046722E+02  3.806110
     14 7.2494510E+01 -3.492036
     15 3.8653022E+01 -6.056083
     16 2.0583442E+01  6.960230
     17 1.0692111E+01  1.408906
     18 5.5586880E+00  8.971063
     19 2.5810616E+00 -1.803602
     20 1.2386791E+00 -2.908522
     21 5.5495678E-01  5.982579
     22 1.9599244E-01  6.307820
     23 6.9345825E-02  4.585986
    s  1                       
      1 1.0206999E-01  1.0     
    p  1                       
      1 6.9345825E-02  1.0     
    d  1 ; 1 0.185 1.0         
                               
  $end                         
 FOUND BASIS SET  $SNBAS 
   s  23                       
      1 1.3432880E+09  1.924713
      2 1.3851420E+08  7.517855
      3 2.2415860E+07  2.320463
      4 4.7773820E+06  6.154285
      5 1.2109210E+06  1.511834
      6 3.4915710E+05  3.486419
      7 1.1212160E+05  7.777253
      8 3.9180990E+04  1.710507
      9 1.4787450E+04  3.711895
     10 5.9629570E+03  7.924295
     11 2.5404210E+03  1.595611
     12 1.1309210E+03  2.751930
     13 5.2262180E+02  3.378669
     14 2.4750390E+02  2.204508
     15 1.1172140E+02  4.162978
     16 5.5480780E+01 -2.765220
     17 2.7527550E+01  1.538318
     18 1.1957690E+01 -7.710128
     19 5.9659470E+00  3.519013
     20 2.2137980E+00 -1.291096
     21 9.9637830E-01  5.497680
     22 2.0585600E-01 -1.311856
     23 7.7917830E-02  5.350939
   s  23                       
      1 1.3432880E+09 -6.603444
      2 1.3851420E+08 -2.578808
      3 2.2415860E+07 -7.962219
      4 4.7773820E+06 -2.113465
      5 1.2109210E+06 -5.202430
      6 3.4915710E+05 -1.203717
      7 1.1212160E+05 -2.702955
      8 3.9180990E+04 -6.005936
      9 1.4787450E+04 -1.329261
     10 5.9629570E+03 -2.932556
     11 2.5404210E+03 -6.307129
     12 1.1309210E+03 -1.229472
     13 5.2262180E+02 -1.911197
     14 2.4750390E+02 -1.508013
     15 1.1172140E+02  2.093121
     16 5.5480780E+01  5.864067
     17 2.7527550E+01  3.518246
     18 1.1957690E+01  3.711284
     19 5.9659470E+00 -3.137892
     20 2.2137980E+00  7.603835
     21 9.9637830E-01 -3.852885
     22 2.0585600E-01  7.892078
     23 7.7917830E-02 -3.165879
   p  19                       
      1 1.5547130E+06  2.630311
      2 2.2268520E+05  1.058859
      3 4.8836280E+04  3.887489
      4 1.3824970E+04  1.389970
      5 4.7004290E+03  4.844366
      6 1.8316950E+03  1.604667
      7 7.8288450E+02  4.927950
      8 3.5550190E+02  1.309049
      9 1.6834000E+02  2.715829
     10 8.2183830E+01  3.768833
     11 4.0912480E+01  2.701635
     12 2.0014470E+01  6.794505
     13 1.0006760E+01  1.284398
     14 5.0146660E+00  1.138085
     15 2.4031970E+00 -5.928668
     16 1.1036420E+00  1.835061
     17 4.5817940E-01 -8.871687
     18 1.6309450E-01  3.022398
     19 5.6755960E-02 -8.829973
   s  23                       
      1 1.3432880E+09  2.916526
      2 1.3851420E+08  1.138865
      3 2.2415860E+07  3.517045
      4 4.7773820E+06  9.333507
      5 1.2109210E+06  2.299629
      6 3.4915710E+05  5.317452
      7 1.1212160E+05  1.197328
      8 3.9180990E+04  2.657099
      9 1.4787450E+04  5.920861
     10 5.9629570E+03  1.305580
     11 2.5404210E+03  2.855544
     12 1.1309210E+03  5.620299
     13 5.2262180E+02  9.203702
     14 2.4750390E+02  7.413442
     15 1.1172140E+02 -1.318105
     16 5.5480780E+01 -5.241767
     17 2.7527550E+01 -3.471732
     18 1.1957690E+01  6.613558
     19 5.9659470E+00  6.574480
     20 2.2137980E+00  6.006050
     21 9.9637830E-01 -6.542997
     22 2.0585600E-01  1.484745
     23 7.7917830E-02 -5.913390
   p  19                       
      1 1.5547130E+06 -1.213520
      2 2.2268520E+05 -4.891783
      3 4.8836280E+04 -1.798696
      4 1.3824970E+04 -6.456262
      5 4.7004290E+03 -2.258970
      6 1.8316950E+03 -7.567127
      7 7.8288450E+02 -2.362486
      8 3.5550190E+02 -6.510790
      9 1.6834000E+02 -1.417471
     10 8.2183830E+01 -2.086419
     11 4.0912480E+01 -8.219238
     12 2.0014470E+01  3.241976
     13 1.0006760E+01  5.548909
     14 5.0146660E+00  2.396439
     15 2.4031970E+00  2.057480
     16 1.1036420E+00  1.444514
     17 4.5817940E-01 -1.032001
     18 1.6309450E-01  5.682409
     19 5.6755960E-02 -2.364870
   d  12                       
      1 2.9981590E+03  2.393126
      2 8.4131040E+02  2.019161
      3 3.1774710E+02  1.114096
      4 1.3890840E+02  4.403349
      5 6.5247370E+01  1.294841
      6 3.2196210E+01  2.656388
      7 1.6222610E+01  3.727600
      8 8.1605430E+00  3.077197
      9 3.9382840E+00  9.909365
     10 1.8140800E+00  5.975810
     11 7.8774250E-01  6.465591
     12 3.0855790E-01 -1.666848
   s  23                       
      1 1.3432880E+09 -1.268865
      2 1.3851420E+08 -4.955203
      3 2.2415860E+07 -1.529940
      4 4.7773820E+06 -4.062131
      5 1.2109210E+06 -1.000023
      6 3.4915710E+05 -2.316164
      7 1.1212160E+05 -5.203201
      8 3.9180990E+04 -1.159456
      9 1.4787450E+04 -2.571083
     10 5.9629570E+03 -5.717140
     11 2.5404210E+03 -1.240874
     12 1.1309210E+03 -2.483603
     13 5.2262180E+02 -4.022476
     14 2.4750390E+02 -3.425481
     15 1.1172140E+02  6.504728
     16 5.5480780E+01  2.560616
     17 2.7527550E+01  2.032303
     18 1.1957690E+01 -5.389327
     19 5.9659470E+00 -7.287171
     20 2.2137980E+00  7.384621
     21 9.9637830E-01  6.934356
     22 2.0585600E-01  2.607723
     23 7.7917830E-02 -6.427937
   p  19                       
      1 1.5547130E+06  5.053147
      2 2.2268520E+05  2.038086
      3 4.8836280E+04  7.490215
      4 1.3824970E+04  2.694624
      5 4.7004290E+03  9.412864
      6 1.8316950E+03  3.169794
      7 7.8288450E+02  9.891013
      8 3.5550190E+02  2.756876
      9 1.6834000E+02  6.030856
     10 8.2183830E+01  9.068395
     11 4.0912480E+01  2.598406
     12 2.0014470E+01 -1.890657
     13 1.0006760E+01 -3.766917
     14 5.0146660E+00 -2.242085
     15 2.4031970E+00  5.716862
     16 1.1036420E+00  5.027370
     17 4.5817940E-01  8.679613
     18 1.6309450E-01 -9.060269
     19 5.6755960E-02  9.404435
   d  12                       
      1 2.9981590E+03 -8.914720
      2 8.4131040E+02 -7.498820
      3 3.1774710E+02 -4.179735
      4 1.3890840E+02 -1.656870
      5 6.5247370E+01 -4.974472
      6 3.2196210E+01 -1.014854
      7 1.6222610E+01 -1.373691
      8 8.1605430E+00 -6.199791
      9 3.9382840E+00  2.259330
     10 1.8140800E+00  4.626715
     11 7.8774250E-01  3.883594
     12 3.0855790E-01  1.228281
   s  23                       
      1 1.3432880E+09  3.806935
      2 1.3851420E+08  1.486724
      3 2.2415860E+07  4.590101
      4 4.7773820E+06  1.218850
      5 1.2109210E+06  3.000006
      6 3.4915710E+05  6.950970
      7 1.1212160E+05  1.560654
      8 3.9180990E+04  3.480978
      9 1.4787450E+04  7.710037
     10 5.9629570E+03  1.717692
     11 2.5404210E+03  3.721110
     12 1.1309210E+03  7.475410
     13 5.2262180E+02  1.207107
     14 2.4750390E+02  1.040727
     15 1.1172140E+02 -2.001299
     16 5.5480780E+01 -7.831852
     17 2.7527550E+01 -6.489173
     18 1.1957690E+01  1.833105
     19 5.9659470E+00  2.589880
     20 2.2137980E+00 -3.580817
     21 9.9637830E-01 -4.667673
     22 2.0585600E-01  7.000650
     23 7.7917830E-02  5.241249
   p  19                       
      1 1.5547130E+06 -1.181415
      2 2.2268520E+05 -4.768315
      3 4.8836280E+04 -1.749564
      4 1.3824970E+04 -6.314520
      5 4.7004290E+03 -2.195514
      6 1.8316950E+03 -7.441915
      7 7.8288450E+02 -2.306340
      8 3.5550190E+02 -6.488076
      9 1.6834000E+02 -1.407369
     10 8.2183830E+01 -2.152379
     11 4.0912480E+01 -5.331324
     12 2.0014470E+01  4.538797
     13 1.0006760E+01  9.700246
     14 5.0146660E+00 -7.556474
     15 2.4031970E+00 -1.688332
     16 1.1036420E+00 -1.935602
     17 4.5817940E-01  1.058352
     18 1.6309450E-01  6.001189
     19 5.6755960E-02  4.513365
    s 1                        
      1 7.7917830E-02  1.0     
    p 1                        
      1 5.6755960E-02  1.0     
    d 1 ; 1 0.183 1.0          
                               
  $end                         
 FOUND BASIS SET  $HBAS  
   s   6                       
      1 8.2932759E+01  2.004260
      2 1.2452437E+01  1.528880
      3 2.8330596E+00  7.531701
      4 8.0001038E-01  2.563346
      5 2.5859498E-01  4.976207
      6 8.9969184E-02  2.967534
    s  1                       
      1 8.9969184E-02  1.0     
    p 1 ; 1 1.0 1.0            
                               
  $end                         
 FOUND BASIS SET  $SEBAS 
   s  20                       
      1 7.0126910E+07  4.552013
      2 7.6150590E+06  1.719664
      3 1.3399940E+06  5.250210
      4 3.0471930E+05  1.434901
      5 8.3264650E+04  3.678847
      6 2.6000940E+04  9.309626
      7 8.9882070E+03  2.363354
      8 3.3653010E+03  5.959138
      9 1.3451580E+03  1.392537
     10 5.6764000E+02  2.720573
     11 2.4958650E+02  3.681600
     12 1.1248470E+02  2.487668
     13 4.5767340E+01  4.234803
     14 2.2295360E+01 -6.003821
     15 1.0805420E+01  2.945937
     16 4.4801370E+00 -1.409428
     17 2.0468810E+00  7.477379
     18 8.6721290E-01 -3.491977
     19 3.4341860E-01  1.371272
     20 1.2788100E-01 -3.520440
   s  20                       
      1 7.0126910E+07 -1.462622
      2 7.6150590E+06 -5.527182
      3 1.3399940E+06 -1.689756
      4 3.0471930E+05 -4.624278
      5 8.3264650E+04 -1.191577
      6 2.6000940E+04 -3.029942
      7 8.9882070E+03 -7.817763
      8 3.3653010E+03 -2.015920
      9 1.3451580E+03 -5.011394
     10 5.6764000E+02 -1.096412
     11 2.4958650E+02 -1.927205
     12 1.1248470E+02 -1.716766
     13 4.5767340E+01  2.159910
     14 2.2295360E+01  6.045278
     15 1.0805420E+01  3.284389
     16 4.4801370E+00  3.081179
     17 2.0468810E+00 -1.834350
     18 8.6721290E-01  1.144489
     19 3.4341860E-01 -4.103958
     20 1.2788100E-01  8.804837
   p  15                       
      1 4.8566150E+04  1.281265
      2 8.4316000E+03  7.292273
      3 2.2946350E+03  3.649669
      4 7.8377970E+02  1.590254
      5 3.0586350E+02  5.761257
      6 1.3060430E+02  1.612046
      7 5.9465130E+01  3.173664
      8 2.8363770E+01  3.820680
      9 1.3896050E+01  2.142798
     10 6.6186080E+00  3.783580
     11 3.1194380E+00  1.233319
     12 1.4491170E+00  6.471813
     13 5.3959100E-01 -9.858254
     14 2.1459710E-01  3.896621
     15 8.0700040E-02 -1.618459
   s  20                       
      1 7.0126910E+07  5.774935
      2 7.6150590E+06  2.182121
      3 1.3399940E+06  6.674413
      4 3.0471930E+05  1.825655
      5 8.3264650E+04  4.713046
      6 2.6000940E+04  1.196835
      7 8.9882070E+03  3.103207
      8 3.3653010E+03  7.995694
      9 1.3451580E+03  2.013121
     10 5.6764000E+02  4.445630
     11 2.4958650E+02  8.171856
     12 1.1248470E+02  7.580443
     13 4.5767340E+01 -1.154538
     14 2.2295360E+01 -4.680755
     15 1.0805420E+01 -2.949078
     16 4.4801370E+00  5.680219
     17 2.0468810E+00  6.602039
     18 8.6721290E-01  9.079090
     19 3.4341860E-01 -1.996207
     20 1.2788100E-01  7.767505
   p  15                       
      1 4.8566150E+04 -5.096780
      2 8.4316000E+03 -2.909286
      3 2.2946350E+03 -1.459576
      4 7.8377970E+02 -6.428022
      5 3.0586350E+02 -2.369656
      6 1.3060430E+02 -6.903132
      7 5.9465130E+01 -1.427410
      8 2.8363770E+01 -1.815842
      9 1.3896050E+01 -1.291872
     10 6.6186080E+00  3.539923
     11 3.1194380E+00  5.075141
     12 1.4491170E+00  2.450714
     13 5.3959100E-01  2.062071
     14 2.1459710E-01 -1.305007
     15 8.0700040E-02  6.319465
   d   9                       
      1 6.5851230E+02  4.987329
      2 2.0180170E+02  3.948419
      3 8.0065640E+01  1.957645
      4 3.4777660E+01  7.051798
      5 1.5742740E+01  1.842938
      6 7.2754480E+00  3.192681
      7 3.3192220E+00  3.711756
      8 1.4637820E+00  2.624860
      9 5.8195150E-01  7.324418
   s  20                       
      1 7.0126910E+07 -1.694868
      2 7.6150590E+06 -6.403165
      3 1.3399940E+06 -1.959406
      4 3.0471930E+05 -5.354992
      5 8.3264650E+04 -1.384778
      6 2.6000940E+04 -3.507701
      7 8.9882070E+03 -9.131891
      8 3.3653010E+03 -2.342300
      9 1.3451580E+03 -5.941228
     10 5.6764000E+02 -1.304574
     11 2.4958650E+02 -2.437793
     12 1.1248470E+02 -2.229945
     13 4.5767340E+01  3.443504
     14 2.2295360E+01  1.549640
     15 1.0805420E+01  9.358482
     16 4.4801370E+00 -2.230102
     17 2.0468810E+00 -4.660808
     18 8.6721290E-01 -2.053233
     19 3.4341860E-01  7.603742
     20 1.2788100E-01  4.419623
   p  15                       
      1 4.8566150E+04  1.228617
      2 8.4316000E+03  7.036659
      3 2.2946350E+03  3.513616
      4 7.8377970E+02  1.559208
      5 3.0586350E+02  5.719154
      6 1.3060430E+02  1.688445
      7 5.9465130E+01  3.474061
      8 2.8363770E+01  4.551399
      9 1.3896050E+01 -2.608543
     10 6.6186080E+00 -1.025644
     11 3.1194380E+00 -1.732424
     12 1.4491170E+00 -5.833688
     13 5.3959100E-01  3.416769
     14 2.1459710E-01  5.526246
     15 8.0700040E-02  2.671346
   s 1                         
      1 1.2788100E-01  1.0     
   p 1                         
      1 8.0700040E-02  1.0     
   d 1 ; 1 0.338 1.0           
                               
  $end                         
 FOUND BASIS SET  $ATBAS 
   s  27                       
      1 3.7414834E+11  4.516362
      2 3.3690316E+10  1.901221
      3 4.8412550E+09  6.061195
      4 8.9721873E+08  1.646254
      5 1.9864780E+08  4.095157
      6 4.8611909E+07  9.636896
      7 1.3058480E+07  2.120641
      8 3.8005140E+06  4.448246
      9 1.1864105E+06  8.997744
     10 3.9248480E+05  1.771574
     11 1.3718448E+05  3.401412
     12 5.0505962E+04  6.385901
     13 1.9565763E+04  1.161627
     14 7.9541328E+03  1.990752
     15 3.3706250E+03  2.967787
     16 1.4821482E+03  3.123603
     17 6.7492787E+02  1.594105
     18 2.9858232E+02  1.873180
     19 1.3989204E+02 -6.946729
     20 5.9474906E+01  2.007031
     21 3.1239587E+01 -1.295215
     22 1.3498944E+01  5.344972
     23 7.0056646E+00 -2.108164
     24 2.4258219E+00  8.249624
     25 1.2592656E+00 -4.566294
     26 3.2875923E-01  1.059600
     27 1.2676301E-01 -3.693716
   s  27                       
      1 3.7414834E+11  8.868197
      2 3.3690316E+10  3.714575
      3 4.8412550E+09  1.180254
      4 8.9721873E+08  3.197929
      5 1.9864780E+08  7.941268
      6 4.8611909E+07  1.867140
      7 1.3058480E+07  4.109293
      8 3.8005140E+06  8.637354
      9 1.1864105E+06  1.754890
     10 3.9248480E+05  3.487439
     11 1.3718448E+05  6.799147
     12 5.0505962E+04  1.312514
     13 1.9565763E+04  2.496080
     14 7.9541328E+03  4.633087
     15 3.3706250E+03  7.854619
     16 1.4821482E+03  9.938990
     17 6.7492787E+02  3.461441
     18 2.9858232E+02 -3.904495
     19 1.3989204E+02 -6.177699
     20 5.9474906E+01  3.426724
     21 3.1239587E+01  8.755339
     22 1.3498944E+01  1.671182
     23 7.0056646E+00 -1.806867
     24 2.4258219E+00  5.809690
     25 1.2592656E+00 -2.931559
     26 3.2875923E-01  6.522945
     27 1.2676301E-01 -2.288840
   p  23                       
      1 5.9841748E+07  1.875202
      2 8.3625162E+06  6.216419
      3 1.6980399E+06  1.790663
      4 4.2687615E+05  4.840710
      5 1.2433022E+05  1.291881
      6 4.0717501E+04  3.441107
      7 1.4805256E+04  9.187797
      8 5.8903715E+03  2.437592
      9 2.5270066E+03  6.258418
     10 1.1518135E+03  1.453982
     11 5.5101256E+02  2.751027
     12 2.7402856E+02  3.597819
     13 1.4024469E+02  2.546001
     14 7.2321707E+01  6.781032
     15 3.8604492E+01  2.105499
     16 2.0568223E+01  7.846143
     17 1.0749893E+01 -5.257173
     18 5.6311137E+00  2.059710
     19 2.6656138E+00 -9.278176
     20 1.2704067E+00  4.915803
     21 5.2236762E-01 -1.841158
     22 2.1515015E-01  7.552275
     23 7.8906102E-02 -2.135105
   s  27                       
      1 3.7414834E+11 -1.830544
      2 3.3690316E+10 -7.672629
      3 4.8412550E+09 -2.438891
      4 8.9721873E+08 -6.610542
      5 1.9864780E+08 -1.641839
      6 4.8611909E+07 -3.861025
      7 1.3058480E+07 -8.495865
      8 3.8005140E+06 -1.785665
      9 1.1864105E+06 -3.624072
     10 3.9248480E+05 -7.197285
     11 1.3718448E+05 -1.398567
     12 5.0505962E+04 -2.693209
     13 1.9565763E+04 -5.076001
     14 7.9541328E+03 -9.341734
     15 3.3706250E+03 -1.543254
     16 1.4821482E+03 -1.913520
     17 6.7492787E+02 -2.435700
     18 2.9858232E+02  4.544338
     19 1.3989204E+02  5.646718
     20 5.9474906E+01  1.246750
     21 3.1239587E+01 -1.852683
     22 1.3498944E+01  7.803439
     23 7.0056646E+00 -3.983910
     24 2.4258219E+00  1.575656
     25 1.2592656E+00 -8.104598
     26 3.2875923E-01  1.939481
     27 1.2676301E-01 -6.949300
   p  23                       
      1 5.9841748E+07 -2.186492
      2 8.3625162E+06 -7.255665
      3 1.6980399E+06 -2.094606
      4 4.2687615E+05 -5.676801
      5 1.2433022E+05 -1.523472
      6 4.0717501E+04 -4.080173
      7 1.4805256E+04 -1.102693
      8 5.8903715E+03 -2.965335
      9 2.5270066E+03 -7.842922
     10 1.1518135E+03 -1.895616
     11 5.5101256E+02 -3.832764
     12 2.7402856E+02 -5.099223
     13 1.4024469E+02 -4.978370
     14 7.2321707E+01  1.460682
     15 3.8604492E+01  2.212148
     16 2.0568223E+01 -7.396365
     17 1.0749893E+01 -5.062724
     18 5.6311137E+00 -2.709829
     19 2.6656138E+00  5.823227
     20 1.2704067E+00  6.004993
     21 5.2236762E-01  9.538061
     22 2.1515015E-01 -2.831572
     23 7.8906102E-02  2.016293
   d  15                       
      1 1.4832407E+04  2.620646
      2 3.9078700E+03  1.787518
      3 1.4112105E+03  9.156278
      4 6.0080044E+02  3.614205
      5 2.8292304E+02  1.087586
      6 1.4257268E+02  2.380446
      7 7.5076715E+01  3.525917
      8 4.0964885E+01  3.085505
      9 2.2655401E+01  1.376291
     10 1.2231504E+01  2.450756
     11 6.5287509E+00  7.494267
     12 3.3725397E+00  3.436508
     13 1.6422812E+00 -1.061408
     14 7.5855452E-01  3.983886
     15 3.1262997E-01 -9.406126
   s  27                       
      1 3.7414834E+11  4.517054
      2 3.3690316E+10  1.891743
      3 4.8412550E+09  6.010060
      4 8.9721873E+08  1.628336
      5 1.9864780E+08  4.043276
      6 4.8611909E+07  9.506571
      7 1.3058480E+07  2.092160
      8 3.8005140E+06  4.398279
      9 1.1864105E+06  8.936257
     10 3.9248480E+05  1.776904
     11 1.3718448E+05  3.464870
     12 5.0505962E+04  6.699168
     13 1.9565763E+04  1.275042
     14 7.9541328E+03  2.376714
     15 3.3706250E+03  4.042590
     16 1.4821482E+03  5.173215
     17 6.7492787E+02 -8.135503
     18 2.9858232E+02 -2.282360
     19 1.3989204E+02 -3.979673
     20 5.9474906E+01  3.642533
     21 3.1239587E+01  1.110516
     22 1.3498944E+01 -3.774150
     23 7.0056646E+00 -1.050038
     24 2.4258219E+00 -1.106141
     25 1.2592656E+00  2.441276
     26 3.2875923E-01 -4.316541
     27 1.2676301E-01  1.482273
   p  23                       
      1 5.9841748E+07  4.963278
      2 8.3625162E+06  1.647162
      3 1.6980399E+06  4.753125
      4 4.2687615E+05  1.288881
      5 1.2433022E+05  3.454271
      6 4.0717501E+04  9.264527
      7 1.4805256E+04  2.496700
      8 5.8903715E+03  6.729617
      9 2.5270066E+03  1.771246
     10 1.1518135E+03  4.291467
     11 5.5101256E+02  8.600655
     12 2.7402856E+02  1.154846
     13 1.4024469E+02  1.416200
     14 7.2321707E+01 -2.930398
     15 3.8604492E+01 -4.548110
     16 2.0568223E+01  7.699092
     17 1.0749893E+01  6.616518
     18 5.6311137E+00  4.160487
     19 2.6656138E+00  4.912358
     20 1.2704067E+00 -1.389298
     21 5.2236762E-01  6.800801
     22 2.1515015E-01 -2.974990
     23 7.8906102E-02  5.474602
   d  15                       
      1 1.4832407E+04 -1.411251
      2 3.9078700E+03 -9.650261
      3 1.4112105E+03 -4.981451
      4 6.0080044E+02 -1.983530
      5 2.8292304E+02 -6.086062
      6 1.4257268E+02 -1.343289
      7 7.5076715E+01 -1.920355
      8 4.0964885E+01 -1.043202
      9 2.2655401E+01  1.904419
     10 1.2231504E+01  4.583375
     11 6.5287509E+00  3.800637
     12 3.3725397E+00  1.122822
     13 1.6422812E+00  7.196355
     14 7.5855452E-01  1.948239
     15 3.1262997E-01 -1.063645
   f  10                       
      1 1.3204374E+03  2.971887
      2 4.4350317E+02  2.744901
      3 1.8928527E+02  1.507113
      4 9.1264573E+01  5.403498
      5 4.6896839E+01  1.383616
      6 2.5042136E+01  2.545828
      7 1.3390283E+01  3.376089
      8 7.0365352E+00  3.095451
      9 3.5328137E+00  1.646575
     10 1.6070145E+00  3.439191
   s  27                       
      1 3.7414834E+11 -2.099046
      2 3.3690316E+10 -8.790455
      3 4.8412550E+09 -2.792649
      4 8.9721873E+08 -7.566117
      5 1.9864780E+08 -1.878697
      6 4.8611909E+07 -4.417169
      7 1.3058480E+07 -9.721139
      8 3.8005140E+06 -2.043676
      9 1.1864105E+06 -4.152461
     10 3.9248480E+05 -8.257469
     11 1.3718448E+05 -1.610413
     12 5.0505962E+04 -3.114395
     13 1.9565763E+04 -5.930256
     14 7.9541328E+03 -1.106220
     15 3.3706250E+03 -1.884191
     16 1.4821482E+03 -2.415825
     17 6.7492787E+02  2.380704
     18 2.9858232E+02  1.099393
     19 1.3989204E+02  1.967560
     20 5.9474906E+01 -2.031707
     21 3.1239587E+01 -6.594307
     22 1.3498944E+01  3.565814
     23 7.0056646E+00  1.191578
     24 2.4258219E+00 -6.770720
     25 1.2592656E+00 -8.034502
     26 3.2875923E-01 -4.043062
     27 1.2676301E-01  7.838457
   p  23                       
      1 5.9841748E+07 -9.763028
      2 8.3625162E+06 -3.239409
      3 1.6980399E+06 -9.344450
      4 4.2687615E+05 -2.532484
      5 1.2433022E+05 -6.781233
      6 4.0717501E+04 -1.816514
      7 1.4805256E+04 -4.885804
      8 5.8903715E+03 -1.313074
      9 2.5270066E+03 -3.438258
     10 1.1518135E+03 -8.263193
     11 5.5101256E+02 -1.635275
     12 2.7402856E+02 -2.187356
     13 1.4024469E+02 -6.183691
     14 7.2321707E+01  3.599386
     15 3.8604492E+01  5.298104
     16 2.0568223E+01  2.192620
     17 1.0749893E+01  2.097501
     18 5.6311137E+00  9.588565
     19 2.6656138E+00 -2.677899
     20 1.2704067E+00  3.753617
     21 5.2236762E-01 -3.780562
     22 2.1515015E-01  1.632100
     23 7.8906102E-02 -3.356106
   d  15                       
      1 1.4832407E+04  5.380609
      2 3.9078700E+03  3.678735
      3 1.4112105E+03  1.903329
      4 6.0080044E+02  7.586290
      5 2.8292304E+02  2.339050
      6 1.4257268E+02  5.164693
      7 7.5076715E+01  7.347310
      8 4.0964885E+01  3.233143
      9 2.2655401E+01 -1.006884
     10 1.2231504E+01 -2.262519
     11 6.5287509E+00 -1.504855
     12 3.3725397E+00  2.301964
     13 1.6422812E+00  5.188762
     14 7.5855452E-01  3.693256
     15 3.1262997E-01  8.501071
   s  27                       
      1 3.7414834E+11 -7.900992
      2 3.3690316E+10 -3.308781
      3 4.8412550E+09 -1.051160
      4 8.9721873E+08 -2.847911
      5 1.9864780E+08 -7.071394
      6 4.8611909E+07 -1.662639
      7 1.3058480E+07 -3.658986
      8 3.8005140E+06 -7.692646
      9 1.1864105E+06 -1.562942
     10 3.9248480E+05 -3.108421
     11 1.3718448E+05 -6.061346
     12 5.0505962E+04 -1.172572
     13 1.9565763E+04 -2.232099
     14 7.9541328E+03 -4.166684
     15 3.3706250E+03 -7.092974
     16 1.4821482E+03 -9.112192
     17 6.7492787E+02  1.281901
     18 2.9858232E+02  4.163580
     19 1.3989204E+02  7.515145
     20 5.9474906E+01 -7.976253
     21 3.1239587E+01 -2.607727
     22 1.3498944E+01  1.515628
     23 7.0056646E+00  5.580867
     24 2.4258219E+00 -4.965277
     25 1.2592656E+00 -6.551392
     26 3.2875923E-01  8.251670
     27 1.2676301E-01  5.103243
   p  23                       
      1 5.9841748E+07  6.843887
      2 8.3625162E+06  2.270926
      3 1.6980399E+06  6.557135
      4 4.2687615E+05  1.776505
      5 1.2433022E+05  4.770731
      6 4.0717501E+04  1.276554
      7 1.4805256E+04  3.454740
      8 5.8903715E+03  9.276187
      9 2.5270066E+03  2.458846
     10 1.1518135E+03  5.930771
     11 5.5101256E+02  1.203551
     12 2.7402856E+02  1.592791
     13 1.4024469E+02  1.581434
     14 7.2321707E+01 -4.692250
     15 3.8604492E+01 -6.992024
     16 2.0568223E+01  2.472572
     17 1.0749893E+01  1.767047
     18 5.6311137E+00  8.560295
     19 2.6656138E+00 -2.628845
     20 1.2704067E+00 -3.141643
     21 5.2236762E-01  2.057789
     22 2.1515015E-01  6.410568
     23 7.8906102E-02  3.548984
   s   1                       
      1 1.2676301E-01  1.0     
   p   1                       
      1 7.8906102E-02  1.0     
   d 1 ; 1 0.225 1.0           
                               
  $end                         
 FOUND BASIS SET  $SBAS  
   s  16                       
      1 1.4624900E+06  9.491799
      2 1.8318600E+05  3.547361
      3 3.7362930E+04  1.166850
      4 9.8356230E+03  3.746235
      5 3.0561810E+03  1.194362
      6 1.0666020E+03  3.631682
      7 4.0570210E+02  9.823493
      8 1.6515130E+02  2.193767
      9 7.0536460E+01  3.597905
     10 3.1093080E+01  3.249012
     11 1.3786740E+01  9.626700
     12 5.6284700E+00  3.081309
     13 2.4316130E+00  1.193533
     14 1.0160220E+00 -3.571309
     15 3.8879040E-01  1.158501
     16 1.4182360E-01 -4.216376
   s  16                       
      1 1.4624900E+06 -2.636730
      2 1.8318600E+05 -9.864400
      3 3.7362930E+04 -3.246266
      4 9.8356230E+03 -1.047309
      5 3.0561810E+03 -3.351157
      6 1.0666020E+03 -1.040184
      7 4.0570210E+02 -2.908247
      8 1.6515130E+02 -7.145824
      9 7.0536460E+01 -1.406737
     10 3.1093080E+01 -1.895865
     11 1.3786740E+01 -1.325182
     12 5.6284700E+00  4.727352
     13 2.4316130E+00  5.593348
     14 1.0160220E+00  1.013693
     15 3.8879040E-01 -1.297612
     16 1.4182360E-01  1.043307
   p  11                       
      1 2.0282170E+03  3.641484
      2 4.6207420E+02  2.782287
      3 1.4752100E+02  1.453419
      4 5.5026120E+01  5.657528
      5 2.2478250E+01  1.623155
      6 9.6724070E+00  3.204720
      7 4.2437700E+00  4.003961
      8 1.8672210E+00  2.301639
      9 6.8571640E-01  2.682633
     10 2.6217470E-01 -1.649165
     11 9.5072720E-02  9.414611
   s  16                       
      1 1.4624900E+06  7.655900
      2 1.8318600E+05  2.865757
      3 3.7362930E+04  9.419370
      4 9.8356230E+03  3.048073
      5 3.0561810E+03  9.715186
      6 1.0666020E+03  3.039290
      7 4.0570210E+02  8.456319
      8 1.6515130E+02  2.118126
      9 7.0536460E+01  4.183340
     10 3.1093080E+01  6.012263
     11 1.3786740E+01  1.770495
     12 5.6284700E+00 -1.783914
     13 2.4316130E+00 -3.805903
     14 1.0160220E+00 -1.263839
     15 3.8879040E-01  7.170136
     16 1.4182360E-01  4.553105
   p  11                       
      1 2.0282170E+03 -9.346821
      2 4.6207420E+02 -7.042925
      3 1.4752100E+02 -3.766345
      4 5.5026120E+01 -1.457333
      5 2.2478250E+01 -4.389710
      6 9.6724070E+00 -8.643637
      7 4.2437700E+00 -1.223351
      8 1.8672210E+00 -2.954932
      9 6.8571640E-01  3.270707
     10 2.6217470E-01  5.439194
     11 9.5072720E-02  2.792480
   s 1                         
      1 1.4182360E-01  1.0     
   p 1                         
      1 9.5072720E-02  1.0     
   d 1 ; 1 0.65 1.0            
                               
  $end                         
    6 UNIQUE ATOM CUSTOMIZED BASIS SETS WERE FOUND.

     SEARCHING FOR $MCP
     $MCP GROUP NOT FOUND


     RUN TITLE
     ---------
 relativity test on artificial molecule...(SnH3)(SeH)(At)Bi=S                    

 THE POINT GROUP OF THE MOLECULE IS C1      
 THE ORDER OF THE PRINCIPAL AXIS IS     0

 ATOM      ATOMIC                      COORDINATES (BOHR)
           CHARGE         X                   Y                   Z
 BI         83.0     0.7692834076        1.4706600250       -0.7439332068
 SN         50.0     2.1570709010        2.1460003956        4.5067298147
 H           1.0     2.3673084996       -0.7964536631        5.7116225260
 H           1.0     4.9467439554        3.6821212596        4.4400485574
 H           1.0    -0.2129810410        3.8561691109        5.7703390947
 SE         34.0     3.9088775653       -2.1023546980       -2.2930226329
 H           1.0     4.0481912952       -1.0967326890       -4.8854089555
 AT         85.0    -4.0255543954       -1.1661790371       -0.4050083616
 S          16.0     0.7095575430        4.9736456198       -3.5687959502

          INTERNUCLEAR DISTANCES (ANGS.)
          ------------------------------

                1 BI         2 SN         3 H          4 H          5 H     

   1 BI      0.0000000    2.8960794 *  3.7181128    3.7123738    3.7076879  
   2 SN      2.8960794 *  0.0000000    1.6862416 *  1.6856093 *  1.6849565 *
   3 H       3.7181128    1.6862416 *  0.0000000    2.8164969 *  2.8155134 *
   4 H       3.7123738    1.6856093 *  2.8164969 *  0.0000000    2.8212011 *
   5 H       3.7076879    1.6849565 *  2.8155134 *  2.8212011 *  0.0000000  
   6 SE      2.6471117 *  4.3429297    4.3687150    4.7293047    5.7364260  
   7 H       3.1079677    5.3523846    5.6800371    5.5654002    6.6143725  
   8 AT      2.9012362 *  4.5312086    4.6860899    5.9748477    4.6704086  
   9 S       2.3815519 *  4.5921180    5.8489852    4.8431536    5.0011947  

                6 SE         7 H          8 AT         9 S     

   1 BI      2.6471117 *  3.1079677    2.9012362 *  2.3815519 *
   2 SN      4.3429297    5.3523846    4.5312086    4.5921180  
   3 H       4.3687150    5.6800371    4.6860899    5.8489852  
   4 H       4.7293047    5.5654002    5.9748477    4.8431536  
   5 H       5.7364260    6.6143725    4.6704086    5.0011947  
   6 SE      0.0000000    1.4732765 *  4.3442917    4.1644947  
   7 H       1.4732765 *  0.0000000    4.8863490    3.7317105  
   8 AT      4.3442917    4.8863490    0.0000000    4.4314696  
   9 S       4.1644947    3.7317105    4.4314696    0.0000000  

  * ... LESS THAN  3.000


     ATOMIC BASIS SET
     ----------------
 THE CONTRACTED PRIMITIVE FUNCTIONS HAVE BEEN UNNORMALIZED
 THE CONTRACTED BASIS FUNCTIONS ARE NOW NORMALIZED TO UNITY

  SHELL TYPE  PRIMITIVE        EXPONENT          CONTRACTION COEFFICIENT(S)

 BI        

      1   S       1  240628580000.0000610    0.000005182298
      1   S       2   22809639000.0000000    0.000020936838
      1   S       3    3446282100.0000005    0.000064051932
      1   S       4     674502230.0000000    0.000169730393
      1   S       5     155694790.0000000    0.000408173737
      1   S       6      40651160.0000000    0.000916622012
      1   S       7      11560254.0000000    0.001973191489
      1   S       8       3512755.2000000    0.004094621358
      1   S       9       1128014.0000000    0.008264664446
      1   S      10        380969.3000000    0.016236326393
      1   S      11        135379.0500000    0.031160052686
      1   S      12         50527.8340000    0.058718961874
      1   S      13         19697.3230000    0.108769771952
      1   S      14          7979.0262000    0.191671138916
      1   S      15          3349.7459000    0.295526763871
      1   S      16          1457.4575000    0.321795519859
      1   S      17           658.4140200    0.170679942925
      1   S      18           284.0918400    0.021233944891
      1   S      19           131.7850300   -0.001444336679
      1   S      20            54.6290740    0.000657147209
      1   S      21            28.7458170   -0.000448126707
      1   S      22            12.1102420    0.000229568955
      1   S      23             6.3011136   -0.000119360251
      1   S      24             2.1494104    0.000046868233
      1   S      25             1.0677106   -0.000023813089
      1   S      26             0.2671411    0.000005923688
      1   S      27             0.1020700   -0.000002214227

      2   S      28  240628580000.0000610   -0.000002075544
      2   S      29   22809639000.0000000   -0.000008353236
      2   S      30    3446282100.0000005   -0.000025489150
      2   S      31     674502230.0000000   -0.000067424199
      2   S      32     155694790.0000000   -0.000161923141
      2   S      33      40651160.0000000   -0.000363493181
      2   S      34      11560254.0000000   -0.000782444647
      2   S      35       3512755.2000000   -0.001627463070
      2   S      36       1128014.0000000   -0.003294523420
      2   S      37        380969.3000000   -0.006530425561
      2   S      38        135379.0500000   -0.012667656201
      2   S      39         50527.8340000   -0.024485876402
      2   S      40         19697.3230000   -0.046854017105
      2   S      41          7979.0262000   -0.088663734709
      2   S      42          3349.7459000   -0.151118894015
      2   S      43          1457.4575000   -0.197116975020
      2   S      44           658.4140200   -0.040929936904
      2   S      45           284.0918400    0.452207571046
      2   S      46           131.7850300    0.576797058059
      2   S      47            54.6290740    0.124709783013
      2   S      48            28.7458170   -0.021009349202
      2   S      49            12.1102420    0.008616395471
      2   S      50             6.3011136   -0.004445626180
      2   S      51             2.1494104    0.001661407390
      2   S      52             1.0677106   -0.000825438459
      2   S      53             0.2671411    0.000206425152
      2   S      54             0.1020700   -0.000075646401

      3   P      55      58730496.0000000    0.000016740251
      3   P      56       8314476.0000000    0.000054993578
      3   P      57       1697618.8000000    0.000159137665
      3   P      58        426053.3000000    0.000433240780
      3   P      59        124030.1200000    0.001158508821
      3   P      60         40689.0920000    0.003095183172
      3   P      61         14811.7760000    0.008307761174
      3   P      62          5893.1265000    0.022247253411
      3   P      63          2526.2925000    0.057689935828
      3   P      64          1151.7227000    0.135950959066
      3   P      65           551.0747200    0.263111211129
      3   P      66           274.2498800    0.357704060175
      3   P      67           140.4672200    0.270886413132
      3   P      68            72.4945100    0.080593922539
      3   P      69            38.6530220    0.003457291522
      3   P      70            20.5834420    0.000969342167
      3   P      71            10.6921110   -0.000617168668
      3   P      72             5.5586880    0.000243575496
      3   P      73             2.5810616   -0.000117940669
      3   P      74             1.2386791    0.000065270694
      3   P      75             0.5549568   -0.000023676191
      3   P      76             0.1959924    0.000007765913
      3   P      77             0.0693458   -0.000002315981

      4   S      78  240628580000.0000610    0.000001002198
      4   S      79   22809639000.0000000    0.000004031031
      4   S      80    3446282100.0000005    0.000012295992
      4   S      81     674502230.0000000    0.000032514960
      4   S      82     155694790.0000000    0.000078079047
      4   S      83      40651160.0000000    0.000175237128
      4   S      84      11560254.0000000    0.000377329781
      4   S      85       3512755.2000000    0.000784760933
      4   S      86       1128014.0000000    0.001590674670
      4   S      87        380969.3000000    0.003153947479
      4   S      88        135379.0500000    0.006140313379
      4   S      89         50527.8340000    0.011888265297
      4   S      90         19697.3230000    0.022963276795
      4   S      91          7979.0262000    0.043768269291
      4   S      92          3349.7459000    0.076616104383
      4   S      93          1457.4575000    0.102076550978
      4   S      94           658.4140200    0.014583081697
      4   S      95           284.0918400   -0.386226362917
      4   S      96           131.7850300   -0.626463442865
      4   S      97            54.6290740    0.362493110922
      4   S      98            28.7458170    0.868017482813
      4   S      99            12.1102420    0.155001491967
      4   S     100             6.3011136   -0.019536214996
      4   S     101             2.1494104    0.005815715699
      4   S     102             1.0677106   -0.002808080019
      4   S     103             0.2671411    0.000652176133
      4   S     104             0.1020700   -0.000242641640

      5   P     105      58730496.0000000   -0.000008677022
      5   P     106       8314476.0000000   -0.000028528045
      5   P     107       1697618.8000000   -0.000082668633
      5   P     108        426053.3000000   -0.000225586066
      5   P     109        124030.1200000   -0.000605196463
      5   P     110         40689.0920000   -0.001625504400
      5   P     111         14811.7760000   -0.004393906821
      5   P     112          5893.1265000   -0.011911526401
      5   P     113          2526.2925000   -0.031479233104
      5   P     114          1151.7227000   -0.076663990610
      5   P     115           551.0747200   -0.155149437019
      5   P     116           274.2498800   -0.217926907027
      5   P     117           140.4672200   -0.089801073111
      5   P     118            72.4945100    0.316082267040
      5   P     119            38.6530220    0.541420491068
      5   P     120            20.5834420    0.253815987032
      5   P     121            10.6921110    0.028673853904
      5   P     122             5.5586880    0.001048224400
      5   P     123             2.5810616   -0.000173524074
      5   P     124             1.2386791    0.000014002857
      5   P     125             0.5549568   -0.000035392345
      5   P     126             0.1959924    0.000009820848
      5   P     127             0.0693458   -0.000002736250

      6   D     128         16038.9220000    0.000205155594
      6   D     129          4162.7671000    0.001427782180
      6   D     130          1493.2680000    0.007378719652
      6   D     131           636.1789300    0.029444253508
      6   D     132           300.1966900    0.091134909626
      6   D     133           150.7147300    0.213784165061
      6   D     134            78.1501520    0.350013364100
      6   D     135            41.4038340    0.342636764097
      6   D     136            21.9132440    0.157320743045
      6   D     137            11.3922260    0.024215700607
      6   D     138             5.8708730    0.001189500560
      6   D     139             2.9079721    0.000052714608
      6   D     140             1.3928501    0.000029793134
      6   D     141             0.6322009   -0.000014228326
      6   D     142             0.2574746    0.000004939348

      7   S     143  240628580000.0000610    0.000000507315
      7   S     144   22809639000.0000000    0.000002040251
      7   S     145    3446282100.0000005    0.000006222779
      7   S     146     674502230.0000000    0.000016454545
      7   S     147     155694790.0000000    0.000039509396
      7   S     148      40651160.0000000    0.000088677734
      7   S     149      11560254.0000000    0.000190927045
      7   S     150       3512755.2000000    0.000397189440
      7   S     151       1128014.0000000    0.000804979127
      7   S     152        380969.3000000    0.001597308872
      7   S     153        135379.0500000    0.003109305935
      7   S     154         50527.8340000    0.006031452039
      7   S     155         19697.3230000    0.011652482018
      7   S     156          7979.0262000    0.022316034634
      7   S     157          3349.7459000    0.039153963659
      7   S     158          1457.4575000    0.052854803080
      7   S     159           658.4140200    0.005906140549
      7   S     160           284.0918400   -0.223518407339
      7   S     161           131.7850300   -0.401182637609
      7   S     162            54.6290740    0.385449934585
      7   S     163            28.7458170    1.087144351650
      7   S     164            12.1102420   -0.442316421671
      7   S     165             6.3011136   -1.000798861519
      7   S     166             2.1494104   -0.095086781744
      7   S     167             1.0677106    0.019971815130
      7   S     168             0.2671411   -0.003846119566
      7   S     169             0.1020700    0.001321210112

      8   P     170      58730496.0000000    0.000004377412
      8   P     171       8314476.0000000    0.000014388334
      8   P     172       1697618.8000000    0.000041730332
      8   P     173        426053.3000000    0.000113875039
      8   P     174        124030.1200000    0.000305878034
      8   P     175         40689.0920000    0.000822348144
      8   P     176         14811.7760000    0.002226920330
      8   P     177          5893.1265000    0.006055375761
      8   P     178          2526.2925000    0.016073889702
      8   P     179          1151.7227000    0.039478996006
      8   P     180           551.0747200    0.080809083611
      8   P     181           274.2498800    0.114535669016
      8   P     182           140.4672200    0.032340231105
      8   P     183            72.4945100   -0.253659904036
      8   P     184            38.6530220   -0.463732419066
      8   P     185            20.5834420    0.001441213670
      8   P     186            10.6921110    0.633757353090
      8   P     187             5.5586880    0.470437976066
      8   P     188             2.5810616    0.064928649309
      8   P     189             1.2386791   -0.002923006520
      8   P     190             0.5549568    0.001374020300
      8   P     191             0.1959924   -0.000398918371
      8   P     192             0.0693458    0.000109724147

      9   D     193         16038.9220000   -0.000109117275
      9   D     194          4162.7671000   -0.000760373358
      9   D     195          1493.2680000   -0.003961578720
      9   D     196           636.1789300   -0.015916755602
      9   D     197           300.1966900   -0.050207506306
      9   D     198           150.7147300   -0.119073990015
      9   D     199            78.1501520   -0.190940584024
      9   D     200            41.4038340   -0.132475125017
      9   D     201            21.9132440    0.181115129023
      9   D     202            11.3922260    0.478912537060
      9   D     203             5.8708730    0.385802474048
      9   D     204             2.9079721    0.101501953013
      9   D     205             1.3928501    0.004280006161
      9   D     206             0.6322009    0.000632004907
      9   D     207             0.2574746   -0.000189446951

     10   S     208  240628580000.0000610   -0.000000230340
     10   S     209   22809639000.0000000   -0.000000926316
     10   S     210    3446282100.0000005   -0.000002825201
     10   S     211     674502230.0000000   -0.000007470415
     10   S     212     155694790.0000000   -0.000017937124
     10   S     213      40651160.0000000   -0.000040259452
     10   S     214      11560254.0000000   -0.000086679867
     10   S     215       3512755.2000000   -0.000180328349
     10   S     216       1128014.0000000   -0.000365474753
     10   S     217        380969.3000000   -0.000725291923
     10   S     218        135379.0500000   -0.001411951710
     10   S     219         50527.8340000   -0.002739789561
     10   S     220         19697.3230000   -0.005294589381
     10   S     221          7979.0262000   -0.010148832103
     10   S     222          3349.7459000   -0.017824692905
     10   S     223          1457.4575000   -0.024123529207
     10   S     224           658.4140200   -0.002527382661
     10   S     225           284.0918400    0.105017748029
     10   S     226           131.7850300    0.193602746054
     10   S     227            54.6290740   -0.209761927058
     10   S     228            28.7458170   -0.627618583175
     10   S     229            12.1102420    0.398942047111
     10   S     230             6.3011136    1.109410330309
     10   S     231             2.1494104   -0.726210084202
     10   S     232             1.0677106   -0.745267207207
     10   S     233             0.2671411   -0.034706017010
     10   S     234             0.1020700    0.006299686572

     11   F     235          1293.1490000    0.000255844067
     11   F     236           442.4505000    0.002300256189
     11   F     237           189.9210400    0.012746374392
     11   F     238            91.5841370    0.046948314970
     11   F     239            47.0628740    0.122697138922
     11   F     240            25.1311980    0.236857015850
     11   F     241            13.3578060    0.332357206789
     11   F     242             6.9337984    0.326770228793
     11   F     243             3.4247290    0.191566396879
     11   F     244             1.5159795    0.047221371270

     12   P     245      58730496.0000000   -0.000001869229
     12   P     246       8314476.0000000   -0.000006141536
     12   P     247       1697618.8000000   -0.000017826507
     12   P     248        426053.3000000   -0.000048599725
     12   P     249        124030.1200000   -0.000130762701
     12   P     250         40689.0920000   -0.000350957284
     12   P     251         14811.7760000   -0.000953152498
     12   P     252          5893.1265000   -0.002585821199
     12   P     253          2526.2925000   -0.006895470368
     12   P     254          1151.7227000   -0.016898952395
     12   P     255           551.0747200   -0.034870636190
     12   P     256           274.2498800   -0.049087534787
     12   P     257           140.4672200   -0.013019968696
     12   P     258            72.4945100    0.121887439967
     12   P     259            38.6530220    0.219578175940
     12   P     260            20.5834420   -0.028364681192
     12   P     261            10.6921110   -0.454373050875
     12   P     262             5.5586880   -0.325931089911
     12   P     263             2.5810616    0.490744542866
     12   P     264             1.2386791    0.626770245828
     12   P     265             0.5549568    0.152838694958
     12   P     266             0.1959924    0.003405191909
     12   P     267             0.0693458    0.000324378424

     13   D     268         16038.9220000    0.000038999224
     13   D     269          4162.7671000    0.000271106549
     13   D     270          1493.2680000    0.001418990250
     13   D     271           636.1789300    0.005690554090
     13   D     272           300.1966900    0.018079707101
     13   D     273           150.7147300    0.042788441803
     13   D     274            78.1501520    0.068786826605
     13   D     275            41.4038340    0.041587975703
     13   D     276            21.9132440   -0.089402205107
     13   D     277            11.3922260   -0.219984950017
     13   D     278             5.8708730   -0.135265975010
     13   D     279             2.9079721    0.239775522018
     13   D     280             1.3928501    0.496459070038
     13   D     281             0.6322009    0.372596008029
     13   D     282             0.2574746    0.100764053008

     14   S     283  240628580000.0000610   -0.000000081035
     14   S     284   22809639000.0000000   -0.000000325880
     14   S     285    3446282100.0000005   -0.000000993907
     14   S     286     674502230.0000000   -0.000002628096
     14   S     287     155694790.0000000   -0.000006310238
     14   S     288      40651160.0000000   -0.000014163314
     14   S     289      11560254.0000000   -0.000030493577
     14   S     290       3512755.2000000   -0.000063440630
     14   S     291       1128014.0000000   -0.000128571796
     14   S     292        380969.3000000   -0.000255174042
     14   S     293        135379.0500000   -0.000496720264
     14   S     294         50527.8340000   -0.000964032417
     14   S     295         19697.3230000   -0.001862738710
     14   S     296          7979.0262000   -0.003572067281
     14   S     297          3349.7459000   -0.006272713521
     14   S     298          1457.4575000   -0.008498963402
     14   S     299           658.4140200   -0.000870066141
     14   S     300           284.0918400    0.037173356709
     14   S     301           131.7850300    0.068976536816
     14   S     302            54.6290740   -0.076562692618
     14   S     303            28.7458170   -0.231427939054
     14   S     304            12.1102420    0.158198409037
     14   S     305             6.3011136    0.478891111111
     14   S     306             2.1494104   -0.474239803110
     14   S     307             1.0677106   -0.564104591130
     14   S     308             0.2671411    0.742749410172
     14   S     309             0.1020700    0.549676172127

     15   P     310      58730496.0000000    0.000000517439
     15   P     311       8314476.0000000    0.000001699459
     15   P     312       1697618.8000000    0.000004936440
     15   P     313        426053.3000000    0.000013442106
     15   P     314        124030.1200000    0.000036236096
     15   P     315         40689.0920000    0.000097000574
     15   P     316         14811.7760000    0.000264381602
     15   P     317          5893.1265000    0.000714236631
     15   P     318          2526.2925000    0.001914636659
     15   P     319          1151.7227000    0.004665637506
     15   P     320           551.0747200    0.009705743923
     15   P     321           274.2498800    0.013495971590
     15   P     322           140.4672200    0.003806110177
     15   P     323            72.4945100   -0.034920360273
     15   P     324            38.6530220   -0.060560837953
     15   P     325            20.5834420    0.006960230615
     15   P     326            10.6921110    0.140890696892
     15   P     327             5.5586880    0.089710632531
     15   P     328             2.5810616   -0.180360221861
     15   P     329             1.2386791   -0.290852269776
     15   P     330             0.5549568    0.059825796754
     15   P     331             0.1959924    0.630782076515
     15   P     332             0.0693458    0.458598692647

     16   S     333             0.1020700    1.000000000000

     17   P     334             0.0693458    1.000000000000

     18   D     335             0.1850000    1.000000000000

 SN        

     19   S     336    1343288000.0000002    0.000019247138
     19   S     337     138514200.0000000    0.000075178552
     19   S     338      22415860.0000000    0.000232046330
     19   S     339       4777382.0000000    0.000615428508
     19   S     340       1210921.0000000    0.001511834699
     19   S     341        349157.1000000    0.003486419477
     19   S     342        112121.6000000    0.007777253544
     19   S     343         39180.9900000    0.017105073788
     19   S     344         14787.4500000    0.037118955273
     19   S     345          5962.9570000    0.079242951843
     19   S     346          2540.4210000    0.159561168885
     19   S     347          1130.9210000    0.275193079801
     19   S     348           522.6218000    0.337866907755
     19   S     349           247.5039000    0.220450812840
     19   S     350           111.7214000    0.041629782470
     19   S     351            55.4807800   -0.002765220238
     19   S     352            27.5275500    0.001538318849
     19   S     353            11.9576900   -0.000771012865
     19   S     354             5.9659470    0.000351901344
     19   S     355             2.2137980   -0.000129109633
     19   S     356             0.9963783    0.000054976806
     19   S     357             0.2058560   -0.000013118568
     19   S     358             0.0779178    0.000005350939

     20   S     359    1343288000.0000002   -0.000006603444
     20   S     360     138514200.0000000   -0.000025788085
     20   S     361      22415860.0000000   -0.000079622200
     20   S     362       4777382.0000000   -0.000211346516
     20   S     363       1210921.0000000   -0.000520243009
     20   S     364        349157.1000000   -0.001203717629
     20   S     365        112121.6000000   -0.002702955099
     20   S     366         39180.9900000   -0.006005936367
     20   S     367         14787.4500000   -0.013292613493
     20   S     368          5962.9570000   -0.029325567985
     20   S     369          2540.4210000   -0.063071295167
     20   S     370          1130.9210000   -0.122947262936
     20   S     371           522.6218000   -0.191119705900
     20   S     372           247.5039000   -0.150801341921
     20   S     373           111.7214000    0.209312103891
     20   S     374            55.4807800    0.586406731694
     20   S     375            27.5275500    0.351824663817
     20   S     376            11.9576900    0.037112848281
     20   S     377             5.9659470   -0.003137892528
     20   S     378             2.2137980    0.000760383564
     20   S     379             0.9963783   -0.000385288581
     20   S     380             0.2058560    0.000078920786
     20   S     381             0.0779178   -0.000031658797

     21   P     382       1554713.0000000    0.000026303113
     21   P     383        222685.2000000    0.000105885990
     21   P     384         48836.2800000    0.000388748960
     21   P     385         13824.9700000    0.001389970190
     21   P     386          4700.4290000    0.004844366111
     21   P     387          1831.6950000    0.016046677404
     21   P     388           782.8845000    0.049279509411
     21   P     389           355.5019000    0.130904981030
     21   P     390           168.3400000    0.271582963062
     21   P     391            82.1838300    0.376883350087
     21   P     392            40.9124800    0.270163568062
     21   P     393            20.0144700    0.067945057216
     21   P     394            10.0067600    0.001284398710
     21   P     395             5.0146660    0.001138085880
     21   P     396             2.4031970   -0.000592866897
     21   P     397             1.1036420    0.000183506180
     21   P     398             0.4581794   -0.000088716872
     21   P     399             0.1630945    0.000030223986
     21   P     400             0.0567560   -0.000008829974

     22   S     401    1343288000.0000002    0.000002916526
     22   S     402     138514200.0000000    0.000011388651
     22   S     403      22415860.0000000    0.000035170459
     22   S     404       4777382.0000000    0.000093335079
     22   S     405       1210921.0000000    0.000229962991
     22   S     406        349157.1000000    0.000531745257
     22   S     407        112121.6000000    0.001197328430
     22   S     408         39180.9900000    0.002657099850
     22   S     409         14787.4500000    0.005920861071
     22   S     410          5962.9570000    0.013055806101
     22   S     411          2540.4210000    0.028555449703
     22   S     412          1130.9210000    0.056202996705
     22   S     413           522.6218000    0.092037025308
     22   S     414           247.5039000    0.074134424807
     22   S     415           111.7214000   -0.131810503012
     22   S     416            55.4807800   -0.524176756047
     22   S     417            27.5275500   -0.347173225031
     22   S     418            11.9576900    0.661355860059
     22   S     419             5.9659470    0.657448016059
     22   S     420             2.2137980    0.060060506305
     22   S     421             0.9963783   -0.006542997011
     22   S     422             0.2058560    0.001484745060
     22   S     423             0.0779178   -0.000591339034

     23   P     424       1554713.0000000   -0.000012135208
     23   P     425        222685.2000000   -0.000048917840
     23   P     426         48836.2800000   -0.000179869664
     23   P     427         13824.9700000   -0.000645626233
     23   P     428          4700.4290000   -0.002258970089
     23   P     429          1831.6950000   -0.007567127075
     23   P     430           782.8845000   -0.023624864985
     23   P     431           355.5019000   -0.065107906159
     23   P     432           168.3400000   -0.141747118910
     23   P     433            82.1838300   -0.208641955867
     23   P     434            40.9124800   -0.082192386548
     23   P     435            20.0144700    0.324197663794
     23   P     436            10.0067600    0.554890988647
     23   P     437             5.0146660    0.239643983848
     23   P     438             2.4031970    0.020574799987
     23   P     439             1.1036420    0.001444514279
     23   P     440             0.4581794   -0.000103200166
     23   P     441             0.1630945    0.000056824093
     23   P     442             0.0567560   -0.000023648709

     24   D     443          2998.1590000    0.000239312611
     24   D     444           841.3104000    0.002019161331
     24   D     445           317.7471000    0.011140969208
     24   D     446           138.9084000    0.044033490830
     24   D     447            65.2473700    0.129484183090
     24   D     448            32.1962100    0.265638837184
     24   D     449            16.2226100    0.372760033258
     24   D     450             8.1605430    0.307719747213
     24   D     451             3.9382840    0.099093659169
     24   D     452             1.8140800    0.005975810934
     24   D     453             0.7877425    0.000646559171
     24   D     454             0.3085579   -0.000166684876

     25   S     455    1343288000.0000002   -0.000001268865
     25   S     456     138514200.0000000   -0.000004955204
     25   S     457      22415860.0000000   -0.000015299408
     25   S     458       4777382.0000000   -0.000040621317
     25   S     459       1210921.0000000   -0.000100002364
     25   S     460        349157.1000000   -0.000231616401
     25   S     461        112121.6000000   -0.000520320101
     25   S     462         39180.9900000   -0.001159456620
     25   S     463         14787.4500000   -0.002571083201
     25   S     464          5962.9570000   -0.005717140532
     25   S     465          2540.4210000   -0.012408744604
[...]
     60   P     837           551.0125600   -0.038327644904
     60   P     838           274.0285600   -0.050992234306
     60   P     839           140.2446900   -0.004978370151
     60   P     840            72.3217070    0.146068219016
     60   P     841            38.6044920    0.221214861025
     60   P     842            20.5682230   -0.073963657408
     60   P     843            10.7498930   -0.506272444057
     60   P     844             5.6311137   -0.270982989031
     60   P     845             2.6656138    0.582322724066
     60   P     846             1.2704067    0.600499317068
     60   P     847             0.5223676    0.095380615911
     60   P     848             0.2151502   -0.002831572660
     60   P     849             0.0789061    0.002016293250

     61   D     850         14832.4070000    0.000262064678
     61   D     851          3907.8700000    0.001787518411
     61   D     852          1411.2105000    0.009156278093
     61   D     853           600.8004400    0.036142051511
     61   D     854           282.9230400    0.108758605034
     61   D     855           142.5726800    0.238044695075
     61   D     856            75.0767150    0.352591721111
     61   D     857            40.9648850    0.308550580097
     61   D     858            22.6554010    0.137629199043
     61   D     859            12.2315040    0.024507568308
     61   D     860             6.5287509    0.000749426732
     61   D     861             3.3725397    0.000343650864
     61   D     862             1.6422812   -0.000106140873
     61   D     863             0.7585545    0.000039838865
     61   D     864             0.3126300   -0.000009406127

     62   S     865  374148340000.0000610    0.000000451705
     62   S     866   33690316000.0000038    0.000001891743
     62   S     867    4841255000.0000000    0.000006010061
     62   S     868     897218730.0000001    0.000016283365
     62   S     869     198647800.0000001    0.000040432760
     62   S     870      48611909.0000000    0.000095065719
     62   S     871      13058480.0000000    0.000209216016
     62   S     872       3800514.0000000    0.000439827921
     62   S     873       1186410.5000000    0.000893625775
     62   S     874        392484.8000000    0.001776904299
     62   S     875        137184.4800000    0.003464870249
     62   S     876         50505.9620000    0.006699168988
     62   S     877         19565.7630000    0.012750421395
     62   S     878          7954.1328000    0.023767143392
     62   S     879          3370.6250000    0.040425904886
     62   S     880          1482.1482000    0.051732153782
     62   S     881           674.9278700   -0.000081355034
     62   S     882           298.5823200   -0.228236036919
     62   S     883           139.8920400   -0.397967300859
     62   S     884            59.4749060    0.364253377871
     62   S     885            31.2395870    1.110516119607
     62   S     886            13.4989440   -0.377415051866
     62   S     887             7.0056646   -1.050038459628
     62   S     888             2.4258219   -0.110614168961
     62   S     889             1.2592656    0.024412767791
     62   S     890             0.3287592   -0.004316541648
     62   S     891             0.1267630    0.001482273369

     63   P     892      59841748.0000000    0.000004963278
     63   P     893       8362516.2000000    0.000016471627
     63   P     894       1698039.9000000    0.000047531256
     63   P     895        426876.1500000    0.000128888176
     63   P     896        124330.2200000    0.000345427164
     63   P     897         40717.5010000    0.000926452716
     63   P     898         14805.2560000    0.002496700410
     63   P     899          5890.3715000    0.006729617091
     63   P     900          2527.0066000    0.017712460101
     63   P     901          1151.8135000    0.042914672903
     63   P     902           551.0125600    0.086006553107
     63   P     903           274.0285600    0.115484687009
     63   P     904           140.2446900    0.014162000301
     63   P     905            72.3217070   -0.293039859023
     63   P     906            38.6044920   -0.454811076035
     63   P     907            20.5682230    0.076990922606
     63   P     908            10.7498930    0.661651851051
     63   P     909             5.6311137    0.416048759032
     63   P     910             2.6656138    0.049123587604
     63   P     911             1.2704067   -0.001389298020
     63   P     912             0.5223676    0.000680080124
     63   P     913             0.2151502   -0.000297499030
     63   P     914             0.0789061    0.000054746024

     64   D     915         14832.4070000   -0.000141125114
     64   D     916          3907.8700000   -0.000965026160
     64   D     917          1411.2105000   -0.004981451179
     64   D     918           600.8004400   -0.019835308496
     64   D     919           282.9230400   -0.060860621087
     64   D     920           142.5726800   -0.134328990970
     64   D     921            75.0767150   -0.192035506958
     64   D     922            40.9648850   -0.104320259977
     64   D     923            22.6554010    0.190441945958
     64   D     924            12.2315040    0.458337562899
     64   D     925             6.5287509    0.380063786916
     64   D     926             3.3725397    0.112282225975
     64   D     927             1.6422812    0.007196355488
     64   D     928             0.7585545    0.000194823993
     64   D     929             0.3126300   -0.000106364559

     65   F     930          1320.4374000    0.000297188791
     65   F     931           443.5031700    0.002744901821
     65   F     932           189.2852700    0.015071137105
     65   F     933            91.2645730    0.054034989917
     65   F     934            46.8968390    0.138361696043
     65   F     935            25.0421360    0.254582853079
     65   F     936            13.3902830    0.337608918105
     65   F     937             7.0365352    0.309545119096
     65   F     938             3.5328137    0.164657512051
     65   F     939             1.6070145    0.034391918511

     66   S     940  374148340000.0000610   -0.000000209905
     66   S     941   33690316000.0000038   -0.000000879046
     66   S     942    4841255000.0000000   -0.000002792650
     66   S     943     897218730.0000001   -0.000007566118
     66   S     944     198647800.0000001   -0.000018786970
     66   S     945      48611909.0000000   -0.000044171691
     66   S     946      13058480.0000000   -0.000097211395
     66   S     947       3800514.0000000   -0.000204367652
     66   S     948       1186410.5000000   -0.000415246117
     66   S     949        392484.8000000   -0.000825746997
     66   S     950        137184.4800000   -0.001610413530
     66   S     951         50505.9620000   -0.003114395870
     66   S     952         19565.7630000   -0.005930256240
     66   S     953          7954.1328000   -0.011062201300
     66   S     954          3370.6250000   -0.018841913800
     66   S     955          1482.1482000   -0.024158251201
     66   S     956           674.9278700    0.000238070462
     66   S     957           298.5823200    0.109939308003
     66   S     958           139.8920400    0.196756003005
     66   S     959            59.4749060   -0.203170778005
     66   S     960            31.2395870   -0.659430759017
     66   S     961            13.4989440    0.356581437009
     66   S     962             7.0056646    1.191578830030
     66   S     963             2.4258219   -0.677072035017
     66   S     964             1.2592656   -0.803450205020
     66   S     965             0.3287592   -0.040430628401
     66   S     966             0.1267630    0.007838457150

     67   P     967      59841748.0000000   -0.000009763029
     67   P     968       8362516.2000000   -0.000032394093
     67   P     969       1698039.9000000   -0.000093444500
     67   P     970        426876.1500000   -0.000253248419
     67   P     971        124330.2200000   -0.000678123338
     67   P     972         40717.5010000   -0.001816514889
     67   P     973         14805.2560000   -0.004885804066
     67   P     974          5890.3715000   -0.013130745991
     67   P     975          2527.0066000   -0.034382589075
     67   P     976          1151.8135000   -0.082631932441
     67   P     977           551.0125600   -0.163527598883
     67   P     978           274.0285600   -0.218735652843
     67   P     979           140.2446900   -0.061836918656
     67   P     980            72.3217070    0.359938603742
     67   P     981            38.6044920    0.529810447620
     67   P     982            20.5682230    0.219262092843
     67   P     983            10.7498930    0.020975010385
     67   P     984             5.6311137    0.000958856591
     67   P     985             2.6656138   -0.000267789997
     67   P     986             1.2704067    0.000037536175
     67   P     987             0.5223676   -0.000037805625
     67   P     988             0.2151502    0.000016321009
     67   P     989             0.0789061   -0.000003356107

     68   D     990         14832.4070000    0.000053806095
     68   D     991          3907.8700000    0.000367873523
     68   D     992          1411.2105000    0.001903329659
     68   D     993           600.8004400    0.007586290527
     68   D     994           282.9230400    0.023390500090
     68   D     995           142.5726800    0.051646937879
     68   D     996            75.0767150    0.073473103970
     68   D     997            40.9648850    0.032331437487
     68   D     998            22.6554010   -0.100688480958
     68   D     999            12.2315040   -0.226251994907
     68   D    1000             6.5287509   -0.150485551938
     68   D    1001             3.3725397    0.230196419905
     68   D    1002             1.6422812    0.518876200786
     68   D    1003             0.7585545    0.369325608848
     68   D    1004             0.3126300    0.085010712465

     69   S    1005  374148340000.0000610   -0.000000079010
     69   S    1006   33690316000.0000038   -0.000000330878
     69   S    1007    4841255000.0000000   -0.000001051161
     69   S    1008     897218730.0000001   -0.000002847911
     69   S    1009     198647800.0000001   -0.000007071395
     69   S    1010      48611909.0000000   -0.000016626397
     69   S    1011      13058480.0000000   -0.000036589864
     69   S    1012       3800514.0000000   -0.000076926467
     69   S    1013       1186410.5000000   -0.000156294215
     69   S    1014        392484.8000000   -0.000310842139
     69   S    1015        137184.4800000   -0.000606134644
     69   S    1016         50505.9620000   -0.001172572310
     69   S    1017         19565.7630000   -0.002232099810
     69   S    1018          7954.1328000   -0.004166684409
     69   S    1019          3370.6250000   -0.007092974849
     69   S    1020          1482.1482000   -0.009112192608
     69   S    1021           674.9278700    0.000128190127
     69   S    1022           298.5823200    0.041635800193
     69   S    1023           139.8920400    0.075151458487
     69   S    1024            59.4749060   -0.079762531286
     69   S    1025            31.2395870   -0.260772769954
     69   S    1026            13.4989440    0.151562880973
     69   S    1027             7.0056646    0.558086742902
     69   S    1028             2.4258219   -0.496527732913
     69   S    1029             1.2592656   -0.655139229885
     69   S    1030             0.3287592    0.825167048855
     69   S    1031             0.1267630    0.510324388910

     70   P    1032      59841748.0000000    0.000000684389
     70   P    1033       8362516.2000000    0.000002270927
     70   P    1034       1698039.9000000    0.000006557136
     70   P    1035        426876.1500000    0.000017765050
     70   P    1036        124330.2200000    0.000047707318
     70   P    1037         40717.5010000    0.000127655487
     70   P    1038         14805.2560000    0.000345474091
     70   P    1039          5890.3715000    0.000927618786
     70   P    1040          2527.0066000    0.002458846910
     70   P    1041          1151.8135000    0.005930771800
     70   P    1042           551.0125600    0.012035518600
     70   P    1043           274.0285600    0.015927913499
     70   P    1044           140.2446900    0.001581434650
     70   P    1045            72.3217070   -0.046922504898
     70   P    1046            38.6044920   -0.069920242797
     70   P    1047            20.5682230    0.024725728599
     70   P    1048            10.7498930    0.176704797993
     70   P    1049             5.6311137    0.085602952797
     70   P    1050             2.6656138   -0.262884548990
     70   P    1051             1.2704067   -0.314164388988
     70   P    1052             0.5223676    0.205778948992
     70   P    1053             0.2151502    0.641056846976
     70   P    1054             0.0789061    0.354898463987

     71   S    1055             0.1267630    1.000000000000

     72   P    1056             0.0789061    1.000000000000

     73   D    1057             0.2250000    1.000000000000

 S         

     74   S    1058       1462490.0000000    0.000094917998
     74   S    1059        183186.0000000    0.000354736139
     74   S    1060         37362.9300000    0.001166850521
     74   S    1061          9835.6230000    0.003746235722
     74   S    1062          3056.1810000    0.011943626107
     74   S    1063          1066.6020000    0.036316829420
     74   S    1064           405.7021000    0.098234939354
     74   S    1065           165.1513000    0.219376742120
     74   S    1066            70.5364600    0.359790528196
     74   S    1067            31.0930800    0.324901243177
     74   S    1068            13.7867400    0.096267007152
     74   S    1069             5.6284700    0.003081309182
     74   S    1070             2.4316130    0.001193533721
     74   S    1071             1.0160220   -0.000357130967
     74   S    1072             0.3887904    0.000115850121
     74   S    1073             0.1418236   -0.000042163764

     75   S    1074       1462490.0000000   -0.000026367300
     75   S    1075        183186.0000000   -0.000098644006
     75   S    1076         37362.9300000   -0.000324626665
     75   S    1077          9835.6230000   -0.001047309170
     75   S    1078          3056.1810000   -0.003351157241
     75   S    1079          1066.6020000   -0.010401841802
     75   S    1080           405.7021000   -0.029082479406
     75   S    1081           165.1513000   -0.071458240614
     75   S    1082            70.5364600   -0.140673748027
     75   S    1083            31.0930800   -0.189586549036
     75   S    1084            13.7867400   -0.013251820403
     75   S    1085             5.6284700    0.472735259090
     75   S    1086             2.4316130    0.559334894106
     75   S    1087             1.0160220    0.101369339019
     75   S    1088             0.3887904   -0.001297612790
     75   S    1089             0.1418236    0.001043307490

     76   P    1090          2028.2170000    0.000364148422
     76   P    1091           462.0742000    0.002782287080
     76   P    1092           147.5210000    0.014534192300
     76   P    1093            55.0261200    0.056575282801
     76   P    1094            22.4782500    0.162315563002
     76   P    1095             9.6724070    0.320472012005
     76   P    1096             4.2437700    0.400396188006
     76   P    1097             1.8672210    0.230163960003
     76   P    1098             0.6857164    0.026826333700
     76   P    1099             0.2621747   -0.001649165130
     76   P    1100             0.0950727    0.000941461177

     77   S    1101       1462490.0000000    0.000007655900
     77   S    1102        183186.0000000    0.000028657577
     77   S    1103         37362.9300000    0.000094193705
     77   S    1104          9835.6230000    0.000304807320
     77   S    1105          3056.1810000    0.000971518603
     77   S    1106          1066.6020000    0.003039290099
     77   S    1107           405.7021000    0.008456319608
     77   S    1108           165.1513000    0.021181261095
     77   S    1109            70.5364600    0.041833403290
     77   S    1110            31.0930800    0.060122638886
     77   S    1111            13.7867400    0.001770495430
     77   S    1112             5.6284700   -0.178391430958
     77   S    1113             2.4316130   -0.380590305909
     77   S    1114             1.0160220   -0.012638397097
     77   S    1115             0.3887904    0.717013613829
     77   S    1116             0.1418236    0.455310576892

     78   P    1117          2028.2170000   -0.000093468212
     78   P    1118           462.0742000   -0.000704292553
     78   P    1119           147.5210000   -0.003766345890
     78   P    1120            55.0261200   -0.014573335901
     78   P    1121            22.4782500   -0.043897103904
     78   P    1122             9.6724070   -0.086436371709
     78   P    1123             4.2437700   -0.122335174012
     78   P    1124             1.8672210   -0.029549322803
     78   P    1125             0.6857164    0.327070702033
     78   P    1126             0.2621747    0.543919412055
     78   P    1127             0.0950727    0.279248066028

     79   S    1128             0.1418236    1.000000000000

     80   P    1129             0.0950727    1.000000000000

     81   D    1130             0.6500000    1.000000000000

 TOTAL NUMBER OF BASIS SET SHELLS             =   81
 NUMBER OF CARTESIAN GAUSSIAN BASIS FUNCTIONS =  225
 NOTE: THIS RUN WILL RESTRICT THE MO VARIATION SPACE TO SPHERICAL HARMONICS.
 THE NUMBER OF ORBITALS KEPT IN THE VARIATIONAL SPACE WILL BE PRINTED LATER.
 NUMBER OF ELECTRONS                          =  272
 CHARGE OF MOLECULE                           =    0
 SPIN MULTIPLICITY                            =    1
 NUMBER OF OCCUPIED ORBITALS (ALPHA)          =  136
 NUMBER OF OCCUPIED ORBITALS (BETA )          =  136
 TOTAL NUMBER OF ATOMS                        =    9
 THE NUCLEAR REPULSION ENERGY IS     4452.4313034875

     ---------------------------------
     RELATIVISTIC WAVEFUNCTION OPTIONS
     ---------------------------------
     METHOD=DK       NORDER= 3       NESOC=  0      MODEQR=     11
     NRATOM=  0      QMTTOL= 1.000E-10      QRTOL= 1.000E-02
     CLIGHT=137.03598950     TAU= 3.500E+00
 64 BIT EPSILON: 0.22E-15 AND 128 BIT EPSILON: 0.22E-15


 128 BIT PRECISION APPEARS TO BE UNAVAILABLE!
 EXECUTION OF GAMESS TERMINATED -ABNORMALLY- AT Fri Jun  2 02:35:27 2017
               580000  WORDS OF DYNAMIC MEMORY USED
 STEP CPU TIME =     0.06 TOTAL CPU TIME =        0.1 (    0.0 MIN)
 TOTAL WALL CLOCK TIME=        0.1 SECONDS, CPU UTILIZATION IS  85.71%
 DDI Process 0: error code 911
 ddikick.x: application process 0 quit unexpectedly.
 ddikick.x: Fatal error detected.
 The error is most likely to be in the application, so check for
 input errors, disk space, memory needs, application bugs, etc.
 ddikick.x will now clean up all processes, and exit...
 ddikick.x: Sending kill signal to DDI processes.
 ddikick.x: Execution terminated due to error(s).
unset echo
----- accounting info -----
Files used on the master node compute-0-2.local were:
-rw-rw-r-- 1 sarom sarom  44238 Jun  2 02:35 /scratch/heavyatm-dk.F05
-rw-rw-r-- 1 sarom sarom 850720 Jun  2 02:35 /scratch/heavyatm-dk.F10
rm: cannot remove `/scratch/sarom': Is a directory
rm: cannot remove `/scratch/tmp': Is a directory
ls: No match.
ls: No match.
ls: No match.
Fri Jun  2 02:35:29 CDT 2017
0.138u 0.060s 0:02.35 8.0%	0+0k 88+456io 0pf+0w
Deleting shmid=3964928.
Deleting shmid=3997697.
Deleting shmid=4227074.
/opt/gridengine/default/spool/compute-0-2/active_jobs/23760.1/pe_hostfile compute-0-2.local
