-catch_rsh /opt/gridengine/default/spool/compute-0-6/active_jobs/23762.1/pe_hostfile
compute-0-6
The primary node assigned by SGE to this run is compute-0-6
Warning: no access to tty (Bad file descriptor).
Thus no job control in this shell.
source /home/sarom/gamess.github.2017-05-31.14.06/install.info
setenv GMS_PATH /home/sarom/gamess.github.2017-05-31.14.06
setenv GMS_BUILD_DIR /home/sarom/gamess.github.2017-05-31.14.06
setenv GMS_TARGET linux64
setenv GMS_FORTRAN gfortran
setenv GMS_GFORTRAN_VERNO 4.4
setenv GMS_MATHLIB mkl-so
setenv GMS_MATHLIB_PATH /share/apps/intel/compilers_and_libraries_2017.1.132/linux/mkl/lib/intel64
setenv GMS_MKL_VERNO 12
setenv GMS_DDI_COMM sockets
setenv GMS_LIBCCHEM false
setenv GMS_EIGEN_PATH
setenv GMS_PHI false
setenv GMS_SHMTYPE sysv
setenv GMS_OPENMP false
unset echo
hgme2-lut
tests/relwfn
----- GAMESS execution script 'rungms' -----
This job is running on host compute-0-6.local
under operating system Linux at Fri Jun 2 02:36:12 CDT 2017
Available scratch disk space (Kbyte units) at beginning of the job is
Filesystem           1K-blocks      Used Available Use% Mounted on
/dev/sda1             16126920   3867324  11440396  26% /
GAMESS temporary binary files will be written to /scratch
GAMESS supplementary output files will be written to /home/sarom/restart
Copying input file hgme2-lut.inp to your run's scratch directory...
cp tests/relwfn/hgme2-lut.inp /scratch/hgme2-lut.F05
unset echo
The generated host list is
compute-0-6.local
/home/sarom/gamess.github.2017-05-31.14.06/ddikick.x /home/sarom/gamess.github.2017-05-31.14.06/gamess.00.x hgme2-lut -ddi 1 1 compute-0-6.local -scr /scratch

 Distributed Data Interface kickoff program.
 Initiating 1 compute processes on 1 nodes to run the following command:
 /home/sarom/gamess.github.2017-05-31.14.06/gamess.00.x hgme2-lut 

          ******************************************************
          *         GAMESS VERSION = 20 APR 2017 (R1)          *
          *             FROM IOWA STATE UNIVERSITY             *
          * M.W.SCHMIDT, K.K.BALDRIDGE, J.A.BOATZ, S.T.ELBERT, *
          *   M.S.GORDON, J.H.JENSEN, S.KOSEKI, N.MATSUNAGA,   *
          *          K.A.NGUYEN, S.J.SU, T.L.WINDUS,           *
          *       TOGETHER WITH M.DUPUIS, J.A.MONTGOMERY       *
          *         J.COMPUT.CHEM.  14, 1347-1363(1993)        *
          **************** 64 BIT LINUX VERSION ****************

  SINCE 1993, STUDENTS AND POSTDOCS WORKING AT IOWA STATE UNIVERSITY
  AND ALSO IN THEIR VARIOUS JOBS AFTER LEAVING ISU HAVE MADE IMPORTANT
  CONTRIBUTIONS TO THE CODE:
     IVANA ADAMOVIC, CHRISTINE AIKENS, YURI ALEXEEV, POOJA ARORA,
     ANDREY ASADCHEV, ROB BELL, PRADIPTA BANDYOPADHYAY, JONATHAN BENTZ,
     BRETT BODE, KURT BRORSEN, CALEB CARLIN, GALINA CHABAN, WEI CHEN,
     CHEOL HO CHOI, PAUL DAY, ALBERT DEFUSCO, NUWAN DESILVA, TIM DUDLEY,
     DMITRI FEDOROV, GRAHAM FLETCHER, MARK FREITAG, KURT GLAESEMANN,
     DAN KEMP, GRANT MERRILL, NORIYUKI MINEZAWA, JONATHAN MULLIN,
     TAKESHI NAGATA, SEAN NEDD, HEATHER NETZLOFF, BOSILJKA NJEGIC, RYAN OLSON,
     MIKE PAK, SPENCER PRUITT, LUKE ROSKOP, JIM SHOEMAKER, LYUDMILA SLIPCHENKO,
     TONY SMITH, SAROM SOK LEANG, JIE SONG, TETSUYA TAKETSUGU, SIMON WEBB,
     PENG XU, SOOHAENG YOO, FEDERICO ZAHARIEV

  ADDITIONAL CODE HAS BEEN PROVIDED BY COLLABORATORS IN OTHER GROUPS:
     IOWA STATE UNIVERSITY:
          JOE IVANIC, AARON WEST, LAIMUTIS BYTAUTAS, KLAUS RUEDENBERG
     UNIVERSITY OF TOKYO: KIMIHIKO HIRAO, TAKAHITO NAKAJIMA,
          TAKAO TSUNEDA, MUNEAKI KAMIYA, SUSUMU YANAGISAWA,
          KIYOSHI YAGI, MAHITO CHIBA, SEIKEN TOKURA, NAOAKI KAWAKAMI
     UNIVERSITY OF AARHUS: FRANK JENSEN
     UNIVERSITY OF IOWA: VISVALDAS KAIRYS, HUI LI
     NATIONAL INST. OF STANDARDS AND TECHNOLOGY: WALT STEVENS, DAVID GARMER
     UNIVERSITY OF PISA: BENEDETTA MENNUCCI, JACOPO TOMASI
     UNIVERSITY OF MEMPHIS: HENRY KURTZ, PRAKASHAN KORAMBATH
     UNIVERSITY OF ALBERTA: TOBY ZENG, MARIUSZ KLOBUKOWSKI
     UNIVERSITY OF NEW ENGLAND: MARK SPACKMAN
     MIE UNIVERSITY: HIROAKI UMEDA
     NAT. INST. OF ADVANCED INDUSTRIAL SCIENCE AND TECHNOLOGY: KAZUO KITAURA
     MICHIGAN STATE UNIVERSITY:
          KAROL KOWALSKI, MARTA WLOCH, JEFFREY GOUR, JESSE LUTZ,
          WEI LI, PIOTR PIECUCH
     UNIVERSITY OF SILESIA: MONIKA MUSIAL, STANISLAW KUCHARSKI
     FACULTES UNIVERSITAIRES NOTRE-DAME DE LA PAIX:
          OLIVIER QUINET, BENOIT CHAMPAGNE
     UNIVERSITY OF CALIFORNIA - SANTA BARBARA: BERNARD KIRTMAN
     INSTITUTE FOR MOLECULAR SCIENCE:
          KAZUYA ISHIMURA, MICHIO KATOUDA, AND SHIGERU NAGASE
     UNIVERSITY OF NOTRE DAME: ANNA POMOGAEVA, DAN CHIPMAN
     KYUSHU UNIVERSITY:
          HARUYUKI NAKANO,
          FENG LONG GU, JACEK KORCHOWIEC, MARCIN MAKOWSKI, AND YURIKO AOKI,
          HIROTOSHI MORI AND EISAKU MIYOSHI
     PENNSYLVANIA STATE UNIVERSITY:
          TZVETELIN IORDANOV, CHET SWALINA, JONATHAN SKONE,
          SHARON HAMMES-SCHIFFER
     WASEDA UNIVERSITY:
          MASATO KOBAYASHI, TOMOKO AKAMA, TSUGUKI TOUMA,
          TAKESHI YOSHIKAWA, YASUHIRO IKABATA, JUNJI SEINO,
          YUYA NAKAJIMA, HIROMI NAKAI
     NANJING UNIVERSITY: SHUHUA LI
     UNIVERSITY OF NEBRASKA:
          PEIFENG SU, DEJUN SI, NANDUN THELLAMUREGE, YALI WANG, HUI LI
     UNIVERSITY OF ZURICH: ROBERTO PEVERATI, KIM BALDRIDGE
     N. COPERNICUS UNIVERSITY AND JACKSON STATE UNIVERSITY:
          MARIA BARYSZ
     UNIVERSITY OF COPENHAGEN: Jimmy Kromann, CASPER STEINMANN
     TOKYO INSTITUTE OF TECHNOLOGY: HIROYA NAKATA
     NAGOYA UNIVERSITY: YOSHIO NISHIMOTO, STEPHAN IRLE
     MOSCOW STATE UNIVERSITY: VLADIMIR MIRONOV

 EXECUTION OF GAMESS BEGUN Fri Jun  2 02:36:12 2017

            ECHO OF THE FIRST FEW INPUT CARDS -
 INPUT CARD>!   Hg(CH3)2...local unitary transformation LUT-IOTC gradient                   
 INPUT CARD>!   MP2/SPKrDZC (Sapporo relativistic core/valence basis set)                   
 INPUT CARD>!   The basis has only 144 AOs and 131 MOs and so is undemanding                
 INPUT CARD>!   enough to execute the parallel MP2 program on a single core.                
 INPUT CARD>!   The molecule has a slight preference for an eclipsed D3h over               
 INPUT CARD>!   a staggered D3d conformation, by 23 microhartree at this level.             
 INPUT CARD>!   The molecule is extremely toxic:                                            
 INPUT CARD>!       https://en.wikipedia.org/wiki/Dimethylmercury                           
 INPUT CARD>!   so please use this compound only in a computer.                             
 INPUT CARD>!                                                                               
 INPUT CARD>!   FINAL E= -19701.6305022403, E(MP2)= -19702.3134168050, RMS=0.008793003      
 INPUT CARD>!   (IOTC E= -19701.6305449716,  MP2 E= -19702.3134541917, grd=0.008855468)     
 INPUT CARD>!                                                                               
 INPUT CARD>!   This run take 648 seconds on 2.66 GHz Cloverton ( 4 Aug 2015)               
 INPUT CARD>!   (full IOTC is 678 sconds)                                                   
 INPUT CARD>!   ----------------------------------------------------------------------      
 INPUT CARD>!   If run as a LUT geometry optimization from the non-rel MIDI geometry,       
 INPUT CARD>!       N.ERCH:   0  E=   -19702.3134168050  R.M.S.=  0.0087930                 
 INPUT CARD>!       N.ERCH:   1  E=   -19702.3183362898  R.M.S.=  0.0063879                 
 INPUT CARD>!       N.ERCH:   2  E=   -19702.3227583345  R.M.S.=  0.0031200                 
 INPUT CARD>!       N.ERCH:   3  E=   -19702.3237844799  R.M.S.=  0.0019298                 
 INPUT CARD>!       N.ERCH:   4  E=   -19702.3239237819  R.M.S.=  0.0005665                 
 INPUT CARD>!       N.ERCH:   5  E=   -19702.3239372456  R.M.S.=  0.0000217                 
 INPUT CARD>!       N.ERCH:   6  E=   -19702.3239444987  R.M.S.=  0.0000027  <-- best       
 INPUT CARD>!   If run as a seminumerical hessian at the relativistic MP2 geometries,       
 INPUT CARD>!   the methyl rotational modes are successfully modeled:                       
 INPUT CARD>!   D3h has a1" rotation with real frequency 15.42,  e'= 164.17, a1'=551.07, ...
 INPUT CARD>!   D3d has a1u rotation with imag frequency 13.60i, eu= 164.08, a1g=551.15, ...
 INPUT CARD>!                                                                               
 INPUT CARD> $contrl scftyp=rhf mplevl=2 runtyp=gradient relwfn=LUT-IOTC ispher=1 $end      
 INPUT CARD> $system parall=.true. mwords=10 memddi=50 $end                                 
 INPUT CARD> $mp2    code=ddi $end                                                          
 INPUT CARD> $guess  guess=huckel $end                                                      
 INPUT CARD> $scf    dirscf=.true. $end                                                     
 INPUT CARD> $basis  gbasis=SPKrDZC $end                                                    
 INPUT CARD> $statpt opttol=1d-5 $end                                                       
 INPUT CARD> $data                                                                          
 INPUT CARD>dimethylmercury...below is the non-relativistic RHF/MIDI geometry               
 INPUT CARD>Dnh 3                                                                           
 INPUT CARD>                                                                                
 INPUT CARD>Hg   80.0   0.0000000000   0.0000000000   0.0000000000                          
 INPUT CARD>C     6.0   0.0000000000   0.0000000000   2.2204794254                          
 INPUT CARD>H     1.0  -1.0149689789   0.0000000000   2.6189159752                          
 INPUT CARD> $end                                                                           
 INPUT CARD>                                                                                
 INPUT CARD>D3h geometry by non-relativistic RHF/MIDI                                       
 INPUT CARD>Hg   80.0   0.0000000000   0.0000000000   0.0000000000                          
 INPUT CARD>C     6.0   0.0000000000   0.0000000000   2.2204794254                          
 INPUT CARD>H     1.0  -1.0149689789   0.0000000000   2.6189159752                          
 INPUT CARD>                                                                                
   10000000 WORDS OF MEMORY AVAILABLE

     $BASIS REQUESTS READING THE "SPKRDZC " BASIS SET FROM AN EXTERNAL FILE


     RUN TITLE
     ---------
 dimethylmercury...below is the non-relativistic RHF/MIDI geometry               

 THE POINT GROUP OF THE MOLECULE IS DNH     
 THE ORDER OF THE PRINCIPAL AXIS IS     3

 THE EXTERNAL BASIS SET FILE BEING READ IS
     "/home/sarom/gamess.github.2017-05-31.14.06/auxdata/BASES/SPKRDZC"

 ATOM      ATOMIC                      COORDINATES (BOHR)
           CHARGE         X                   Y                   Z
 HG         80.0     0.0000000000        0.0000000000        0.0000000000
 C           6.0     0.0000000000        0.0000000000       -4.1960976754
 C           6.0     0.0000000000        0.0000000000        4.1960976754
 H           1.0     0.9590066281       -1.6610482046        4.9490335780
 H           1.0     0.9590066281        1.6610482046        4.9490335780
 H           1.0    -1.9180132562        0.0000000000       -4.9490335780
 H           1.0     0.9590066281       -1.6610482046       -4.9490335780
 H           1.0     0.9590066281        1.6610482046       -4.9490335780
 H           1.0    -1.9180132562        0.0000000000        4.9490335780

          INTERNUCLEAR DISTANCES (ANGS.)
          ------------------------------

                1 HG         2 C          3 C          4 H          5 H     

   1 HG      0.0000000    2.2204794 *  2.2204794 *  2.8087155 *  2.8087155 *
   2 C       2.2204794 *  0.0000000    4.4409589    4.9446850    4.9446850  
   3 C       2.2204794 *  4.4409589    0.0000000    1.0903732 *  1.0903732 *
   4 H       2.8087155 *  4.9446850    1.0903732 *  0.0000000    1.7579778 *
   5 H       2.8087155 *  4.9446850    1.0903732 *  1.7579778 *  0.0000000  
   6 H       2.8087155 *  1.0903732 *  4.9446850    5.5249769    5.5249769  
   7 H       2.8087155 *  1.0903732 *  4.9446850    5.2378320    5.5249769  
   8 H       2.8087155 *  1.0903732 *  4.9446850    5.5249769    5.2378320  
   9 H       2.8087155 *  4.9446850    1.0903732 *  1.7579778 *  1.7579778 *

                6 H          7 H          8 H          9 H     

   1 HG      2.8087155 *  2.8087155 *  2.8087155 *  2.8087155 *
   2 C       1.0903732 *  1.0903732 *  1.0903732 *  4.9446850  
   3 C       4.9446850    4.9446850    4.9446850    1.0903732 *
   4 H       5.5249769    5.2378320    5.5249769    1.7579778 *
   5 H       5.5249769    5.5249769    5.2378320    1.7579778 *
   6 H       0.0000000    1.7579778 *  1.7579778 *  5.2378320  
   7 H       1.7579778 *  0.0000000    1.7579778 *  5.5249769  
   8 H       1.7579778 *  1.7579778 *  0.0000000    5.5249769  
   9 H       5.2378320    5.5249769    5.5249769    0.0000000  

  * ... LESS THAN  3.000


     ATOMIC BASIS SET
     ----------------
 THE CONTRACTED PRIMITIVE FUNCTIONS HAVE BEEN UNNORMALIZED
 THE CONTRACTED BASIS FUNCTIONS ARE NOW NORMALIZED TO UNITY

  SHELL TYPE  PRIMITIVE        EXPONENT          CONTRACTION COEFFICIENT(S)

 HG        

      1   S       1      29005298.6169629    0.001246300061
      1   S       2       4482308.7813216    0.004229600207
      1   S       3        887861.6763229    0.011343200555
      1   S       4        207993.8490468    0.027867501363
      1   S       5         55249.6364639    0.065331503196
      1   S       6         16275.4272150    0.146129707150
      1   S       7          5164.0246913    0.295217514444
      1   S       8          1793.6275703    0.414917520300
      1   S       9           661.2245503    0.251716612316

      2   S      10          7607.8395427   -0.015013800342
      2   S      11          1847.8840205   -0.072744501657
      2   S      12           253.5979146    0.492739911222
      2   S      13           106.0658668    0.572071013029

      3   S      14           182.7306844   -0.255652985227
      3   S      15            32.3870227    0.875143449428
      3   S      16            14.6776391    0.268711784472

      4   S      17            31.8332680   -0.362407401892
      4   S      18             7.7167013    0.874962804567
      4   S      19             3.8273491    0.345927901806

      5   S      20             6.5487500   -0.492687891156
      5   S      21             1.5284160    1.276463777087

      6   S      22             0.6317960    1.000000000000

      7   S      23             0.2251230    1.000000000000

      8   S      24             0.0614150    1.000000000000

      9   P      25        477116.9930383    0.000552000029
      9   P      26         69478.5346125    0.002409000128
      9   P      27         15484.3817484    0.009544700509
      9   P      28          4445.0184449    0.035765701908
      9   P      29          1517.9033588    0.118748306334
      9   P      30           587.5777577    0.294192715692
      9   P      31           244.8046492    0.459895124531
      9   P      32           103.4188198    0.273112814568

     10   P      33           475.7691051   -0.017163499225
     10   P      34            74.8674797    0.293722686730
     10   P      35            37.1606344    0.531669675980
     10   P      36            18.0799435    0.249434288731

     11   P      37            12.9104569    0.406572202750
     11   P      38             6.5020956    0.510671303454
     11   P      39             3.1779890    0.145064300981

     12   P      40             2.0588270    1.000000000000

     13   P      41             0.8472790    1.000000000000

     14   P      42             0.2311430    1.000000000000

     15   D      43          4714.6244277    0.001300800007
     15   D      44          1263.3057725    0.010230100055
     15   D      45           457.9656394    0.051869300281
     15   D      46           192.1112349    0.175588900952
     15   D      47            87.4399903    0.368887402000
     15   D      48            41.1139347    0.429142902326
     15   D      49            18.8056181    0.175211500950

     16   D      50            30.4013655    0.119527296207
     16   D      51            13.8471507    0.418277586728
     16   D      52             6.5156688    0.450007385721
     16   D      53             2.9842489    0.160324394913

     17   D      54             2.3533630    1.000000000000

     18   D      55             0.8778400    1.000000000000

     19   D      56             0.2909060    1.000000000000

     20   F      57           319.2589667    0.005114399846
     20   F      58           107.8660512    0.038443398840
     20   F      59            44.3203849    0.144672495635
     20   F      60            19.8176741    0.316599890447
     20   F      61             8.9814342    0.413185187533
     20   F      62             3.9642274    0.312677290566
     20   F      63             1.5676979    0.102684296902

     21   F      64             2.6919130    0.190460114996
     21   F      65             1.1278360    0.595775346910
     21   F      66             0.4152500    0.396021231182

 C         

     30   S      67          2804.4309400    0.002721001118
     30   S      68           421.2028430    0.020759008531
     30   S      69            95.8101610    0.101063041535
     30   S      70            26.9201910    0.334706137557
     30   S      71             8.5644360    0.646913265867

     31   S      72             5.1471340   -0.157243915534
     31   S      73             0.4760360    1.055038433271

     32   S      74             2.8735280    1.000000000000

     33   S      75             0.1497890    1.000000000000

     34   P      76            12.0814000    1.000000000000

     35   P      77             9.4396810    0.056939045291
     35   P      78             2.0004050    0.313326249231
     35   P      79             0.5449160    0.760355604813

     36   P      80             0.1514610    1.000000000000

     37   D      81             1.2514630    0.357204901536
     37   D      82             0.3377940    0.773651703327

 H         

     53   S      83            13.0107003    0.033485498243
     53   S      84             1.9622571    0.234721887684
     53   S      85             0.4445380    0.813770257302

     54   S      86             0.1219496    1.000000000000

     55   P      87             2.8606730    0.128855988588
     55   P      88             0.8881900    0.619748745112
     55   P      89             0.3037760    0.373112866955

 TOTAL NUMBER OF BASIS SET SHELLS             =   55
 NUMBER OF CARTESIAN GAUSSIAN BASIS FUNCTIONS =  144
 NOTE: THIS RUN WILL RESTRICT THE MO VARIATION SPACE TO SPHERICAL HARMONICS.
 THE NUMBER OF ORBITALS KEPT IN THE VARIATIONAL SPACE WILL BE PRINTED LATER.
 NUMBER OF ELECTRONS                          =   98
 CHARGE OF MOLECULE                           =    0
 SPIN MULTIPLICITY                            =    1
 NUMBER OF OCCUPIED ORBITALS (ALPHA)          =   49
 NUMBER OF OCCUPIED ORBITALS (BETA )          =   49
 TOTAL NUMBER OF ATOMS                        =    9
 THE NUCLEAR REPULSION ENERGY IS      347.5162854220

     ---------------------------------
     RELATIVISTIC WAVEFUNCTION OPTIONS
     ---------------------------------
     METHOD=LUT-IOTC NORDER= 2       NESOC=  0      MODEQR=      1
     NRATOM=  0      QMTTOL= 1.000E-10      QRTOL= 1.000E-10
     CLIGHT=137.03598950     TAU= 3.500E+00

 INTERNAL BASIS SET UNCONTRACTION FOR RESC/DK/IOTC/LUT-IOTC:
   140 SHELLS AND    412 AOS ARE CONSTRUCTED, COMPARED TO
    55 SHELLS AND    144 AOS IN THE CONTRACTED BASIS SET


     $CONTRL OPTIONS
     ---------------
 SCFTYP=RHF          RUNTYP=GRADIENT     EXETYP=RUN     
 MPLEVL=       2     CITYP =NONE         CCTYP =NONE         VBTYP =NONE    
 DFTTYP=NONE         TDDFT =NONE    
 MULT  =       1     ICHARG=       0     NZVAR =       0     COORD =UNIQUE  
 PP    =NONE         RELWFN=LUT-IOTC     LOCAL =NONE         NUMGRD=       F
 ISPHER=       1     NOSYM =       0     MAXIT =      30     UNITS =ANGS    
 PLTORB=       F     MOLPLT=       F     AIMPAC=       F     FRIEND=        
 NPRINT=       7     IREST =       0     GEOM  =INPUT   
 NORMF =       0     NORMP =       0     ITOL  =      20     ICUT  =       9
 INTTYP=BEST         GRDTYP=BEST         QMTTOL= 1.0E-06

     $SYSTEM OPTIONS
     ---------------
  REPLICATED MEMORY=    10000000 WORDS (ON EVERY NODE).
 DISTRIBUTED MEMDDI=          50 MILLION WORDS IN AGGREGATE,
 MEMDDI DISTRIBUTED OVER   1 PROCESSORS IS    50000000 WORDS/PROCESSOR.
 TOTAL MEMORY REQUESTED ON EACH PROCESSOR=    60000000 WORDS.
 TIMLIM=      525600.00 MINUTES, OR     365.0 DAYS.
 PARALL= T  BALTYP=  DLB     KDIAG=    0  COREFL= F
 MXSEQ2=     300 MXSEQ3=     150  mem10=         0

          ----------------
          PROPERTIES INPUT
          ----------------

     MOMENTS            FIELD           POTENTIAL          DENSITY
 IEMOM =       1   IEFLD =       0   IEPOT =       0   IEDEN =       0
 WHERE =COMASS     WHERE =NUCLEI     WHERE =NUCLEI     WHERE =NUCLEI  
 OUTPUT=BOTH       OUTPUT=BOTH       OUTPUT=BOTH       OUTPUT=BOTH    
 IEMINT=       0   IEFINT=       0                     IEDINT=       0
                                                       MORB  =       0
          EXTRAPOLATION IN EFFECT
          DIIS IN EFFECT
 ORBITAL PRINTING OPTION: NPREO=     1   144     2     1

     -------------------------------
     INTEGRAL TRANSFORMATION OPTIONS
     -------------------------------
     NWORD  =            0
     CUTOFF = 1.0E-09     MPTRAN =       0
     DIRTRF =       T     AOINTS =DUP     

          ----------------------
          INTEGRAL INPUT OPTIONS
          ----------------------
 NOPK  =       1 NORDER=       0 SCHWRZ=       T

          -----------------------
          MP2 CONTROL INFORMATION
          -----------------------
          NACORE =       36  NBCORE =       36
          LMOMP2 =        F  AOINTS = DUP     
          METHOD =        2  NWORD  =               0
          MP2PRP =        F  OSPT   = NONE    
          CUTOFF = 1.00E-09  CPHFBS = BASISAO 
          CODE   = DDI     

          NUMBER OF CORE -A-  ORBITALS =    36
          NUMBER OF CORE -B-  ORBITALS =    36
          NUMBER OF OCC. -A-  ORBITALS =    49
          NUMBER OF OCC. -B-  ORBITALS =    49
          NUMBER OF MOLECULAR ORBITALS =   144
          NUMBER OF   BASIS  FUNCTIONS =   144


 **** EFFICIENCY NOTE ****
 THE MP2 TRANSFORMATION CANNOT USE SYMMETRY WHEN THE GROUP IS NON-ABELIAN.
 YOU MAY BE ABLE TO SPEED UP THIS RUN BY USING AN ABELIAN SUBGROUP IN $DATA.


     ------------------------------------------
     THE POINT GROUP IS DNH, NAXIS= 3, ORDER=12
     ------------------------------------------

 -- VARIATIONAL SPACE WILL BE RESTRICTED TO PURE SPHERICAL HARMONICS ONLY --
 AFTER EXCLUDING CONTAMINANT COMBINATIONS FROM THE CARTESIAN GAUSSIAN BASIS
 SET, THE NUMBER OF SPHERICAL HARMONICS KEPT IN THE VARIATION SPACE IS  131

     DIMENSIONS OF THE SYMMETRY SUBSPACES ARE
 A1' =   27     A1" =    1     A2' =    3     A2" =   20     E'' =   17
 E'  =   23

 ..... DONE SETTING UP THE RUN .....
 CPU     0: STEP CPU TIME=     0.06 TOTAL CPU TIME=        0.1 (    0.0 MIN)
 TOTAL WALL CLOCK TIME=        0.1 SECONDS, CPU UTILIZATION IS  85.71%

                    --------------------------------
                    SINGLE POINT ENERGY AND GRADIENT
                    --------------------------------

          ********************
          1 ELECTRON INTEGRALS
          ********************
 TIME TO DO ORDINARY INTEGRALS=      0.02

 ======================================================================
      INFINITE-ORDER TWO-COMPONENT (IOTC) ONE-ELECTRON HAMILTONIAN
      WITH LOCAL UNITARY TRANSFORMATION (LUT) SCHEME
                                            CODED BY YUYA NAKAJIMA
             J. SEINO, H. NAKAI, J. CHEM. PHYS. 136, 244102 (2012)
             J. SEINO, H. NAKAI, J. CHEM. PHYS. 137, 144101 (2012)
             J. SEINO, H. NAKAI, J. CHEM. PHYS. 139, 034109 (2013)
        J. SEINO, H. NAKAI, INT. J. QUANTUM. CHEM. 115, 253 (2015)
 ======================================================================

 LUT-IOTC TRANSFORMATION FOR ATOM:    1
 THE SMALLEST EIGENVALUE OF THE OVERLAP MATRIX IS   4.18E-16
 THERE ARE     2 OVERLAP MATRIX EIGENVALUES LESS THAN   1.00E-10
 THE NUMBER OF LINEARLY INDEPENDENT ORBITALS KEPT IS   260

 LUT-IOTC TRANSFORMATION FOR ATOM:    2
 LUT-IOTC TRANSFORMATION FOR ATOM:    3
 LUT-IOTC TRANSFORMATION FOR ATOM:    4
 LUT-IOTC TRANSFORMATION FOR ATOM:    5
 LUT-IOTC TRANSFORMATION FOR ATOM:    6
 LUT-IOTC TRANSFORMATION FOR ATOM:    7
 LUT-IOTC TRANSFORMATION FOR ATOM:    8
 LUT-IOTC TRANSFORMATION FOR ATOM:    9

     -------------------------------------
     LUT-IOTC TRANSFORMATION FOR ATOM-PAIR
     -------------------------------------

                1 HG         2 C          3 C          4 H          5 H     

   1 HG      0.0000000    2.2204794 *  2.2204794 *  2.8087155 *  2.8087155 *
   2 C       2.2204794 *  0.0000000    4.4409589    4.9446850    4.9446850  
   3 C       2.2204794 *  4.4409589    0.0000000    1.0903732 *  1.0903732 *
   4 H       2.8087155 *  4.9446850    1.0903732 *  0.0000000    1.7579778 *
   5 H       2.8087155 *  4.9446850    1.0903732 *  1.7579778 *  0.0000000  
   6 H       2.8087155 *  1.0903732 *  4.9446850    5.5249769    5.5249769  
   7 H       2.8087155 *  1.0903732 *  4.9446850    5.2378320    5.5249769  
   8 H       2.8087155 *  1.0903732 *  4.9446850    5.5249769    5.2378320  
   9 H       2.8087155 *  4.9446850    1.0903732 *  1.7579778 *  1.7579778 *

                6 H          7 H          8 H          9 H     

   1 HG      2.8087155 *  2.8087155 *  2.8087155 *  2.8087155 *
   2 C       1.0903732 *  1.0903732 *  1.0903732 *  4.9446850  
   3 C       4.9446850    4.9446850    4.9446850    1.0903732 *
   4 H       5.5249769    5.2378320    5.5249769    1.7579778 *
   5 H       5.5249769    5.5249769    5.2378320    1.7579778 *
   6 H       0.0000000    1.7579778 *  1.7579778 *  5.2378320  
   7 H       1.7579778 *  0.0000000    1.7579778 *  5.5249769  
   8 H       1.7579778 *  1.7579778 *  0.0000000    5.5249769  
   9 H       5.2378320    5.5249769    5.5249769    0.0000000  

  * ... TRANSFORMED ATOM PAIR (LESS THAN   3.500 ANGS.)

 TIME TO DO  RELATIVISTIC INTS=      3.13
 ...... END OF ONE-ELECTRON INTEGRALS ......
 CPU     0: STEP CPU TIME=     3.15 TOTAL CPU TIME=        3.2 (    0.1 MIN)
 TOTAL WALL CLOCK TIME=        3.2 SECONDS, CPU UTILIZATION IS  99.38%

          -------------
          GUESS OPTIONS
          -------------
          GUESS =HUCKEL            NORB  =       0          NORDER=       0
          MIX   =       F          PRTMO =       F          PUNMO =       F
          TOLZ  = 1.0E-08          TOLE  = 1.0E-05
          SYMDEN=       F          PURIFY=       F

 INITIAL GUESS ORBITALS GENERATED BY HUCKEL   ROUTINE.
 HUCKEL GUESS REQUIRES    174069 WORDS.

 STATISTICS FOR GENERATION OF SYMMETRY ORBITAL -Q- MATRIX
 NUMBER OF CARTESIAN ATOMIC ORBITALS=        144
 NUMBER OF SPHERICAL CONTAMINANTS DROPPED=    13
 NUMBER OF LINEARLY DEPENDENT MOS DROPPED=     0
 TOTAL NUMBER OF MOS IN VARIATION SPACE=     131

 SYMMETRIES FOR INITIAL GUESS ORBITALS FOLLOW.   BOTH SET(S).
    49 ORBITALS ARE OCCUPIED (   36 CORE ORBITALS).
    37=?A1'    38=?A2"    39=?E''    40=E''     41=?E'     42=?E'     43=?A1'
    44=?E'     45=?E'     46=?E''    47=?E''    48=?A1'    49=A2"     50=?A1'
    51=?E'     52=?E'     53=E''     54=E''     55=?A1'    56=?A1'    57=?A1'
    58=?A1'    59=?A1'
 ...... END OF INITIAL ORBITAL SELECTION ......
 CPU     0: STEP CPU TIME=     0.04 TOTAL CPU TIME=        3.3 (    0.1 MIN)
 TOTAL WALL CLOCK TIME=        3.3 SECONDS, CPU UTILIZATION IS  99.39%

                    ----------------------
                    AO INTEGRAL TECHNOLOGY
                    ----------------------
     S,P,L SHELL ROTATED AXIS INTEGRALS, REPROGRAMMED BY
        KAZUYA ISHIMURA (IMS) AND JOSE SIERRA (SYNSTAR).
     S,P,D,L SHELL ROTATED AXIS INTEGRALS PROGRAMMED BY
        KAZUYA ISHIMURA (INSTITUTE FOR MOLECULAR SCIENCE).
     S,P,D,F,G SHELL TO TOTAL QUARTET ANGULAR MOMENTUM SUM 5,
        ERIC PROGRAM BY GRAHAM FLETCHER (ELORET AND NASA ADVANCED
        SUPERCOMPUTING DIVISION, AMES RESEARCH CENTER).
     S,P,D,F,G,L SHELL GENERAL RYS QUADRATURE PROGRAMMED BY
        MICHEL DUPUIS (PACIFIC NORTHWEST NATIONAL LABORATORY).

          --------------------
          2 ELECTRON INTEGRALS
          --------------------

 DIRECT SCF METHOD SKIPS INTEGRAL STORAGE ON DISK.
 DIRECT TRANSFORMATION SKIPS AO INTEGRAL STORAGE ON DISK.
  ...... END OF TWO-ELECTRON INTEGRALS .....
 CPU     0: STEP CPU TIME=     0.01 TOTAL CPU TIME=        3.3 (    0.1 MIN)
 TOTAL WALL CLOCK TIME=        3.3 SECONDS, CPU UTILIZATION IS  99.39%

          --------------------------
                 RHF SCF CALCULATION
          --------------------------

     NUCLEAR ENERGY =       347.5162854220
     MAXIT =   30     NPUNCH=    2
     EXTRAP=T  DAMP=F  SHIFT=F  RSTRCT=F  DIIS=T  DEM=F  SOSCF=F
     DENSITY MATRIX CONV=  2.00E-06
     MEMORY REQUIRED FOR RHF ITERS=    205013 WORDS.

 DIRECT SCF CALCULATION, SCHWRZ=T   FDIFF=T,  DIRTHR=  0.00E+00 NITDIR=10
 SCHWARZ INEQUALITY OVERHEAD:     10179 INTEGRALS, T=        0.16

                                                                                   NONZERO     BLOCKS
 ITER EX DEM     TOTAL ENERGY        E CHANGE  DENSITY CHANGE    DIIS ERROR      INTEGRALS    SKIPPED
   1  0  0   -19695.7004755642-19695.7004755642   1.977471618  31.809895518        4660398      58253
          * * *   INITIATING DIIS PROCEDURE   * * *
   2  1  0   -19701.4891071022    -5.7886315380   0.101703994   0.282028793        4660056      58946
   3  2  0   -19701.5702350984    -0.0811279963   0.129910531   0.159287590        4637956      64249
   4  3  0   -19701.6284882470    -0.0582531485   0.031420799   0.011027462        4616002      66964
   5  4  0   -19701.6302855365    -0.0017972896   0.013899141   0.003517747        4581842      69740
   6  5  0   -19701.6304804387    -0.0001949022   0.004925234   0.001136013        4529112      74195
   7  6  0   -19701.6305069946    -0.0000265560   0.001538349   0.000237478        4467783      78015
   8  7  0   -19701.6305084457    -0.0000014511   0.000405425   0.000066430        4365099      84869
   9  8  0   -19701.6305085227    -0.0000000770   0.000085391   0.000009017        4220253      93080
  10  9  0   -19701.6305085240    -0.0000000013   0.000002479   0.000001338        3967773     106338
  11 10  0   -19701.6305085241    -0.0000000001   0.000000432   0.000000306        3437007     132879

          -----------------
          DENSITY CONVERGED
          -----------------
     TIME TO FORM FOCK OPERATORS=      61.4 SECONDS (       5.6 SEC/ITER)
     FOCK TIME ON FIRST ITERATION=       5.9, LAST ITERATION=       4.7
     TIME TO SOLVE SCF EQUATIONS=       0.2 SECONDS (       0.0 SEC/ITER)

 FINAL RHF ENERGY IS   -19701.6305085241 AFTER  11 ITERATIONS

          ------------
          EIGENVECTORS
          ------------

                      1          2          3          4          5
                -3071.6469  -550.0423  -476.1950  -476.1950  -476.1937
                     A1'        A1'        E'         E'         A2" 
    1  HG 1  S    0.995138  -0.405366   0.000000   0.000000  -0.000000
    2  HG 1  S    0.013158   1.059532   0.000000   0.000000  -0.000000
    3  HG 1  S   -0.002626   0.033835   0.000000   0.000000  -0.000000
    4  HG 1  S    0.001038  -0.006456   0.000000   0.000000  -0.000000
    5  HG 1  S   -0.000985   0.004527   0.000000   0.000000  -0.000000
    6  HG 1  S    0.000972  -0.004266   0.000000   0.000000  -0.000000
    7  HG 1  S   -0.000455   0.001972   0.000000   0.000000  -0.000000
    8  HG 1  S    0.000052  -0.000216   0.000000   0.000000  -0.000000
    9  HG 1  X   -0.000000  -0.000000   0.989353   0.000000  -0.000000
   10  HG 1  Y   -0.000000  -0.000000   0.000000   0.989353  -0.000000
   11  HG 1  Z   -0.000000  -0.000000   0.000000   0.000000   0.989351
   12  HG 1  X   -0.000000  -0.000000   0.023504   0.000000  -0.000000
   13  HG 1  Y   -0.000000  -0.000000   0.000000   0.023504  -0.000000
   14  HG 1  Z   -0.000000  -0.000000   0.000000   0.000000   0.023513
   15  HG 1  X   -0.000000  -0.000000  -0.004474   0.000000  -0.000000
   16  HG 1  Y   -0.000000  -0.000000   0.000000  -0.004474  -0.000000
   17  HG 1  Z   -0.000000  -0.000000   0.000000   0.000000  -0.004509
   18  HG 1  X   -0.000000  -0.000000   0.002249   0.000000  -0.000000
   19  HG 1  Y   -0.000000  -0.000000   0.000000   0.002249  -0.000000
   20  HG 1  Z   -0.000000  -0.000000   0.000000   0.000000   0.002358
   21  HG 1  X   -0.000000  -0.000000  -0.001058   0.000000  -0.000000
   22  HG 1  Y   -0.000000  -0.000000   0.000000  -0.001058  -0.000000
   23  HG 1  Z   -0.000000  -0.000000   0.000000   0.000000  -0.001249
   24  HG 1  X   -0.000000  -0.000000   0.000282   0.000000  -0.000000
   25  HG 1  Y   -0.000000  -0.000000   0.000000   0.000282  -0.000000
   26  HG 1  Z   -0.000000  -0.000000   0.000000   0.000000   0.000621
   27  HG 1 XX    0.000001  -0.000001   0.000000   0.000000  -0.000000
   28  HG 1 YY    0.000001  -0.000001  -0.000000   0.000000  -0.000000
   29  HG 1 ZZ   -0.000001   0.000002   0.000000   0.000000  -0.000000
   30  HG 1 XY   -0.000000  -0.000000   0.000000  -0.000000  -0.000000
   31  HG 1 XZ   -0.000000  -0.000000   0.000000   0.000000  -0.000000
   32  HG 1 YZ   -0.000000  -0.000000   0.000000   0.000000  -0.000000
   33  HG 1 XX   -0.000002   0.000009  -0.000000   0.000000  -0.000000
   34  HG 1 YY   -0.000002   0.000009   0.000000   0.000000  -0.000000
   35  HG 1 ZZ    0.000004  -0.000017   0.000000   0.000000  -0.000000
   36  HG 1 XY   -0.000000  -0.000000   0.000000   0.000000  -0.000000
   37  HG 1 XZ   -0.000000  -0.000000   0.000000   0.000000  -0.000000
   38  HG 1 YZ   -0.000000  -0.000000   0.000000   0.000000  -0.000000
   39  HG 1 XX    0.000007  -0.000030   0.000000   0.000000  -0.000000
   40  HG 1 YY    0.000007  -0.000030  -0.000000   0.000000  -0.000000
   41  HG 1 ZZ   -0.000014   0.000061   0.000000   0.000000  -0.000000
   42  HG 1 XY   -0.000000  -0.000000   0.000000  -0.000000  -0.000000
   43  HG 1 XZ   -0.000000  -0.000000   0.000000   0.000000  -0.000000
   44  HG 1 YZ   -0.000000  -0.000000   0.000000   0.000000  -0.000000
   45  HG 1 XX   -0.000016   0.000069  -0.000001   0.000000  -0.000000
   46  HG 1 YY   -0.000016   0.000069   0.000001   0.000000  -0.000000
   47  HG 1 ZZ    0.000032  -0.000138   0.000000   0.000000  -0.000000
   48  HG 1 XY   -0.000000  -0.000000   0.000000   0.000001  -0.000000
   49  HG 1 XZ   -0.000000  -0.000000   0.000000   0.000000  -0.000000
   50  HG 1 YZ   -0.000000  -0.000000   0.000000   0.000000  -0.000000
   51  HG 1 XX    0.000035  -0.000152   0.000001   0.000000  -0.000000
   52  HG 1 YY    0.000035  -0.000152  -0.000001   0.000000  -0.000000
   53  HG 1 ZZ   -0.000070   0.000305   0.000000   0.000000  -0.000000
   54  HG 1 XY   -0.000000  -0.000000   0.000000  -0.000001  -0.000000
   55  HG 1 XZ   -0.000000  -0.000000   0.000000   0.000000  -0.000000
   56  HG 1 YZ   -0.000000  -0.000000   0.000000   0.000000  -0.000000
   57  HG 1 XXX   0.000000  -0.000000   0.000002   0.000000  -0.000000
   58  HG 1 YYY  -0.000000  -0.000000   0.000000   0.000002  -0.000000
   59  HG 1 ZZZ  -0.000000  -0.000000   0.000000   0.000000  -0.000011
   60  HG 1 XXY  -0.000000  -0.000000   0.000000   0.000001  -0.000000
   61  HG 1 XXZ  -0.000000  -0.000000   0.000000   0.000000   0.000007
   62  HG 1 YYX  -0.000000   0.000000   0.000001   0.000000  -0.000000
   63  HG 1 YYZ  -0.000000  -0.000000   0.000000   0.000000   0.000007
   64  HG 1 ZZX  -0.000000  -0.000000  -0.000004   0.000000  -0.000000
   65  HG 1 ZZY  -0.000000  -0.000000   0.000000  -0.000004  -0.000000
   66  HG 1 XYZ  -0.000000  -0.000000   0.000000   0.000000  -0.000000
   67  HG 1 XXX  -0.000000   0.000000  -0.000007   0.000000  -0.000000
   68  HG 1 YYY  -0.000000  -0.000000   0.000000  -0.000007  -0.000000
   69  HG 1 ZZZ  -0.000000  -0.000000   0.000000   0.000000   0.000036
   70  HG 1 XXY  -0.000000  -0.000000   0.000000  -0.000003  -0.000000
   71  HG 1 XXZ  -0.000000  -0.000000   0.000000   0.000000  -0.000024
   72  HG 1 YYX   0.000000  -0.000000  -0.000003   0.000000  -0.000000
   73  HG 1 YYZ  -0.000000  -0.000000   0.000000   0.000000  -0.000024
   74  HG 1 ZZX  -0.000000  -0.000000   0.000012   0.000000  -0.000000
   75  HG 1 ZZY  -0.000000  -0.000000   0.000000   0.000012  -0.000000
   76  HG 1 XYZ  -0.000000  -0.000000   0.000000   0.000000  -0.000000
   77  C  2  S   -0.000001   0.000005   0.000000   0.000000  -0.000004
   78  C  2  S   -0.000021   0.000093   0.000000   0.000000  -0.000061
   79  C  2  S   -0.000002   0.000009   0.000000   0.000000  -0.000004
   80  C  2  S    0.000077  -0.000331   0.000000   0.000000   0.000199
   81  C  2  X   -0.000000  -0.000000  -0.000001   0.000000  -0.000000
   82  C  2  Y   -0.000000  -0.000000   0.000000  -0.000001  -0.000000
   83  C  2  Z   -0.000002   0.000007   0.000000   0.000000  -0.000003
   84  C  2  X   -0.000000  -0.000000   0.000007   0.000000  -0.000000
   85  C  2  Y   -0.000000  -0.000000   0.000000   0.000007  -0.000000
   86  C  2  Z    0.000006  -0.000026   0.000000   0.000000   0.000010
   87  C  2  X   -0.000000  -0.000000  -0.000078   0.000000  -0.000000
   88  C  2  Y   -0.000000  -0.000000   0.000000  -0.000078  -0.000000
   89  C  2  Z    0.000052  -0.000233   0.000000   0.000000   0.000175
   90  C  2 XX   -0.000012   0.000054   0.000009   0.000000  -0.000027
   91  C  2 YY   -0.000012   0.000054  -0.000009   0.000000  -0.000027
   92  C  2 ZZ    0.000025  -0.000108   0.000000   0.000000   0.000053
   93  C  2 XY   -0.000000  -0.000000   0.000000  -0.000010  -0.000000
   94  C  2 XZ   -0.000000  -0.000000  -0.000011   0.000000  -0.000000
   95  C  2 YZ   -0.000000  -0.000000   0.000000  -0.000011  -0.000000
   96  C  3  S   -0.000001   0.000005   0.000000   0.000000   0.000004
   97  C  3  S   -0.000021   0.000093   0.000000   0.000000   0.000061
   98  C  3  S   -0.000002   0.000009   0.000000   0.000000   0.000004
   99  C  3  S    0.000077  -0.000331   0.000000   0.000000  -0.000199
  100  C  3  X   -0.000000  -0.000000  -0.000001   0.000000  -0.000000
  101  C  3  Y   -0.000000  -0.000000   0.000000  -0.000001  -0.000000
  102  C  3  Z    0.000002  -0.000007   0.000000   0.000000  -0.000003
  103  C  3  X   -0.000000  -0.000000   0.000007   0.000000  -0.000000
  104  C  3  Y   -0.000000  -0.000000   0.000000   0.000007  -0.000000
  105  C  3  Z   -0.000006   0.000026   0.000000   0.000000   0.000010
  106  C  3  X   -0.000000  -0.000000  -0.000078   0.000000  -0.000000
  107  C  3  Y   -0.000000  -0.000000   0.000000  -0.000078  -0.000000
  108  C  3  Z   -0.000052   0.000233   0.000000   0.000000   0.000175
  109  C  3 XX   -0.000012   0.000054   0.000009   0.000000   0.000027
  110  C  3 YY   -0.000012   0.000054  -0.000009   0.000000   0.000027
  111  C  3 ZZ    0.000025  -0.000108   0.000000   0.000000  -0.000053
  112  C  3 XY   -0.000000  -0.000000   0.000000  -0.000010  -0.000000
  113  C  3 XZ   -0.000000  -0.000000   0.000011   0.000000  -0.000000
  114  C  3 YZ   -0.000000  -0.000000   0.000000   0.000011  -0.000000
  115  H  4  S   -0.000001   0.000005   0.000011  -0.000018   0.000008
  116  H  4  S   -0.000009   0.000035   0.000015  -0.000026  -0.000003
  117  H  4  X   -0.000001   0.000003   0.000007   0.000003   0.000003
  118  H  4  Y    0.000001  -0.000006   0.000003   0.000004  -0.000006
  119  H  4  Z    0.000006  -0.000025  -0.000003   0.000005  -0.000015
  120  H  5  S   -0.000001   0.000005   0.000011   0.000018   0.000008
  121  H  5  S   -0.000009   0.000035   0.000015   0.000026  -0.000003
  122  H  5  X   -0.000001   0.000003   0.000007  -0.000003   0.000003
  123  H  5  Y   -0.000001   0.000006  -0.000003   0.000004   0.000006
  124  H  5  Z    0.000006  -0.000025  -0.000003  -0.000005  -0.000015
  125  H  6  S   -0.000001   0.000005  -0.000021   0.000000  -0.000008
  126  H  6  S   -0.000009   0.000035  -0.000031   0.000000   0.000003
  127  H  6  X    0.000001  -0.000006   0.000002   0.000000   0.000007
  128  H  6  Y   -0.000000  -0.000000   0.000000   0.000009  -0.000000
  129  H  6  Z   -0.000006   0.000025  -0.000006   0.000000  -0.000015
  130  H  7  S   -0.000001   0.000005   0.000011  -0.000018  -0.000008
  131  H  7  S   -0.000009   0.000035   0.000015  -0.000026   0.000003
  132  H  7  X   -0.000001   0.000003   0.000007   0.000003  -0.000003
  133  H  7  Y    0.000001  -0.000006   0.000003   0.000004   0.000006
  134  H  7  Z   -0.000006   0.000025   0.000003  -0.000005  -0.000015
  135  H  8  S   -0.000001   0.000005   0.000011   0.000018  -0.000008
  136  H  8  S   -0.000009   0.000035   0.000015   0.000026   0.000003
  137  H  8  X   -0.000001   0.000003   0.000007  -0.000003  -0.000003
  138  H  8  Y   -0.000001   0.000006  -0.000003   0.000004  -0.000006
  139  H  8  Z   -0.000006   0.000025   0.000003   0.000005  -0.000015
  140  H  9  S   -0.000001   0.000005  -0.000021   0.000000   0.000008
  141  H  9  S   -0.000009   0.000035  -0.000031   0.000000  -0.000003
  142  H  9  X    0.000001  -0.000006   0.000002   0.000000  -0.000007
  143  H  9  Y   -0.000000  -0.000000   0.000000   0.000009  -0.000000
  144  H  9  Z    0.000006  -0.000025   0.000006   0.000000  -0.000015

                      6          7          8          9         10
                 -133.1169  -111.3619  -111.3619  -111.3584   -87.4253
                     A1'        E'         E'         A2"        E'  
    1  HG 1  S    0.192757  -0.000000  -0.000000   0.000000   0.000000
    2  HG 1  S   -0.627529  -0.000000  -0.000000   0.000000   0.000000
    3  HG 1  S    1.144972  -0.000000  -0.000000   0.000000   0.000000
    4  HG 1  S    0.000700  -0.000000  -0.000000   0.000000   0.000000
    5  HG 1  S    0.000887  -0.000000  -0.000000   0.000000   0.000000
    6  HG 1  S   -0.000835  -0.000000  -0.000000   0.000000   0.000000
    7  HG 1  S    0.000359  -0.000000  -0.000000   0.000000   0.000000
    8  HG 1  S   -0.000035  -0.000000  -0.000000   0.000000   0.000000
    9  HG 1  X    0.000000  -0.539417  -0.000000   0.000000   0.000000
   10  HG 1  Y    0.000000  -0.000000  -0.539417   0.000000   0.000000
   11  HG 1  Z    0.000000  -0.000000  -0.000000  -0.539419   0.000000
   12  HG 1  X    0.000000   1.118026  -0.000000   0.000000  -0.000000
   13  HG 1  Y    0.000000  -0.000000   1.118026   0.000000   0.000000
   14  HG 1  Z    0.000000  -0.000000  -0.000000   1.118042   0.000000
   15  HG 1  X    0.000000   0.016556  -0.000000   0.000000   0.000000
   16  HG 1  Y    0.000000  -0.000000   0.016556   0.000000   0.000000
   17  HG 1  Z    0.000000  -0.000000  -0.000000   0.016532   0.000000
   18  HG 1  X    0.000000  -0.001800  -0.000000   0.000000  -0.000000
   19  HG 1  Y    0.000000  -0.000000  -0.001800   0.000000   0.000000
   20  HG 1  Z    0.000000  -0.000000  -0.000000  -0.001804   0.000000
   21  HG 1  X    0.000000   0.000241  -0.000000   0.000000  -0.000000
   22  HG 1  Y    0.000000  -0.000000   0.000241   0.000000   0.000000
   23  HG 1  Z    0.000000  -0.000000  -0.000000   0.000253   0.000000
   24  HG 1  X    0.000000  -0.000043  -0.000000   0.000000   0.000000
   25  HG 1  Y    0.000000  -0.000000  -0.000043   0.000000   0.000000
   26  HG 1  Z    0.000000  -0.000000  -0.000000  -0.000066   0.000000
   27  HG 1 XX    0.000016  -0.000000  -0.000000   0.000000   0.860183
   28  HG 1 YY    0.000016   0.000000  -0.000000   0.000000  -0.860183
   29  HG 1 ZZ   -0.000032  -0.000000  -0.000000   0.000000   0.000000
   30  HG 1 XY    0.000000  -0.000000   0.000000   0.000000   0.000000
   31  HG 1 XZ    0.000000  -0.000000  -0.000000   0.000000   0.000000
   32  HG 1 YZ    0.000000  -0.000000  -0.000000   0.000000   0.000000
   33  HG 1 XX    0.000013   0.000000  -0.000000   0.000000   0.012630
   34  HG 1 YY    0.000013  -0.000000  -0.000000   0.000000  -0.012630
   35  HG 1 ZZ   -0.000026  -0.000000  -0.000000   0.000000   0.000000
   36  HG 1 XY    0.000000  -0.000000  -0.000000   0.000000   0.000000
   37  HG 1 XZ    0.000000  -0.000000  -0.000000   0.000000   0.000000
   38  HG 1 YZ    0.000000  -0.000000  -0.000000   0.000000   0.000000
   39  HG 1 XX   -0.000011  -0.000000  -0.000000   0.000000  -0.001348
   40  HG 1 YY   -0.000011   0.000000  -0.000000   0.000000   0.001348
   41  HG 1 ZZ    0.000022  -0.000000  -0.000000   0.000000   0.000000
   42  HG 1 XY    0.000000  -0.000000   0.000000   0.000000   0.000000
   43  HG 1 XZ    0.000000  -0.000000  -0.000000   0.000000   0.000000
   44  HG 1 YZ    0.000000  -0.000000  -0.000000   0.000000   0.000000
   45  HG 1 XX    0.000015   0.000000  -0.000000   0.000000  -0.000016
   46  HG 1 YY    0.000015  -0.000000  -0.000000   0.000000   0.000016
   47  HG 1 ZZ   -0.000030  -0.000000  -0.000000   0.000000   0.000000
   48  HG 1 XY    0.000000  -0.000000  -0.000000   0.000000   0.000000
   49  HG 1 XZ    0.000000  -0.000000  -0.000000   0.000000   0.000000
   50  HG 1 YZ    0.000000  -0.000000  -0.000000   0.000000   0.000000
   51  HG 1 XX   -0.000030  -0.000000  -0.000000   0.000000   0.000029
   52  HG 1 YY   -0.000030   0.000000  -0.000000   0.000000  -0.000029
   53  HG 1 ZZ    0.000060  -0.000000  -0.000000   0.000000   0.000000
   54  HG 1 XY    0.000000  -0.000000   0.000000   0.000000   0.000000
   55  HG 1 XZ    0.000000  -0.000000  -0.000000   0.000000   0.000000
   56  HG 1 YZ    0.000000  -0.000000  -0.000000   0.000000   0.000000
   57  HG 1 XXX   0.000000   0.000009  -0.000000   0.000000   0.000000
   58  HG 1 YYY   0.000000  -0.000000   0.000009   0.000000   0.000000
   59  HG 1 ZZZ   0.000000  -0.000000  -0.000000  -0.000018   0.000000
   60  HG 1 XXY   0.000000  -0.000000   0.000004   0.000000   0.000000
   61  HG 1 XXZ   0.000000  -0.000000  -0.000000   0.000012   0.000000
   62  HG 1 YYX  -0.000000   0.000004  -0.000000   0.000000   0.000000
   63  HG 1 YYZ   0.000000  -0.000000  -0.000000   0.000012   0.000000
   64  HG 1 ZZX   0.000000  -0.000017  -0.000000   0.000000  -0.000000
   65  HG 1 ZZY   0.000000  -0.000000  -0.000017   0.000000   0.000000
   66  HG 1 XYZ   0.000000  -0.000000  -0.000000   0.000000   0.000000
   67  HG 1 XXX   0.000000  -0.000001  -0.000000   0.000000  -0.000000
   68  HG 1 YYY   0.000000  -0.000000  -0.000001   0.000000   0.000000
   69  HG 1 ZZZ   0.000000  -0.000000  -0.000000   0.000004   0.000000
   70  HG 1 XXY   0.000000  -0.000000  -0.000000   0.000000   0.000000
   71  HG 1 XXZ   0.000000  -0.000000  -0.000000  -0.000002   0.000000
   72  HG 1 YYX  -0.000000  -0.000000  -0.000000   0.000000  -0.000000
   73  HG 1 YYZ   0.000000  -0.000000  -0.000000  -0.000002   0.000000
   74  HG 1 ZZX   0.000000   0.000001  -0.000000   0.000000   0.000000
   75  HG 1 ZZY   0.000000  -0.000000   0.000001   0.000000   0.000000
   76  HG 1 XYZ   0.000000  -0.000000  -0.000000   0.000000   0.000000
   77  C  2  S    0.000001  -0.000000  -0.000000   0.000000   0.000000
   78  C  2  S    0.000017  -0.000000  -0.000000   0.000004   0.000000
   79  C  2  S    0.000002  -0.000000  -0.000000   0.000000   0.000000
   80  C  2  S   -0.000059  -0.000000  -0.000000  -0.000017   0.000000
   81  C  2  X    0.000000   0.000000  -0.000000   0.000000  -0.000000
   82  C  2  Y    0.000000  -0.000000   0.000000   0.000000   0.000000
   83  C  2  Z    0.000001  -0.000000  -0.000000   0.000000   0.000000
   84  C  2  X    0.000000  -0.000001  -0.000000   0.000000   0.000000
   85  C  2  Y    0.000000  -0.000000  -0.000001   0.000000   0.000000
   86  C  2  Z   -0.000004  -0.000000  -0.000000  -0.000001   0.000000
   87  C  2  X    0.000000   0.000008  -0.000000   0.000000  -0.000003
   88  C  2  Y    0.000000  -0.000000   0.000008   0.000000   0.000000
   89  C  2  Z   -0.000046  -0.000000  -0.000000  -0.000014   0.000000
   90  C  2 XX    0.000010  -0.000001  -0.000000   0.000001  -0.000002
   91  C  2 YY    0.000010   0.000001  -0.000000   0.000001   0.000002
   92  C  2 ZZ   -0.000020  -0.000000  -0.000000  -0.000002   0.000000
   93  C  2 XY    0.000000  -0.000000   0.000001   0.000000   0.000000
   94  C  2 XZ    0.000000   0.000001  -0.000000   0.000000   0.000000
   95  C  2 YZ    0.000000  -0.000000   0.000001   0.000000   0.000000
   96  C  3  S    0.000001  -0.000000  -0.000000  -0.000000   0.000000
   97  C  3  S    0.000017  -0.000000  -0.000000  -0.000004   0.000000
   98  C  3  S    0.000002  -0.000000  -0.000000  -0.000000   0.000000
   99  C  3  S   -0.000059  -0.000000  -0.000000   0.000017   0.000000
  100  C  3  X    0.000000   0.000000  -0.000000   0.000000  -0.000000
  101  C  3  Y    0.000000  -0.000000   0.000000   0.000000   0.000000
  102  C  3  Z   -0.000001  -0.000000  -0.000000   0.000000   0.000000
  103  C  3  X    0.000000  -0.000001  -0.000000   0.000000   0.000000
  104  C  3  Y    0.000000  -0.000000  -0.000001   0.000000   0.000000
  105  C  3  Z    0.000004  -0.000000  -0.000000  -0.000001   0.000000
  106  C  3  X    0.000000   0.000008  -0.000000   0.000000  -0.000003
  107  C  3  Y    0.000000  -0.000000   0.000008   0.000000   0.000000
  108  C  3  Z    0.000046  -0.000000  -0.000000  -0.000014   0.000000
  109  C  3 XX    0.000010  -0.000001  -0.000000  -0.000001  -0.000002
  110  C  3 YY    0.000010   0.000001  -0.000000  -0.000001   0.000002
  111  C  3 ZZ   -0.000020  -0.000000  -0.000000   0.000002   0.000000
  112  C  3 XY    0.000000  -0.000000   0.000001   0.000000   0.000000
  113  C  3 XZ    0.000000  -0.000001  -0.000000   0.000000  -0.000000
  114  C  3 YZ    0.000000  -0.000000  -0.000001   0.000000   0.000000
  115  H  4  S    0.000001  -0.000001   0.000002  -0.000001  -0.000000
  116  H  4  S    0.000005  -0.000001   0.000002   0.000001   0.000002
  117  H  4  X    0.000001  -0.000001  -0.000000  -0.000000   0.000001
  118  H  4  Y   -0.000001  -0.000000  -0.000000   0.000000   0.000000
  119  H  4  Z   -0.000005   0.000000  -0.000000   0.000002  -0.000000
  120  H  5  S    0.000001  -0.000001  -0.000002  -0.000001  -0.000000
  121  H  5  S    0.000005  -0.000001  -0.000002   0.000001   0.000002
  122  H  5  X    0.000001  -0.000001   0.000000  -0.000000   0.000001
  123  H  5  Y    0.000001   0.000000  -0.000000  -0.000000  -0.000000
  124  H  5  Z   -0.000005   0.000000   0.000000   0.000002  -0.000000
  125  H  6  S    0.000001   0.000002  -0.000000   0.000001   0.000001
  126  H  6  S    0.000005   0.000003  -0.000000  -0.000001  -0.000003
  127  H  6  X   -0.000001  -0.000000  -0.000000  -0.000000  -0.000000
  128  H  6  Y    0.000000  -0.000000  -0.000001   0.000000   0.000000
  129  H  6  Z    0.000005   0.000000  -0.000000   0.000002  -0.000000
  130  H  7  S    0.000001  -0.000001   0.000002   0.000001  -0.000000
  131  H  7  S    0.000005  -0.000001   0.000002  -0.000001   0.000002
  132  H  7  X    0.000001  -0.000001  -0.000000   0.000000   0.000001
  133  H  7  Y   -0.000001  -0.000000  -0.000000  -0.000000   0.000000
  134  H  7  Z    0.000005  -0.000000   0.000000   0.000002   0.000000
  135  H  8  S    0.000001  -0.000001  -0.000002   0.000001  -0.000000
  136  H  8  S    0.000005  -0.000001  -0.000002  -0.000001   0.000002
  137  H  8  X    0.000001  -0.000001   0.000000   0.000000   0.000001
  138  H  8  Y    0.000001   0.000000  -0.000000   0.000000  -0.000000
  139  H  8  Z    0.000005  -0.000000  -0.000000   0.000002   0.000000
  140  H  9  S    0.000001   0.000002  -0.000000  -0.000001   0.000001
  141  H  9  S    0.000005   0.000003  -0.000000   0.000001  -0.000003
  142  H  9  X   -0.000001  -0.000000  -0.000000   0.000000  -0.000000
  143  H  9  Y    0.000000  -0.000000  -0.000001   0.000000   0.000000
  144  H  9  Z   -0.000005  -0.000000  -0.000000   0.000002   0.000000

                     11         12         13         14         15
                  -87.4253   -87.4222   -87.4222   -87.4203   -30.6772
                     E'         E''        E''        A1'        A1' 
    1  HG 1  S   -0.000000  -0.000000   0.000000   0.000011  -0.096462
    2  HG 1  S   -0.000000  -0.000000   0.000000  -0.000035   0.328373
    3  HG 1  S   -0.000000  -0.000000   0.000000   0.000082  -0.827107
    4  HG 1  S   -0.000000  -0.000000   0.000000  -0.000040   1.233557
    5  HG 1  S   -0.000000  -0.000000   0.000000   0.000043   0.004649
    6  HG 1  S   -0.000000  -0.000000   0.000000  -0.000071   0.003238
    7  HG 1  S   -0.000000  -0.000000   0.000000   0.000053  -0.001271
    8  HG 1  S   -0.000000  -0.000000   0.000000   0.000042   0.000142
    9  HG 1  X   -0.000000  -0.000000   0.000000  -0.000000   0.000000
   10  HG 1  Y   -0.000000  -0.000000   0.000000  -0.000000   0.000000
   11  HG 1  Z   -0.000000  -0.000000   0.000000  -0.000000   0.000000
   12  HG 1  X   -0.000000  -0.000000   0.000000  -0.000000   0.000000
   13  HG 1  Y    0.000000  -0.000000   0.000000  -0.000000   0.000000
   14  HG 1  Z   -0.000000  -0.000000   0.000000  -0.000000   0.000000
   15  HG 1  X   -0.000000  -0.000000   0.000000  -0.000000   0.000000
   16  HG 1  Y   -0.000000  -0.000000   0.000000  -0.000000   0.000000
   17  HG 1  Z   -0.000000  -0.000000   0.000000  -0.000000   0.000000
   18  HG 1  X   -0.000000  -0.000000   0.000000  -0.000000   0.000000
   19  HG 1  Y    0.000000  -0.000000   0.000000  -0.000000   0.000000
   20  HG 1  Z   -0.000000  -0.000000   0.000000  -0.000000   0.000000
   21  HG 1  X   -0.000000  -0.000000   0.000000  -0.000000   0.000000
   22  HG 1  Y    0.000000  -0.000000   0.000000  -0.000000   0.000000
   23  HG 1  Z   -0.000000  -0.000000   0.000000  -0.000000   0.000000
   24  HG 1  X   -0.000000  -0.000000   0.000000  -0.000000   0.000000
   25  HG 1  Y   -0.000000  -0.000000   0.000000  -0.000000   0.000000
   26  HG 1  Z   -0.000000  -0.000000   0.000000  -0.000000   0.000000
   27  HG 1 XX   -0.000000  -0.000000   0.000000  -0.496627  -0.000048
   28  HG 1 YY   -0.000000  -0.000000   0.000000  -0.496627  -0.000048
   29  HG 1 ZZ   -0.000000  -0.000000   0.000000   0.993253   0.000096
   30  HG 1 XY    0.993254  -0.000000   0.000000  -0.000000   0.000000
   31  HG 1 XZ   -0.000000  -0.000000   0.993260  -0.000000   0.000000
   32  HG 1 YZ   -0.000000   0.993260   0.000000  -0.000000   0.000000
   33  HG 1 XX   -0.000000  -0.000000   0.000000  -0.007293   0.000065
   34  HG 1 YY   -0.000000  -0.000000   0.000000  -0.007293   0.000065
   35  HG 1 ZZ   -0.000000  -0.000000   0.000000   0.014585  -0.000131
   36  HG 1 XY    0.014583  -0.000000   0.000000  -0.000000   0.000000
   37  HG 1 XZ   -0.000000  -0.000000   0.014571  -0.000000   0.000000
   38  HG 1 YZ   -0.000000   0.014571   0.000000  -0.000000   0.000000
   39  HG 1 XX   -0.000000  -0.000000   0.000000   0.000776   0.000044
   40  HG 1 YY   -0.000000  -0.000000   0.000000   0.000776   0.000044
   41  HG 1 ZZ   -0.000000  -0.000000   0.000000  -0.001551  -0.000088
   42  HG 1 XY   -0.001556  -0.000000   0.000000  -0.000000   0.000000
   43  HG 1 XZ   -0.000000  -0.000000  -0.001551  -0.000000   0.000000
   44  HG 1 YZ   -0.000000  -0.001551   0.000000  -0.000000   0.000000
   45  HG 1 XX   -0.000000  -0.000000   0.000000   0.000020  -0.000058
   46  HG 1 YY   -0.000000  -0.000000   0.000000   0.000020  -0.000058
   47  HG 1 ZZ   -0.000000  -0.000000   0.000000  -0.000041   0.000116
   48  HG 1 XY   -0.000019  -0.000000   0.000000  -0.000000   0.000000
   49  HG 1 XZ   -0.000000  -0.000000  -0.000028  -0.000000   0.000000
   50  HG 1 YZ   -0.000000  -0.000028   0.000000  -0.000000   0.000000
   51  HG 1 XX   -0.000000  -0.000000   0.000000  -0.000041   0.000109
   52  HG 1 YY   -0.000000  -0.000000   0.000000  -0.000041   0.000109
   53  HG 1 ZZ   -0.000000  -0.000000   0.000000   0.000082  -0.000217
   54  HG 1 XY    0.000033  -0.000000   0.000000  -0.000000   0.000000
   55  HG 1 XZ   -0.000000  -0.000000   0.000047  -0.000000   0.000000
   56  HG 1 YZ   -0.000000   0.000047   0.000000  -0.000000   0.000000
   57  HG 1 XXX  -0.000000  -0.000000   0.000000  -0.000000   0.000001
   58  HG 1 YYY  -0.000000  -0.000000   0.000000  -0.000000   0.000000
   59  HG 1 ZZZ  -0.000000  -0.000000   0.000000  -0.000000   0.000000
   60  HG 1 XXY  -0.000000  -0.000000   0.000000  -0.000000   0.000000
   61  HG 1 XXZ  -0.000000  -0.000000   0.000000  -0.000000   0.000000
   62  HG 1 YYX  -0.000000  -0.000000   0.000000   0.000000  -0.000001
   63  HG 1 YYZ  -0.000000  -0.000000  -0.000000  -0.000000   0.000000
   64  HG 1 ZZX  -0.000000  -0.000000   0.000000  -0.000000   0.000000
   65  HG 1 ZZY   0.000000  -0.000000   0.000000  -0.000000   0.000000
   66  HG 1 XYZ  -0.000000  -0.000000   0.000000  -0.000000   0.000000
   67  HG 1 XXX  -0.000000  -0.000000   0.000000  -0.000000  -0.000000
   68  HG 1 YYY   0.000000  -0.000000   0.000000  -0.000000   0.000000
   69  HG 1 ZZZ  -0.000000  -0.000000   0.000000  -0.000000   0.000000
   70  HG 1 XXY   0.000000  -0.000000   0.000000  -0.000000   0.000000
   71  HG 1 XXZ  -0.000000  -0.000000   0.000000  -0.000000   0.000000
   72  HG 1 YYX  -0.000000  -0.000000   0.000000   0.000000   0.000000
   73  HG 1 YYZ  -0.000000  -0.000000  -0.000000  -0.000000   0.000000
   74  HG 1 ZZX  -0.000000  -0.000000   0.000000  -0.000000   0.000000
   75  HG 1 ZZY  -0.000000  -0.000000   0.000000  -0.000000   0.000000
   76  HG 1 XYZ  -0.000000  -0.000000   0.000000  -0.000000   0.000000
   77  C  2  S   -0.000000  -0.000000   0.000000  -0.000000  -0.000002
   78  C  2  S   -0.000000  -0.000000   0.000000   0.000007  -0.000062
   79  C  2  S   -0.000000  -0.000000   0.000000   0.000002  -0.000007
   80  C  2  S   -0.000000  -0.000000   0.000000  -0.000034   0.000229
   81  C  2  X   -0.000000  -0.000000   0.000000  -0.000000   0.000000
   82  C  2  Y    0.000000   0.000000   0.000000  -0.000000   0.000000
   83  C  2  Z   -0.000000  -0.000000   0.000000   0.000001  -0.000004
   84  C  2  X   -0.000000  -0.000000  -0.000002  -0.000000   0.000000
   85  C  2  Y   -0.000000  -0.000002   0.000000  -0.000000   0.000000
   86  C  2  Z   -0.000000  -0.000000   0.000000  -0.000005   0.000016
   87  C  2  X   -0.000000  -0.000000   0.000021  -0.000000   0.000000
   88  C  2  Y    0.000003   0.000021   0.000000  -0.000000   0.000000
   89  C  2  Z   -0.000000  -0.000000   0.000000  -0.000035   0.000143
   90  C  2 XX   -0.000000  -0.000000  -0.000002   0.000007  -0.000033
   91  C  2 YY   -0.000000  -0.000000   0.000002   0.000007  -0.000033
   92  C  2 ZZ   -0.000000  -0.000000   0.000000  -0.000014   0.000065
   93  C  2 XY   -0.000002   0.000003   0.000000  -0.000000   0.000000
   94  C  2 XZ   -0.000000  -0.000000   0.000006  -0.000000   0.000000
   95  C  2 YZ   -0.000000   0.000006   0.000000  -0.000000   0.000000
   96  C  3  S   -0.000000  -0.000000   0.000000  -0.000000  -0.000002
   97  C  3  S   -0.000000  -0.000000   0.000000   0.000007  -0.000062
   98  C  3  S   -0.000000  -0.000000   0.000000   0.000002  -0.000007
   99  C  3  S   -0.000000  -0.000000   0.000000  -0.000034   0.000229
  100  C  3  X   -0.000000  -0.000000  -0.000000  -0.000000   0.000000
  101  C  3  Y    0.000000  -0.000000   0.000000  -0.000000   0.000000
  102  C  3  Z   -0.000000  -0.000000   0.000000  -0.000001   0.000004
  103  C  3  X   -0.000000  -0.000000   0.000002  -0.000000   0.000000
  104  C  3  Y   -0.000000   0.000002   0.000000  -0.000000   0.000000
  105  C  3  Z   -0.000000  -0.000000   0.000000   0.000005  -0.000016
  106  C  3  X   -0.000000  -0.000000  -0.000021  -0.000000   0.000000
  107  C  3  Y    0.000003  -0.000021   0.000000  -0.000000   0.000000
  108  C  3  Z   -0.000000  -0.000000   0.000000   0.000035  -0.000143
  109  C  3 XX   -0.000000  -0.000000   0.000002   0.000007  -0.000033
  110  C  3 YY   -0.000000  -0.000000  -0.000002   0.000007  -0.000033
  111  C  3 ZZ   -0.000000  -0.000000   0.000000  -0.000014   0.000065
  112  C  3 XY   -0.000002  -0.000003   0.000000  -0.000000   0.000000
  113  C  3 XZ   -0.000000  -0.000000   0.000006  -0.000000   0.000000
  114  C  3 YZ    0.000000   0.000006   0.000000  -0.000000   0.000000
  115  H  4  S   -0.000001  -0.000004   0.000002   0.000001  -0.000005
  116  H  4  S    0.000003  -0.000008   0.000005  -0.000005  -0.000028
  117  H  4  X   -0.000000   0.000000   0.000002   0.000001  -0.000001
  118  H  4  Y   -0.000000   0.000001   0.000000  -0.000001   0.000002
  119  H  4  Z   -0.000000   0.000002  -0.000001  -0.000002   0.000016
  120  H  5  S    0.000001   0.000004   0.000002   0.000001  -0.000005
  121  H  5  S   -0.000003   0.000008   0.000005  -0.000005  -0.000028
  122  H  5  X    0.000000  -0.000000   0.000002   0.000001  -0.000001
  123  H  5  Y   -0.000000   0.000001  -0.000000   0.000001  -0.000002
  124  H  5  Z    0.000000  -0.000002  -0.000001  -0.000002   0.000016
  125  H  6  S   -0.000000  -0.000000   0.000004   0.000001  -0.000005
  126  H  6  S   -0.000000  -0.000000   0.000010  -0.000005  -0.000028
  127  H  6  X   -0.000000  -0.000000  -0.000001  -0.000001   0.000003
  128  H  6  Y   -0.000001  -0.000002   0.000000  -0.000000   0.000000
  129  H  6  Z   -0.000000  -0.000000   0.000002   0.000002  -0.000016
  130  H  7  S   -0.000001   0.000004  -0.000002   0.000001  -0.000005
  131  H  7  S    0.000003   0.000008  -0.000005  -0.000005  -0.000028
  132  H  7  X   -0.000000  -0.000000  -0.000002   0.000001  -0.000001
  133  H  7  Y   -0.000000  -0.000001  -0.000000  -0.000001   0.000002
  134  H  7  Z    0.000000   0.000002  -0.000001   0.000002  -0.000016
  135  H  8  S    0.000001  -0.000004  -0.000002   0.000001  -0.000005
  136  H  8  S   -0.000003  -0.000008  -0.000005  -0.000005  -0.000028
  137  H  8  X    0.000000   0.000000  -0.000002   0.000001  -0.000001
  138  H  8  Y   -0.000000  -0.000001   0.000000   0.000001  -0.000002
  139  H  8  Z   -0.000000  -0.000002  -0.000001   0.000002  -0.000016
  140  H  9  S   -0.000000  -0.000000  -0.000004   0.000001  -0.000005
  141  H  9  S   -0.000000  -0.000000  -0.000010  -0.000005  -0.000028
  142  H  9  X   -0.000000  -0.000000   0.000001  -0.000001   0.000003
  143  H  9  Y   -0.000001   0.000002   0.000000  -0.000000   0.000000
  144  H  9  Z   -0.000000  -0.000000   0.000002  -0.000002   0.000016

                     16         17         18         19         20
                  -23.3963   -23.3963   -23.3920   -14.3896   -14.3896
                     E'         E'         A2"        E'         E'  
    1  HG 1  S   -0.000000  -0.000000  -0.000000  -0.000000   0.000000
    2  HG 1  S   -0.000000  -0.000000  -0.000000  -0.000000   0.000000
    3  HG 1  S   -0.000000  -0.000000  -0.000000  -0.000000   0.000000
    4  HG 1  S   -0.000000  -0.000000  -0.000000  -0.000000   0.000000
    5  HG 1  S   -0.000000  -0.000000  -0.000000  -0.000000   0.000000
    6  HG 1  S   -0.000000  -0.000000  -0.000000  -0.000000   0.000000
    7  HG 1  S   -0.000000  -0.000000  -0.000000  -0.000000   0.000000
    8  HG 1  S   -0.000000  -0.000000  -0.000000  -0.000000   0.000000
    9  HG 1  X    0.269425  -0.000000  -0.000000  -0.000000   0.000000
   10  HG 1  Y   -0.000000   0.269425  -0.000000  -0.000000   0.000000
   11  HG 1  Z   -0.000000  -0.000000   0.269425  -0.000000   0.000000
   12  HG 1  X   -0.864658  -0.000000  -0.000000   0.000001   0.000000
   13  HG 1  Y   -0.000000  -0.864658  -0.000000  -0.000000  -0.000001
   14  HG 1  Z   -0.000000  -0.000000  -0.864677  -0.000000   0.000000
   15  HG 1  X    1.257378  -0.000000  -0.000000  -0.000002   0.000000
   16  HG 1  Y   -0.000000   1.257378  -0.000000  -0.000000   0.000002
   17  HG 1  Z   -0.000000  -0.000000   1.257479  -0.000000   0.000000
   18  HG 1  X    0.001854  -0.000000  -0.000000   0.000002   0.000000
   19  HG 1  Y   -0.000000   0.001854  -0.000000  -0.000000  -0.000002
   20  HG 1  Z   -0.000000  -0.000000   0.001625  -0.000000   0.000000
   21  HG 1  X    0.002800  -0.000000  -0.000000   0.000001   0.000000
   22  HG 1  Y   -0.000000   0.002800  -0.000000  -0.000000  -0.000001
   23  HG 1  Z   -0.000000  -0.000000   0.003061  -0.000000   0.000000
   24  HG 1  X   -0.000180  -0.000000  -0.000000  -0.000005   0.000000
   25  HG 1  Y   -0.000000  -0.000180  -0.000000  -0.000000   0.000005
   26  HG 1  Z   -0.000000  -0.000000  -0.000414  -0.000000   0.000000
   27  HG 1 XX    0.000000  -0.000000  -0.000000  -0.464555   0.000000
   28  HG 1 YY   -0.000000  -0.000000  -0.000000   0.464555   0.000000
   29  HG 1 ZZ   -0.000000  -0.000000  -0.000000  -0.000000   0.000000
   30  HG 1 XY   -0.000000  -0.000000  -0.000000  -0.000000  -0.536422
   31  HG 1 XZ   -0.000000  -0.000000  -0.000000  -0.000000   0.000000
   32  HG 1 YZ   -0.000000  -0.000000  -0.000000  -0.000000   0.000000
   33  HG 1 XX   -0.000001  -0.000000  -0.000000   0.976587   0.000000
   34  HG 1 YY    0.000001  -0.000000  -0.000000  -0.976587   0.000000
   35  HG 1 ZZ   -0.000000  -0.000000  -0.000000  -0.000000   0.000000
   36  HG 1 XY   -0.000000   0.000001  -0.000000  -0.000000   1.127665
   37  HG 1 XZ   -0.000000  -0.000000  -0.000000  -0.000000   0.000000
   38  HG 1 YZ   -0.000000  -0.000000  -0.000000  -0.000000   0.000000
   39  HG 1 XX    0.000001  -0.000000  -0.000000   0.000032   0.000000
   40  HG 1 YY   -0.000001  -0.000000  -0.000000  -0.000032   0.000000
   41  HG 1 ZZ   -0.000000  -0.000000  -0.000000  -0.000000   0.000000
   42  HG 1 XY   -0.000000  -0.000001  -0.000000  -0.000000   0.000037
   43  HG 1 XZ   -0.000000  -0.000000  -0.000000  -0.000000   0.000000
   44  HG 1 YZ   -0.000000  -0.000000  -0.000000  -0.000000   0.000000
   45  HG 1 XX   -0.000000  -0.000000  -0.000000   0.005824   0.000000
   46  HG 1 YY    0.000000  -0.000000  -0.000000  -0.005824   0.000000
   47  HG 1 ZZ   -0.000000  -0.000000  -0.000000  -0.000000   0.000000
   48  HG 1 XY   -0.000000   0.000001  -0.000000  -0.000000   0.006725
   49  HG 1 XZ   -0.000000  -0.000000  -0.000000  -0.000000   0.000000
   50  HG 1 YZ   -0.000000  -0.000000  -0.000000  -0.000000   0.000000
   51  HG 1 XX    0.000000  -0.000000  -0.000000  -0.000591   0.000000
   52  HG 1 YY   -0.000000  -0.000000  -0.000000   0.000591   0.000000
   53  HG 1 ZZ   -0.000000  -0.000000  -0.000000  -0.000000   0.000000
   54  HG 1 XY   -0.000000  -0.000000  -0.000000  -0.000000  -0.000682
   55  HG 1 XZ   -0.000000  -0.000000  -0.000000  -0.000000   0.000000
   56  HG 1 YZ   -0.000000  -0.000000  -0.000000  -0.000000   0.000000
   57  HG 1 XXX   0.000106  -0.000000  -0.000000  -0.000000   0.000000
   58  HG 1 YYY  -0.000000   0.000106  -0.000000  -0.000000   0.000000
   59  HG 1 ZZZ  -0.000000  -0.000000  -0.000203  -0.000000   0.000000
   60  HG 1 XXY  -0.000000   0.000047  -0.000000  -0.000000   0.000000
   61  HG 1 XXZ  -0.000000  -0.000000   0.000136  -0.000000   0.000000
   62  HG 1 YYX   0.000047  -0.000000  -0.000000  -0.000000   0.000000
   63  HG 1 YYZ  -0.000000  -0.000000   0.000136  -0.000000   0.000000
   64  HG 1 ZZX  -0.000190  -0.000000  -0.000000   0.000000   0.000000
   65  HG 1 ZZY  -0.000000  -0.000190  -0.000000  -0.000000  -0.000000
   66  HG 1 XYZ  -0.000000  -0.000000  -0.000000  -0.000000   0.000000
   67  HG 1 XXX  -0.000030  -0.000000  -0.000000   0.000001   0.000000
   68  HG 1 YYY  -0.000000  -0.000030  -0.000000  -0.000000  -0.000001
   69  HG 1 ZZZ  -0.000000  -0.000000   0.000047  -0.000000   0.000000
   70  HG 1 XXY  -0.000000  -0.000013  -0.000000  -0.000000  -0.000000
   71  HG 1 XXZ  -0.000000  -0.000000  -0.000031  -0.000000   0.000000
   72  HG 1 YYX  -0.000013  -0.000000  -0.000000   0.000000   0.000000
   73  HG 1 YYZ  -0.000000  -0.000000  -0.000031  -0.000000   0.000000
   74  HG 1 ZZX   0.000053  -0.000000  -0.000000  -0.000002   0.000000
   75  HG 1 ZZY  -0.000000   0.000053  -0.000000  -0.000000   0.000002
   76  HG 1 XYZ  -0.000000  -0.000000  -0.000000  -0.000000   0.000000
   77  C  2  S   -0.000000  -0.000000   0.000001  -0.000000   0.000000
   78  C  2  S   -0.000000  -0.000000   0.000031  -0.000000   0.000000
   79  C  2  S   -0.000000  -0.000000   0.000002  -0.000000   0.000000
   80  C  2  S   -0.000000  -0.000000  -0.000104  -0.000000   0.000000
   81  C  2  X    0.000000  -0.000000  -0.000000   0.000001   0.000000
   82  C  2  Y   -0.000000   0.000000  -0.000000  -0.000000  -0.000001
   83  C  2  Z   -0.000000  -0.000000   0.000000  -0.000000   0.000000
   84  C  2  X   -0.000003  -0.000000  -0.000000  -0.000006   0.000000
   85  C  2  Y   -0.000000  -0.000003  -0.000000  -0.000000   0.000006
   86  C  2  Z   -0.000000  -0.000000   0.000006  -0.000000   0.000000
   87  C  2  X    0.000026  -0.000000  -0.000000   0.000040   0.000000
   88  C  2  Y   -0.000000   0.000026  -0.000000  -0.000000  -0.000040
   89  C  2  Z   -0.000000  -0.000000  -0.000086  -0.000000   0.000000
   90  C  2 XX   -0.000003  -0.000000   0.000003   0.000019   0.000000
   91  C  2 YY    0.000003  -0.000000   0.000003  -0.000019   0.000000
   92  C  2 ZZ   -0.000000  -0.000000  -0.000007  -0.000000   0.000000
   93  C  2 XY   -0.000000   0.000003  -0.000000  -0.000000   0.000022
   94  C  2 XZ   -0.000005  -0.000000  -0.000000  -0.000001   0.000000
   95  C  2 YZ   -0.000000  -0.000005  -0.000000  -0.000000   0.000001
   96  C  3  S   -0.000000  -0.000000  -0.000001  -0.000000   0.000000
   97  C  3  S   -0.000000  -0.000000  -0.000031  -0.000000   0.000000
   98  C  3  S   -0.000000  -0.000000  -0.000002  -0.000000   0.000000
   99  C  3  S   -0.000000  -0.000000   0.000104  -0.000000   0.000000
  100  C  3  X    0.000000  -0.000000  -0.000000   0.000001   0.000000
  101  C  3  Y   -0.000000   0.000000  -0.000000  -0.000000  -0.000001
  102  C  3  Z   -0.000000  -0.000000   0.000000  -0.000000   0.000000
  103  C  3  X   -0.000003  -0.000000  -0.000000  -0.000006   0.000000
  104  C  3  Y   -0.000000  -0.000003  -0.000000  -0.000000   0.000006
  105  C  3  Z   -0.000000  -0.000000   0.000006  -0.000000   0.000000
  106  C  3  X    0.000026  -0.000000  -0.000000   0.000040   0.000000
  107  C  3  Y   -0.000000   0.000026  -0.000000  -0.000000  -0.000040
  108  C  3  Z   -0.000000  -0.000000  -0.000086  -0.000000   0.000000
  109  C  3 XX   -0.000003  -0.000000  -0.000003   0.000019   0.000000
  110  C  3 YY    0.000003  -0.000000  -0.000003  -0.000019   0.000000
  111  C  3 ZZ   -0.000000  -0.000000   0.000007  -0.000000   0.000000
  112  C  3 XY   -0.000000   0.000003  -0.000000  -0.000000   0.000022
  113  C  3 XZ    0.000005  -0.000000  -0.000000   0.000001   0.000000
  114  C  3 YZ   -0.000000   0.000005  -0.000000  -0.000000  -0.000001
  115  H  4  S   -0.000005   0.000009  -0.000010   0.000005   0.000009
  116  H  4  S   -0.000004   0.000006   0.000003  -0.000026  -0.000045
  117  H  4  X   -0.000003  -0.000002  -0.000002  -0.000007   0.000005
  118  H  4  Y   -0.000002  -0.000000   0.000003  -0.000005   0.000001
  119  H  4  Z   -0.000000   0.000000   0.000011   0.000002   0.000004
  120  H  5  S   -0.000005  -0.000009  -0.000010   0.000005  -0.000009
  121  H  5  S   -0.000004  -0.000006   0.000003  -0.000026   0.000045
  122  H  5  X   -0.000003   0.000002  -0.000002  -0.000007  -0.000005
  123  H  5  Y    0.000002  -0.000000  -0.000003   0.000005   0.000001
  124  H  5  Z   -0.000000  -0.000000   0.000011   0.000002  -0.000004
  125  H  6  S    0.000011  -0.000000   0.000010  -0.000011   0.000000
  126  H  6  S    0.000007  -0.000000  -0.000003   0.000052   0.000000
  127  H  6  X    0.000001  -0.000000  -0.000003   0.000003   0.000000
  128  H  6  Y   -0.000000  -0.000004  -0.000000  -0.000000   0.000010
  129  H  6  Z   -0.000001  -0.000000   0.000011   0.000005   0.000000
  130  H  7  S   -0.000005   0.000009   0.000010   0.000005   0.000009
  131  H  7  S   -0.000004   0.000006  -0.000003  -0.000026  -0.000045
  132  H  7  X   -0.000003  -0.000002   0.000002  -0.000007   0.000005
  133  H  7  Y   -0.000002  -0.000000  -0.000003  -0.000005   0.000001
  134  H  7  Z    0.000000  -0.000000   0.000011  -0.000002  -0.000004
  135  H  8  S   -0.000005  -0.000009   0.000010   0.000005  -0.000009
  136  H  8  S   -0.000004  -0.000006  -0.000003  -0.000026   0.000045
  137  H  8  X   -0.000003   0.000002   0.000002  -0.000007  -0.000005
  138  H  8  Y    0.000002  -0.000000   0.000003   0.000005   0.000001
  139  H  8  Z    0.000000   0.000000   0.000011  -0.000002   0.000004
  140  H  9  S    0.000011  -0.000000  -0.000010  -0.000011   0.000000
  141  H  9  S    0.000007  -0.000000   0.000003   0.000052   0.000000
  142  H  9  X    0.000001  -0.000000   0.000003   0.000003   0.000000
  143  H  9  Y   -0.000000  -0.000004  -0.000000  -0.000000   0.000010
  144  H  9  Z    0.000001  -0.000000   0.000011  -0.000005   0.000000

                     21         22         23         24         25
                  -14.3849   -14.3849   -14.3816   -11.2125   -11.2125
                     E''        E''        A1'        A2"        A1' 
    1  HG 1  S   -0.000000   0.000000  -0.000028  -0.000000  -0.000002
    2  HG 1  S   -0.000000   0.000000   0.000078  -0.000000   0.000009
    3  HG 1  S   -0.000000   0.000000  -0.000301  -0.000000  -0.000017
    4  HG 1  S   -0.000000   0.000000   0.000341  -0.000000   0.000053
    5  HG 1  S   -0.000000   0.000000  -0.000814  -0.000000  -0.000024
    6  HG 1  S   -0.000000   0.000000   0.001076  -0.000000  -0.000342
    7  HG 1  S   -0.000000   0.000000  -0.000689  -0.000000   0.000734
    8  HG 1  S   -0.000000   0.000000  -0.000440  -0.000000   0.000195
    9  HG 1  X   -0.000000   0.000000   0.000000  -0.000000   0.000000
   10  HG 1  Y   -0.000000   0.000000   0.000000  -0.000000   0.000000
   11  HG 1  Z   -0.000000   0.000000   0.000000  -0.000004   0.000000
   12  HG 1  X   -0.000000   0.000000   0.000000  -0.000000   0.000000
   13  HG 1  Y   -0.000000   0.000000   0.000000  -0.000000   0.000000
   14  HG 1  Z   -0.000000   0.000000   0.000000   0.000015   0.000000
   15  HG 1  X   -0.000000   0.000000   0.000000  -0.000000   0.000000
   16  HG 1  Y   -0.000000   0.000000   0.000000  -0.000000   0.000000
   17  HG 1  Z   -0.000000   0.000000   0.000000  -0.000033   0.000000
   18  HG 1  X   -0.000000   0.000000   0.000000  -0.000000   0.000000
   19  HG 1  Y   -0.000000   0.000000   0.000000  -0.000000   0.000000
   20  HG 1  Z   -0.000000   0.000000   0.000000   0.000024   0.000000
   21  HG 1  X   -0.000000   0.000000   0.000000  -0.000000   0.000000
   22  HG 1  Y   -0.000000   0.000000   0.000000  -0.000000   0.000000
   23  HG 1  Z   -0.000000   0.000000   0.000000   0.000116   0.000000
   24  HG 1  X   -0.000000   0.000000   0.000000  -0.000000   0.000000
   25  HG 1  Y   -0.000000   0.000000   0.000000  -0.000000   0.000000
   26  HG 1  Z   -0.000000   0.000000   0.000000  -0.000733   0.000000
   27  HG 1 XX   -0.000000   0.000000   0.268153  -0.000000  -0.000002
   28  HG 1 YY   -0.000000   0.000000   0.268153  -0.000000  -0.000002
   29  HG 1 ZZ   -0.000000   0.000000  -0.536306  -0.000000   0.000004
   30  HG 1 XY   -0.000000   0.000000   0.000000  -0.000000   0.000000
   31  HG 1 XZ   -0.000000  -0.536391   0.000000  -0.000000   0.000000
   32  HG 1 YZ   -0.536391   0.000000   0.000000  -0.000000   0.000000
   33  HG 1 XX   -0.000000   0.000000  -0.563675  -0.000000   0.000004
   34  HG 1 YY   -0.000000   0.000000  -0.563675  -0.000000   0.000004
   35  HG 1 ZZ   -0.000000   0.000000   1.127349  -0.000000  -0.000008
   36  HG 1 XY   -0.000000   0.000000   0.000000  -0.000000   0.000000
   37  HG 1 XZ   -0.000000   1.127608   0.000000  -0.000000   0.000000
   38  HG 1 YZ    1.127608   0.000000   0.000000  -0.000000   0.000000
   39  HG 1 XX   -0.000000   0.000000  -0.000227  -0.000000   0.000014
   40  HG 1 YY   -0.000000   0.000000  -0.000227  -0.000000   0.000014
   41  HG 1 ZZ   -0.000000   0.000000   0.000453  -0.000000  -0.000028
   42  HG 1 XY   -0.000000   0.000000   0.000000  -0.000000   0.000000
   43  HG 1 XZ   -0.000000   0.000081   0.000000  -0.000000   0.000000
   44  HG 1 YZ    0.000081   0.000000   0.000000  -0.000000   0.000000
   45  HG 1 XX   -0.000000   0.000000  -0.003452  -0.000000  -0.000075
   46  HG 1 YY   -0.000000   0.000000  -0.003452  -0.000000  -0.000075
   47  HG 1 ZZ   -0.000000   0.000000   0.006904  -0.000000   0.000150
   48  HG 1 XY   -0.000000   0.000000   0.000000  -0.000000   0.000000
   49  HG 1 XZ   -0.000000   0.006863   0.000000  -0.000000   0.000000
   50  HG 1 YZ    0.006863   0.000000   0.000000  -0.000000   0.000000
   51  HG 1 XX   -0.000000   0.000000   0.000620  -0.000000  -0.000009
   52  HG 1 YY   -0.000000   0.000000   0.000620  -0.000000  -0.000009
   53  HG 1 ZZ   -0.000000   0.000000  -0.001240  -0.000000   0.000018
   54  HG 1 XY   -0.000000   0.000000   0.000000  -0.000000   0.000000
   55  HG 1 XZ   -0.000000  -0.000904   0.000000  -0.000000   0.000000
   56  HG 1 YZ   -0.000904   0.000000   0.000000  -0.000000   0.000000
   57  HG 1 XXX  -0.000000   0.000000  -0.000001  -0.000000  -0.000001
   58  HG 1 YYY  -0.000000   0.000000   0.000000  -0.000000   0.000000
   59  HG 1 ZZZ  -0.000000   0.000000   0.000000  -0.000026   0.000000
   60  HG 1 XXY  -0.000000   0.000000   0.000000  -0.000000   0.000000
   61  HG 1 XXZ  -0.000000   0.000002   0.000000   0.000017   0.000000
   62  HG 1 YYX  -0.000000   0.000000   0.000002  -0.000000   0.000001
   63  HG 1 YYZ  -0.000000  -0.000002   0.000000   0.000017   0.000000
   64  HG 1 ZZX  -0.000000   0.000000   0.000000  -0.000000   0.000000
   65  HG 1 ZZY  -0.000000   0.000000   0.000000  -0.000000   0.000000
   66  HG 1 XYZ  -0.000003   0.000000   0.000000  -0.000000   0.000000
   67  HG 1 XXX  -0.000000   0.000000   0.000000  -0.000000   0.000003
   68  HG 1 YYY  -0.000000   0.000000   0.000000  -0.000000   0.000000
   69  HG 1 ZZZ  -0.000000   0.000000   0.000000   0.000062   0.000000
   70  HG 1 XXY  -0.000000   0.000000   0.000000  -0.000000   0.000000
   71  HG 1 XXZ  -0.000000  -0.000001   0.000000  -0.000041   0.000000
   72  HG 1 YYX  -0.000000   0.000000  -0.000000  -0.000000  -0.000004
   73  HG 1 YYZ  -0.000000   0.000001   0.000000  -0.000041   0.000000
   74  HG 1 ZZX  -0.000000   0.000000   0.000000  -0.000000   0.000000
   75  HG 1 ZZY  -0.000000   0.000000   0.000000  -0.000000   0.000000
   76  HG 1 XYZ   0.000001   0.000000   0.000000  -0.000000   0.000000
   77  C  2  S   -0.000000   0.000000   0.000002   0.526819   0.526820
   78  C  2  S   -0.000000   0.000000  -0.000055   0.009688   0.009650
   79  C  2  S   -0.000000   0.000000  -0.000024   0.228524   0.228521
   80  C  2  S   -0.000000   0.000000   0.000390  -0.004489  -0.004302
   81  C  2  X   -0.000000  -0.000002   0.000000  -0.000000   0.000000
   82  C  2  Y   -0.000002   0.000000   0.000000  -0.000000   0.000000
   83  C  2  Z   -0.000000   0.000000  -0.000008   0.000014   0.000012
   84  C  2  X   -0.000000   0.000019   0.000000  -0.000000   0.000000
   85  C  2  Y    0.000019   0.000000   0.000000  -0.000000   0.000000
   86  C  2  Z   -0.000000   0.000000   0.000050  -0.000086  -0.000081
   87  C  2  X   -0.000000  -0.000269   0.000000  -0.000000   0.000000
   88  C  2  Y   -0.000269   0.000000   0.000000  -0.000000   0.000000
   89  C  2  Z   -0.000000   0.000000   0.000347   0.000267   0.000284
   90  C  2 XX   -0.000000   0.000026  -0.000051   0.000048   0.000030
   91  C  2 YY   -0.000000  -0.000026  -0.000051   0.000048   0.000030
   92  C  2 ZZ   -0.000000   0.000000   0.000103  -0.000095  -0.000059
[...]
                       E(2)=        -0.6829145750
                     E(MP2)=    -19702.3134230991
 SPIN-COMPONENT-SCALED MP2 RESULTS ARE
                      E(2S)=        -0.4818042602
                      E(2T)=        -0.2011103148
                     E(2ST)=        -0.6452018838 = 6/5 * E(2S) + 1/3 * E(2T)
                    SCS-MP2=    -19702.2757104080

      COMPUTING CONTRIBUTIONS TO THE 1-PARTICLE DENSITY MATRICES

      COMPUTING THREE-VIRTUAL CONTRIBUTIONS TO THE LAGRANGIAN
      FORMING BACK-TRANSFORMED AMPLITUDES
      COMPUTING (VV|VO) INTEGRAL CLASS 
      SCHWARZ INEQUALITY TEST SKIPPED    1163517 INTEGRAL BLOCKS
      RESTORING (VO|VO) INTEGRAL CLASS

      SOLVING FOR Z-VECTOR
 DDI: Creating Array [3] - 1022 x 50 = 51100 words.

      ITERATION         TESTER  EXPANSION VECTOR NORM
      ===============================================

                                 0.000104167548222
         2        0.0001452767
                                 0.000040779327755
         3        0.0000634856
                                 0.000011825323271
         4        0.0000134485
                                 0.000005260701709
         5        0.0000057897
                                 0.000000782292742
         6        0.0000008526
                                 0.000000114985194
         7        0.0000001618
                                 0.000000017815534
         8        0.0000000349
                                 0.000000002120522
         9        0.0000000044
                                 0.000000000467501
        10        0.0000000011
                                 0.000000000068689
        11        0.0000000002
                                 0.000000000006918
        12        0.0000000000

      CONVERGED - WAVEFUNCTIONS STATIONARY


      COMPUTING LAST CONTRIBUTIONS TO THE 1-PARTICLE DENSITY

 MP2 NATURAL ORBITAL OCCUPATION NUMBERS ARE
  2.0019 2.0006 2.0002 2.0002 2.0000 2.0000 2.0000 2.0000 2.0000 2.0000
  2.0000 2.0000 2.0000 2.0000 2.0000 2.0000 2.0000 2.0000 2.0000 2.0000
  2.0000 2.0000 2.0000 2.0000 2.0000 2.0000 2.0000 2.0000 2.0000 2.0000
  2.0000 2.0000 2.0000 2.0000 2.0000 2.0000 1.9800 1.9794 1.9728 1.9728
  1.9728 1.9728 1.9676 1.9657 1.9657 1.9652 1.9652 1.9621 1.9407 0.0376
  0.0184 0.0184 0.0180 0.0180 0.0175 0.0175 0.0165 0.0141 0.0139 0.0124
  0.0124 0.0123 0.0123 0.0120 0.0120 0.0120 0.0120 0.0116 0.0099 0.0086
  0.0080 0.0080 0.0078 0.0078 0.0065 0.0065 0.0054 0.0054 0.0046 0.0042
  0.0042 0.0026 0.0024 0.0017 0.0016 0.0012 0.0012 0.0012 0.0012 0.0012
  0.0012 0.0010 0.0010 0.0010 0.0010 0.0007 0.0007 0.0007 0.0006 0.0006
  0.0006 0.0004 0.0004 0.0004 0.0004 0.0004 0.0004 0.0004 0.0003 0.0003
  0.0003 0.0002 0.0002 0.0002 0.0002 0.0001 0.0001 0.0001 0.0001 0.0001
  0.0001 0.0001 0.0000 0.0000 0.0000 0.0000 0.0000 0.0000 0.0000 0.0000
 -0.0001
 THERE ARE    97.5858 ELECTRONS IN PRINCIPAL MP2 NATURAL ORBITALS.
 THERE ARE     0.4142 ELECTRONS IN SECONDARY MP2 NATURAL ORBITALS.
 THE MP2 NATURAL ORBITALS HAVE BEEN PUNCHED.
 ..... DONE WITH MP2 ENERGY .....
 CPU     0: STEP CPU TIME=   156.03 TOTAL CPU TIME=      221.1 (    3.7 MIN)
 TOTAL WALL CLOCK TIME=      221.8 SECONDS, CPU UTILIZATION IS  99.65%

     -------------------------------------------------
     MP2 PROPERTIES...FOR THE FIRST ORDER WAVEFUNCTION
          USING THE RESPONSE (OR RELAXED) DENSITY
     -------------------------------------------------

          -----------------
          ENERGY COMPONENTS
          -----------------

         WAVEFUNCTION NORMALIZATION =       1.0000000000

                ONE ELECTRON ENERGY =  -27691.9516434258
                TWO ELECTRON ENERGY =    7642.1219349047
           NUCLEAR REPULSION ENERGY =     347.5162854220
                                      ------------------
                       TOTAL ENERGY =  -19702.3134230991

 ELECTRON-ELECTRON POTENTIAL ENERGY =    7642.1219349047
  NUCLEUS-ELECTRON POTENTIAL ENERGY =  -27694.5563946550
   NUCLEUS-NUCLEUS POTENTIAL ENERGY =     347.5162854220
                                      ------------------
             TOTAL POTENTIAL ENERGY =  -19704.9181743283
               TOTAL KINETIC ENERGY =       2.6047512292
                 VIRIAL RATIO (V/T) =    7564.9904502773

          ---------------------------------------
          MULLIKEN AND LOWDIN POPULATION ANALYSES
          ---------------------------------------

               ----- POPULATIONS IN EACH AO -----
                             MULLIKEN      LOWDIN
              1  HG 1  S      1.99998     1.99894
              2  HG 1  S      1.99988     1.97470
              3  HG 1  S      2.00084     0.88918
              4  HG 1  S      1.99978     0.92162
              5  HG 1  S      1.35817     0.53861
              6  HG 1  S      0.61687     0.30269
              7  HG 1  S      0.67304     0.24700
              8  HG 1  S      0.64092     0.41875
              9  HG 1  X      1.99979     1.99893
             10  HG 1  Y      1.99979     1.99893
             11  HG 1  Z      1.99979     1.99896
             12  HG 1  X      1.99991     1.98719
             13  HG 1  Y      1.99991     1.98719
             14  HG 1  Z      1.99993     1.98757
             15  HG 1  X      2.00066     1.00370
             16  HG 1  Y      2.00066     1.00370
             17  HG 1  Z      2.00077     1.00838
             18  HG 1  X      0.81598     0.64802
             19  HG 1  Y      0.81598     0.64802
             20  HG 1  Z      0.84795     0.67859
             21  HG 1  X      1.12486     0.67974
             22  HG 1  Y      1.12486     0.67974
             23  HG 1  Z      1.10266     0.68287
             24  HG 1  X      0.08395     0.06354
             25  HG 1  Y      0.08395     0.06353
             26  HG 1  Z      0.27633     0.27288
             27  HG 1 XX      1.99944     1.70142
             28  HG 1 YY      1.99947     1.70142
             29  HG 1 ZZ      1.99947     1.70147
             30  HG 1 XY      1.99947     1.98720
             31  HG 1 XZ      1.99947     1.98720
             32  HG 1 YZ      0.00000     1.98720
             33  HG 1 XX      2.00027     1.57691
             34  HG 1 YY      2.00103     1.57691
             35  HG 1 ZZ      2.00103     1.57232
             36  HG 1 XY      2.00096     1.83100
             37  HG 1 XZ      2.00096     1.83098
             38  HG 1 YZ      0.00000     1.83098
             39  HG 1 XX      0.34156     0.62927
             40  HG 1 YY      0.37810     0.62927
             41  HG 1 ZZ      0.37810     0.65308
             42  HG 1 XY      0.37865     0.55896
             43  HG 1 XZ      0.37865     0.55997
             44  HG 1 YZ      0.00000     0.55997
             45  HG 1 XX      0.97128     0.80624
             46  HG 1 YY      1.06187     0.80624
             47  HG 1 ZZ      1.06187     0.70526
             48  HG 1 XY      1.06276     1.02970
             49  HG 1 XZ      1.06276     1.03058
             50  HG 1 YZ      0.00000     1.03058
             51  HG 1 XX      0.52947     0.60684
             52  HG 1 YY      0.53815     0.60684
             53  HG 1 ZZ      0.53815     0.48138
             54  HG 1 XY      0.52931     0.57169
             55  HG 1 XZ      0.52931     0.55177
             56  HG 1 YZ      0.00000     0.55177
             57  HG 1 XXX     1.99970     1.28365
             58  HG 1 YYY     1.99961     1.28365
             59  HG 1 ZZZ     1.99974     1.28346
             60  HG 1 XXY     1.99986     1.81034
             61  HG 1 XXZ     1.99974     1.81011
             62  HG 1 YYX     1.99961     1.81034
             63  HG 1 YYZ     1.99970     1.81011
             64  HG 1 ZZX     0.00000     1.80982
             65  HG 1 ZZY     0.00000     1.80982
             66  HG 1 XYZ     0.00000     1.94637
             67  HG 1 XXX     0.01260     0.36025
             68  HG 1 YYY     0.01240     0.36025
             69  HG 1 ZZZ     0.01282     0.38145
             70  HG 1 XXY     0.01668     0.20052
             71  HG 1 XXZ     0.01282     0.20147
             72  HG 1 YYX     0.01240     0.20052
             73  HG 1 YYZ     0.01260     0.20147
             74  HG 1 ZZX     0.00000     0.20290
             75  HG 1 ZZY     0.00000     0.20290
             76  HG 1 XYZ     0.00000     0.06562
             77  C  2  S      1.47317     1.35545
             78  C  2  S      0.72822     0.38255
             79  C  2  S      0.52397     0.65241
             80  C  2  S      0.44294     0.26065
             81  C  2  X      0.00052     0.00709
             82  C  2  Y      0.00052     0.00708
             83  C  2  Z      0.00038     0.00674
             84  C  2  X      0.67878     0.60614
             85  C  2  Y      0.67878     0.60702
             86  C  2  Z      0.62617     0.56379
             87  C  2  X      0.33390     0.46133
             88  C  2  Y      0.33390     0.46228
             89  C  2  Z      0.53234     0.53362
             90  C  2 XX      0.01123     0.18658
             91  C  2 YY      0.01294     0.18658
             92  C  2 ZZ      0.01294     0.16704
             93  C  2 XY      0.01332     0.03430
             94  C  2 XZ      0.01332     0.02968
             95  C  2 YZ      0.00000     0.02965
             96  C  3  S      1.47317     1.35545
             97  C  3  S      0.72822     0.38255
             98  C  3  S      0.52397     0.65241
             99  C  3  S      0.44294     0.26065
            100  C  3  X      0.00052     0.00709
            101  C  3  Y      0.00052     0.00708
            102  C  3  Z      0.00038     0.00674
            103  C  3  X      0.67878     0.60614
            104  C  3  Y      0.67878     0.60702
            105  C  3  Z      0.62617     0.56379
            106  C  3  X      0.33390     0.46133
            107  C  3  Y      0.33390     0.46228
            108  C  3  Z      0.53234     0.53362
            109  C  3 XX      0.01123     0.18658
            110  C  3 YY      0.01294     0.18658
            111  C  3 ZZ      0.01294     0.16704
            112  C  3 XY      0.01332     0.03430
            113  C  3 XZ      0.01332     0.02968
            114  C  3 YZ      0.00000     0.02965
            115  H  4  S      0.72026     0.57630
            116  H  4  S      0.20315     0.24531
            117  H  4  X      0.01106     0.02912
            118  H  4  Y      0.01593     0.03555
            119  H  4  Z      0.01064     0.03656
            120  H  5  S      0.72026     0.57630
            121  H  5  S      0.20315     0.24531
            122  H  5  X      0.01106     0.02912
            123  H  5  Y      0.01593     0.03555
            124  H  5  Z      0.01064     0.03656
            125  H  6  S      0.72026     0.57999
            126  H  6  S      0.20315     0.24581
            127  H  6  X      0.01836     0.03889
            128  H  6  Y      0.00862     0.02668
            129  H  6  Z      0.01064     0.03677
            130  H  7  S      0.72026     0.57630
            131  H  7  S      0.20315     0.24531
            132  H  7  X      0.01106     0.02912
            133  H  7  Y      0.01593     0.03555
            134  H  7  Z      0.01064     0.03656
            135  H  8  S      0.72026     0.57630
            136  H  8  S      0.20315     0.24531
            137  H  8  X      0.01106     0.02912
            138  H  8  Y      0.01593     0.03555
            139  H  8  Z      0.01064     0.03656
            140  H  9  S      0.72026     0.57999
            141  H  9  S      0.20315     0.24581
            142  H  9  X      0.01836     0.03889
            143  H  9  Y      0.00862     0.02668
            144  H  9  Z      0.01064     0.03677

          ----- MULLIKEN ATOMIC OVERLAP POPULATIONS -----
          (OFF-DIAGONAL ELEMENTS NEED TO BE MULTIPLIED BY 2)

             1           2           3           4           5

    1   79.0160914
    2    0.2483686   5.0220597
    3    0.2483686  -0.0121311   5.0220597
    4   -0.0189579   0.0000442   0.3863016   0.6428112
    5   -0.0189579   0.0000442   0.3863016  -0.0245832   0.6428112
    6   -0.0189579   0.3863016   0.0000442   0.0000060   0.0000060
    7   -0.0189579   0.3863016   0.0000442  -0.0000031   0.0000060
    8   -0.0189579   0.3863016   0.0000442   0.0000060  -0.0000031
    9   -0.0189579   0.0000442   0.3863016  -0.0245832  -0.0245832

             6           7           8           9

    6    0.6428112
    7   -0.0245832   0.6428112
    8   -0.0245832  -0.0245832   0.6428112
    9   -0.0000031   0.0000060   0.0000060   0.6428112

          TOTAL MULLIKEN AND LOWDIN ATOMIC POPULATIONS
       ATOM         MULL.POP.    CHARGE          LOW.POP.     CHARGE
    1 HG           79.399081    0.600919        79.372434    0.627566
    2 C             6.417335   -0.417335         6.539978   -0.539978
    3 C             6.417335   -0.417335         6.539978   -0.539978
    4 H             0.961042    0.038958         0.922837    0.077163
    5 H             0.961042    0.038958         0.922837    0.077163
    6 H             0.961042    0.038958         0.928132    0.071868
    7 H             0.961042    0.038958         0.922837    0.077163
    8 H             0.961042    0.038958         0.922837    0.077163
    9 H             0.961042    0.038958         0.928132    0.071868

          MULLIKEN SPHERICAL HARMONIC POPULATIONS
       ATOM           S       P       D      F      G      H      I    TOTAL
    1 HG           11.29   24.28   29.74  14.09   0.00   0.00   0.00   79.40
    2 C             3.17    3.19    0.06   0.00   0.00   0.00   0.00    6.42
    3 C             3.17    3.19    0.06   0.00   0.00   0.00   0.00    6.42
    4 H             0.92    0.04    0.00   0.00   0.00   0.00   0.00    0.96
    5 H             0.92    0.04    0.00   0.00   0.00   0.00   0.00    0.96
    6 H             0.92    0.04    0.00   0.00   0.00   0.00   0.00    0.96
    7 H             0.92    0.04    0.00   0.00   0.00   0.00   0.00    0.96
    8 H             0.92    0.04    0.00   0.00   0.00   0.00   0.00    0.96
    9 H             0.92    0.04    0.00   0.00   0.00   0.00   0.00    0.96

          -------------------------------
          BOND ORDER AND VALENCE ANALYSIS     BOND ORDER THRESHOLD=0.050
          -------------------------------

                   BOND                       BOND                       BOND
  ATOM PAIR DIST  ORDER      ATOM PAIR DIST  ORDER      ATOM PAIR DIST  ORDER
    1   2  2.220  0.691        1   3  2.220  0.691        2   3  4.441  0.161
    2   6  1.090  0.952        2   7  1.090  0.952        2   8  1.090  0.952
    3   4  1.090  0.952        3   5  1.090  0.952        3   9  1.090  0.952

                       TOTAL       BONDED        FREE
      ATOM            VALENCE     VALENCE     VALENCE
    1 HG                2.073       1.388       0.685
    2 C                 4.029       3.713       0.316
    3 C                 4.029       3.713       0.316
    4 H                 1.005       0.952       0.053
    5 H                 1.005       0.952       0.053
    6 H                 1.005       0.952       0.053
    7 H                 1.005       0.952       0.053
    8 H                 1.005       0.952       0.053
    9 H                 1.005       0.952       0.053

          ---------------------
          ELECTROSTATIC MOMENTS
          ---------------------

 POINT   1           X           Y           Z (BOHR)    CHARGE
                 0.000000   -0.000000    0.000000        0.00 (A.U.)
         DX          DY          DZ         /D/  (DEBYE)
    -0.000000   -0.000000   -0.000000    0.000000
 ...... END OF PROPERTY EVALUATION ......
 CPU     0: STEP CPU TIME=     0.03 TOTAL CPU TIME=      221.1 (    3.7 MIN)
 TOTAL WALL CLOCK TIME=      221.9 SECONDS, CPU UTILIZATION IS  99.65%

 BEGINNING ONE ELECTRON GRADIENT...
 OPENING FILE DAFL30 WITH     108 LOGICAL RECORDS OF   20736 WORDS
 WITH A MAXIMUM OF        1188 PHYSICAL RECORDS OF    2048 WORDS

 =======================================================================
 ANALYTICAL GRADIENT OF INFINITE-ORDER TWO-COMPONENT (IOTC)
 ONE-ELECTRON HAMILTONIAN WITH LOCAL UNITARY TRANSFORMATION (LUT) SCHEME
                                                  CODED BY YUYA NAKAJIMA
      Y. NAKAJIMA, J. SEINO, H. NAKAI, J. CHEM. PHYS. 139, 244107 (2013)
 =======================================================================

 TIME TO DO LUT GRADIENT INTEGRALS=      0.53
 ..... END OF 1-ELECTRON GRADIENT ......
 CPU     0: STEP CPU TIME=     2.36 TOTAL CPU TIME=      223.4 (    3.7 MIN)
 TOTAL WALL CLOCK TIME=      224.3 SECONDS, CPU UTILIZATION IS  99.64%

      COMPUTING 2-PARTICLE GRADIENT
      FORMING BACK-TRANSFORMED AMPLITUDES
 THE COARSE/FINE SCHWARZ SCREENINGS SKIPPED    1163468/   1138897 BLOCKS.
 THE NUMBER OF GRADIENT INTEGRAL BLOCKS COMPUTED WAS   2249332
 ..... DONE WITH MP2 GRADIENT .....
 CPU     0: STEP CPU TIME=   139.03 TOTAL CPU TIME=      362.5 (    6.0 MIN)
 TOTAL WALL CLOCK TIME=      363.8 SECONDS, CPU UTILIZATION IS  99.65%

                         ----------------------
                         GRADIENT OF THE ENERGY
                         ----------------------

 UNITS ARE HARTREE/BOHR    E'X               E'Y               E'Z 
    1 HG               0.000000000       0.000000000       0.000000000
    2 C                0.000000000       0.000000000      -0.029353767
    3 C                0.000000000       0.000000000       0.029353767
    4 H               -0.003826229       0.006627223       0.001466772
    5 H               -0.003826229      -0.006627223       0.001466772
    6 H                0.007652458       0.000000000      -0.001466772
    7 H               -0.003826229       0.006627223      -0.001466772
    8 H               -0.003826229      -0.006627223      -0.001466772
    9 H                0.007652458       0.000000000       0.001466772

                   MAXIMUM GRADIENT =    0.029353767
                       RMS GRADIENT =    0.008793003
  $VIB   
          IVIB=   0 IATOM=   0 ICOORD=   0 E=   -19702.3134230991
  0.000000000E+00 0.000000000E+00 0.000000000E+00 0.000000000E+00 0.000000000E+00
 -2.935376740E-02 0.000000000E+00 0.000000000E+00 2.935376740E-02-3.826228938E-03
  6.627222922E-03 1.466771544E-03-3.826228938E-03-6.627222922E-03 1.466771544E-03
  7.652457876E-03 0.000000000E+00-1.466771544E-03-3.826228938E-03 6.627222922E-03
 -1.466771544E-03-3.826228938E-03-6.627222922E-03-1.466771544E-03 7.652457876E-03
  0.000000000E+00 1.466771544E-03
 -1.315018046E-13-4.400746826E-14-5.418100102E-14

..... END OF SINGLE POINT GRADIENT .....
 CPU     0: STEP CPU TIME=     0.00 TOTAL CPU TIME=      362.5 (    6.0 MIN)
 TOTAL WALL CLOCK TIME=      363.8 SECONDS, CPU UTILIZATION IS  99.65%
              5836135  WORDS OF DYNAMIC MEMORY USED
 EXECUTION OF GAMESS TERMINATED NORMALLY Fri Jun  2 02:42:16 2017
 DDI: 357169840 bytes (340.6 MB / 42 MWords) used by master data server.

 ----------------------------------------
 CPU timing information for all processes
 ========================================
 0: 362.216 + 0.275 = 362.492
 ----------------------------------------
 ddikick.x: exited gracefully.
unset echo
----- accounting info -----
Files used on the master node compute-0-6.local were:
-rw-rw-r-- 1 sarom sarom     2862 Jun  2 02:36 /scratch/hgme2-lut.F05
-rw-rw-r-- 1 sarom sarom  6413120 Jun  2 02:42 /scratch/hgme2-lut.F10
-rw-rw-r-- 1 sarom sarom 74317824 Jun  2 02:39 /scratch/hgme2-lut.F30
-rw-rw-r-- 1 sarom sarom   578072 Jun  2 02:36 /scratch/hgme2-lut.F45
-rw-rw-r-- 1 sarom sarom   578072 Jun  2 02:36 /scratch/hgme2-lut.F46
rm: cannot remove `/scratch/sarom': Is a directory
rm: cannot remove `/scratch/tmp': Is a directory
ls: No match.
ls: No match.
ls: No match.
Fri Jun  2 02:42:19 CDT 2017
0.244u 0.165s 6:07.30 0.1%	0+0k 8+352io 0pf+0w
/opt/gridengine/default/spool/compute-0-6/active_jobs/23762.1/pe_hostfile compute-0-6.local
