-catch_rsh /opt/gridengine/default/spool/compute-0-2/active_jobs/23765.1/pe_hostfile
compute-0-2
The primary node assigned by SGE to this run is compute-0-2
Warning: no access to tty (Bad file descriptor).
Thus no job control in this shell.
Deleting shmid=3964928.
Deleting shmid=3997697.
Deleting shmid=4227074.
source /home/sarom/gamess.github.2017-05-31.14.06/install.info
setenv GMS_PATH /home/sarom/gamess.github.2017-05-31.14.06
setenv GMS_BUILD_DIR /home/sarom/gamess.github.2017-05-31.14.06
setenv GMS_TARGET linux64
setenv GMS_FORTRAN gfortran
setenv GMS_GFORTRAN_VERNO 4.4
setenv GMS_MATHLIB mkl-so
setenv GMS_MATHLIB_PATH /share/apps/intel/compilers_and_libraries_2017.1.132/linux/mkl/lib/intel64
setenv GMS_MKL_VERNO 12
setenv GMS_DDI_COMM sockets
setenv GMS_LIBCCHEM false
setenv GMS_EIGEN_PATH
setenv GMS_PHI false
setenv GMS_SHMTYPE sysv
setenv GMS_OPENMP false
unset echo
i-soc
tests/relwfn
----- GAMESS execution script 'rungms' -----
This job is running on host compute-0-2.local
under operating system Linux at Fri Jun 2 02:37:27 CDT 2017
Available scratch disk space (Kbyte units) at beginning of the job is
Filesystem           1K-blocks      Used Available Use% Mounted on
/dev/sda1             16126920   3867312  11440408  26% /
GAMESS temporary binary files will be written to /scratch
GAMESS supplementary output files will be written to /home/sarom/restart
Copying input file i-soc.inp to your run's scratch directory...
cp tests/relwfn/i-soc.inp /scratch/i-soc.F05
unset echo
The generated host list is
compute-0-2.local
/home/sarom/gamess.github.2017-05-31.14.06/ddikick.x /home/sarom/gamess.github.2017-05-31.14.06/gamess.00.x i-soc -ddi 1 1 compute-0-2.local -scr /scratch

 Distributed Data Interface kickoff program.
 Initiating 1 compute processes on 1 nodes to run the following command:
 /home/sarom/gamess.github.2017-05-31.14.06/gamess.00.x i-soc 

          ******************************************************
          *         GAMESS VERSION = 20 APR 2017 (R1)          *
          *             FROM IOWA STATE UNIVERSITY             *
          * M.W.SCHMIDT, K.K.BALDRIDGE, J.A.BOATZ, S.T.ELBERT, *
          *   M.S.GORDON, J.H.JENSEN, S.KOSEKI, N.MATSUNAGA,   *
          *          K.A.NGUYEN, S.J.SU, T.L.WINDUS,           *
          *       TOGETHER WITH M.DUPUIS, J.A.MONTGOMERY       *
          *         J.COMPUT.CHEM.  14, 1347-1363(1993)        *
          **************** 64 BIT LINUX VERSION ****************

  SINCE 1993, STUDENTS AND POSTDOCS WORKING AT IOWA STATE UNIVERSITY
  AND ALSO IN THEIR VARIOUS JOBS AFTER LEAVING ISU HAVE MADE IMPORTANT
  CONTRIBUTIONS TO THE CODE:
     IVANA ADAMOVIC, CHRISTINE AIKENS, YURI ALEXEEV, POOJA ARORA,
     ANDREY ASADCHEV, ROB BELL, PRADIPTA BANDYOPADHYAY, JONATHAN BENTZ,
     BRETT BODE, KURT BRORSEN, CALEB CARLIN, GALINA CHABAN, WEI CHEN,
     CHEOL HO CHOI, PAUL DAY, ALBERT DEFUSCO, NUWAN DESILVA, TIM DUDLEY,
     DMITRI FEDOROV, GRAHAM FLETCHER, MARK FREITAG, KURT GLAESEMANN,
     DAN KEMP, GRANT MERRILL, NORIYUKI MINEZAWA, JONATHAN MULLIN,
     TAKESHI NAGATA, SEAN NEDD, HEATHER NETZLOFF, BOSILJKA NJEGIC, RYAN OLSON,
     MIKE PAK, SPENCER PRUITT, LUKE ROSKOP, JIM SHOEMAKER, LYUDMILA SLIPCHENKO,
     TONY SMITH, SAROM SOK LEANG, JIE SONG, TETSUYA TAKETSUGU, SIMON WEBB,
     PENG XU, SOOHAENG YOO, FEDERICO ZAHARIEV

  ADDITIONAL CODE HAS BEEN PROVIDED BY COLLABORATORS IN OTHER GROUPS:
     IOWA STATE UNIVERSITY:
          JOE IVANIC, AARON WEST, LAIMUTIS BYTAUTAS, KLAUS RUEDENBERG
     UNIVERSITY OF TOKYO: KIMIHIKO HIRAO, TAKAHITO NAKAJIMA,
          TAKAO TSUNEDA, MUNEAKI KAMIYA, SUSUMU YANAGISAWA,
          KIYOSHI YAGI, MAHITO CHIBA, SEIKEN TOKURA, NAOAKI KAWAKAMI
     UNIVERSITY OF AARHUS: FRANK JENSEN
     UNIVERSITY OF IOWA: VISVALDAS KAIRYS, HUI LI
     NATIONAL INST. OF STANDARDS AND TECHNOLOGY: WALT STEVENS, DAVID GARMER
     UNIVERSITY OF PISA: BENEDETTA MENNUCCI, JACOPO TOMASI
     UNIVERSITY OF MEMPHIS: HENRY KURTZ, PRAKASHAN KORAMBATH
     UNIVERSITY OF ALBERTA: TOBY ZENG, MARIUSZ KLOBUKOWSKI
     UNIVERSITY OF NEW ENGLAND: MARK SPACKMAN
     MIE UNIVERSITY: HIROAKI UMEDA
     NAT. INST. OF ADVANCED INDUSTRIAL SCIENCE AND TECHNOLOGY: KAZUO KITAURA
     MICHIGAN STATE UNIVERSITY:
          KAROL KOWALSKI, MARTA WLOCH, JEFFREY GOUR, JESSE LUTZ,
          WEI LI, PIOTR PIECUCH
     UNIVERSITY OF SILESIA: MONIKA MUSIAL, STANISLAW KUCHARSKI
     FACULTES UNIVERSITAIRES NOTRE-DAME DE LA PAIX:
          OLIVIER QUINET, BENOIT CHAMPAGNE
     UNIVERSITY OF CALIFORNIA - SANTA BARBARA: BERNARD KIRTMAN
     INSTITUTE FOR MOLECULAR SCIENCE:
          KAZUYA ISHIMURA, MICHIO KATOUDA, AND SHIGERU NAGASE
     UNIVERSITY OF NOTRE DAME: ANNA POMOGAEVA, DAN CHIPMAN
     KYUSHU UNIVERSITY:
          HARUYUKI NAKANO,
          FENG LONG GU, JACEK KORCHOWIEC, MARCIN MAKOWSKI, AND YURIKO AOKI,
          HIROTOSHI MORI AND EISAKU MIYOSHI
     PENNSYLVANIA STATE UNIVERSITY:
          TZVETELIN IORDANOV, CHET SWALINA, JONATHAN SKONE,
          SHARON HAMMES-SCHIFFER
     WASEDA UNIVERSITY:
          MASATO KOBAYASHI, TOMOKO AKAMA, TSUGUKI TOUMA,
          TAKESHI YOSHIKAWA, YASUHIRO IKABATA, JUNJI SEINO,
          YUYA NAKAJIMA, HIROMI NAKAI
     NANJING UNIVERSITY: SHUHUA LI
     UNIVERSITY OF NEBRASKA:
          PEIFENG SU, DEJUN SI, NANDUN THELLAMUREGE, YALI WANG, HUI LI
     UNIVERSITY OF ZURICH: ROBERTO PEVERATI, KIM BALDRIDGE
     N. COPERNICUS UNIVERSITY AND JACKSON STATE UNIVERSITY:
          MARIA BARYSZ
     UNIVERSITY OF COPENHAGEN: Jimmy Kromann, CASPER STEINMANN
     TOKYO INSTITUTE OF TECHNOLOGY: HIROYA NAKATA
     NAGOYA UNIVERSITY: YOSHIO NISHIMOTO, STEPHAN IRLE
     MOSCOW STATE UNIVERSITY: VLADIMIR MIRONOV

 EXECUTION OF GAMESS BEGUN Fri Jun  2 02:37:27 2017

            ECHO OF THE FIRST FEW INPUT CARDS -
 INPUT CARD>!  This computes the 2-P-J levels of Iodine, given 2-P LS orbitals.             
 INPUT CARD>!  text book angular momentum says S=1/2 and L=1 couple to J=3/2 and J=1/2      
 INPUT CARD>!  This is largely a pedagogical example.                                       
 INPUT CARD>!                                                                               
 INPUT CARD>!  CI ENERGY LEVELS IN CM-1 AND CI ABSOLUTE LEVELS IN A.U                       
 INPUT CARD>!     1     0.0000  -6887.8488560892     clearly, this level is J=3/2           
 INPUT CARD>!     2     0.0000  -6887.8488560892                                            
 INPUT CARD>!     3     0.0000  -6887.8488560892                                            
 INPUT CARD>!     4     0.0000  -6887.8488560892                                            
 INPUT CARD>!     5  5751.8724  -6887.8226490766     clearly, this level is J=1/2           
 INPUT CARD>!     6  5751.8724  -6887.8226490766                                            
 INPUT CARD>!                                                                               
 INPUT CARD>!  This run takes 1 seconds on a 2.66 GHz Cloverton (22 Apr 2015)               
 INPUT CARD>!  results have not changed since 2001.                                         
 INPUT CARD>!                                                                               
 INPUT CARD>!  ---------------------------------------------------------------              
 INPUT CARD>!  Step 1 is to run the following input, which yields a ROHF/3-21G              
 INPUT CARD>!  energy of -6887.8401204187 for the Russell-Saunders LS 2-P term.             
 INPUT CARD>!                                                                               
 INPUT CARD>-----!  This is a Russell-Saunders -LS- coupled computation on I atom.          
 INPUT CARD>-----!  Treatment is spin and space restricted ROHF wavefunction.               
 INPUT CARD>-----!  Explanation of SCFTYP value and $SCF is found in REFS.DOC.              
 INPUT CARD>-----!                                                                          
 INPUT CARD>----- $contrl scftyp=gvb mult=2 $end                                            
 INPUT CARD>----- $system kdiag=3 memory=300000 $end                                        
 INPUT CARD>----- $scf    nco=24 nseto=1 no(1)=3 couple=.t.                                 
 INPUT CARD>-----             f(1)= 1.0, 0.83333333333333333                                
 INPUT CARD>-----         alpha(1)= 2.0, 1.66666666666666667, 1.3333333333333333            
 INPUT CARD>-----          beta(1)=-1.0,-0.83333333333333333,-0.6666666666666667 $end       
 INPUT CARD>----- $guess  guess=huckel $end                                                 
 INPUT CARD>!                                                                               
 INPUT CARD>!  Step 2 is the job below,                                                     
 INPUT CARD>!                                                                               
 INPUT CARD>!  LS coupling of (5p)5 -configuration- produces a 2-P -term-,                  
 INPUT CARD>!  which is three-fold spatially degenerate and two-fold spin                   
 INPUT CARD>!  degenerate, so the LS term contains 6 degenerate -states-.                   
 INPUT CARD>!                                                                               
 INPUT CARD>!  By the rules of combining the angular momenta L=1 and S=1/2, we              
 INPUT CARD>!  have possible J values 3/2 and 1/2.  The degeneracies g=2J+1 are             
 INPUT CARD>!  4+2 = six states.  Check: we should have as many J -levels- as               
 INPUT CARD>!  original LS coupled states.  A textbook will tell you a shell                
 INPUT CARD>!  which is more than half filled normally has inverted levels,                 
 INPUT CARD>!  so we anticipate the 2-P-3/2 level to lie below 2-P-1/2, and                 
 INPUT CARD>!  thus 4 degenerate levels appearing below 2 degenerate levels.                
 INPUT CARD>!                                                                               
 INPUT CARD>!  The CI to reproduce the three 2-P spatial LS wavefunctions                   
 INPUT CARD>!  has an energy -6887.840120419.  Note that this almost exactly                
 INPUT CARD>!  reproduces the SCF energy, this very limited CI just recreates               
 INPUT CARD>!  the open shell SCF wavefunction.  (3 CSFs, 3 roots, i.e. one                 
 INPUT CARD>!  configuration per root, i.e. SCF).                                           
    2000000 WORDS OF MEMORY AVAILABLE

     BASIS OPTIONS
     -------------
     GBASIS=N21          IGAUSS=       3      POLAR=NONE    
     NDFUNC=       0     NFFUNC=       0     DIFFSP=       F
     NPFUNC=       0      DIFFS=       F     BASNAM=        


     RUN TITLE
     ---------
 I atom...2-P                                                                    

 THE POINT GROUP OF THE MOLECULE IS DNH     
 THE ORDER OF THE PRINCIPAL AXIS IS     2

 ATOM      ATOMIC                      COORDINATES (BOHR)
           CHARGE         X                   Y                   Z
 I          53.0     0.0000000000        0.0000000000        0.0000000000

          INTERNUCLEAR DISTANCES (ANGS.)
          ------------------------------

                1 I     

   1 I       0.0000000  

  * ... LESS THAN  3.000


     ATOMIC BASIS SET
     ----------------
 THE CONTRACTED PRIMITIVE FUNCTIONS HAVE BEEN UNNORMALIZED
 THE CONTRACTED BASIS FUNCTIONS ARE NOW NORMALIZED TO UNITY

  SHELL TYPE  PRIMITIVE        EXPONENT          CONTRACTION COEFFICIENT(S)

 I         

      1   S       1         14351.1860000    0.061002801211
      1   S       2          2173.0741000    0.366639807281
      1   S       3           477.8720500    0.691130613725

      2   L       4           648.1887000   -0.112850698620    0.154114493237
      2   L       5           140.3064000    0.083228338982    0.619461772816
      2   L       6            45.6988000    0.969751588138    0.383758283159

      3   L       7            56.6946900   -0.273696515460   -0.152321688285
      3   L       8            27.4887500    0.046499682627    0.543768558178
      3   L       9             8.2090960    1.091576061658    0.656167849533

      4   D      10           128.0902600    0.115863604354
      4   D      11            35.9823780    0.482049418114
      4   D      12            11.5511160    0.589444822149

      5   L      13             8.1916790   -0.450827701928    0.011869880145
      5   L      14             3.2445960    0.463209401981    0.526524606432
      5   L      15             1.3004890    0.838636003587    0.526607606433

      6   D      16             6.1461523    0.268181706033
      6   D      17             2.2209370    0.580061413050
      6   D      18             0.8099120    0.326226307339

      7   L      19             1.4513800   -0.665851440678    0.027541310868
      7   L      20             0.3281033    1.328583881634    0.985136831056

      8   L      21             0.1150759    1.000000000000    1.000000000000

 TOTAL NUMBER OF BASIS SET SHELLS             =    8
 NUMBER OF CARTESIAN GAUSSIAN BASIS FUNCTIONS =   33
 NUMBER OF ELECTRONS                          =   53
 CHARGE OF MOLECULE                           =    0
 SPIN MULTIPLICITY                            =    2
 NUMBER OF OCCUPIED ORBITALS (ALPHA)          =   27
 NUMBER OF OCCUPIED ORBITALS (BETA )          =   26
 TOTAL NUMBER OF ATOMS                        =    1
 THE NUCLEAR REPULSION ENERGY IS        0.0000000000

 THIS MOLECULE IS RECOGNIZED AS BEING LINEAR,
 ORBITAL LZ DEGENERACY TOLERANCE ETOLLZ= 1.00E-06

     $CONTRL OPTIONS
     ---------------
 SCFTYP=NONE         RUNTYP=TRANSITN     EXETYP=RUN     
 MPLEVL=       0     CITYP =GUGA         CCTYP =NONE         VBTYP =NONE    
 DFTTYP=NONE         TDDFT =NONE    
 MULT  =       2     ICHARG=       0     NZVAR =       0     COORD =UNIQUE  
 PP    =NONE         RELWFN=NONE         LOCAL =NONE         NUMGRD=       F
 ISPHER=      -1     NOSYM =       0     MAXIT =      30     UNITS =ANGS    
 PLTORB=       F     MOLPLT=       F     AIMPAC=       F     FRIEND=        
 NPRINT=       7     IREST =       0     GEOM  =INPUT   
 NORMF =       0     NORMP =       0     ITOL  =      20     ICUT  =       9
 INTTYP=BEST         GRDTYP=BEST         QMTTOL= 1.0E-06

     $SYSTEM OPTIONS
     ---------------
  REPLICATED MEMORY=     2000000 WORDS (ON EVERY NODE).
 DISTRIBUTED MEMDDI=           0 MILLION WORDS IN AGGREGATE,
 MEMDDI DISTRIBUTED OVER   1 PROCESSORS IS           0 WORDS/PROCESSOR.
 TOTAL MEMORY REQUESTED ON EACH PROCESSOR=     2000000 WORDS.
 TIMLIM=      525600.00 MINUTES, OR     365.0 DAYS.
 PARALL= F  BALTYP=  DLB     KDIAG=    0  COREFL= F
 MXSEQ2=     300 MXSEQ3=     150  mem10=         0

          ----------------
          PROPERTIES INPUT
          ----------------

     MOMENTS            FIELD           POTENTIAL          DENSITY
 IEMOM =       1   IEFLD =       0   IEPOT =       0   IEDEN =       0
 WHERE =COMASS     WHERE =NUCLEI     WHERE =NUCLEI     WHERE =NUCLEI  
 OUTPUT=BOTH       OUTPUT=BOTH       OUTPUT=BOTH       OUTPUT=BOTH    
 IEMINT=       0   IEFINT=       0                     IEDINT=       0
                                                       MORB  =       0
          EXTRAPOLATION IN EFFECT
          SOSCF IN EFFECT
 ORBITAL PRINTING OPTION: NPREO=     1    33     2     1

     -------------------------------
     INTEGRAL TRANSFORMATION OPTIONS
     -------------------------------
     NWORD  =            0
     CUTOFF = 1.0E-09     MPTRAN =       0
     DIRTRF =       F     AOINTS =DUP     

          ----------------------
          INTEGRAL INPUT OPTIONS
          ----------------------
 NOPK  =       1 NORDER=       0 SCHWRZ=       F

     ------------------------------------------
     THE POINT GROUP IS DNH, NAXIS= 2, ORDER= 8
     ------------------------------------------

     DIMENSIONS OF THE SYMMETRY SUBSPACES ARE
 AG  =   12     AU  =    0     B3U =    5     B3G =    2     B1G =    2
 B1U =    5     B2U =    5     B2G =    2

 ..... DONE SETTING UP THE RUN .....
 STEP CPU TIME =     0.02 TOTAL CPU TIME =        0.0 (    0.0 MIN)
 TOTAL WALL CLOCK TIME=        0.0 SECONDS, CPU UTILIZATION IS  66.67%

     ------------------------
     TRANSITION MOMENT DRIVER
     ------------------------

     -------------------------------
     INPUT FOR TRANSITION MOMENT RUN
     -------------------------------
     OPERAT=HSO2         NFZC  =      24     NOCC  =      27
     NUMCI =       1     NUMVEC=       1     SYMTOL=   1.0E-04
     IPRHSO=       0     NOSYM =       0     ETOL  =   100.000000
     UPPER ENERGY LIMIT FOR SPIN-ORBIT CI MATRIX   =      100.000 HARTREE.
     TMOMNT=       F     SKIPDM=       T     PRTPRM=       F
     SLOWFF=       F     PHYSRC=       F     MODPAR=       3
     JZ    =       1     PARMP =       0     ZEFTYP=TRUE    
     MCP2E =       0     ONECNT=       0     NFFBUF=      -1
     EEQTOL=   0.10E-05  ISTNO =  0  0
     DEGTOL= .0200 .0020

     L2VAL =        -1
     IROOTS=         3
     NSTATE=         3
     IVEX  =         1
     ZEFF  =       53.0

          ********************
          1 ELECTRON INTEGRALS
          ********************
 ...... END OF ONE-ELECTRON INTEGRALS ......
 STEP CPU TIME =     0.00 TOTAL CPU TIME =        0.0 (    0.0 MIN)
 TOTAL WALL CLOCK TIME=        0.0 SECONDS, CPU UTILIZATION IS  66.67%
 OPENING FILE SOCCDAT WITH       6 LOGICAL RECORDS OF       0 WORDS
 WITH A MAXIMUM OF           6 PHYSICAL RECORDS OF    2048 WORDS


          ----------------------
          CORRESPONDING ORBITALS
          ----------------------
 THE CORRESPONDING ORBITAL OVERLAPS ARE
  1.0000000000 1.0000000000 1.0000000000 1.0000000000 1.0000000000
  1.0000000000 1.0000000000 1.0000000000 1.0000000000 1.0000000000
  1.0000000000 1.0000000000 1.0000000000 1.0000000000 1.0000000000
  1.0000000000 1.0000000000 1.0000000000 1.0000000000 1.0000000000
  1.0000000000 1.0000000000 1.0000000000 1.0000000000 1.0000000000
  1.0000000000 1.0000000000
 STEP CPU TIME =     0.00 TOTAL CPU TIME =        0.0 (    0.0 MIN)
 TOTAL WALL CLOCK TIME=        0.0 SECONDS, CPU UTILIZATION IS  66.67%

                    ----------------------
                    AO INTEGRAL TECHNOLOGY
                    ----------------------
     S,P,L SHELL ROTATED AXIS INTEGRALS, REPROGRAMMED BY
        KAZUYA ISHIMURA (IMS) AND JOSE SIERRA (SYNSTAR).
     S,P,D,L SHELL ROTATED AXIS INTEGRALS PROGRAMMED BY
        KAZUYA ISHIMURA (INSTITUTE FOR MOLECULAR SCIENCE).
     S,P,D,F,G SHELL TO TOTAL QUARTET ANGULAR MOMENTUM SUM 5,
        ERIC PROGRAM BY GRAHAM FLETCHER (ELORET AND NASA ADVANCED
        SUPERCOMPUTING DIVISION, AMES RESEARCH CENTER).
     S,P,D,F,G,L SHELL GENERAL RYS QUADRATURE PROGRAMMED BY
        MICHEL DUPUIS (PACIFIC NORTHWEST NATIONAL LABORATORY).

          --------------------
          2 ELECTRON INTEGRALS
          --------------------

 THE -PK- OPTION IS OFF, THE INTEGRALS ARE NOT IN SUPERMATRIX FORM.
 STORING   15000 INTEGRALS/RECORD ON DISK, USING 12 BYTES/INTEGRAL.
 TWO ELECTRON INTEGRAL EVALUATION REQUIRES   90432 WORDS OF MEMORY.
 II,JST,KST,LST =  1  1  1  1 NREC =         1 INTLOC =    1
 II,JST,KST,LST =  2  1  1  1 NREC =         1 INTLOC =    2
 II,JST,KST,LST =  3  1  1  1 NREC =         1 INTLOC =   34
 II,JST,KST,LST =  4  1  1  1 NREC =         1 INTLOC =  214
 II,JST,KST,LST =  5  1  1  1 NREC =         1 INTLOC = 1189
 II,JST,KST,LST =  6  1  1  1 NREC =         1 INTLOC = 2864
 II,JST,KST,LST =  7  1  1  1 NREC =         1 INTLOC = 7967
 II,JST,KST,LST =  8  1  1  1 NREC =         1 INTLOC =14065
 TOTAL NUMBER OF NONZERO TWO-ELECTRON INTEGRALS =               23256
          2 INTEGRAL RECORDS WERE STORED ON DISK FILE  8.
  ...... END OF TWO-ELECTRON INTEGRALS .....
 STEP CPU TIME =     0.02 TOTAL CPU TIME =        0.0 (    0.0 MIN)
 TOTAL WALL CLOCK TIME=        0.1 SECONDS, CPU UTILIZATION IS  66.67%
 ...... END OF ORBITAL SELECTION ......


     -------------------------
      1-ST     CI CALCULATION
     -------------------------

          -----------------------     ----------------------------
          GUGA DISTINCT ROW TABLE     WRITTEN BY B.R.BROOKS,P.SAXE
          -----------------------     ----------------------------

      GROUP=C1           NPRT=       0
       FORS=       T   INTACT=       F
       FOCI=       F   MXNINT=   50000
       SOCI=       F   MXNEME=   10000
     IEXCIT=       0

      -CORE-    -INTERNAL-  -EXTERNAL-
     NFZC=  24   NDOC=   2   NEXT=   0
     NMCC=   0   NAOS=   0   NFZV=   0
                 NBOS=   0
                 NALP=   1
                 NVAL=   0

 THE MAXIMUM ELECTRON EXCITATION WILL BE   1

 THE FOLLOWING ANALYSIS IS BASED UPON THE $DATA POINT GROUP:

 SYMMETRIES FOR THE  24 CORE,   3 ACTIVE,   0 EXTERNAL MO-S ARE
     CORE= AG    AG    B3U   B2U   B1U   AG    B3U   B2U   B1U   AG  
           AG    B1G   B2G   B3G   AG    B3U   B2U   B1U   AG    AG  
           B1G   B2G   B3G   AG  
   ACTIVE= B3U   B2U   B1U 
           DOC   DOC   ALP 

 THE FOLLOWING ANALYSIS IS BASED UPON THE $DRT POINT GROUP:

 SYMMETRIES FOR THE  24 CORE,   3 ACTIVE,   0 EXTERNAL MO-S ARE
     CORE= A     A     A     A     A     A     A     A     A     A   
           A     A     A     A     A     A     A     A     A     A   
           A     A     A     A   
   ACTIVE= A     A     A   
           DOC   DOC   ALP 

 MOLECULAR CHARGE          =    0
 NUMBER OF ALPHA ELECTRONS =   27
 NUMBER OF  BETA ELECTRONS =   26

 THE ELECTRONIC STATE IS  2-A   

 THE DISTINCT ROW TABLE HAS         6 ROWS.
  THE WAVEFUNCTION CONTAINS         3 WALKS (CSF-S).

 TOTAL NUMBER OF INTEGRALS =         29
 NUMBER OF INTEGRALS/GROUP =         29
 NUMBER OF INTEGRAL GROUPS =          1
 MAXIMUM RECORD SIZES ARE     500 FOR UNIT 11      22 FOR UNIT 12
                            30001 FOR UNIT 15   30001 FOR UNIT 16
 ...... END OF -DRT- GENERATION ...... 
 STEP CPU TIME =     0.01 TOTAL CPU TIME =        0.1 (    0.0 MIN)
 TOTAL WALL CLOCK TIME=        0.1 SECONDS, CPU UTILIZATION IS  83.33%

     --------------------------------------------
     PARTIAL TWO ELECTRON INTEGRAL TRANSFORMATION
     --------------------------------------------

 NUMBER OF CORE MOLECULAR ORBITALS     =   24
 NUMBER OF OCCUPIED MOLECULAR ORBITALS =   27
 TOTAL NUMBER OF MOLECULAR ORBITALS    =   27
 TOTAL NUMBER OF ATOMIC ORBITALS       =   33
 THRESHOLD FOR KEEPING TRANSFORMED 2E- INTEGRALS = 1.000E-09
 AO INTEGRALS WILL BE READ IN FROM DISK...
 EVALUATING THE FROZEN CORE ENERGY...
 ----- FROZEN CORE ENERGY =     -6882.4279451617

 PLAN A: REQUIREMENTS FOR FULLY IN-MEMORY TRANSFORMATION:
 # OF WORDS AVAILABLE =              1969118
 # OF WORDS NEEDED    =               121052

 CHOOSING IN MEMORY PARTIAL TRANSFORMATION...
 TOTAL NUMBER OF TRANSFORMED 2E- INTEGRALS KEPT =            9
 ... END OF INTEGRAL TRANSFORMATION ...
 STEP CPU TIME =     0.01 TOTAL CPU TIME =        0.1 (    0.0 MIN)
 TOTAL WALL CLOCK TIME=        0.1 SECONDS, CPU UTILIZATION IS 100.00%

          ------------------------
          GUGA-CI INTEGRAL SORTING
          ------------------------

     80031 WORDS NEEDED TO SORT             29 GUGA INTEGRALS IN MEMORY
   1969118 WORDS ARE AVAILABLE
 CHOOSING IN-MEMORY SORTING...
 IN CORE ALGORITHM SORTED              6 NON-ZERO 1E- INTEGRALS
 IN CORE ALGORITHM SORTED              9 NON-ZERO 2E- INTEGRALS
 ...... END OF INTEGRAL SORTING ...... 
 STEP CPU TIME =     0.00 TOTAL CPU TIME =        0.1 (    0.0 MIN)
 TOTAL WALL CLOCK TIME=        0.1 SECONDS, CPU UTILIZATION IS 100.00%

 -------------------------     ---------------------------------------
 ENERGY MATRIX CALCULATION     WRITTEN BY B.R.BROOKS,W.D.LAIDIG,P.SAXE
 -------------------------     ---------------------------------------

 COMPUTING THE HAMILTONIAN FOR THE         3 CSF-S...

          22 IS THE TOTAL NUMBER OF GENERATED LOOPS
          22 WERE CREATED BY THE LOOP-DRIVEN ALGORITHM
           0 WERE CREATED IMPLICITLY

          16 IS THE TOTAL NUMBER OF PROCESSED LOOPS
          16     DIAGONAL LOOPS ARE STORED ON WORK15 IN     1 BUFFERS OF  10000 ELEMENTS.
           0 OFF DIAGONAL LOOPS ARE STORED ON WORK16 IN     1 BUFFERS OF  10000 ELEMENTS.
 ...... END OF ENERGY MATRIX CALCULATION ...... 
 STEP CPU TIME =     0.00 TOTAL CPU TIME =        0.1 (    0.0 MIN)
 TOTAL WALL CLOCK TIME=        0.1 SECONDS, CPU UTILIZATION IS  85.71%

          -----------------------------------------
          DAVIDSON METHOD CI-MATRIX DIAGONALIZATION
                   WRITTEN BY STEVE ELBERT
          -----------------------------------------
 NUMBER OF STATES REQUESTED =     3
 MAX. NUMB. OF EXPAN. VEC   =    30
 MAX. NUMB. IMPROVED STATES =     3
 MAX. NUMB. OF ITERATIONS   =    50
 CONVERGENCE CRITERION      =    1.0E-06

 CHOOSING TO SOLVE SECULAR EQUATION IN MEMORY
 NUMBER OF WORDS AVAILABLE =    1969118
 NUMBER OF WORDS USED      =      31054
 ENERGY MATRIX BUFFER SIZE =      10000
 SOLUTION FOUND WITH DIRECT METHOD

 STATE #    1  ENERGY =   -6887.840120418

      CSF      COEF    OCCUPANCY (IGNORING CORE)
      ---      ----    --------- --------- -----
        1    1.000000  212

 THE PROJECTION OF THIS CI STATE ONTO SPACE SYMMETRY B2U  WEIGHS 1.0000E+00


 STATE #    2  ENERGY =   -6887.840120418

      CSF      COEF    OCCUPANCY (IGNORING CORE)
      ---      ----    --------- --------- -----
        2    1.000000  122

 THE PROJECTION OF THIS CI STATE ONTO SPACE SYMMETRY B3U  WEIGHS 1.0000E+00


 STATE #    3  ENERGY =   -6887.840120418

      CSF      COEF    OCCUPANCY (IGNORING CORE)
      ---      ----    --------- --------- -----
        3    1.000000  221

 THE PROJECTION OF THIS CI STATE ONTO SPACE SYMMETRY B1U  WEIGHS 1.0000E+00

 ...... END OF CI-MATRIX DIAGONALIZATION ......
 STEP CPU TIME =     0.00 TOTAL CPU TIME =        0.1 (    0.0 MIN)
 TOTAL WALL CLOCK TIME=        0.1 SECONDS, CPU UTILIZATION IS  85.71%

          ---------------------
          STORE CSF INFORMATION
          --------------------

 READING THE DRT FILE
 TITLE=DRT1    Fri Jun  2 02:37:27 2017                                                
 NUMBER OF CONFIGURATIONS =          3

 READING THE CI VECTOR FILE
 RUN TITLE=I atom...2-P                                                                    
 DRT TITLE=DRT1    Fri Jun  2 02:37:27 2017                                                
     3 STATES WERE COMPUTED, NWKS=         3

 STORING CSF AND CI COEF. INFORMATION FOR    3 STATES ON FILE  17.
     ENERGIES ARE ...
   -6887.8401204  -6887.8401204  -6887.8401204
 SAVING CSFS WITH COEFS LARGER THAN 1.67E-05
 SAVED CSFS:          3
 TOTAL CSFS:          3

 ...... DONE STORING CSF INFORMATION ......
 STEP CPU TIME =     0.00 TOTAL CPU TIME =        0.1 (    0.0 MIN)
 TOTAL WALL CLOCK TIME=        0.1 SECONDS, CPU UTILIZATION IS  85.71%
 STEP CPU TIME =     0.00 TOTAL CPU TIME =        0.1 (    0.0 MIN)
 TOTAL WALL CLOCK TIME=        0.1 SECONDS, CPU UTILIZATION IS  85.71%

 ++++++++++++++++++++++++++++++++++++++++++++++++++++++++++++++++++++++


 THE SYMMETRIES OF THE ANGULAR MOMENTUM L AND TRANSLATION R:
 LX BELONGS TO B3G 
 LY BELONGS TO B2G 
 LZ BELONGS TO B1G 
 RX BELONGS TO B3U 
 RY BELONGS TO B2U 
 RZ BELONGS TO B1U 
 SOC INTEGRALS NEED BE CALCULATED FOR LX: YEA 
 SOC INTEGRALS NEED BE CALCULATED FOR LY: YEA 
 SOC INTEGRALS NEED BE CALCULATED FOR LZ: YEA 

     -------------------------------------------
            DIRECT SPIN-ORBIT COUPLING
         (SHIRO KOSEKI AND DMITRI FEDOROV)

           FULL PAULI-BREIT HAMILTONIAN.
     -------------------------------------------


ENERGY FOR THE LOWEST STATE     =    -6887.8401204184
ENERGY TOLERANCE FOR SOC MATRIX =    -6787.8401204184 (HIGHEST STATE)
                           ETOL =      100.0000000000
                         UPPREN =    -6787.8401204184

  CI# RTS#     LOWEST ENERGY      HIGHEST ENERGY     NEXT ENERGY
    1    3    -6887.8401204184    -6887.8401204184

         -------------------------------------
          TWO-ELECTRON SPIN-ORBIT AO INTEGRALS
         -------------------------------------
         USING     208379 WORDS OF MEMORY

         SAVING 2E INTEGRALS:     61744(LX),     61744(LY),     61744(LZ)
      ...... DONE WITH SPIN-ORBIT INTEGRALS ......
 STEP CPU TIME =     0.95 TOTAL CPU TIME =        1.0 (    0.0 MIN)
 TOTAL WALL CLOCK TIME=        1.0 SECONDS, CPU UTILIZATION IS 100.00%

    202609 WORDS OF MEMORY ARE REQUESTED FOR 1 PASS(ES)
    202609 WORDS FOR INTEGRALS,     31455 WORDS FOR CSFS.

 REFERENCE STATE IS SET TO    1 IN THE DRT NO. 1 (  1001).

 THE FOLLOWING LEGEND IS USED BELOW:
 [C] - THE MATRIX ELEMENT ACTUALLY CALCULATED
 [P] - OBTAINED FROM [C] BY THE WIGNER-ECKART THEOREM (<HSO>)
 [Z] - ZERO BY POINT GROUP SYMMETRY
 [W] - ZERO BY THE WIGNER-ECKART THEOREM (<HSO>)
 [S] - ZERO BY SPIN ORTHOGONALITY (<R>)

 [Z]'S ARE NOT CALCULATED.


 CI STATE FORMAT:   N-(2S+1)G:B
 G- IRREP LABEL, B NUMBERS DEGENERATE COMPONENTS OF G
 N NUMBERS EQUIVALENT TERMS (2S+1)G:B

 STATE ID FORMAT: NCI*1000+IROOT,
 WHERE NCI IS THE NTH $DRT GROUP
 AND IROOT IS THE CI ROOT'S ORDINAL NUMBER.


 -----------------------------------------------------
 4-INDEX TRANSFORMATION AO->MO 2E SO INTEGRALS, PASS 1
 -----------------------------------------------------

 PROCESSING   1-   3 OUT OF   3 MOS, <LX>
 PROCESSING   1-   3 OUT OF   3 MOS, <LY>
 PROCESSING   1-   3 OUT OF   3 MOS, <LZ>
 STEP CPU TIME =     0.01 TOTAL CPU TIME =        1.0 (    0.0 MIN)
 TOTAL WALL CLOCK TIME=        1.0 SECONDS, CPU UTILIZATION IS  99.03%
  
 < 1-2B2U  (MS= 0.5)|HSO| 1-2B2U  (MS= 0.5)> =     0.0000    -0.0000I    [Z]
 1-EL. CONTRIBUTION(CM-1)         0.0000    -0.0000I
 2-EL. CONTRIBUTION(CM-1)        -0.0000    -0.0000I
 < 1-2B2U  (MS=-0.5)|HSO| 1-2B2U  (MS=-0.5)> =    -0.0000     0.0000I    [P]
 1-EL. CONTRIBUTION(CM-1)        -0.0000     0.0000I
 2-EL. CONTRIBUTION(CM-1)         0.0000     0.0000I
 < 1-2B2U  (MS=-0.5)|HSO| 1-2B2U  (MS= 0.5)> =    -0.0000     0.0000I    [Z]
 1-EL. CONTRIBUTION(CM-1)        -0.0000     0.0000I
 2-EL. CONTRIBUTION(CM-1)        -0.0000    -0.0000I
 < 1-2B2U  (MS= 0.5)|HSO| 1-2B2U  (MS=-0.5)> =     0.0000     0.0000I    [P]
 1-EL. CONTRIBUTION(CM-1)         0.0000     0.0000I
 2-EL. CONTRIBUTION(CM-1)         0.0000    -0.0000I
  
 < 1-2B2U  (MS= 0.5)|HSO| 1-2B3U  (MS= 0.5)> =     0.0000  1917.2908I    [C]
 1-EL. CONTRIBUTION(CM-1)         0.0000  2063.9041I
 2-EL. CONTRIBUTION(CM-1)        -0.0000  -146.6133I
 < 1-2B2U  (MS=-0.5)|HSO| 1-2B3U  (MS=-0.5)> =    -0.0000 -1917.2908I    [P]
 1-EL. CONTRIBUTION(CM-1)        -0.0000 -2063.9041I
 2-EL. CONTRIBUTION(CM-1)         0.0000   146.6133I
 < 1-2B2U  (MS=-0.5)|HSO| 1-2B3U  (MS= 0.5)> =    -0.0000     0.0000I    [Z]
 1-EL. CONTRIBUTION(CM-1)        -0.0000     0.0000I
 2-EL. CONTRIBUTION(CM-1)        -0.0000    -0.0000I
 < 1-2B2U  (MS= 0.5)|HSO| 1-2B3U  (MS=-0.5)> =     0.0000     0.0000I    [P]
 1-EL. CONTRIBUTION(CM-1)         0.0000     0.0000I
 2-EL. CONTRIBUTION(CM-1)         0.0000    -0.0000I
  
 < 1-2B2U  (MS= 0.5)|HSO| 1-2B1U  (MS= 0.5)> =     0.0000    -0.0000I    [Z]
 1-EL. CONTRIBUTION(CM-1)         0.0000    -0.0000I
 2-EL. CONTRIBUTION(CM-1)        -0.0000    -0.0000I
 < 1-2B2U  (MS=-0.5)|HSO| 1-2B1U  (MS=-0.5)> =    -0.0000     0.0000I    [P]
 1-EL. CONTRIBUTION(CM-1)        -0.0000     0.0000I
 2-EL. CONTRIBUTION(CM-1)         0.0000     0.0000I
 < 1-2B2U  (MS=-0.5)|HSO| 1-2B1U  (MS= 0.5)> =    -0.0000 -1917.2908I    [C]
 1-EL. CONTRIBUTION(CM-1)        -0.0000 -2063.9041I
 2-EL. CONTRIBUTION(CM-1)        -0.0000   146.6133I
 < 1-2B2U  (MS= 0.5)|HSO| 1-2B1U  (MS=-0.5)> =     0.0000 -1917.2908I    [P]
 1-EL. CONTRIBUTION(CM-1)         0.0000 -2063.9041I
 2-EL. CONTRIBUTION(CM-1)         0.0000   146.6133I
  
 < 1-2B3U  (MS= 0.5)|HSO| 1-2B3U  (MS= 0.5)> =     0.0000    -0.0000I    [Z]
 1-EL. CONTRIBUTION(CM-1)         0.0000    -0.0000I
 2-EL. CONTRIBUTION(CM-1)        -0.0000    -0.0000I
 < 1-2B3U  (MS=-0.5)|HSO| 1-2B3U  (MS=-0.5)> =    -0.0000     0.0000I    [P]
 1-EL. CONTRIBUTION(CM-1)        -0.0000     0.0000I
 2-EL. CONTRIBUTION(CM-1)         0.0000     0.0000I
 < 1-2B3U  (MS=-0.5)|HSO| 1-2B3U  (MS= 0.5)> =    -0.0000     0.0000I    [Z]
 1-EL. CONTRIBUTION(CM-1)        -0.0000     0.0000I
 2-EL. CONTRIBUTION(CM-1)        -0.0000    -0.0000I
 < 1-2B3U  (MS= 0.5)|HSO| 1-2B3U  (MS=-0.5)> =     0.0000     0.0000I    [P]
 1-EL. CONTRIBUTION(CM-1)         0.0000     0.0000I
 2-EL. CONTRIBUTION(CM-1)         0.0000    -0.0000I
  
 < 1-2B3U  (MS= 0.5)|HSO| 1-2B1U  (MS= 0.5)> =     0.0000    -0.0000I    [Z]
 1-EL. CONTRIBUTION(CM-1)         0.0000    -0.0000I
 2-EL. CONTRIBUTION(CM-1)        -0.0000    -0.0000I
 < 1-2B3U  (MS=-0.5)|HSO| 1-2B1U  (MS=-0.5)> =    -0.0000     0.0000I    [P]
 1-EL. CONTRIBUTION(CM-1)        -0.0000     0.0000I
 2-EL. CONTRIBUTION(CM-1)         0.0000     0.0000I
 < 1-2B3U  (MS=-0.5)|HSO| 1-2B1U  (MS= 0.5)> =  1917.2908     0.0000I    [C]
 1-EL. CONTRIBUTION(CM-1)      2063.9041     0.0000I
 2-EL. CONTRIBUTION(CM-1)      -146.6133    -0.0000I
 < 1-2B3U  (MS= 0.5)|HSO| 1-2B1U  (MS=-0.5)> = -1917.2908     0.0000I    [P]
 1-EL. CONTRIBUTION(CM-1)     -2063.9041     0.0000I
 2-EL. CONTRIBUTION(CM-1)       146.6133    -0.0000I
  
 < 1-2B1U  (MS= 0.5)|HSO| 1-2B1U  (MS= 0.5)> =     0.0000    -0.0000I    [Z]
 1-EL. CONTRIBUTION(CM-1)         0.0000    -0.0000I
 2-EL. CONTRIBUTION(CM-1)        -0.0000    -0.0000I
 < 1-2B1U  (MS=-0.5)|HSO| 1-2B1U  (MS=-0.5)> =    -0.0000     0.0000I    [P]
 1-EL. CONTRIBUTION(CM-1)        -0.0000     0.0000I
 2-EL. CONTRIBUTION(CM-1)         0.0000     0.0000I
 < 1-2B1U  (MS=-0.5)|HSO| 1-2B1U  (MS= 0.5)> =    -0.0000     0.0000I    [Z]
 1-EL. CONTRIBUTION(CM-1)        -0.0000     0.0000I
 2-EL. CONTRIBUTION(CM-1)        -0.0000    -0.0000I
 < 1-2B1U  (MS= 0.5)|HSO| 1-2B1U  (MS=-0.5)> =     0.0000     0.0000I    [P]
 1-EL. CONTRIBUTION(CM-1)         0.0000     0.0000I
 2-EL. CONTRIBUTION(CM-1)         0.0000    -0.0000I
  
 STEP CPU TIME =     0.00 TOTAL CPU TIME =        1.0 (    0.0 MIN)
 TOTAL WALL CLOCK TIME=        1.0 SECONDS, CPU UTILIZATION IS  99.03%

 >>> DIMENSION OF HSO MATRIX =       6
     LARGEST NUMBER OF WALKS =       3

     THE MAX HSO MATRIX ELEMENT ABSOLUTE ERROR IS 1.92E-01 CM-1.
     TO DECREASE THE ERROR MAKE SYMTOL SMALLER.

     CI   ADIABATIC STATES (CM-1 UNIT) ---
             0.000          0.000          0.000          0.000          0.000
             0.000

 WEIGHTS OF SO   CI   STATES ---

 STATE   1: RELATIVE E=      -1917.291 CM-1; WEIGHT = 0.533  1001
         1.0000
          1      2      3
         0.5335 0.4641 0.0024

 STATE   2: RELATIVE E=      -1917.291 CM-1; WEIGHT = 0.533  1001
         1.0000
          1      2      3
         0.5335 0.4641 0.0024

 STATE   3: RELATIVE E=      -1917.291 CM-1; WEIGHT = 0.664  1003
         1.0000
          1      2      3
         0.1332 0.2026 0.6643

 STATE   4: RELATIVE E=      -1917.291 CM-1; WEIGHT = 0.664  1003
         1.0000
          1      2      3
         0.1332 0.2026 0.6643

 STATE   5: RELATIVE E=       3834.582 CM-1; WEIGHT = 0.333  1003
         1.0000
          1      2      3
         0.3333 0.3333 0.3333

 STATE   6: RELATIVE E=       3834.582 CM-1; WEIGHT = 0.333  1003
         1.0000
          1      2      3
         0.3333 0.3333 0.3333

   SPIN-MIXED   CI   STATES (CM-1 UNIT) ---
       -1917.291      -1917.291      -1917.291      -1917.291       3834.582
        3834.582

   SPIN-MIXED   CI   STATES (CM-1 UNIT) ---
      1(   1001)     2(   1001)     3(   1003)     4(   1003)     5(   1003)
       -1917.291      -1917.291      -1917.291      -1917.291       3834.582
      6(   1003)
        3834.582

 NON-ZERO   CI   SPIN-ORBIT COUPLING CONSTANTS (CM-1)
 ---------------------------------------------------------------------
 MUL1(CI)|MUL2(CI)| CI ROOT 1 | CI ROOT 2 |    FULL     | 1E ONLY
 ---------------------------------------------------------------------
  2 ( 1) | 2 ( 1) |    1- 3   |    1- 3   |      4696.38|      5055.51
 ---------------------------------------------------------------------


 ASSIGNMENT OF JZ VALUES TO THE EIGENVECTORS OF SO   CI   HAMILTONIAN:

 STATE   1: <JZ>=  -1.5( 90.0%)   0.5(  0.3%)   1.5(  9.7%)
 STATE   2: <JZ>=  -1.5(  9.7%)  -0.5(  0.4%)   1.5( 90.0%)
 STATE   3: <JZ>=  -0.5( 99.6%)   1.5(  0.4%)
 STATE   4: <JZ>=  -1.5(  0.4%)   0.5( 99.6%)
 STATE   5: <JZ>=  -0.5(100.0%)
 STATE   6: <JZ>=   0.5(100.0%)

   EIGENVALUES OF THE JZ MATRIX ---
         -1.5000        -0.5000        -0.5000         0.5000         0.5000
          1.5000
 STEP CPU TIME =     0.00 TOTAL CPU TIME =        1.0 (    0.0 MIN)
 TOTAL WALL CLOCK TIME=        1.0 SECONDS, CPU UTILIZATION IS  99.03%

 CI ENERGY LEVELS IN CM-1 AND CI ABSOLUTE LEVELS IN A.U.

    1            0.0000  -6887.8488560892
    2            0.0000  -6887.8488560892
    3            0.0000  -6887.8488560892
    4            0.0000  -6887.8488560892
    5         5751.8724  -6887.8226490766
    6         5751.8724  -6887.8226490766

 SKIPPING THE CALCULATION OF NATURAL ORBITALS...
 USE ISTNO IN $TRANST TO ASK FOR NATURAL ORBITALS
 AND SPIN-ORBIT COUPLED STATE'S PROPERTIES

 ....... DONE WITH TRANSITION MOMENT .......

 STEP CPU TIME =     0.00 TOTAL CPU TIME =        1.0 (    0.0 MIN)
 TOTAL WALL CLOCK TIME=        1.0 SECONDS, CPU UTILIZATION IS  99.03%
               580000  WORDS OF DYNAMIC MEMORY USED
 EXECUTION OF GAMESS TERMINATED NORMALLY Fri Jun  2 02:37:28 2017
 DDI: 263640 bytes (0.3 MB / 0 MWords) used by master data server.

 ----------------------------------------
 CPU timing information for all processes
 ========================================
 0: 1.19 + 0.11 = 1.31
 ----------------------------------------
 ddikick.x: exited gracefully.
unset echo
----- accounting info -----
Files used on the master node compute-0-2.local were:
-rw-rw-r-- 1 sarom sarom   21939 Jun  2 02:37 /scratch/i-soc.F05
-rw-rw-r-- 1 sarom sarom  360032 Jun  2 02:37 /scratch/i-soc.F08
-rw-rw-r-- 1 sarom sarom  180072 Jun  2 02:37 /scratch/i-soc.F09
-rw-rw-r-- 1 sarom sarom 1472400 Jun  2 02:37 /scratch/i-soc.F10
-rw-rw-r-- 1 sarom sarom  275376 Jun  2 02:37 /scratch/i-soc.F11
-rw-rw-r-- 1 sarom sarom     280 Jun  2 02:37 /scratch/i-soc.F12
-rw-rw-r-- 1 sarom sarom  400008 Jun  2 02:37 /scratch/i-soc.F14
-rw-rw-r-- 1 sarom sarom  160248 Jun  2 02:37 /scratch/i-soc.F15
-rw-rw-r-- 1 sarom sarom  200216 Jun  2 02:37 /scratch/i-soc.F16
-rw-rw-r-- 1 sarom sarom     280 Jun  2 02:37 /scratch/i-soc.F17
-rw-rw-r-- 1 sarom sarom  494032 Jun  2 02:37 /scratch/i-soc.F31
-rw-rw-r-- 1 sarom sarom  494032 Jun  2 02:37 /scratch/i-soc.F32
-rw-rw-r-- 1 sarom sarom  494032 Jun  2 02:37 /scratch/i-soc.F33
-rw-rw-r-- 1 sarom sarom   32768 Jun  2 02:37 /scratch/i-soc.F40
rm: cannot remove `/scratch/sarom': Is a directory
rm: cannot remove `/scratch/tmp': Is a directory
ls: No match.
ls: No match.
ls: No match.
Fri Jun  2 02:37:31 CDT 2017
0.149u 0.043s 0:04.30 4.1%	0+0k 48+416io 0pf+0w
Deleting shmid=3964928.
Deleting shmid=3997697.
Deleting shmid=4227074.
/opt/gridengine/default/spool/compute-0-2/active_jobs/23765.1/pe_hostfile compute-0-2.local
