-catch_rsh /opt/gridengine/default/spool/compute-0-2/active_jobs/23764.1/pe_hostfile
compute-0-2
The primary node assigned by SGE to this run is compute-0-2
Warning: no access to tty (Bad file descriptor).
Thus no job control in this shell.
Deleting shmid=3964928.
Deleting shmid=3997697.
Deleting shmid=4227074.
source /home/sarom/gamess.github.2017-05-31.14.06/install.info
setenv GMS_PATH /home/sarom/gamess.github.2017-05-31.14.06
setenv GMS_BUILD_DIR /home/sarom/gamess.github.2017-05-31.14.06
setenv GMS_TARGET linux64
setenv GMS_FORTRAN gfortran
setenv GMS_GFORTRAN_VERNO 4.4
setenv GMS_MATHLIB mkl-so
setenv GMS_MATHLIB_PATH /share/apps/intel/compilers_and_libraries_2017.1.132/linux/mkl/lib/intel64
setenv GMS_MKL_VERNO 12
setenv GMS_DDI_COMM sockets
setenv GMS_LIBCCHEM false
setenv GMS_EIGEN_PATH
setenv GMS_PHI false
setenv GMS_SHMTYPE sysv
setenv GMS_OPENMP false
unset echo
ir-soc
tests/relwfn
----- GAMESS execution script 'rungms' -----
This job is running on host compute-0-2.local
under operating system Linux at Fri Jun 2 02:36:57 CDT 2017
Available scratch disk space (Kbyte units) at beginning of the job is
Filesystem           1K-blocks      Used Available Use% Mounted on
/dev/sda1             16126920   3867312  11440408  26% /
GAMESS temporary binary files will be written to /scratch
GAMESS supplementary output files will be written to /home/sarom/restart
Copying input file ir-soc.inp to your run's scratch directory...
cp tests/relwfn/ir-soc.inp /scratch/ir-soc.F05
unset echo
The generated host list is
compute-0-2.local
/home/sarom/gamess.github.2017-05-31.14.06/ddikick.x /home/sarom/gamess.github.2017-05-31.14.06/gamess.00.x ir-soc -ddi 1 1 compute-0-2.local -scr /scratch

 Distributed Data Interface kickoff program.
 Initiating 1 compute processes on 1 nodes to run the following command:
 /home/sarom/gamess.github.2017-05-31.14.06/gamess.00.x ir-soc 

          ******************************************************
          *         GAMESS VERSION = 20 APR 2017 (R1)          *
          *             FROM IOWA STATE UNIVERSITY             *
          * M.W.SCHMIDT, K.K.BALDRIDGE, J.A.BOATZ, S.T.ELBERT, *
          *   M.S.GORDON, J.H.JENSEN, S.KOSEKI, N.MATSUNAGA,   *
          *          K.A.NGUYEN, S.J.SU, T.L.WINDUS,           *
          *       TOGETHER WITH M.DUPUIS, J.A.MONTGOMERY       *
          *         J.COMPUT.CHEM.  14, 1347-1363(1993)        *
          **************** 64 BIT LINUX VERSION ****************

  SINCE 1993, STUDENTS AND POSTDOCS WORKING AT IOWA STATE UNIVERSITY
  AND ALSO IN THEIR VARIOUS JOBS AFTER LEAVING ISU HAVE MADE IMPORTANT
  CONTRIBUTIONS TO THE CODE:
     IVANA ADAMOVIC, CHRISTINE AIKENS, YURI ALEXEEV, POOJA ARORA,
     ANDREY ASADCHEV, ROB BELL, PRADIPTA BANDYOPADHYAY, JONATHAN BENTZ,
     BRETT BODE, KURT BRORSEN, CALEB CARLIN, GALINA CHABAN, WEI CHEN,
     CHEOL HO CHOI, PAUL DAY, ALBERT DEFUSCO, NUWAN DESILVA, TIM DUDLEY,
     DMITRI FEDOROV, GRAHAM FLETCHER, MARK FREITAG, KURT GLAESEMANN,
     DAN KEMP, GRANT MERRILL, NORIYUKI MINEZAWA, JONATHAN MULLIN,
     TAKESHI NAGATA, SEAN NEDD, HEATHER NETZLOFF, BOSILJKA NJEGIC, RYAN OLSON,
     MIKE PAK, SPENCER PRUITT, LUKE ROSKOP, JIM SHOEMAKER, LYUDMILA SLIPCHENKO,
     TONY SMITH, SAROM SOK LEANG, JIE SONG, TETSUYA TAKETSUGU, SIMON WEBB,
     PENG XU, SOOHAENG YOO, FEDERICO ZAHARIEV

  ADDITIONAL CODE HAS BEEN PROVIDED BY COLLABORATORS IN OTHER GROUPS:
     IOWA STATE UNIVERSITY:
          JOE IVANIC, AARON WEST, LAIMUTIS BYTAUTAS, KLAUS RUEDENBERG
     UNIVERSITY OF TOKYO: KIMIHIKO HIRAO, TAKAHITO NAKAJIMA,
          TAKAO TSUNEDA, MUNEAKI KAMIYA, SUSUMU YANAGISAWA,
          KIYOSHI YAGI, MAHITO CHIBA, SEIKEN TOKURA, NAOAKI KAWAKAMI
     UNIVERSITY OF AARHUS: FRANK JENSEN
     UNIVERSITY OF IOWA: VISVALDAS KAIRYS, HUI LI
     NATIONAL INST. OF STANDARDS AND TECHNOLOGY: WALT STEVENS, DAVID GARMER
     UNIVERSITY OF PISA: BENEDETTA MENNUCCI, JACOPO TOMASI
     UNIVERSITY OF MEMPHIS: HENRY KURTZ, PRAKASHAN KORAMBATH
     UNIVERSITY OF ALBERTA: TOBY ZENG, MARIUSZ KLOBUKOWSKI
     UNIVERSITY OF NEW ENGLAND: MARK SPACKMAN
     MIE UNIVERSITY: HIROAKI UMEDA
     NAT. INST. OF ADVANCED INDUSTRIAL SCIENCE AND TECHNOLOGY: KAZUO KITAURA
     MICHIGAN STATE UNIVERSITY:
          KAROL KOWALSKI, MARTA WLOCH, JEFFREY GOUR, JESSE LUTZ,
          WEI LI, PIOTR PIECUCH
     UNIVERSITY OF SILESIA: MONIKA MUSIAL, STANISLAW KUCHARSKI
     FACULTES UNIVERSITAIRES NOTRE-DAME DE LA PAIX:
          OLIVIER QUINET, BENOIT CHAMPAGNE
     UNIVERSITY OF CALIFORNIA - SANTA BARBARA: BERNARD KIRTMAN
     INSTITUTE FOR MOLECULAR SCIENCE:
          KAZUYA ISHIMURA, MICHIO KATOUDA, AND SHIGERU NAGASE
     UNIVERSITY OF NOTRE DAME: ANNA POMOGAEVA, DAN CHIPMAN
     KYUSHU UNIVERSITY:
          HARUYUKI NAKANO,
          FENG LONG GU, JACEK KORCHOWIEC, MARCIN MAKOWSKI, AND YURIKO AOKI,
          HIROTOSHI MORI AND EISAKU MIYOSHI
     PENNSYLVANIA STATE UNIVERSITY:
          TZVETELIN IORDANOV, CHET SWALINA, JONATHAN SKONE,
          SHARON HAMMES-SCHIFFER
     WASEDA UNIVERSITY:
          MASATO KOBAYASHI, TOMOKO AKAMA, TSUGUKI TOUMA,
          TAKESHI YOSHIKAWA, YASUHIRO IKABATA, JUNJI SEINO,
          YUYA NAKAJIMA, HIROMI NAKAI
     NANJING UNIVERSITY: SHUHUA LI
     UNIVERSITY OF NEBRASKA:
          PEIFENG SU, DEJUN SI, NANDUN THELLAMUREGE, YALI WANG, HUI LI
     UNIVERSITY OF ZURICH: ROBERTO PEVERATI, KIM BALDRIDGE
     N. COPERNICUS UNIVERSITY AND JACKSON STATE UNIVERSITY:
          MARIA BARYSZ
     UNIVERSITY OF COPENHAGEN: Jimmy Kromann, CASPER STEINMANN
     TOKYO INSTITUTE OF TECHNOLOGY: HIROYA NAKATA
     NAGOYA UNIVERSITY: YOSHIO NISHIMOTO, STEPHAN IRLE
     MOSCOW STATE UNIVERSITY: VLADIMIR MIRONOV

 EXECUTION OF GAMESS BEGUN Fri Jun  2 02:36:57 2017

            ECHO OF THE FIRST FEW INPUT CARDS -
 INPUT CARD>!   Ir atom...spin-orbit coupling test...created 4/2015 by MWS.                 
 INPUT CARD>!   Full BP Hamiltonian, IOTC scalar relativity, DKH1 tranformation of SOC.     
 INPUT CARD>!   All terms found in the three s2d7, s1d8, and s0d9 configurations are        
 INPUT CARD>!   coupled, but the run includes no dynamical correlation energy.              
 INPUT CARD>!   The uncontracted non-relativistic WTBS has 319 AOs, 265 MOs                 
 INPUT CARD>!                                                                               
 INPUT CARD>!   CI ENERGY LEVELS IN CM-1 AND CI IN A.U.     J                               
 INPUT CARD>!        1-10     0.0000 -17826.7441387574     9/2                              
 INPUT CARD>!       11-20  2216.8360 -17826.7340382810     9/2                              
 INPUT CARD>!   Degeneracy is maintained to about 0.02 cm-1 in these two 9/2 levels.        
 INPUT CARD>!   Experimentally, these two ten-fold degenerate levels (ie, they must         
 INPUT CARD>!   be J=9/2) are split by 2835 cm-1.   Additional results given below.         
 INPUT CARD>!                                                                               
 INPUT CARD>!   This run takes 787 seconds on 2.66 Cloverton (10 Aug 2015)                  
 INPUT CARD>!                                                                               
 INPUT CARD>!   -----------------------------------------------------------------------     
 INPUT CARD>!       run #1.  Get non-relativistic (6s)2(5d)7 quartet-averaged orbitals,     
 INPUT CARD>!                to use as the input for run #2 (and #1b).                      
 INPUT CARD>!                                                                               
 INPUT CARD>--- $contrl scftyp=gvb mult=4 relwfn=none runtyp=energy ispher=1 $end           
 INPUT CARD>!          tuck 6s below the 5d shell to fill the s                             
 INPUT CARD>--- $guess  guess=huckel norder=1 iorder(35)=40,35,36,37,38,39 $end             
 INPUT CARD>!          average of 4-F and 4-P terms in d**7 configuration:                  
 INPUT CARD>--- $SCF    NCO=35 NSETO=1 NO=5 COUPLE=.TRUE.  F(1)=1.0,0.7                     
 INPUT CARD>---         ALPHA(1)= 2.0, 1.40, 0.95                                           
 INPUT CARD>---          BETA(1)=-1.0,-0.70,-0.55  $END                                     
 INPUT CARD>!                                                                               
 INPUT CARD>!       run #1b.  Check energy of a specific term: non-relativistic 4-F         
 INPUT CARD>!                 against Mariusz' energy= -16806.11218 for s2,d7               
 INPUT CARD>!                 This step proves the basis set is given correctly.            
 INPUT CARD>!                 Energy converges, but not to the normal convergence           
 INPUT CARD>!                 threshold of the Lagrangian.  State degeneracy                
 INPUT CARD>!                 would be improved, likely, by resolving this issue.           
 INPUT CARD>--- $contrl scftyp=mcscf mult=4 relwfn=none runtyp=energy ispher=1 $end         
 INPUT CARD>--- $guess  guess=moread norb=265 $end                                          
 INPUT CARD>--- $mcscf  fullnr=.true. acurcy=5d-4 $end                                      
 INPUT CARD>--- $det    group=c1 ncore=35 nact=5 nels=7                                     
 INPUT CARD>---         nstate=10 wstate(1)=1,1,1,1,1,1,1,0,0,0 $end                        
 INPUT CARD>                                                                                
 INPUT CARD>!      run #2.   Switch on scalar relativity,                                   
 INPUT CARD>!                and state average the s2,d7 and s1,d8 configurations,          
 INPUT CARD>!                both of which have a 4-F as their lowest energy term.          
 INPUT CARD>!                This provided the orbitals stored below, for next steps.       
 INPUT CARD>!      Angular momentum coupling tells us we expect the following L-S terms:    
 INPUT CARD>!         s2,d7 =   4-PF and 2-PDDFGH = 10+40 = 50 Sz=0.5                       
 INPUT CARD>!         s1,d8 = 2,4-PF and 2-SDG = 10+10+15 = 35 Sz=0.5                       
 INPUT CARD>!         s0,d9 =   2-D                       =  5 Sz=0.5                       
 INPUT CARD>!      For a total of 50+35+5=90 determinants in CAS.  These 16 terms are       
 INPUT CARD>!           1- 7    E= -17826.7034864955  4-F   s2,d7                           
 INPUT CARD>!           8-14    E= -17826.7004776373  4-F   s1,d8                           
  150000000 WORDS OF MEMORY AVAILABLE


     RUN TITLE
     ---------
 Ir atom...non-relativistic WTBS basis set                                       

 THE POINT GROUP OF THE MOLECULE IS DNH     
 THE ORDER OF THE PRINCIPAL AXIS IS     2

 ATOM      ATOMIC                      COORDINATES (BOHR)
           CHARGE         X                   Y                   Z
 IR         77.0     0.0000000000        0.0000000000        0.0000000000

          INTERNUCLEAR DISTANCES (ANGS.)
          ------------------------------

                1 IR    

   1 IR      0.0000000  

  * ... LESS THAN  3.000


     ATOMIC BASIS SET
     ----------------
 THE CONTRACTED PRIMITIVE FUNCTIONS HAVE BEEN UNNORMALIZED
 THE CONTRACTED BASIS FUNCTIONS ARE NOW NORMALIZED TO UNITY

  SHELL TYPE  PRIMITIVE        EXPONENT          CONTRACTION COEFFICIENT(S)

 IR        

      1   S       1      94689827.6656029    1.000000000000

      2   S       2      19312947.8693193    1.000000000000

      3   S       3       4555997.1189201    1.000000000000

      4   S       4       1230018.2061589    1.000000000000

      5   L       5        375414.1598185    1.000000000000    1.000000000000

      6   L       6        127789.3534226    1.000000000000    1.000000000000

      7   L       7         47823.6542175    1.000000000000    1.000000000000

      8   L       8         19394.0834163    1.000000000000    1.000000000000

      9   L       9          8404.2108809    1.000000000000    1.000000000000

     10   L      10          3841.4474350    1.000000000000    1.000000000000

     11   L      11          1830.8489198    1.000000000000    1.000000000000

     12   L      12           900.9008796    1.000000000000    1.000000000000

     13   L      13           453.9606502    1.000000000000    1.000000000000

     14   L      14           232.7207692    1.000000000000    1.000000000000

     15   L      15           120.7602389    1.000000000000    1.000000000000

     16   L      16            63.1866776    1.000000000000    1.000000000000

     17   L      17            33.2450803    1.000000000000    1.000000000000

     18   L      18            17.5537666    1.000000000000    1.000000000000

     19   L      19             9.2889151    1.000000000000    1.000000000000

     20   L      20             4.9217732    1.000000000000    1.000000000000

     21   L      21             2.6097131    1.000000000000    1.000000000000

     22   L      22             1.3842961    1.000000000000    1.000000000000

     23   L      23             0.7344212    1.000000000000    1.000000000000

     24   L      24             0.3896695    1.000000000000    1.000000000000

     25   L      25             0.2067573    1.000000000000    1.000000000000

     26   S      26             0.1097058    1.000000000000

     27   S      27             0.0582102    1.000000000000

     28   S      28             0.0308865    1.000000000000

     29   D      29          8404.2108809    1.000000000000

     30   D      30          3841.4474350    1.000000000000

     31   D      31          1830.8489198    1.000000000000

     32   D      32           900.9008796    1.000000000000

     33   D      33           453.9606502    1.000000000000

     34   D      34           232.7207692    1.000000000000

     35   D      35           120.7602389    1.000000000000

     36   D      36            63.1866776    1.000000000000

     37   D      37            33.2450803    1.000000000000

     38   D      38            17.5537666    1.000000000000

     39   D      39             9.2889151    1.000000000000

     40   D      40             4.9217732    1.000000000000

     41   D      41             2.6097131    1.000000000000

     42   D      42             1.3842961    1.000000000000

     43   D      43             0.7344212    1.000000000000

     44   D      44             0.3896695    1.000000000000

     45   D      45             0.2067573    1.000000000000

     46   D      46             0.1097058    1.000000000000

     47   F      47           900.9008796    1.000000000000

     48   F      48           453.9606502    1.000000000000

     49   F      49           232.7207692    1.000000000000

     50   F      50           120.7602389    1.000000000000

     51   F      51            63.1866776    1.000000000000

     52   F      52            33.2450803    1.000000000000

     53   F      53            17.5537666    1.000000000000

     54   F      54             9.2889151    1.000000000000

     55   F      55             4.9217732    1.000000000000

     56   F      56             2.6097131    1.000000000000

     57   F      57             1.3842961    1.000000000000

     58   F      58             0.7344212    1.000000000000

 TOTAL NUMBER OF BASIS SET SHELLS             =   58
 NUMBER OF CARTESIAN GAUSSIAN BASIS FUNCTIONS =  319
 NOTE: THIS RUN WILL RESTRICT THE MO VARIATION SPACE TO SPHERICAL HARMONICS.
 THE NUMBER OF ORBITALS KEPT IN THE VARIATIONAL SPACE WILL BE PRINTED LATER.
 NUMBER OF ELECTRONS                          =   77
 CHARGE OF MOLECULE                           =    0
 SPIN MULTIPLICITY                            =    4
 NUMBER OF OCCUPIED ORBITALS (ALPHA)          =   40
 NUMBER OF OCCUPIED ORBITALS (BETA )          =   37
 TOTAL NUMBER OF ATOMS                        =    1
 THE NUCLEAR REPULSION ENERGY IS        0.0000000000

     ---------------------------------
     RELATIVISTIC WAVEFUNCTION OPTIONS
     ---------------------------------
     METHOD=IOTC     NORDER= 2       NESOC=  1      MODEQR=      9
     NRATOM=  0      QMTTOL= 1.000E-10      QRTOL= 1.000E-02
     CLIGHT=137.03598950     TAU= 3.500E+00
 64 BIT EPSILON: 0.22E-15 AND 128 BIT EPSILON: 0.22E-15


 128 BIT PRECISION APPEARS TO BE UNAVAILABLE!
 EXECUTION OF GAMESS TERMINATED -ABNORMALLY- AT Fri Jun  2 02:36:57 2017
               580000  WORDS OF DYNAMIC MEMORY USED
 STEP CPU TIME =     0.35 TOTAL CPU TIME =        0.3 (    0.0 MIN)
 TOTAL WALL CLOCK TIME=        0.4 SECONDS, CPU UTILIZATION IS  94.59%
 DDI Process 0: error code 911
 ddikick.x: application process 0 quit unexpectedly.
 ddikick.x: Fatal error detected.
 The error is most likely to be in the application, so check for
 input errors, disk space, memory needs, application bugs, etc.
 ddikick.x will now clean up all processes, and exit...
 ddikick.x: Sending kill signal to DDI processes.
 ddikick.x: Execution terminated due to error(s).
unset echo
----- accounting info -----
Files used on the master node compute-0-2.local were:
-rw-rw-r-- 1 sarom sarom 1381359 Jun  2 02:36 /scratch/ir-soc.F05
-rw-rw-r-- 1 sarom sarom  850720 Jun  2 02:36 /scratch/ir-soc.F10
rm: cannot remove `/scratch/sarom': Is a directory
rm: cannot remove `/scratch/tmp': Is a directory
ls: No match.
ls: No match.
ls: No match.
Fri Jun  2 02:36:59 CDT 2017
0.146u 0.055s 0:02.70 7.0%	0+0k 2704+3072io 0pf+0w
Deleting shmid=3964928.
Deleting shmid=3997697.
Deleting shmid=4227074.
/opt/gridengine/default/spool/compute-0-2/active_jobs/23764.1/pe_hostfile compute-0-2.local
