-catch_rsh /opt/gridengine/default/spool/compute-0-8/active_jobs/35776.1/pe_hostfile
compute-0-8
The primary node assigned by SGE to this run is compute-0-8
Warning: no access to tty (Bad file descriptor).
Thus no job control in this shell.
source /home/sarom/dir.git.branch.saromleang-travis-ci/install.info
setenv GMS_PATH /home/sarom/dir.git.branch.saromleang-travis-ci
setenv GMS_BUILD_DIR /home/sarom/dir.git.branch.saromleang-travis-ci
setenv GMS_TARGET linux64
setenv GMS_FORTRAN gfortran
setenv GMS_GFORTRAN_VERNO 4.4
setenv GMS_MATHLIB mkl-so
setenv GMS_MATHLIB none
setenv GMS_MATHLIB_PATH /share/apps/intel/compilers_and_libraries_2017.1.132/linux/mkl/lib/intel64
setenv GMS_MKL_VERNO 12
setenv GMS_DDI_COMM sockets
setenv GMS_LIBCCHEM false
setenv GMS_EIGEN_PATH
setenv GMS_PHI false
setenv GMS_SHMTYPE sysv
setenv GMS_OPENMP false
unset echo
efp2-32h2o-32nh3_ctcut
/home/sarom/dir.git.branch.saromleang-travis-ci/tests/solvent/efp-ctcut
----- GAMESS execution script 'rungms' -----
This job is running on host compute-0-8.local
under operating system Linux at Wed Aug 9 20:08:56 CDT 2017
Available scratch disk space (Kbyte units) at beginning of the job is
Filesystem           1K-blocks      Used Available Use% Mounted on
/dev/sda1             16126920   3962064  11345656  26% /
GAMESS temporary binary files will be written to /scratch
GAMESS supplementary output files will be written to /home/sarom/restart
Copying input file efp2-32h2o-32nh3_ctcut.inp to your run's scratch directory...
cp /home/sarom/dir.git.branch.saromleang-travis-ci/tests/solvent/efp-ctcut/efp2-32h2o-32nh3_ctcut.inp /scratch/efp2-32h2o-32nh3_ctcut.F05
unset echo
The generated host list is
compute-0-8.local
/home/sarom/dir.git.branch.saromleang-travis-ci/ddikick.x /home/sarom/dir.git.branch.saromleang-travis-ci/gamess.00.x efp2-32h2o-32nh3_ctcut -ddi 1 1 compute-0-8.local -scr /scratch

 Distributed Data Interface kickoff program.
 Initiating 1 compute processes on 1 nodes to run the following command:
 /home/sarom/dir.git.branch.saromleang-travis-ci/gamess.00.x efp2-32h2o-32nh3_ctcut 

          ******************************************************
          *         GAMESS VERSION = 20 APR 2017 (R1)          *
          *             FROM IOWA STATE UNIVERSITY             *
          * M.W.SCHMIDT, K.K.BALDRIDGE, J.A.BOATZ, S.T.ELBERT, *
          *   M.S.GORDON, J.H.JENSEN, S.KOSEKI, N.MATSUNAGA,   *
          *          K.A.NGUYEN, S.J.SU, T.L.WINDUS,           *
          *       TOGETHER WITH M.DUPUIS, J.A.MONTGOMERY       *
          *         J.COMPUT.CHEM.  14, 1347-1363(1993)        *
          **************** 64 BIT LINUX VERSION ****************

  SINCE 1993, STUDENTS AND POSTDOCS WORKING AT IOWA STATE UNIVERSITY
  AND ALSO IN THEIR VARIOUS JOBS AFTER LEAVING ISU HAVE MADE IMPORTANT
  CONTRIBUTIONS TO THE CODE:
     IVANA ADAMOVIC, CHRISTINE AIKENS, YURI ALEXEEV, POOJA ARORA,
     ANDREY ASADCHEV, ROB BELL, PRADIPTA BANDYOPADHYAY, JONATHAN BENTZ,
     BRETT BODE, KURT BRORSEN, CALEB CARLIN, GALINA CHABAN, WEI CHEN,
     CHEOL HO CHOI, PAUL DAY, ALBERT DEFUSCO, NUWAN DESILVA, TIM DUDLEY,
     DMITRI FEDOROV, GRAHAM FLETCHER, MARK FREITAG, KURT GLAESEMANN,
     DAN KEMP, GRANT MERRILL, NORIYUKI MINEZAWA, JONATHAN MULLIN,
     TAKESHI NAGATA, SEAN NEDD, HEATHER NETZLOFF, BOSILJKA NJEGIC, RYAN OLSON,
     MIKE PAK, SPENCER PRUITT, LUKE ROSKOP, JIM SHOEMAKER, LYUDMILA SLIPCHENKO,
     TONY SMITH, SAROM SOK LEANG, JIE SONG, TETSUYA TAKETSUGU, SIMON WEBB,
     PENG XU, SOOHAENG YOO, FEDERICO ZAHARIEV

  ADDITIONAL CODE HAS BEEN PROVIDED BY COLLABORATORS IN OTHER GROUPS:
     IOWA STATE UNIVERSITY:
          JOE IVANIC, AARON WEST, LAIMUTIS BYTAUTAS, KLAUS RUEDENBERG
     UNIVERSITY OF TOKYO: KIMIHIKO HIRAO, TAKAHITO NAKAJIMA,
          TAKAO TSUNEDA, MUNEAKI KAMIYA, SUSUMU YANAGISAWA,
          KIYOSHI YAGI, MAHITO CHIBA, SEIKEN TOKURA, NAOAKI KAWAKAMI
     UNIVERSITY OF AARHUS: FRANK JENSEN
     UNIVERSITY OF IOWA: VISVALDAS KAIRYS, HUI LI
     NATIONAL INST. OF STANDARDS AND TECHNOLOGY: WALT STEVENS, DAVID GARMER
     UNIVERSITY OF PISA: BENEDETTA MENNUCCI, JACOPO TOMASI
     UNIVERSITY OF MEMPHIS: HENRY KURTZ, PRAKASHAN KORAMBATH
     UNIVERSITY OF ALBERTA: TOBY ZENG, MARIUSZ KLOBUKOWSKI
     UNIVERSITY OF NEW ENGLAND: MARK SPACKMAN
     MIE UNIVERSITY: HIROAKI UMEDA
     NAT. INST. OF ADVANCED INDUSTRIAL SCIENCE AND TECHNOLOGY: KAZUO KITAURA
     MICHIGAN STATE UNIVERSITY:
          KAROL KOWALSKI, MARTA WLOCH, JEFFREY GOUR, JESSE LUTZ,
          WEI LI, PIOTR PIECUCH
     UNIVERSITY OF SILESIA: MONIKA MUSIAL, STANISLAW KUCHARSKI
     FACULTES UNIVERSITAIRES NOTRE-DAME DE LA PAIX:
          OLIVIER QUINET, BENOIT CHAMPAGNE
     UNIVERSITY OF CALIFORNIA - SANTA BARBARA: BERNARD KIRTMAN
     INSTITUTE FOR MOLECULAR SCIENCE:
          KAZUYA ISHIMURA, MICHIO KATOUDA, AND SHIGERU NAGASE
     UNIVERSITY OF NOTRE DAME: ANNA POMOGAEVA, DAN CHIPMAN
     KYUSHU UNIVERSITY:
          HARUYUKI NAKANO,
          FENG LONG GU, JACEK KORCHOWIEC, MARCIN MAKOWSKI, AND YURIKO AOKI,
          HIROTOSHI MORI AND EISAKU MIYOSHI
     PENNSYLVANIA STATE UNIVERSITY:
          TZVETELIN IORDANOV, CHET SWALINA, JONATHAN SKONE,
          SHARON HAMMES-SCHIFFER
     WASEDA UNIVERSITY:
          MASATO KOBAYASHI, TOMOKO AKAMA, TSUGUKI TOUMA,
          TAKESHI YOSHIKAWA, YASUHIRO IKABATA, JUNJI SEINO,
          YUYA NAKAJIMA, HIROMI NAKAI
     NANJING UNIVERSITY: SHUHUA LI
     UNIVERSITY OF NEBRASKA:
          PEIFENG SU, DEJUN SI, NANDUN THELLAMUREGE, YALI WANG, HUI LI
     UNIVERSITY OF ZURICH: ROBERTO PEVERATI, KIM BALDRIDGE
     N. COPERNICUS UNIVERSITY AND JACKSON STATE UNIVERSITY:
          MARIA BARYSZ
     UNIVERSITY OF COPENHAGEN: Jimmy Kromann, CASPER STEINMANN
     TOKYO INSTITUTE OF TECHNOLOGY: HIROYA NAKATA
     NAGOYA UNIVERSITY: YOSHIO NISHIMOTO, STEPHAN IRLE
     MOSCOW STATE UNIVERSITY: VLADIMIR MIRONOV

 EXECUTION OF GAMESS BEGUN Wed Aug  9 20:08:56 2017

            ECHO OF THE FIRST FEW INPUT CARDS -
 INPUT CARD>!  32 H2O + 32 NH3 arranged in a checkered 3D cubic grid;                       
 INPUT CARD>!  Unit cell:                                                                   
 INPUT CARD>!  A--W                                                                         
 INPUT CARD>!  |  |\                                                                        
 INPUT CARD>!  W--A A                                                                       
 INPUT CARD>!   \  \|                                                                       
 INPUT CARD>!    A--W                                                                       
 INPUT CARD>!  With distance between A-W centers of mass of 2 Angs (3.78 Bohr)              
 INPUT CARD>!  Single-point EFP2 calculation with charge transfer cutoffs.                  
 INPUT CARD>!                                                                               
 INPUT CARD>!  Machine: Intel Core i5-4300M, 2.6 GHz                                        
 INPUT CARD>!                                                                               
 INPUT CARD>!  ** Baseline value: No charge transfer: **                                    
 INPUT CARD>!                 FINAL EFP ENERGY      =  32.2399476397                        
 INPUT CARD>!     User time: 1.3 sec                                                        
 INPUT CARD>!                                                                               
 INPUT CARD>!  ** Baseline value: Full charge transfer: **                                  
 INPUT CARD>!                 CHARGE TRANSFER ENRGY =  -0.9166091662                        
 INPUT CARD>!                 FINAL EFP ENERGY      =  31.3233384735                        
 INPUT CARD>!     User time: 8.8 sec                                                        
 INPUT CARD>!                                                                               
 INPUT CARD>!  ** This system: Ammonia-Water CTcut, others full CT, cutoff at 3.0 Bohr      
 INPUT CARD>!                 CHARGE TRANSFER ENRGY =  -0.1470359591                        
 INPUT CARD>!                 FINAL EFP ENERGY      =  32.0929116806                        
 INPUT CARD>!  User time: 5.2 sec                                                           
 INPUT CARD>!                                                                               
 INPUT CARD>!    The results for different cutoffs are:                                     
 INPUT CARD>!                                                                               
 INPUT CARD>!     cutoff   E(CT)      E(EFP)                                                
 INPUT CARD>!     (bohr)    (au)       (au)                                                 
 INPUT CARD>!     ===============================                                           
 INPUT CARD>!                                                                               
 INPUT CARD>!    Test family 1: Water-Water cutoff:  CTCUT(1)=XXX, -1, -1                   
 INPUT CARD>!     cutoff   E(CT)      E(EFP)    User time                                   
 INPUT CARD>!     (bohr)   (au)        (au)       (sec)                                     
 INPUT CARD>!    =========================================                                  
 INPUT CARD>!     0.0 -0.8646990633 31.3752485764 7.4                                       
 INPUT CARD>!     0.5 -0.8646990633 31.3752485764 7.4                                       
 INPUT CARD>!     1.0 -0.8646990633 31.3752485764 7.4                                       
 INPUT CARD>!     1.5 -0.8646990633 31.3752485764 7.4                                       
 INPUT CARD>!     2.0 -0.8646990633 31.3752485764 7.4                                       
 INPUT CARD>!     2.5 -0.8646990633 31.3752485764 7.4                                       
 INPUT CARD>!     3.0 -0.8646990633 31.3752485764 7.5                                       
 INPUT CARD>!     3.5 -0.8646990633 31.3752485764 7.5                                       
 INPUT CARD>!     4.0 -0.8646990633 31.3752485764 7.5                                       
 INPUT CARD>!     4.5 -0.8646990633 31.3752485764 7.5                                       
 INPUT CARD>!     5.0 -0.8646990633 31.3752485764 7.4                                       
 INPUT CARD>!     6.0 -0.9164017645 31.3235458752 8.6                                       
 INPUT CARD>!     7.0 -0.9164017645 31.3235458752 8.6                                       
 INPUT CARD>!     8.0 -0.9166091662 31.3233384735 8.7                                       
    4000000 WORDS OF MEMORY AVAILABLE

     $CONTRL OPTIONS
     ---------------
 SCFTYP=RHF          RUNTYP=ENERGY       EXETYP=RUN     
 MPLEVL=       0     CITYP =NONE         CCTYP =NONE         VBTYP =NONE    
 DFTTYP=NONE         TDDFT =NONE    
 MULT  =       1     ICHARG=       0     NZVAR =       0     COORD =FRAGONLY
 PP    =NONE         RELWFN=NONE         LOCAL =NONE         NUMGRD=       F
 ISPHER=      -1     NOSYM =       0     MAXIT =      30     UNITS =ANGS    
 PLTORB=       F     MOLPLT=       F     AIMPAC=       F     FRIEND=        
 NPRINT=       7     IREST =       0     GEOM  =INPUT   
 NORMF =       0     NORMP =       0     ITOL  =      20     ICUT  =       9
 INTTYP=BEST         GRDTYP=BEST         QMTTOL= 1.0E-06

     $SYSTEM OPTIONS
     ---------------
  REPLICATED MEMORY=     4000000 WORDS (ON EVERY NODE).
 DISTRIBUTED MEMDDI=           0 MILLION WORDS IN AGGREGATE,
 MEMDDI DISTRIBUTED OVER   1 PROCESSORS IS           0 WORDS/PROCESSOR.
 TOTAL MEMORY REQUESTED ON EACH PROCESSOR=     4000000 WORDS.
 TIMLIM=      525600.00 MINUTES, OR     365.0 DAYS.
 PARALL= F  BALTYP=  DLB     KDIAG=    0  COREFL= F
 MXSEQ2=     300 MXSEQ3=     150  mem10=         0

 READING $EFRAG GROUP
 COORD=CART      POSITION=OPTIMIZE  POLMETHD=FRGSCF   NBUFFMO=0
 READING COORDINATES OF FRAGMENT   1 NAMED   H2O   
 READING COORDINATES OF FRAGMENT   2 NAMED   H2O   
 READING COORDINATES OF FRAGMENT   3 NAMED   H2O   
 READING COORDINATES OF FRAGMENT   4 NAMED   H2O   
 READING COORDINATES OF FRAGMENT   5 NAMED   NH3   
 READING COORDINATES OF FRAGMENT   6 NAMED   NH3   
 READING COORDINATES OF FRAGMENT   7 NAMED   NH3   
 READING COORDINATES OF FRAGMENT   8 NAMED   NH3   
 READING COORDINATES OF FRAGMENT   9 NAMED   H2O   
 READING COORDINATES OF FRAGMENT  10 NAMED   H2O   
 READING COORDINATES OF FRAGMENT  11 NAMED   H2O   
 READING COORDINATES OF FRAGMENT  12 NAMED   H2O   
 READING COORDINATES OF FRAGMENT  13 NAMED   NH3   
 READING COORDINATES OF FRAGMENT  14 NAMED   NH3   
 READING COORDINATES OF FRAGMENT  15 NAMED   NH3   
 READING COORDINATES OF FRAGMENT  16 NAMED   NH3   
 READING COORDINATES OF FRAGMENT  17 NAMED   H2O   
 READING COORDINATES OF FRAGMENT  18 NAMED   H2O   
 READING COORDINATES OF FRAGMENT  19 NAMED   H2O   
 READING COORDINATES OF FRAGMENT  20 NAMED   H2O   
 READING COORDINATES OF FRAGMENT  21 NAMED   NH3   
 READING COORDINATES OF FRAGMENT  22 NAMED   NH3   
 READING COORDINATES OF FRAGMENT  23 NAMED   NH3   
 READING COORDINATES OF FRAGMENT  24 NAMED   NH3   
 READING COORDINATES OF FRAGMENT  25 NAMED   H2O   
 READING COORDINATES OF FRAGMENT  26 NAMED   H2O   
 READING COORDINATES OF FRAGMENT  27 NAMED   H2O   
 READING COORDINATES OF FRAGMENT  28 NAMED   H2O   
 READING COORDINATES OF FRAGMENT  29 NAMED   NH3   
 READING COORDINATES OF FRAGMENT  30 NAMED   NH3   
 READING COORDINATES OF FRAGMENT  31 NAMED   NH3   
 READING COORDINATES OF FRAGMENT  32 NAMED   NH3   
 READING COORDINATES OF FRAGMENT  33 NAMED   H2O   
 READING COORDINATES OF FRAGMENT  34 NAMED   H2O   
 READING COORDINATES OF FRAGMENT  35 NAMED   H2O   
 READING COORDINATES OF FRAGMENT  36 NAMED   H2O   
 READING COORDINATES OF FRAGMENT  37 NAMED   NH3   
 READING COORDINATES OF FRAGMENT  38 NAMED   NH3   
 READING COORDINATES OF FRAGMENT  39 NAMED   NH3   
 READING COORDINATES OF FRAGMENT  40 NAMED   NH3   
 READING COORDINATES OF FRAGMENT  41 NAMED   H2O   
 READING COORDINATES OF FRAGMENT  42 NAMED   H2O   
 READING COORDINATES OF FRAGMENT  43 NAMED   H2O   
 READING COORDINATES OF FRAGMENT  44 NAMED   H2O   
 READING COORDINATES OF FRAGMENT  45 NAMED   NH3   
 READING COORDINATES OF FRAGMENT  46 NAMED   NH3   
 READING COORDINATES OF FRAGMENT  47 NAMED   NH3   
 READING COORDINATES OF FRAGMENT  48 NAMED   NH3   
 READING COORDINATES OF FRAGMENT  49 NAMED   H2O   
 READING COORDINATES OF FRAGMENT  50 NAMED   H2O   
 READING COORDINATES OF FRAGMENT  51 NAMED   H2O   
 READING COORDINATES OF FRAGMENT  52 NAMED   H2O   
 READING COORDINATES OF FRAGMENT  53 NAMED   NH3   
 READING COORDINATES OF FRAGMENT  54 NAMED   NH3   
 READING COORDINATES OF FRAGMENT  55 NAMED   NH3   
 READING COORDINATES OF FRAGMENT  56 NAMED   NH3   
 READING COORDINATES OF FRAGMENT  57 NAMED   H2O   
 READING COORDINATES OF FRAGMENT  58 NAMED   H2O   
 READING COORDINATES OF FRAGMENT  59 NAMED   H2O   
 READING COORDINATES OF FRAGMENT  60 NAMED   H2O   
 READING COORDINATES OF FRAGMENT  61 NAMED   NH3   
 READING COORDINATES OF FRAGMENT  62 NAMED   NH3   
 READING COORDINATES OF FRAGMENT  63 NAMED   NH3   
 READING COORDINATES OF FRAGMENT  64 NAMED   NH3   
 FINISHED READING $EFRAG GROUP,  64 FRAGMENTS WILL BE USED.

 READING POTENTIAL PARAMETERS FOR FRAGMENT    1 FROM GROUP $H2O   
 READING POTENTIAL PARAMETERS FOR FRAGMENT    2 FROM GROUP $H2O   
 READING POTENTIAL PARAMETERS FOR FRAGMENT    3 FROM GROUP $H2O   
 READING POTENTIAL PARAMETERS FOR FRAGMENT    4 FROM GROUP $H2O   
 READING POTENTIAL PARAMETERS FOR FRAGMENT    5 FROM GROUP $NH3   
 READING POTENTIAL PARAMETERS FOR FRAGMENT    6 FROM GROUP $NH3   
 READING POTENTIAL PARAMETERS FOR FRAGMENT    7 FROM GROUP $NH3   
 READING POTENTIAL PARAMETERS FOR FRAGMENT    8 FROM GROUP $NH3   
 READING POTENTIAL PARAMETERS FOR FRAGMENT    9 FROM GROUP $H2O   
 READING POTENTIAL PARAMETERS FOR FRAGMENT   10 FROM GROUP $H2O   
 READING POTENTIAL PARAMETERS FOR FRAGMENT   11 FROM GROUP $H2O   
 READING POTENTIAL PARAMETERS FOR FRAGMENT   12 FROM GROUP $H2O   
 READING POTENTIAL PARAMETERS FOR FRAGMENT   13 FROM GROUP $NH3   
 READING POTENTIAL PARAMETERS FOR FRAGMENT   14 FROM GROUP $NH3   
 READING POTENTIAL PARAMETERS FOR FRAGMENT   15 FROM GROUP $NH3   
 READING POTENTIAL PARAMETERS FOR FRAGMENT   16 FROM GROUP $NH3   
 READING POTENTIAL PARAMETERS FOR FRAGMENT   17 FROM GROUP $H2O   
 READING POTENTIAL PARAMETERS FOR FRAGMENT   18 FROM GROUP $H2O   
 READING POTENTIAL PARAMETERS FOR FRAGMENT   19 FROM GROUP $H2O   
 READING POTENTIAL PARAMETERS FOR FRAGMENT   20 FROM GROUP $H2O   
 READING POTENTIAL PARAMETERS FOR FRAGMENT   21 FROM GROUP $NH3   
 READING POTENTIAL PARAMETERS FOR FRAGMENT   22 FROM GROUP $NH3   
 READING POTENTIAL PARAMETERS FOR FRAGMENT   23 FROM GROUP $NH3   
 READING POTENTIAL PARAMETERS FOR FRAGMENT   24 FROM GROUP $NH3   
 READING POTENTIAL PARAMETERS FOR FRAGMENT   25 FROM GROUP $H2O   
 READING POTENTIAL PARAMETERS FOR FRAGMENT   26 FROM GROUP $H2O   
 READING POTENTIAL PARAMETERS FOR FRAGMENT   27 FROM GROUP $H2O   
 READING POTENTIAL PARAMETERS FOR FRAGMENT   28 FROM GROUP $H2O   
 READING POTENTIAL PARAMETERS FOR FRAGMENT   29 FROM GROUP $NH3   
 READING POTENTIAL PARAMETERS FOR FRAGMENT   30 FROM GROUP $NH3   
 READING POTENTIAL PARAMETERS FOR FRAGMENT   31 FROM GROUP $NH3   
 READING POTENTIAL PARAMETERS FOR FRAGMENT   32 FROM GROUP $NH3   
 READING POTENTIAL PARAMETERS FOR FRAGMENT   33 FROM GROUP $H2O   
 READING POTENTIAL PARAMETERS FOR FRAGMENT   34 FROM GROUP $H2O   
 READING POTENTIAL PARAMETERS FOR FRAGMENT   35 FROM GROUP $H2O   
 READING POTENTIAL PARAMETERS FOR FRAGMENT   36 FROM GROUP $H2O   
 READING POTENTIAL PARAMETERS FOR FRAGMENT   37 FROM GROUP $NH3   
 READING POTENTIAL PARAMETERS FOR FRAGMENT   38 FROM GROUP $NH3   
 READING POTENTIAL PARAMETERS FOR FRAGMENT   39 FROM GROUP $NH3   
 READING POTENTIAL PARAMETERS FOR FRAGMENT   40 FROM GROUP $NH3   
 READING POTENTIAL PARAMETERS FOR FRAGMENT   41 FROM GROUP $H2O   
 READING POTENTIAL PARAMETERS FOR FRAGMENT   42 FROM GROUP $H2O   
 READING POTENTIAL PARAMETERS FOR FRAGMENT   43 FROM GROUP $H2O   
 READING POTENTIAL PARAMETERS FOR FRAGMENT   44 FROM GROUP $H2O   
 READING POTENTIAL PARAMETERS FOR FRAGMENT   45 FROM GROUP $NH3   
 READING POTENTIAL PARAMETERS FOR FRAGMENT   46 FROM GROUP $NH3   
 READING POTENTIAL PARAMETERS FOR FRAGMENT   47 FROM GROUP $NH3   
 READING POTENTIAL PARAMETERS FOR FRAGMENT   48 FROM GROUP $NH3   
 READING POTENTIAL PARAMETERS FOR FRAGMENT   49 FROM GROUP $H2O   
 READING POTENTIAL PARAMETERS FOR FRAGMENT   50 FROM GROUP $H2O   
 READING POTENTIAL PARAMETERS FOR FRAGMENT   51 FROM GROUP $H2O   
 READING POTENTIAL PARAMETERS FOR FRAGMENT   52 FROM GROUP $H2O   
 READING POTENTIAL PARAMETERS FOR FRAGMENT   53 FROM GROUP $NH3   
 READING POTENTIAL PARAMETERS FOR FRAGMENT   54 FROM GROUP $NH3   
 READING POTENTIAL PARAMETERS FOR FRAGMENT   55 FROM GROUP $NH3   
 READING POTENTIAL PARAMETERS FOR FRAGMENT   56 FROM GROUP $NH3   
 READING POTENTIAL PARAMETERS FOR FRAGMENT   57 FROM GROUP $H2O   
 READING POTENTIAL PARAMETERS FOR FRAGMENT   58 FROM GROUP $H2O   
 READING POTENTIAL PARAMETERS FOR FRAGMENT   59 FROM GROUP $H2O   
 READING POTENTIAL PARAMETERS FOR FRAGMENT   60 FROM GROUP $H2O   
 READING POTENTIAL PARAMETERS FOR FRAGMENT   61 FROM GROUP $NH3   
 READING POTENTIAL PARAMETERS FOR FRAGMENT   62 FROM GROUP $NH3   
 READING POTENTIAL PARAMETERS FOR FRAGMENT   63 FROM GROUP $NH3   
 READING POTENTIAL PARAMETERS FOR FRAGMENT   64 FROM GROUP $NH3   


     SUMMARY OF THE EFFECTIVE FRAGMENT POTENTIAL MODEL CHOSEN
     --------------------------------------------------------
 TOTAL NUMBER OF MULTIPOLE POINTS   =       384  (EFP1/EFP2 ELECTROSTATICS)
 TOTAL NUMBER OF POLARIZABLE POINTS =       256  (EFP1/EFP2 INDUCTION)
 TOTAL NUMBER OF L-J POINTS         =         0  (REPULSION AND DISPERSION)
 TOTAL NUMBER OF AO CENTERS         =       224  (EFP2 PAULI REPULSION)
 TOTAL NUMBER OF EFP MOS            =       256  (EFP2 PAULI REPULSION)
 TOTAL NO OF DYNAMIC POLARIZABLE PTS=      3072  (EFP2 DISPERSION)
 TOTAL NUMBER OF EFP MOS            =       480  (EFP2 CHARGE TRANSFER)

 THIS IS A -EFP2- TYPE RUN, INCLUDING SEPARATE FORMULAE FOR
   PAULI REPULSION=T  DISPERSION=T  CHARGE TRANSFER=T

 OPTIONS FOR EFP SCREENING:
     ELECTROSTATIC EFP-EFP SCREENING CHOICE IS EXPONENTIAL, TO HIGHER ORDER
     POLARIZATION EFP-EFP SCREENING IS TANG-TOENNIS LIKE
     DISPERSION EFP-EFP SCREENING CHOICE IS USING OVERLAP

     $EWALD OPTIONS
     -----------

     IFEWLD   =        F         TINFOIL        =        T
     BETA    =    0.200         ELECTRIC CONST =     1.00
     EPSILON =     1.00         CUT_OFF        = 0.10E+04
     CUTLIST =  1000.00         LEVEL          =    1
     KMAX    =       10         EWLDPL         =        F

            MULTIPOLE COORDINATES, ELECTRONIC AND NUCLEAR CHARGES

                  X              Y              Z           ELEC.   NUC.
 O1         0.0000000000   0.0000000000  -0.1191472235   -8.20531    8.0
 H2        -1.4310327987   0.0000000000   0.9455243980   -0.42489    1.0
 H3         1.4310327987   0.0000000000   0.9455243980   -0.42489    1.0
 BO21      -0.7155163994   0.0000000000   0.4131885872   -0.47245    0.0
 BO31       0.7155163994   0.0000000000   0.4131885872   -0.47245    0.0
 O1         0.0000000000   3.7794519754   3.6603047519   -8.20531    8.0
 H2        -1.4310327987   3.7794519754   4.7249763734   -0.42489    1.0
 H3         1.4310327987   3.7794519754   4.7249763734   -0.42489    1.0
 BO21      -0.7155163994   3.7794519754   4.1926405626   -0.47245    0.0
 BO31       0.7155163994   3.7794519754   4.1926405626   -0.47245    0.0
 O1         3.7794519754   0.0000000000   3.6603047519   -8.20531    8.0
 H2         2.3484191767   0.0000000000   4.7249763734   -0.42489    1.0
 H3         5.2104847741   0.0000000000   4.7249763734   -0.42489    1.0
 BO21       3.0639355760   0.0000000000   4.1926405626   -0.47245    0.0
 BO31       4.4949683748   0.0000000000   4.1926405626   -0.47245    0.0
 O1         3.7794519754   3.7794519754  -0.1191472235   -8.20531    8.0
 H2         2.3484191767   3.7794519754   0.9455243980   -0.42489    1.0
 H3         5.2104847741   3.7794519754   0.9455243980   -0.42489    1.0
 BO21       3.0639355760   3.7794519754   0.4131885872   -0.47245    0.0
 BO31       4.4949683748   3.7794519754   0.4131885872   -0.47245    0.0
 N1         3.7794519754   0.0000000000  -0.1336792164   -7.02487    7.0
 H2         3.7794519754   1.7626608123   0.6191120281   -0.72527    1.0
 H3         2.2529313226  -0.8813304062   0.6191120281   -0.72527    1.0
 A04H4      5.3059726283  -0.8813304062   0.6191120282   -0.72527    1.0
 BO21       3.7794519754   0.8813304062   0.2427164059   -0.29821    0.0
 BO31       3.0161916490  -0.4406652031   0.2427164059   -0.25056    0.0
 BO41       4.5427123019  -0.4406652031   0.2427164060   -0.25056    0.0
 N1         0.0000000000   3.7794519754  -0.1336792164   -7.02487    7.0
 H2        -0.0000000000   5.5421127878   0.6191120281   -0.72527    1.0
 H3        -1.5265206529   2.8981215693   0.6191120281   -0.72527    1.0
 A04H4      1.5265206528   2.8981215692   0.6191120282   -0.72527    1.0
 BO21      -0.0000000000   4.6607823816   0.2427164059   -0.29821    0.0
 BO31      -0.7632603264   3.3387867724   0.2427164059   -0.25056    0.0
 BO41       0.7632603265   3.3387867723   0.2427164060   -0.25056    0.0
 N1         0.0000000000   0.0000000000   3.6457727591   -7.02487    7.0
 H2        -0.0000000000   1.7626608123   4.3985640035   -0.72527    1.0
 H3        -1.5265206529  -0.8813304062   4.3985640035   -0.72527    1.0
 A04H4      1.5265206528  -0.8813304062   4.3985640037   -0.72527    1.0
 BO21      -0.0000000000   0.8813304062   4.0221683814   -0.29821    0.0
 BO31      -0.7632603264  -0.4406652031   4.0221683813   -0.25056    0.0
 BO41       0.7632603265  -0.4406652031   4.0221683814   -0.25056    0.0
 N1         3.7794519754   3.7794519754   3.6457727591   -7.02487    7.0
 H2         3.7794519754   5.5421127878   4.3985640035   -0.72527    1.0
 H3         2.2529313226   2.8981215693   4.3985640035   -0.72527    1.0
 A04H4      5.3059726283   2.8981215692   4.3985640037   -0.72527    1.0
 BO21       3.7794519754   4.6607823816   4.0221683814   -0.29821    0.0
 BO31       3.0161916490   3.3387867724   4.0221683813   -0.25056    0.0
 BO41       4.5427123019   3.3387867723   4.0221683814   -0.25056    0.0
 O1         7.5589039509   0.0000000000  -0.1191472235   -8.20531    8.0
 H2         6.1278711522   0.0000000000   0.9455243980   -0.42489    1.0
 H3         8.9899367496   0.0000000000   0.9455243980   -0.42489    1.0
 BO21       6.8433875515   0.0000000000   0.4131885872   -0.47245    0.0
 BO31       8.2744203503   0.0000000000   0.4131885872   -0.47245    0.0
 O1         7.5589039509   3.7794519754   3.6603047519   -8.20531    8.0
 H2         6.1278711522   3.7794519754   4.7249763734   -0.42489    1.0
 H3         8.9899367496   3.7794519754   4.7249763734   -0.42489    1.0
 BO21       6.8433875515   3.7794519754   4.1926405626   -0.47245    0.0
 BO31       8.2744203503   3.7794519754   4.1926405626   -0.47245    0.0
 O1        11.3383559263   0.0000000000   3.6603047519   -8.20531    8.0
 H2         9.9073231276   0.0000000000   4.7249763734   -0.42489    1.0
 H3        12.7693887250   0.0000000000   4.7249763734   -0.42489    1.0
 BO21      10.6228395269   0.0000000000   4.1926405626   -0.47245    0.0
 BO31      12.0538723257   0.0000000000   4.1926405626   -0.47245    0.0
 O1        11.3383559263   3.7794519754  -0.1191472235   -8.20531    8.0
 H2         9.9073231276   3.7794519754   0.9455243980   -0.42489    1.0
 H3        12.7693887250   3.7794519754   0.9455243980   -0.42489    1.0
 BO21      10.6228395269   3.7794519754   0.4131885872   -0.47245    0.0
 BO31      12.0538723257   3.7794519754   0.4131885872   -0.47245    0.0
 N1        11.3383559263   0.0000000000  -0.1336792164   -7.02487    7.0
 H2        11.3383559263   1.7626608123   0.6191120281   -0.72527    1.0
 H3         9.8118352735  -0.8813304062   0.6191120281   -0.72527    1.0
 A04H4     12.8648765792  -0.8813304062   0.6191120282   -0.72527    1.0
 BO21      11.3383559263   0.8813304062   0.2427164059   -0.29821    0.0
 BO31      10.5750955999  -0.4406652031   0.2427164059   -0.25056    0.0
 BO41      12.1016162528  -0.4406652031   0.2427164060   -0.25056    0.0
 N1         7.5589039509   3.7794519754  -0.1336792164   -7.02487    7.0
 H2         7.5589039509   5.5421127878   0.6191120281   -0.72527    1.0
 H3         6.0323832980   2.8981215693   0.6191120281   -0.72527    1.0
 A04H4      9.0854246037   2.8981215692   0.6191120282   -0.72527    1.0
 BO21       7.5589039509   4.6607823816   0.2427164059   -0.29821    0.0
 BO31       6.7956436245   3.3387867724   0.2427164059   -0.25056    0.0
 BO41       8.3221642774   3.3387867723   0.2427164060   -0.25056    0.0
 N1         7.5589039509   0.0000000000   3.6457727591   -7.02487    7.0
 H2         7.5589039509   1.7626608123   4.3985640035   -0.72527    1.0
 H3         6.0323832980  -0.8813304062   4.3985640035   -0.72527    1.0
 A04H4      9.0854246037  -0.8813304062   4.3985640037   -0.72527    1.0
 BO21       7.5589039509   0.8813304062   4.0221683814   -0.29821    0.0
 BO31       6.7956436245  -0.4406652031   4.0221683813   -0.25056    0.0
 BO41       8.3221642774  -0.4406652031   4.0221683814   -0.25056    0.0
 N1        11.3383559263   3.7794519754   3.6457727591   -7.02487    7.0
 H2        11.3383559263   5.5421127878   4.3985640035   -0.72527    1.0
 H3         9.8118352735   2.8981215693   4.3985640035   -0.72527    1.0
 A04H4     12.8648765792   2.8981215692   4.3985640037   -0.72527    1.0
 BO21      11.3383559263   4.6607823816   4.0221683814   -0.29821    0.0
 BO31      10.5750955999   3.3387867724   4.0221683813   -0.25056    0.0
 BO41      12.1016162528   3.3387867723   4.0221683814   -0.25056    0.0
 O1         0.0000000000   7.5589039509  -0.1191472235   -8.20531    8.0
 H2        -1.4310327987   7.5589039509   0.9455243980   -0.42489    1.0
 H3         1.4310327987   7.5589039509   0.9455243980   -0.42489    1.0
 BO21      -0.7155163994   7.5589039509   0.4131885872   -0.47245    0.0
 BO31       0.7155163994   7.5589039509   0.4131885872   -0.47245    0.0
 O1         0.0000000000  11.3383559263   3.6603047519   -8.20531    8.0
 H2        -1.4310327987  11.3383559263   4.7249763734   -0.42489    1.0
 H3         1.4310327987  11.3383559263   4.7249763734   -0.42489    1.0
 BO21      -0.7155163994  11.3383559263   4.1926405626   -0.47245    0.0
 BO31       0.7155163994  11.3383559263   4.1926405626   -0.47245    0.0
 O1         3.7794519754   7.5589039509   3.6603047519   -8.20531    8.0
 H2         2.3484191767   7.5589039509   4.7249763734   -0.42489    1.0
 H3         5.2104847741   7.5589039509   4.7249763734   -0.42489    1.0
 BO21       3.0639355760   7.5589039509   4.1926405626   -0.47245    0.0
 BO31       4.4949683748   7.5589039509   4.1926405626   -0.47245    0.0
 O1         3.7794519754  11.3383559263  -0.1191472235   -8.20531    8.0
 H2         2.3484191767  11.3383559263   0.9455243980   -0.42489    1.0
 H3         5.2104847741  11.3383559263   0.9455243980   -0.42489    1.0
 BO21       3.0639355760  11.3383559263   0.4131885872   -0.47245    0.0
 BO31       4.4949683748  11.3383559263   0.4131885872   -0.47245    0.0
 N1         3.7794519754   7.5589039509  -0.1336792164   -7.02487    7.0
 H2         3.7794519754   9.3215647632   0.6191120281   -0.72527    1.0
 H3         2.2529313226   6.6775735447   0.6191120281   -0.72527    1.0
 A04H4      5.3059726283   6.6775735447   0.6191120282   -0.72527    1.0
 BO21       3.7794519754   8.4402343571   0.2427164059   -0.29821    0.0
 BO31       3.0161916490   7.1182387478   0.2427164059   -0.25056    0.0
 BO41       4.5427123019   7.1182387478   0.2427164060   -0.25056    0.0
 N1         0.0000000000  11.3383559263  -0.1336792164   -7.02487    7.0
 H2        -0.0000000000  13.1010167386   0.6191120281   -0.72527    1.0
 H3        -1.5265206529  10.4570255202   0.6191120281   -0.72527    1.0
 A04H4      1.5265206528  10.4570255201   0.6191120282   -0.72527    1.0
 BO21      -0.0000000000  12.2196863325   0.2427164059   -0.29821    0.0
 BO31      -0.7632603264  10.8976907233   0.2427164059   -0.25056    0.0
 BO41       0.7632603265  10.8976907232   0.2427164060   -0.25056    0.0
 N1         0.0000000000   7.5589039509   3.6457727591   -7.02487    7.0
 H2        -0.0000000000   9.3215647632   4.3985640035   -0.72527    1.0
 H3        -1.5265206529   6.6775735447   4.3985640035   -0.72527    1.0
 A04H4      1.5265206528   6.6775735447   4.3985640037   -0.72527    1.0
 BO21      -0.0000000000   8.4402343571   4.0221683814   -0.29821    0.0
 BO31      -0.7632603264   7.1182387478   4.0221683813   -0.25056    0.0
 BO41       0.7632603265   7.1182387478   4.0221683814   -0.25056    0.0
 N1         3.7794519754  11.3383559263   3.6457727591   -7.02487    7.0
 H2         3.7794519754  13.1010167386   4.3985640035   -0.72527    1.0
 H3         2.2529313226  10.4570255202   4.3985640035   -0.72527    1.0
 A04H4      5.3059726283  10.4570255201   4.3985640037   -0.72527    1.0
 BO21       3.7794519754  12.2196863325   4.0221683814   -0.29821    0.0
 BO31       3.0161916490  10.8976907233   4.0221683813   -0.25056    0.0
 BO41       4.5427123019  10.8976907232   4.0221683814   -0.25056    0.0
 O1         7.5589039509   7.5589039509  -0.1191472235   -8.20531    8.0
 H2         6.1278711522   7.5589039509   0.9455243980   -0.42489    1.0
 H3         8.9899367496   7.5589039509   0.9455243980   -0.42489    1.0
 BO21       6.8433875515   7.5589039509   0.4131885872   -0.47245    0.0
 BO31       8.2744203503   7.5589039509   0.4131885872   -0.47245    0.0
 O1         7.5589039509  11.3383559263   3.6603047519   -8.20531    8.0
 H2         6.1278711522  11.3383559263   4.7249763734   -0.42489    1.0
 H3         8.9899367496  11.3383559263   4.7249763734   -0.42489    1.0
 BO21       6.8433875515  11.3383559263   4.1926405626   -0.47245    0.0
 BO31       8.2744203503  11.3383559263   4.1926405626   -0.47245    0.0
 O1        11.3383559263   7.5589039509   3.6603047519   -8.20531    8.0
 H2         9.9073231276   7.5589039509   4.7249763734   -0.42489    1.0
 H3        12.7693887250   7.5589039509   4.7249763734   -0.42489    1.0
 BO21      10.6228395269   7.5589039509   4.1926405626   -0.47245    0.0
 BO31      12.0538723257   7.5589039509   4.1926405626   -0.47245    0.0
 O1        11.3383559263  11.3383559263  -0.1191472235   -8.20531    8.0
 H2         9.9073231276  11.3383559263   0.9455243980   -0.42489    1.0
 H3        12.7693887250  11.3383559263   0.9455243980   -0.42489    1.0
 BO21      10.6228395269  11.3383559263   0.4131885872   -0.47245    0.0
 BO31      12.0538723257  11.3383559263   0.4131885872   -0.47245    0.0
 N1        11.3383559263   7.5589039509  -0.1336792164   -7.02487    7.0
 H2        11.3383559263   9.3215647632   0.6191120281   -0.72527    1.0
 H3         9.8118352735   6.6775735447   0.6191120281   -0.72527    1.0
 A04H4     12.8648765792   6.6775735447   0.6191120282   -0.72527    1.0
 BO21      11.3383559263   8.4402343571   0.2427164059   -0.29821    0.0
 BO31      10.5750955999   7.1182387478   0.2427164059   -0.25056    0.0
 BO41      12.1016162528   7.1182387478   0.2427164060   -0.25056    0.0
 N1         7.5589039509  11.3383559263  -0.1336792164   -7.02487    7.0
 H2         7.5589039509  13.1010167386   0.6191120281   -0.72527    1.0
 H3         6.0323832980  10.4570255202   0.6191120281   -0.72527    1.0
 A04H4      9.0854246037  10.4570255201   0.6191120282   -0.72527    1.0
 BO21       7.5589039509  12.2196863325   0.2427164059   -0.29821    0.0
 BO31       6.7956436245  10.8976907233   0.2427164059   -0.25056    0.0
 BO41       8.3221642774  10.8976907232   0.2427164060   -0.25056    0.0
 N1         7.5589039509   7.5589039509   3.6457727591   -7.02487    7.0
 H2         7.5589039509   9.3215647632   4.3985640035   -0.72527    1.0
 H3         6.0323832980   6.6775735447   4.3985640035   -0.72527    1.0
 A04H4      9.0854246037   6.6775735447   4.3985640037   -0.72527    1.0
 BO21       7.5589039509   8.4402343571   4.0221683814   -0.29821    0.0
 BO31       6.7956436245   7.1182387478   4.0221683813   -0.25056    0.0
 BO41       8.3221642774   7.1182387478   4.0221683814   -0.25056    0.0
 N1        11.3383559263  11.3383559263   3.6457727591   -7.02487    7.0
 H2        11.3383559263  13.1010167386   4.3985640035   -0.72527    1.0
 H3         9.8118352735  10.4570255202   4.3985640035   -0.72527    1.0
 A04H4     12.8648765792  10.4570255201   4.3985640037   -0.72527    1.0
 BO21      11.3383559263  12.2196863325   4.0221683814   -0.29821    0.0
 BO31      10.5750955999  10.8976907233   4.0221683813   -0.25056    0.0
 BO41      12.1016162528  10.8976907232   4.0221683814   -0.25056    0.0
 O1         0.0000000000   0.0000000000   7.4397567274   -8.20531    8.0
 H2        -1.4310327987   0.0000000000   8.5044283488   -0.42489    1.0
 H3         1.4310327987   0.0000000000   8.5044283489   -0.42489    1.0
 BO21      -0.7155163994   0.0000000000   7.9720925381   -0.47245    0.0
 BO31       0.7155163994   0.0000000000   7.9720925381   -0.47245    0.0
 O1         0.0000000000   3.7794519754  11.2192087028   -8.20531    8.0
 H2        -1.4310327987   3.7794519754  12.2838803243   -0.42489    1.0
 H3         1.4310327987   3.7794519754  12.2838803243   -0.42489    1.0
 BO21      -0.7155163994   3.7794519754  11.7515445135   -0.47245    0.0
 BO31       0.7155163994   3.7794519754  11.7515445135   -0.47245    0.0
 O1         3.7794519754   0.0000000000  11.2192087028   -8.20531    8.0
 H2         2.3484191767   0.0000000000  12.2838803243   -0.42489    1.0
 H3         5.2104847741   0.0000000000  12.2838803243   -0.42489    1.0
 BO21       3.0639355760   0.0000000000  11.7515445135   -0.47245    0.0
 BO31       4.4949683748   0.0000000000  11.7515445135   -0.47245    0.0
 O1         3.7794519754   3.7794519754   7.4397567274   -8.20531    8.0
 H2         2.3484191767   3.7794519754   8.5044283488   -0.42489    1.0
 H3         5.2104847741   3.7794519754   8.5044283489   -0.42489    1.0
 BO21       3.0639355760   3.7794519754   7.9720925381   -0.47245    0.0
 BO31       4.4949683748   3.7794519754   7.9720925381   -0.47245    0.0
 N1         3.7794519754   0.0000000000   7.4252247345   -7.02487    7.0
 H2         3.7794519754   1.7626608123   8.1780159790   -0.72527    1.0
 H3         2.2529313226  -0.8813304062   8.1780159790   -0.72527    1.0
 A04H4      5.3059726283  -0.8813304062   8.1780159791   -0.72527    1.0
 BO21       3.7794519754   0.8813304062   7.8016203568   -0.29821    0.0
 BO31       3.0161916490  -0.4406652031   7.8016203568   -0.25056    0.0
 BO41       4.5427123019  -0.4406652031   7.8016203569   -0.25056    0.0
 N1         0.0000000000   3.7794519754   7.4252247345   -7.02487    7.0
 H2        -0.0000000000   5.5421127878   8.1780159790   -0.72527    1.0
 H3        -1.5265206529   2.8981215693   8.1780159790   -0.72527    1.0
 A04H4      1.5265206528   2.8981215692   8.1780159791   -0.72527    1.0
 BO21      -0.0000000000   4.6607823816   7.8016203568   -0.29821    0.0
 BO31      -0.7632603264   3.3387867724   7.8016203568   -0.25056    0.0
 BO41       0.7632603265   3.3387867723   7.8016203569   -0.25056    0.0
 N1         0.0000000000   0.0000000000  11.2046767100   -7.02487    7.0
 H2        -0.0000000000   1.7626608123  11.9574679544   -0.72527    1.0
 H3        -1.5265206529  -0.8813304062  11.9574679544   -0.72527    1.0
 A04H4      1.5265206528  -0.8813304062  11.9574679545   -0.72527    1.0
 BO21      -0.0000000000   0.8813304062  11.5810723322   -0.29821    0.0
 BO31      -0.7632603264  -0.4406652031  11.5810723322   -0.25056    0.0
 BO41       0.7632603265  -0.4406652031  11.5810723323   -0.25056    0.0
 N1         3.7794519754   3.7794519754  11.2046767100   -7.02487    7.0
 H2         3.7794519754   5.5421127878  11.9574679544   -0.72527    1.0
 H3         2.2529313226   2.8981215693  11.9574679544   -0.72527    1.0
 A04H4      5.3059726283   2.8981215692  11.9574679545   -0.72527    1.0
 BO21       3.7794519754   4.6607823816  11.5810723322   -0.29821    0.0
 BO31       3.0161916490   3.3387867724  11.5810723322   -0.25056    0.0
 BO41       4.5427123019   3.3387867723  11.5810723323   -0.25056    0.0
 O1         7.5589039509   0.0000000000   7.4397567274   -8.20531    8.0
 H2         6.1278711522   0.0000000000   8.5044283488   -0.42489    1.0
 H3         8.9899367496   0.0000000000   8.5044283489   -0.42489    1.0
 BO21       6.8433875515   0.0000000000   7.9720925381   -0.47245    0.0
 BO31       8.2744203503   0.0000000000   7.9720925381   -0.47245    0.0
 O1         7.5589039509   3.7794519754  11.2192087028   -8.20531    8.0
 H2         6.1278711522   3.7794519754  12.2838803243   -0.42489    1.0
 H3         8.9899367496   3.7794519754  12.2838803243   -0.42489    1.0
 BO21       6.8433875515   3.7794519754  11.7515445135   -0.47245    0.0
 BO31       8.2744203503   3.7794519754  11.7515445135   -0.47245    0.0
 O1        11.3383559263   0.0000000000  11.2192087028   -8.20531    8.0
 H2         9.9073231276   0.0000000000  12.2838803243   -0.42489    1.0
 H3        12.7693887250   0.0000000000  12.2838803243   -0.42489    1.0
 BO21      10.6228395269   0.0000000000  11.7515445135   -0.47245    0.0
 BO31      12.0538723257   0.0000000000  11.7515445135   -0.47245    0.0
 O1        11.3383559263   3.7794519754   7.4397567274   -8.20531    8.0
 H2         9.9073231276   3.7794519754   8.5044283488   -0.42489    1.0
 H3        12.7693887250   3.7794519754   8.5044283489   -0.42489    1.0
 BO21      10.6228395269   3.7794519754   7.9720925381   -0.47245    0.0
 BO31      12.0538723257   3.7794519754   7.9720925381   -0.47245    0.0
 N1        11.3383559263   0.0000000000   7.4252247345   -7.02487    7.0
 H2        11.3383559263   1.7626608123   8.1780159790   -0.72527    1.0
 H3         9.8118352735  -0.8813304062   8.1780159790   -0.72527    1.0
 A04H4     12.8648765792  -0.8813304062   8.1780159791   -0.72527    1.0
 BO21      11.3383559263   0.8813304062   7.8016203568   -0.29821    0.0
 BO31      10.5750955999  -0.4406652031   7.8016203568   -0.25056    0.0
 BO41      12.1016162528  -0.4406652031   7.8016203569   -0.25056    0.0
 N1         7.5589039509   3.7794519754   7.4252247345   -7.02487    7.0
 H2         7.5589039509   5.5421127878   8.1780159790   -0.72527    1.0
 H3         6.0323832980   2.8981215693   8.1780159790   -0.72527    1.0
 A04H4      9.0854246037   2.8981215692   8.1780159791   -0.72527    1.0
 BO21       7.5589039509   4.6607823816   7.8016203568   -0.29821    0.0
 BO31       6.7956436245   3.3387867724   7.8016203568   -0.25056    0.0
 BO41       8.3221642774   3.3387867723   7.8016203569   -0.25056    0.0
 N1         7.5589039509   0.0000000000  11.2046767100   -7.02487    7.0
 H2         7.5589039509   1.7626608123  11.9574679544   -0.72527    1.0
 H3         6.0323832980  -0.8813304062  11.9574679544   -0.72527    1.0
 A04H4      9.0854246037  -0.8813304062  11.9574679545   -0.72527    1.0
 BO21       7.5589039509   0.8813304062  11.5810723322   -0.29821    0.0
 BO31       6.7956436245  -0.4406652031  11.5810723322   -0.25056    0.0
 BO41       8.3221642774  -0.4406652031  11.5810723323   -0.25056    0.0
 N1        11.3383559263   3.7794519754  11.2046767100   -7.02487    7.0
 H2        11.3383559263   5.5421127878  11.9574679544   -0.72527    1.0
 H3         9.8118352735   2.8981215693  11.9574679544   -0.72527    1.0
 A04H4     12.8648765792   2.8981215692  11.9574679545   -0.72527    1.0
 BO21      11.3383559263   4.6607823816  11.5810723322   -0.29821    0.0
 BO31      10.5750955999   3.3387867724  11.5810723322   -0.25056    0.0
 BO41      12.1016162528   3.3387867723  11.5810723323   -0.25056    0.0
 O1         0.0000000000   7.5589039509   7.4397567274   -8.20531    8.0
 H2        -1.4310327987   7.5589039509   8.5044283488   -0.42489    1.0
 H3         1.4310327987   7.5589039509   8.5044283489   -0.42489    1.0
 BO21      -0.7155163994   7.5589039509   7.9720925381   -0.47245    0.0
 BO31       0.7155163994   7.5589039509   7.9720925381   -0.47245    0.0
 O1         0.0000000000  11.3383559263  11.2192087028   -8.20531    8.0
 H2        -1.4310327987  11.3383559263  12.2838803243   -0.42489    1.0
 H3         1.4310327987  11.3383559263  12.2838803243   -0.42489    1.0
 BO21      -0.7155163994  11.3383559263  11.7515445135   -0.47245    0.0
 BO31       0.7155163994  11.3383559263  11.7515445135   -0.47245    0.0
 O1         3.7794519754   7.5589039509  11.2192087028   -8.20531    8.0
 H2         2.3484191767   7.5589039509  12.2838803243   -0.42489    1.0
 H3         5.2104847741   7.5589039509  12.2838803243   -0.42489    1.0
 BO21       3.0639355760   7.5589039509  11.7515445135   -0.47245    0.0
 BO31       4.4949683748   7.5589039509  11.7515445135   -0.47245    0.0
 O1         3.7794519754  11.3383559263   7.4397567274   -8.20531    8.0
 H2         2.3484191767  11.3383559263   8.5044283488   -0.42489    1.0
 H3         5.2104847741  11.3383559263   8.5044283489   -0.42489    1.0
 BO21       3.0639355760  11.3383559263   7.9720925381   -0.47245    0.0
 BO31       4.4949683748  11.3383559263   7.9720925381   -0.47245    0.0
 N1         3.7794519754   7.5589039509   7.4252247345   -7.02487    7.0
 H2         3.7794519754   9.3215647632   8.1780159790   -0.72527    1.0
 H3         2.2529313226   6.6775735447   8.1780159790   -0.72527    1.0
 A04H4      5.3059726283   6.6775735447   8.1780159791   -0.72527    1.0
 BO21       3.7794519754   8.4402343571   7.8016203568   -0.29821    0.0
 BO31       3.0161916490   7.1182387478   7.8016203568   -0.25056    0.0
 BO41       4.5427123019   7.1182387478   7.8016203569   -0.25056    0.0
 N1         0.0000000000  11.3383559263   7.4252247345   -7.02487    7.0
 H2        -0.0000000000  13.1010167386   8.1780159790   -0.72527    1.0
 H3        -1.5265206529  10.4570255202   8.1780159790   -0.72527    1.0
 A04H4      1.5265206528  10.4570255201   8.1780159791   -0.72527    1.0
 BO21      -0.0000000000  12.2196863325   7.8016203568   -0.29821    0.0
 BO31      -0.7632603264  10.8976907233   7.8016203568   -0.25056    0.0
 BO41       0.7632603265  10.8976907232   7.8016203569   -0.25056    0.0
 N1         0.0000000000   7.5589039509  11.2046767100   -7.02487    7.0
 H2        -0.0000000000   9.3215647632  11.9574679544   -0.72527    1.0
 H3        -1.5265206529   6.6775735447  11.9574679544   -0.72527    1.0
 A04H4      1.5265206528   6.6775735447  11.9574679545   -0.72527    1.0
 BO21      -0.0000000000   8.4402343571  11.5810723322   -0.29821    0.0
 BO31      -0.7632603264   7.1182387478  11.5810723322   -0.25056    0.0
 BO41       0.7632603265   7.1182387478  11.5810723323   -0.25056    0.0
 N1         3.7794519754  11.3383559263  11.2046767100   -7.02487    7.0
 H2         3.7794519754  13.1010167386  11.9574679544   -0.72527    1.0
 H3         2.2529313226  10.4570255202  11.9574679544   -0.72527    1.0
 A04H4      5.3059726283  10.4570255201  11.9574679545   -0.72527    1.0
 BO21       3.7794519754  12.2196863325  11.5810723322   -0.29821    0.0
 BO31       3.0161916490  10.8976907233  11.5810723322   -0.25056    0.0
 BO41       4.5427123019  10.8976907232  11.5810723323   -0.25056    0.0
 O1         7.5589039509   7.5589039509   7.4397567274   -8.20531    8.0
 H2         6.1278711522   7.5589039509   8.5044283488   -0.42489    1.0
 H3         8.9899367496   7.5589039509   8.5044283489   -0.42489    1.0
 BO21       6.8433875515   7.5589039509   7.9720925381   -0.47245    0.0
 BO31       8.2744203503   7.5589039509   7.9720925381   -0.47245    0.0
 O1         7.5589039509  11.3383559263  11.2192087028   -8.20531    8.0
 H2         6.1278711522  11.3383559263  12.2838803243   -0.42489    1.0
 H3         8.9899367496  11.3383559263  12.2838803243   -0.42489    1.0
 BO21       6.8433875515  11.3383559263  11.7515445135   -0.47245    0.0
 BO31       8.2744203503  11.3383559263  11.7515445135   -0.47245    0.0
 O1        11.3383559263   7.5589039509  11.2192087028   -8.20531    8.0
 H2         9.9073231276   7.5589039509  12.2838803243   -0.42489    1.0
 H3        12.7693887250   7.5589039509  12.2838803243   -0.42489    1.0
 BO21      10.6228395269   7.5589039509  11.7515445135   -0.47245    0.0
 BO31      12.0538723257   7.5589039509  11.7515445135   -0.47245    0.0
 O1        11.3383559263  11.3383559263   7.4397567274   -8.20531    8.0
 H2         9.9073231276  11.3383559263   8.5044283488   -0.42489    1.0
 H3        12.7693887250  11.3383559263   8.5044283489   -0.42489    1.0
 BO21      10.6228395269  11.3383559263   7.9720925381   -0.47245    0.0
 BO31      12.0538723257  11.3383559263   7.9720925381   -0.47245    0.0
 N1        11.3383559263   7.5589039509   7.4252247345   -7.02487    7.0
 H2        11.3383559263   9.3215647632   8.1780159790   -0.72527    1.0
 H3         9.8118352735   6.6775735447   8.1780159790   -0.72527    1.0
 A04H4     12.8648765792   6.6775735447   8.1780159791   -0.72527    1.0
 BO21      11.3383559263   8.4402343571   7.8016203568   -0.29821    0.0
 BO31      10.5750955999   7.1182387478   7.8016203568   -0.25056    0.0
 BO41      12.1016162528   7.1182387478   7.8016203569   -0.25056    0.0
 N1         7.5589039509  11.3383559263   7.4252247345   -7.02487    7.0
 H2         7.5589039509  13.1010167386   8.1780159790   -0.72527    1.0
 H3         6.0323832980  10.4570255202   8.1780159790   -0.72527    1.0
 A04H4      9.0854246037  10.4570255201   8.1780159791   -0.72527    1.0
 BO21       7.5589039509  12.2196863325   7.8016203568   -0.29821    0.0
 BO31       6.7956436245  10.8976907233   7.8016203568   -0.25056    0.0
 BO41       8.3221642774  10.8976907232   7.8016203569   -0.25056    0.0
 N1         7.5589039509   7.5589039509  11.2046767100   -7.02487    7.0
 H2         7.5589039509   9.3215647632  11.9574679544   -0.72527    1.0
 H3         6.0323832980   6.6775735447  11.9574679544   -0.72527    1.0
 A04H4      9.0854246037   6.6775735447  11.9574679545   -0.72527    1.0
 BO21       7.5589039509   8.4402343571  11.5810723322   -0.29821    0.0
 BO31       6.7956436245   7.1182387478  11.5810723322   -0.25056    0.0
 BO41       8.3221642774   7.1182387478  11.5810723323   -0.25056    0.0
 N1        11.3383559263  11.3383559263  11.2046767100   -7.02487    7.0
 H2        11.3383559263  13.1010167386  11.9574679544   -0.72527    1.0
 H3         9.8118352735  10.4570255202  11.9574679544   -0.72527    1.0
 A04H4     12.8648765792  10.4570255201  11.9574679545   -0.72527    1.0
 BO21      11.3383559263  12.2196863325  11.5810723322   -0.29821    0.0
 BO31      10.5750955999  10.8976907233  11.5810723322   -0.25056    0.0
 BO41      12.1016162528  10.8976907232  11.5810723323   -0.25056    0.0

   CHARGE SCREENING PARAMETERS (COEF AND ZETA)
   ICHGP=   6 AI-FRAGMENT SCREENING= 0   FRAGMENT-FRAGMENT SCREENING= 3

             GAUSSIAN DAMPING    EXPONENTIAL DAMPING
 O1         0.00000   0.00000      1.00000   1.93599
 H2         0.00000   0.00000      1.00000   2.05409
 H3         0.00000   0.00000      1.00000   2.05409
 BO21       0.00000   0.00000      1.00000   3.89287
 BO31       0.00000   0.00000      1.00000   3.89287
 O1         0.00000   0.00000      1.00000   1.93599
 H2         0.00000   0.00000      1.00000   2.05409
 H3         0.00000   0.00000      1.00000   2.05409
 BO21       0.00000   0.00000      1.00000   3.89287
 BO31       0.00000   0.00000      1.00000   3.89287
 O1         0.00000   0.00000      1.00000   1.93599
 H2         0.00000   0.00000      1.00000   2.05409
 H3         0.00000   0.00000      1.00000   2.05409
 BO21       0.00000   0.00000      1.00000   3.89287
 BO31       0.00000   0.00000      1.00000   3.89287
 O1         0.00000   0.00000      1.00000   1.93599
 H2         0.00000   0.00000      1.00000   2.05409
 H3         0.00000   0.00000      1.00000   2.05409
 BO21       0.00000   0.00000      1.00000   3.89287
 BO31       0.00000   0.00000      1.00000   3.89287
 N1         0.00000   0.00000      1.00000   1.68208
 H2         0.00000   0.00000      1.00000   2.09595
 H3         0.00000   0.00000      1.00000   2.09595
 A04H4      0.00000   0.00000      1.00000   2.09595
 BO21       0.00000   0.00000      1.00000  10.00000
 BO31       0.00000   0.00000      1.00000  10.00000
 BO41       0.00000   0.00000      1.00000  10.00000
 N1         0.00000   0.00000      1.00000   1.68208
 H2         0.00000   0.00000      1.00000   2.09595
 H3         0.00000   0.00000      1.00000   2.09595
 A04H4      0.00000   0.00000      1.00000   2.09595
 BO21       0.00000   0.00000      1.00000  10.00000
 BO31       0.00000   0.00000      1.00000  10.00000
 BO41       0.00000   0.00000      1.00000  10.00000
 N1         0.00000   0.00000      1.00000   1.68208
 H2         0.00000   0.00000      1.00000   2.09595
 H3         0.00000   0.00000      1.00000   2.09595
 A04H4      0.00000   0.00000      1.00000   2.09595
 BO21       0.00000   0.00000      1.00000  10.00000
 BO31       0.00000   0.00000      1.00000  10.00000
 BO41       0.00000   0.00000      1.00000  10.00000
 N1         0.00000   0.00000      1.00000   1.68208
 H2         0.00000   0.00000      1.00000   2.09595
 H3         0.00000   0.00000      1.00000   2.09595
 A04H4      0.00000   0.00000      1.00000   2.09595
 BO21       0.00000   0.00000      1.00000  10.00000
 BO31       0.00000   0.00000      1.00000  10.00000
 BO41       0.00000   0.00000      1.00000  10.00000
 O1         0.00000   0.00000      1.00000   1.93599
 H2         0.00000   0.00000      1.00000   2.05409
 H3         0.00000   0.00000      1.00000   2.05409
 BO21       0.00000   0.00000      1.00000   3.89287
 BO31       0.00000   0.00000      1.00000   3.89287
 O1         0.00000   0.00000      1.00000   1.93599
 H2         0.00000   0.00000      1.00000   2.05409
 H3         0.00000   0.00000      1.00000   2.05409
 BO21       0.00000   0.00000      1.00000   3.89287
 BO31       0.00000   0.00000      1.00000   3.89287
 O1         0.00000   0.00000      1.00000   1.93599
 H2         0.00000   0.00000      1.00000   2.05409
 H3         0.00000   0.00000      1.00000   2.05409
 BO21       0.00000   0.00000      1.00000   3.89287
 BO31       0.00000   0.00000      1.00000   3.89287
 O1         0.00000   0.00000      1.00000   1.93599
 H2         0.00000   0.00000      1.00000   2.05409
 H3         0.00000   0.00000      1.00000   2.05409
 BO21       0.00000   0.00000      1.00000   3.89287
 BO31       0.00000   0.00000      1.00000   3.89287
 N1         0.00000   0.00000      1.00000   1.68208
 H2         0.00000   0.00000      1.00000   2.09595
 H3         0.00000   0.00000      1.00000   2.09595
 A04H4      0.00000   0.00000      1.00000   2.09595
 BO21       0.00000   0.00000      1.00000  10.00000
 BO31       0.00000   0.00000      1.00000  10.00000
 BO41       0.00000   0.00000      1.00000  10.00000
 N1         0.00000   0.00000      1.00000   1.68208
 H2         0.00000   0.00000      1.00000   2.09595
 H3         0.00000   0.00000      1.00000   2.09595
 A04H4      0.00000   0.00000      1.00000   2.09595
 BO21       0.00000   0.00000      1.00000  10.00000
 BO31       0.00000   0.00000      1.00000  10.00000
 BO41       0.00000   0.00000      1.00000  10.00000
 N1         0.00000   0.00000      1.00000   1.68208
 H2         0.00000   0.00000      1.00000   2.09595
 H3         0.00000   0.00000      1.00000   2.09595
 A04H4      0.00000   0.00000      1.00000   2.09595
 BO21       0.00000   0.00000      1.00000  10.00000
 BO31       0.00000   0.00000      1.00000  10.00000
 BO41       0.00000   0.00000      1.00000  10.00000
 N1         0.00000   0.00000      1.00000   1.68208
 H2         0.00000   0.00000      1.00000   2.09595
 H3         0.00000   0.00000      1.00000   2.09595
 A04H4      0.00000   0.00000      1.00000   2.09595
 BO21       0.00000   0.00000      1.00000  10.00000
 BO31       0.00000   0.00000      1.00000  10.00000
 BO41       0.00000   0.00000      1.00000  10.00000
 O1         0.00000   0.00000      1.00000   1.93599
 H2         0.00000   0.00000      1.00000   2.05409
 H3         0.00000   0.00000      1.00000   2.05409
 BO21       0.00000   0.00000      1.00000   3.89287
 BO31       0.00000   0.00000      1.00000   3.89287
 O1         0.00000   0.00000      1.00000   1.93599
 H2         0.00000   0.00000      1.00000   2.05409
 H3         0.00000   0.00000      1.00000   2.05409
 BO21       0.00000   0.00000      1.00000   3.89287
 BO31       0.00000   0.00000      1.00000   3.89287
 O1         0.00000   0.00000      1.00000   1.93599
 H2         0.00000   0.00000      1.00000   2.05409
 H3         0.00000   0.00000      1.00000   2.05409
 BO21       0.00000   0.00000      1.00000   3.89287
 BO31       0.00000   0.00000      1.00000   3.89287
 O1         0.00000   0.00000      1.00000   1.93599
 H2         0.00000   0.00000      1.00000   2.05409
 H3         0.00000   0.00000      1.00000   2.05409
 BO21       0.00000   0.00000      1.00000   3.89287
 BO31       0.00000   0.00000      1.00000   3.89287
 N1         0.00000   0.00000      1.00000   1.68208
 H2         0.00000   0.00000      1.00000   2.09595
 H3         0.00000   0.00000      1.00000   2.09595
 A04H4      0.00000   0.00000      1.00000   2.09595
 BO21       0.00000   0.00000      1.00000  10.00000
 BO31       0.00000   0.00000      1.00000  10.00000
 BO41       0.00000   0.00000      1.00000  10.00000
 N1         0.00000   0.00000      1.00000   1.68208
 H2         0.00000   0.00000      1.00000   2.09595
 H3         0.00000   0.00000      1.00000   2.09595
 A04H4      0.00000   0.00000      1.00000   2.09595
 BO21       0.00000   0.00000      1.00000  10.00000
 BO31       0.00000   0.00000      1.00000  10.00000
 BO41       0.00000   0.00000      1.00000  10.00000
 N1         0.00000   0.00000      1.00000   1.68208
 H2         0.00000   0.00000      1.00000   2.09595
 H3         0.00000   0.00000      1.00000   2.09595
 A04H4      0.00000   0.00000      1.00000   2.09595
 BO21       0.00000   0.00000      1.00000  10.00000
 BO31       0.00000   0.00000      1.00000  10.00000
 BO41       0.00000   0.00000      1.00000  10.00000
 N1         0.00000   0.00000      1.00000   1.68208
 H2         0.00000   0.00000      1.00000   2.09595
 H3         0.00000   0.00000      1.00000   2.09595
 A04H4      0.00000   0.00000      1.00000   2.09595
 BO21       0.00000   0.00000      1.00000  10.00000
 BO31       0.00000   0.00000      1.00000  10.00000
 BO41       0.00000   0.00000      1.00000  10.00000
 O1         0.00000   0.00000      1.00000   1.93599
 H2         0.00000   0.00000      1.00000   2.05409
 H3         0.00000   0.00000      1.00000   2.05409
 BO21       0.00000   0.00000      1.00000   3.89287
 BO31       0.00000   0.00000      1.00000   3.89287
 O1         0.00000   0.00000      1.00000   1.93599
 H2         0.00000   0.00000      1.00000   2.05409
 H3         0.00000   0.00000      1.00000   2.05409
 BO21       0.00000   0.00000      1.00000   3.89287
 BO31       0.00000   0.00000      1.00000   3.89287
 O1         0.00000   0.00000      1.00000   1.93599
 H2         0.00000   0.00000      1.00000   2.05409
 H3         0.00000   0.00000      1.00000   2.05409
 BO21       0.00000   0.00000      1.00000   3.89287
 BO31       0.00000   0.00000      1.00000   3.89287
 O1         0.00000   0.00000      1.00000   1.93599
 H2         0.00000   0.00000      1.00000   2.05409
 H3         0.00000   0.00000      1.00000   2.05409
 BO21       0.00000   0.00000      1.00000   3.89287
 BO31       0.00000   0.00000      1.00000   3.89287
 N1         0.00000   0.00000      1.00000   1.68208
 H2         0.00000   0.00000      1.00000   2.09595
 H3         0.00000   0.00000      1.00000   2.09595
 A04H4      0.00000   0.00000      1.00000   2.09595
 BO21       0.00000   0.00000      1.00000  10.00000
 BO31       0.00000   0.00000      1.00000  10.00000
 BO41       0.00000   0.00000      1.00000  10.00000
 N1         0.00000   0.00000      1.00000   1.68208
 H2         0.00000   0.00000      1.00000   2.09595
 H3         0.00000   0.00000      1.00000   2.09595
 A04H4      0.00000   0.00000      1.00000   2.09595
 BO21       0.00000   0.00000      1.00000  10.00000
 BO31       0.00000   0.00000      1.00000  10.00000
 BO41       0.00000   0.00000      1.00000  10.00000
 N1         0.00000   0.00000      1.00000   1.68208
 H2         0.00000   0.00000      1.00000   2.09595
 H3         0.00000   0.00000      1.00000   2.09595
 A04H4      0.00000   0.00000      1.00000   2.09595
 BO21       0.00000   0.00000      1.00000  10.00000
 BO31       0.00000   0.00000      1.00000  10.00000
 BO41       0.00000   0.00000      1.00000  10.00000
 N1         0.00000   0.00000      1.00000   1.68208
 H2         0.00000   0.00000      1.00000   2.09595
 H3         0.00000   0.00000      1.00000   2.09595
 A04H4      0.00000   0.00000      1.00000   2.09595
 BO21       0.00000   0.00000      1.00000  10.00000
 BO31       0.00000   0.00000      1.00000  10.00000
 BO41       0.00000   0.00000      1.00000  10.00000
 O1         0.00000   0.00000      1.00000   1.93599
 H2         0.00000   0.00000      1.00000   2.05409
 H3         0.00000   0.00000      1.00000   2.05409
 BO21       0.00000   0.00000      1.00000   3.89287
 BO31       0.00000   0.00000      1.00000   3.89287
 O1         0.00000   0.00000      1.00000   1.93599
 H2         0.00000   0.00000      1.00000   2.05409
 H3         0.00000   0.00000      1.00000   2.05409
 BO21       0.00000   0.00000      1.00000   3.89287
 BO31       0.00000   0.00000      1.00000   3.89287
 O1         0.00000   0.00000      1.00000   1.93599
 H2         0.00000   0.00000      1.00000   2.05409
 H3         0.00000   0.00000      1.00000   2.05409
 BO21       0.00000   0.00000      1.00000   3.89287
 BO31       0.00000   0.00000      1.00000   3.89287
 O1         0.00000   0.00000      1.00000   1.93599
 H2         0.00000   0.00000      1.00000   2.05409
 H3         0.00000   0.00000      1.00000   2.05409
 BO21       0.00000   0.00000      1.00000   3.89287
 BO31       0.00000   0.00000      1.00000   3.89287
 N1         0.00000   0.00000      1.00000   1.68208
 H2         0.00000   0.00000      1.00000   2.09595
 H3         0.00000   0.00000      1.00000   2.09595
 A04H4      0.00000   0.00000      1.00000   2.09595
 BO21       0.00000   0.00000      1.00000  10.00000
 BO31       0.00000   0.00000      1.00000  10.00000
 BO41       0.00000   0.00000      1.00000  10.00000
 N1         0.00000   0.00000      1.00000   1.68208
 H2         0.00000   0.00000      1.00000   2.09595
 H3         0.00000   0.00000      1.00000   2.09595
 A04H4      0.00000   0.00000      1.00000   2.09595
 BO21       0.00000   0.00000      1.00000  10.00000
 BO31       0.00000   0.00000      1.00000  10.00000
 BO41       0.00000   0.00000      1.00000  10.00000
 N1         0.00000   0.00000      1.00000   1.68208
 H2         0.00000   0.00000      1.00000   2.09595
 H3         0.00000   0.00000      1.00000   2.09595
 A04H4      0.00000   0.00000      1.00000   2.09595
 BO21       0.00000   0.00000      1.00000  10.00000
 BO31       0.00000   0.00000      1.00000  10.00000
 BO41       0.00000   0.00000      1.00000  10.00000
 N1         0.00000   0.00000      1.00000   1.68208
 H2         0.00000   0.00000      1.00000   2.09595
 H3         0.00000   0.00000      1.00000   2.09595
 A04H4      0.00000   0.00000      1.00000   2.09595
 BO21       0.00000   0.00000      1.00000  10.00000
 BO31       0.00000   0.00000      1.00000  10.00000
 BO41       0.00000   0.00000      1.00000  10.00000
 O1         0.00000   0.00000      1.00000   1.93599
 H2         0.00000   0.00000      1.00000   2.05409
 H3         0.00000   0.00000      1.00000   2.05409
 BO21       0.00000   0.00000      1.00000   3.89287
 BO31       0.00000   0.00000      1.00000   3.89287
 O1         0.00000   0.00000      1.00000   1.93599
 H2         0.00000   0.00000      1.00000   2.05409
 H3         0.00000   0.00000      1.00000   2.05409
 BO21       0.00000   0.00000      1.00000   3.89287
 BO31       0.00000   0.00000      1.00000   3.89287
 O1         0.00000   0.00000      1.00000   1.93599
 H2         0.00000   0.00000      1.00000   2.05409
 H3         0.00000   0.00000      1.00000   2.05409
 BO21       0.00000   0.00000      1.00000   3.89287
 BO31       0.00000   0.00000      1.00000   3.89287
 O1         0.00000   0.00000      1.00000   1.93599
 H2         0.00000   0.00000      1.00000   2.05409
 H3         0.00000   0.00000      1.00000   2.05409
 BO21       0.00000   0.00000      1.00000   3.89287
 BO31       0.00000   0.00000      1.00000   3.89287
 N1         0.00000   0.00000      1.00000   1.68208
 H2         0.00000   0.00000      1.00000   2.09595
 H3         0.00000   0.00000      1.00000   2.09595
 A04H4      0.00000   0.00000      1.00000   2.09595
 BO21       0.00000   0.00000      1.00000  10.00000
 BO31       0.00000   0.00000      1.00000  10.00000
 BO41       0.00000   0.00000      1.00000  10.00000
 N1         0.00000   0.00000      1.00000   1.68208
 H2         0.00000   0.00000      1.00000   2.09595
 H3         0.00000   0.00000      1.00000   2.09595
 A04H4      0.00000   0.00000      1.00000   2.09595
 BO21       0.00000   0.00000      1.00000  10.00000
 BO31       0.00000   0.00000      1.00000  10.00000
 BO41       0.00000   0.00000      1.00000  10.00000
 N1         0.00000   0.00000      1.00000   1.68208
 H2         0.00000   0.00000      1.00000   2.09595
 H3         0.00000   0.00000      1.00000   2.09595
 A04H4      0.00000   0.00000      1.00000   2.09595
 BO21       0.00000   0.00000      1.00000  10.00000
 BO31       0.00000   0.00000      1.00000  10.00000
 BO41       0.00000   0.00000      1.00000  10.00000
 N1         0.00000   0.00000      1.00000   1.68208
 H2         0.00000   0.00000      1.00000   2.09595
 H3         0.00000   0.00000      1.00000   2.09595
 A04H4      0.00000   0.00000      1.00000   2.09595
 BO21       0.00000   0.00000      1.00000  10.00000
 BO31       0.00000   0.00000      1.00000  10.00000
 BO41       0.00000   0.00000      1.00000  10.00000
 O1         0.00000   0.00000      1.00000   1.93599
 H2         0.00000   0.00000      1.00000   2.05409
 H3         0.00000   0.00000      1.00000   2.05409
 BO21       0.00000   0.00000      1.00000   3.89287
 BO31       0.00000   0.00000      1.00000   3.89287
 O1         0.00000   0.00000      1.00000   1.93599
 H2         0.00000   0.00000      1.00000   2.05409
 H3         0.00000   0.00000      1.00000   2.05409
 BO21       0.00000   0.00000      1.00000   3.89287
 BO31       0.00000   0.00000      1.00000   3.89287
 O1         0.00000   0.00000      1.00000   1.93599
 H2         0.00000   0.00000      1.00000   2.05409
 H3         0.00000   0.00000      1.00000   2.05409
 BO21       0.00000   0.00000      1.00000   3.89287
 BO31       0.00000   0.00000      1.00000   3.89287
 O1         0.00000   0.00000      1.00000   1.93599
 H2         0.00000   0.00000      1.00000   2.05409
 H3         0.00000   0.00000      1.00000   2.05409
 BO21       0.00000   0.00000      1.00000   3.89287
 BO31       0.00000   0.00000      1.00000   3.89287
 N1         0.00000   0.00000      1.00000   1.68208
 H2         0.00000   0.00000      1.00000   2.09595
 H3         0.00000   0.00000      1.00000   2.09595
 A04H4      0.00000   0.00000      1.00000   2.09595
 BO21       0.00000   0.00000      1.00000  10.00000
 BO31       0.00000   0.00000      1.00000  10.00000
 BO41       0.00000   0.00000      1.00000  10.00000
 N1         0.00000   0.00000      1.00000   1.68208
 H2         0.00000   0.00000      1.00000   2.09595
 H3         0.00000   0.00000      1.00000   2.09595
 A04H4      0.00000   0.00000      1.00000   2.09595
 BO21       0.00000   0.00000      1.00000  10.00000
 BO31       0.00000   0.00000      1.00000  10.00000
 BO41       0.00000   0.00000      1.00000  10.00000
 N1         0.00000   0.00000      1.00000   1.68208
 H2         0.00000   0.00000      1.00000   2.09595
 H3         0.00000   0.00000      1.00000   2.09595
 A04H4      0.00000   0.00000      1.00000   2.09595
 BO21       0.00000   0.00000      1.00000  10.00000
 BO31       0.00000   0.00000      1.00000  10.00000
 BO41       0.00000   0.00000      1.00000  10.00000
 N1         0.00000   0.00000      1.00000   1.68208
 H2         0.00000   0.00000      1.00000   2.09595
 H3         0.00000   0.00000      1.00000   2.09595
 A04H4      0.00000   0.00000      1.00000   2.09595
 BO21       0.00000   0.00000      1.00000  10.00000
 BO31       0.00000   0.00000      1.00000  10.00000
 BO41       0.00000   0.00000      1.00000  10.00000
 O1         0.00000   0.00000      1.00000   1.93599
 H2         0.00000   0.00000      1.00000   2.05409
 H3         0.00000   0.00000      1.00000   2.05409
 BO21       0.00000   0.00000      1.00000   3.89287
 BO31       0.00000   0.00000      1.00000   3.89287
 O1         0.00000   0.00000      1.00000   1.93599
 H2         0.00000   0.00000      1.00000   2.05409
 H3         0.00000   0.00000      1.00000   2.05409
 BO21       0.00000   0.00000      1.00000   3.89287
 BO31       0.00000   0.00000      1.00000   3.89287
 O1         0.00000   0.00000      1.00000   1.93599
 H2         0.00000   0.00000      1.00000   2.05409
 H3         0.00000   0.00000      1.00000   2.05409
 BO21       0.00000   0.00000      1.00000   3.89287
 BO31       0.00000   0.00000      1.00000   3.89287
 O1         0.00000   0.00000      1.00000   1.93599
 H2         0.00000   0.00000      1.00000   2.05409
 H3         0.00000   0.00000      1.00000   2.05409
 BO21       0.00000   0.00000      1.00000   3.89287
 BO31       0.00000   0.00000      1.00000   3.89287
 N1         0.00000   0.00000      1.00000   1.68208
 H2         0.00000   0.00000      1.00000   2.09595
 H3         0.00000   0.00000      1.00000   2.09595
 A04H4      0.00000   0.00000      1.00000   2.09595
 BO21       0.00000   0.00000      1.00000  10.00000
 BO31       0.00000   0.00000      1.00000  10.00000
 BO41       0.00000   0.00000      1.00000  10.00000
 N1         0.00000   0.00000      1.00000   1.68208
 H2         0.00000   0.00000      1.00000   2.09595
 H3         0.00000   0.00000      1.00000   2.09595
 A04H4      0.00000   0.00000      1.00000   2.09595
 BO21       0.00000   0.00000      1.00000  10.00000
 BO31       0.00000   0.00000      1.00000  10.00000
 BO41       0.00000   0.00000      1.00000  10.00000
 N1         0.00000   0.00000      1.00000   1.68208
 H2         0.00000   0.00000      1.00000   2.09595
 H3         0.00000   0.00000      1.00000   2.09595
 A04H4      0.00000   0.00000      1.00000   2.09595
 BO21       0.00000   0.00000      1.00000  10.00000
 BO31       0.00000   0.00000      1.00000  10.00000
 BO41       0.00000   0.00000      1.00000  10.00000
 N1         0.00000   0.00000      1.00000   1.68208
 H2         0.00000   0.00000      1.00000   2.09595
 H3         0.00000   0.00000      1.00000   2.09595
 A04H4      0.00000   0.00000      1.00000   2.09595
 BO21       0.00000   0.00000      1.00000  10.00000
 BO31       0.00000   0.00000      1.00000  10.00000
 BO41       0.00000   0.00000      1.00000  10.00000

   SCREENING FOR POLARIZATION WITH EXPONENTIAL FORMULA  OFF

   SCREENING FOR POLARIZATION WITH TANG-TOENNIS FORMULA   ON

    WITH COEFFICIENTS 

     H2O     0.60

     NH3     0.60

                  DIPOLE MOMENTS AND THE SECOND MOMENT TENSOR

                  X        Y        Z           XX/XY    YY/XZ    ZZ/YZ
 O1           -0.00000  0.00000  0.55579     -3.70354 -4.84905 -4.21118
                                              0.00000  0.00000  0.00000
 H2           -0.04818  0.00000  0.02801     -0.21535 -0.21682 -0.21376
                                              0.00000  0.00142  0.00000
 H3            0.04818  0.00000  0.02801     -0.21535 -0.21682 -0.21376
                                              0.00000 -0.00142  0.00000
 BO21          0.25934  0.00000 -0.22561     -0.17767 -0.18132 -0.18092
                                              0.00000  0.00857  0.00000
 BO31         -0.25934  0.00000 -0.22561     -0.17767 -0.18132 -0.18092
                                              0.00000 -0.00857  0.00000
 O1           -0.00000  0.00000  0.55579     -3.70354 -4.84905 -4.21118
                                              0.00000  0.00000  0.00000
 H2           -0.04818  0.00000  0.02801     -0.21535 -0.21682 -0.21376
                                              0.00000  0.00142  0.00000
 H3            0.04818  0.00000  0.02801     -0.21535 -0.21682 -0.21376
                                              0.00000 -0.00142  0.00000
 BO21          0.25934  0.00000 -0.22561     -0.17767 -0.18132 -0.18092
                                              0.00000  0.00857  0.00000
 BO31         -0.25934  0.00000 -0.22561     -0.17767 -0.18132 -0.18092
                                              0.00000 -0.00857  0.00000
 O1           -0.00000  0.00000  0.55579     -3.70354 -4.84905 -4.21118
                                              0.00000  0.00000  0.00000
 H2           -0.04818  0.00000  0.02801     -0.21535 -0.21682 -0.21376
                                              0.00000  0.00142  0.00000
 H3            0.04818  0.00000  0.02801     -0.21535 -0.21682 -0.21376
                                              0.00000 -0.00142  0.00000
 BO21          0.25934  0.00000 -0.22561     -0.17767 -0.18132 -0.18092
                                              0.00000  0.00857  0.00000
 BO31         -0.25934  0.00000 -0.22561     -0.17767 -0.18132 -0.18092
                                              0.00000 -0.00857  0.00000
 O1           -0.00000  0.00000  0.55579     -3.70354 -4.84905 -4.21118
                                              0.00000  0.00000  0.00000
 H2           -0.04818  0.00000  0.02801     -0.21535 -0.21682 -0.21376
                                              0.00000  0.00142  0.00000
 H3            0.04818  0.00000  0.02801     -0.21535 -0.21682 -0.21376
                                              0.00000 -0.00142  0.00000
 BO21          0.25934  0.00000 -0.22561     -0.17767 -0.18132 -0.18092
                                              0.00000  0.00857  0.00000
 BO31         -0.25934  0.00000 -0.22561     -0.17767 -0.18132 -0.18092
                                              0.00000 -0.00857  0.00000
 N1           -0.00000  0.00000  0.48045     -4.02707 -4.02707 -5.42334
                                              0.00000  0.00000  0.00000
 H2            0.00000  0.08831  0.02746     -0.40288 -0.40131 -0.40325
                                              0.00000  0.00000  0.00391
 H3           -0.07648 -0.04416  0.02746     -0.40170 -0.40249 -0.40325
                                              0.00068 -0.00339 -0.00196
 A04H4         0.07648 -0.04416  0.02746     -0.40170 -0.40249 -0.40325
                                             -0.00068  0.00339 -0.00196
 BO21         -0.00000 -0.18699 -0.04580     -0.18964 -0.14289 -0.18822
                                              0.00000  0.00000  0.01567
 BO31          0.17406  0.11449 -0.02786     -0.07443 -0.07929 -0.11058
                                              0.01490 -0.00901  0.00007
 BO41         -0.17406  0.11449 -0.02786     -0.07443 -0.07929 -0.11058
                                             -0.01490  0.00901  0.00007
 N1           -0.00000  0.00000  0.48045     -4.02707 -4.02707 -5.42334
                                              0.00000  0.00000  0.00000
 H2            0.00000  0.08831  0.02746     -0.40288 -0.40131 -0.40325
                                              0.00000  0.00000  0.00391
 H3           -0.07648 -0.04416  0.02746     -0.40170 -0.40249 -0.40325
                                              0.00068 -0.00339 -0.00196
 A04H4         0.07648 -0.04416  0.02746     -0.40170 -0.40249 -0.40325
                                             -0.00068  0.00339 -0.00196
 BO21         -0.00000 -0.18699 -0.04580     -0.18964 -0.14289 -0.18822
                                              0.00000  0.00000  0.01567
 BO31          0.17406  0.11449 -0.02786     -0.07443 -0.07929 -0.11058
                                              0.01490 -0.00901  0.00007
 BO41         -0.17406  0.11449 -0.02786     -0.07443 -0.07929 -0.11058
                                             -0.01490  0.00901  0.00007
 N1           -0.00000  0.00000  0.48045     -4.02707 -4.02707 -5.42334
                                              0.00000  0.00000  0.00000
 H2            0.00000  0.08831  0.02746     -0.40288 -0.40131 -0.40325
                                              0.00000  0.00000  0.00391
 H3           -0.07648 -0.04416  0.02746     -0.40170 -0.40249 -0.40325
                                              0.00068 -0.00339 -0.00196
 A04H4         0.07648 -0.04416  0.02746     -0.40170 -0.40249 -0.40325
                                             -0.00068  0.00339 -0.00196
 BO21         -0.00000 -0.18699 -0.04580     -0.18964 -0.14289 -0.18822
                                              0.00000  0.00000  0.01567
 BO31          0.17406  0.11449 -0.02786     -0.07443 -0.07929 -0.11058
                                              0.01490 -0.00901  0.00007
 BO41         -0.17406  0.11449 -0.02786     -0.07443 -0.07929 -0.11058
                                             -0.01490  0.00901  0.00007
 N1           -0.00000  0.00000  0.48045     -4.02707 -4.02707 -5.42334
                                              0.00000  0.00000  0.00000
 H2            0.00000  0.08831  0.02746     -0.40288 -0.40131 -0.40325
                                              0.00000  0.00000  0.00391
 H3           -0.07648 -0.04416  0.02746     -0.40170 -0.40249 -0.40325
                                              0.00068 -0.00339 -0.00196
 A04H4         0.07648 -0.04416  0.02746     -0.40170 -0.40249 -0.40325
                                             -0.00068  0.00339 -0.00196
 BO21         -0.00000 -0.18699 -0.04580     -0.18964 -0.14289 -0.18822
                                              0.00000  0.00000  0.01567
 BO31          0.17406  0.11449 -0.02786     -0.07443 -0.07929 -0.11058
                                              0.01490 -0.00901  0.00007
 BO41         -0.17406  0.11449 -0.02786     -0.07443 -0.07929 -0.11058
                                             -0.01490  0.00901  0.00007
 O1           -0.00000  0.00000  0.55579     -3.70354 -4.84905 -4.21118
                                              0.00000  0.00000  0.00000
 H2           -0.04818  0.00000  0.02801     -0.21535 -0.21682 -0.21376
                                              0.00000  0.00142  0.00000
 H3            0.04818  0.00000  0.02801     -0.21535 -0.21682 -0.21376
                                              0.00000 -0.00142  0.00000
 BO21          0.25934  0.00000 -0.22561     -0.17767 -0.18132 -0.18092
                                              0.00000  0.00857  0.00000
 BO31         -0.25934  0.00000 -0.22561     -0.17767 -0.18132 -0.18092
                                              0.00000 -0.00857  0.00000
 O1           -0.00000  0.00000  0.55579     -3.70354 -4.84905 -4.21118
                                              0.00000  0.00000  0.00000
 H2           -0.04818  0.00000  0.02801     -0.21535 -0.21682 -0.21376
                                              0.00000  0.00142  0.00000
 H3            0.04818  0.00000  0.02801     -0.21535 -0.21682 -0.21376
                                              0.00000 -0.00142  0.00000
 BO21          0.25934  0.00000 -0.22561     -0.17767 -0.18132 -0.18092
                                              0.00000  0.00857  0.00000
 BO31         -0.25934  0.00000 -0.22561     -0.17767 -0.18132 -0.18092
                                              0.00000 -0.00857  0.00000
 O1           -0.00000  0.00000  0.55579     -3.70354 -4.84905 -4.21118
                                              0.00000  0.00000  0.00000
 H2           -0.04818  0.00000  0.02801     -0.21535 -0.21682 -0.21376
                                              0.00000  0.00142  0.00000
 H3            0.04818  0.00000  0.02801     -0.21535 -0.21682 -0.21376
                                              0.00000 -0.00142  0.00000
 BO21          0.25934  0.00000 -0.22561     -0.17767 -0.18132 -0.18092
                                              0.00000  0.00857  0.00000
 BO31         -0.25934  0.00000 -0.22561     -0.17767 -0.18132 -0.18092
                                              0.00000 -0.00857  0.00000
 O1           -0.00000  0.00000  0.55579     -3.70354 -4.84905 -4.21118
                                              0.00000  0.00000  0.00000
 H2           -0.04818  0.00000  0.02801     -0.21535 -0.21682 -0.21376
                                              0.00000  0.00142  0.00000
 H3            0.04818  0.00000  0.02801     -0.21535 -0.21682 -0.21376
                                              0.00000 -0.00142  0.00000
 BO21          0.25934  0.00000 -0.22561     -0.17767 -0.18132 -0.18092
                                              0.00000  0.00857  0.00000
 BO31         -0.25934  0.00000 -0.22561     -0.17767 -0.18132 -0.18092
                                              0.00000 -0.00857  0.00000
 N1           -0.00000  0.00000  0.48045     -4.02707 -4.02707 -5.42334
                                              0.00000  0.00000  0.00000
 H2            0.00000  0.08831  0.02746     -0.40288 -0.40131 -0.40325
                                              0.00000  0.00000  0.00391
[...]
  H2          6.12787    7.55890    0.94552       CT2        -0.91300   10.81124    0.33628
  H3          8.98994    7.55890    0.94552       CT3         0.00000   12.39259    0.33628
  O1          7.55890   11.33836    3.66030       CT4        -0.00000   11.33836   -0.80508
  H2          6.12787   11.33836    4.72498       CT1         0.91300    7.03179    4.11573
  H3          8.98994   11.33836    4.72498       CT2        -0.91300    7.03179    4.11573
  O1         11.33836    7.55890    3.66030       CT3         0.00000    8.61314    4.11573
  H2          9.90732    7.55890    4.72498       CT4        -0.00000    7.55890    2.97437
  H3         12.76939    7.55890    4.72498       CT1         4.69245   10.81124    4.11573
  O1         11.33836   11.33836   -0.11915       CT2         2.86645   10.81124    4.11573
  H2          9.90732   11.33836    0.94552       CT3         3.77945   12.39259    4.11573
  H3         12.76939   11.33836    0.94552       CT4         3.77945   11.33836    2.97437
  N1         11.33836    7.55890   -0.13368       CT1         8.31371    7.55890    0.48397
  H2         11.33836    9.32156    0.61911       CT2         6.80410    7.55890    0.48397
  H3          9.81184    6.67757    0.61911       CT3         7.55890    7.05740   -0.41058
  A04H4      12.86488    6.67757    0.61911       CT4         7.55890    8.06041   -0.41059
  N1          7.55890   11.33836   -0.13368       CT1         8.31371   11.33836    4.26342
  H2          7.55890   13.10102    0.61911       CT2         6.80410   11.33836    4.26342
  H3          6.03238   10.45703    0.61911       CT3         7.55890   10.83685    3.36887
  A04H4       9.08542   10.45703    0.61911       CT4         7.55890   11.83986    3.36886
  N1          7.55890    7.55890    3.64577       CT1        12.09316    7.55890    4.26342
  H2          7.55890    9.32156    4.39856       CT2        10.58355    7.55890    4.26342
  H3          6.03238    6.67757    4.39856       CT3        11.33836    7.05740    3.36887
  A04H4       9.08542    6.67757    4.39856       CT4        11.33836    8.06041    3.36886
  N1         11.33836   11.33836    3.64577       CT1        12.09316   11.33836    0.48397
  H2         11.33836   13.10102    4.39856       CT2        10.58355   11.33836    0.48397
  H3          9.81184   10.45703    4.39856       CT3        11.33836   10.83685   -0.41058
  A04H4      12.86488   10.45703    4.39856       CT4        11.33836   11.83986   -0.41059
  O1          0.00000    0.00000    7.43976       CT1        12.25135    7.03179    0.33628
  H2         -1.43103    0.00000    8.50443       CT2        10.42536    7.03179    0.33628
  H3          1.43103    0.00000    8.50443       CT3        11.33836    8.61314    0.33628
  O1          0.00000    3.77945   11.21921       CT4        11.33836    7.55890   -0.80508
  H2         -1.43103    3.77945   12.28388       CT1         8.47190   10.81124    0.33628
  H3          1.43103    3.77945   12.28388       CT2         6.64591   10.81124    0.33628
  O1          3.77945    0.00000   11.21921       CT3         7.55890   12.39259    0.33628
  H2          2.34842    0.00000   12.28388       CT4         7.55890   11.33836   -0.80508
  H3          5.21048    0.00000   12.28388       CT1         8.47190    7.03179    4.11573
  O1          3.77945    3.77945    7.43976       CT2         6.64591    7.03179    4.11573
  H2          2.34842    3.77945    8.50443       CT3         7.55890    8.61314    4.11573
  H3          5.21048    3.77945    8.50443       CT4         7.55890    7.55890    2.97437
  N1          3.77945    0.00000    7.42522       CT1        12.25135   10.81124    4.11573
  H2          3.77945    1.76266    8.17802       CT2        10.42536   10.81124    4.11573
  H3          2.25293   -0.88133    8.17802       CT3        11.33836   12.39259    4.11573
  A04H4       5.30597   -0.88133    8.17802       CT4        11.33836   11.33836    2.97437
  N1          0.00000    3.77945    7.42522       CT1         0.75481    0.00000    8.04287
  H2         -0.00000    5.54211    8.17802       CT2        -0.75480    0.00000    8.04288
  H3         -1.52652    2.89812    8.17802       CT3        -0.00000   -0.50151    7.14832
  A04H4       1.52652    2.89812    8.17802       CT4        -0.00000    0.50151    7.14832
  N1          0.00000    0.00000   11.20468       CT1         0.75481    3.77945   11.82233
  H2         -0.00000    1.76266   11.95747       CT2        -0.75480    3.77945   11.82233
  H3         -1.52652   -0.88133   11.95747       CT3        -0.00000    3.27794   10.92777
  A04H4       1.52652   -0.88133   11.95747       CT4        -0.00000    4.28096   10.92777
  N1          3.77945    3.77945   11.20468       CT1         4.53426    0.00000   11.82233
  H2          3.77945    5.54211   11.95747       CT2         3.02465    0.00000   11.82233
  H3          2.25293    2.89812   11.95747       CT3         3.77945   -0.50151   10.92777
  A04H4       5.30597    2.89812   11.95747       CT4         3.77945    0.50151   10.92777
  O1          7.55890    0.00000    7.43976       CT1         4.53426    3.77945    8.04287
  H2          6.12787    0.00000    8.50443       CT2         3.02465    3.77945    8.04288
  H3          8.98994    0.00000    8.50443       CT3         3.77945    3.27794    7.14832
  O1          7.55890    3.77945   11.21921       CT4         3.77945    4.28096    7.14832
  H2          6.12787    3.77945   12.28388       CT1         4.69245   -0.52712    7.89518
  H3          8.98994    3.77945   12.28388       CT2         2.86645   -0.52712    7.89518
  O1         11.33836    0.00000   11.21921       CT3         3.77945    1.05423    7.89518
  H2          9.90732    0.00000   12.28388       CT4         3.77945   -0.00000    6.75382
  H3         12.76939    0.00000   12.28388       CT1         0.91300    3.25233    7.89518
  O1         11.33836    3.77945    7.43976       CT2        -0.91300    3.25233    7.89518
  H2          9.90732    3.77945    8.50443       CT3         0.00000    4.83369    7.89518
  H3         12.76939    3.77945    8.50443       CT4        -0.00000    3.77945    6.75382
  N1         11.33836    0.00000    7.42522       CT1         0.91300   -0.52712   11.67463
  H2         11.33836    1.76266    8.17802       CT2        -0.91300   -0.52712   11.67463
  H3          9.81184   -0.88133    8.17802       CT3         0.00000    1.05423   11.67463
  A04H4      12.86488   -0.88133    8.17802       CT4        -0.00000   -0.00000   10.53328
  N1          7.55890    3.77945    7.42522       CT1         4.69245    3.25233   11.67463
  H2          7.55890    5.54211    8.17802       CT2         2.86645    3.25233   11.67463
  H3          6.03238    2.89812    8.17802       CT3         3.77945    4.83369   11.67463
  A04H4       9.08542    2.89812    8.17802       CT4         3.77945    3.77945   10.53328
  N1          7.55890    0.00000   11.20468       CT1         8.31371    0.00000    8.04287
  H2          7.55890    1.76266   11.95747       CT2         6.80410    0.00000    8.04288
  H3          6.03238   -0.88133   11.95747       CT3         7.55890   -0.50151    7.14832
  A04H4       9.08542   -0.88133   11.95747       CT4         7.55890    0.50151    7.14832
  N1         11.33836    3.77945   11.20468       CT1         8.31371    3.77945   11.82233
  H2         11.33836    5.54211   11.95747       CT2         6.80410    3.77945   11.82233
  H3          9.81184    2.89812   11.95747       CT3         7.55890    3.27794   10.92777
  A04H4      12.86488    2.89812   11.95747       CT4         7.55890    4.28096   10.92777
  O1          0.00000    7.55890    7.43976       CT1        12.09316    0.00000   11.82233
  H2         -1.43103    7.55890    8.50443       CT2        10.58355    0.00000   11.82233
  H3          1.43103    7.55890    8.50443       CT3        11.33836   -0.50151   10.92777
  O1          0.00000   11.33836   11.21921       CT4        11.33836    0.50151   10.92777
  H2         -1.43103   11.33836   12.28388       CT1        12.09316    3.77945    8.04287
  H3          1.43103   11.33836   12.28388       CT2        10.58355    3.77945    8.04288
  O1          3.77945    7.55890   11.21921       CT3        11.33836    3.27794    7.14832
  H2          2.34842    7.55890   12.28388       CT4        11.33836    4.28096    7.14832
  H3          5.21048    7.55890   12.28388       CT1        12.25135   -0.52712    7.89518
  O1          3.77945   11.33836    7.43976       CT2        10.42536   -0.52712    7.89518
  H2          2.34842   11.33836    8.50443       CT3        11.33836    1.05423    7.89518
  H3          5.21048   11.33836    8.50443       CT4        11.33836   -0.00000    6.75382
  N1          3.77945    7.55890    7.42522       CT1         8.47190    3.25233    7.89518
  H2          3.77945    9.32156    8.17802       CT2         6.64591    3.25233    7.89518
  H3          2.25293    6.67757    8.17802       CT3         7.55890    4.83369    7.89518
  A04H4       5.30597    6.67757    8.17802       CT4         7.55890    3.77945    6.75382
  N1          0.00000   11.33836    7.42522       CT1         8.47190   -0.52712   11.67463
  H2         -0.00000   13.10102    8.17802       CT2         6.64591   -0.52712   11.67463
  H3         -1.52652   10.45703    8.17802       CT3         7.55890    1.05423   11.67463
  A04H4       1.52652   10.45703    8.17802       CT4         7.55890   -0.00000   10.53328
  N1          0.00000    7.55890   11.20468       CT1        12.25135    3.25233   11.67463
  H2         -0.00000    9.32156   11.95747       CT2        10.42536    3.25233   11.67463
  H3         -1.52652    6.67757   11.95747       CT3        11.33836    4.83369   11.67463
  A04H4       1.52652    6.67757   11.95747       CT4        11.33836    3.77945   10.53328
  N1          3.77945   11.33836   11.20468       CT1         0.75481    7.55890    8.04287
  H2          3.77945   13.10102   11.95747       CT2        -0.75480    7.55890    8.04288
  H3          2.25293   10.45703   11.95747       CT3        -0.00000    7.05740    7.14832
  A04H4       5.30597   10.45703   11.95747       CT4        -0.00000    8.06041    7.14832
  O1          7.55890    7.55890    7.43976       CT1         0.75481   11.33836   11.82233
  H2          6.12787    7.55890    8.50443       CT2        -0.75480   11.33836   11.82233
  H3          8.98994    7.55890    8.50443       CT3        -0.00000   10.83685   10.92777
  O1          7.55890   11.33836   11.21921       CT4        -0.00000   11.83986   10.92777
  H2          6.12787   11.33836   12.28388       CT1         4.53426    7.55890   11.82233
  H3          8.98994   11.33836   12.28388       CT2         3.02465    7.55890   11.82233
  O1         11.33836    7.55890   11.21921       CT3         3.77945    7.05740   10.92777
  H2          9.90732    7.55890   12.28388       CT4         3.77945    8.06041   10.92777
  H3         12.76939    7.55890   12.28388       CT1         4.53426   11.33836    8.04287
  O1         11.33836   11.33836    7.43976       CT2         3.02465   11.33836    8.04288
  H2          9.90732   11.33836    8.50443       CT3         3.77945   10.83685    7.14832
  H3         12.76939   11.33836    8.50443       CT4         3.77945   11.83986    7.14832
  N1         11.33836    7.55890    7.42522       CT1         4.69245    7.03179    7.89518
  H2         11.33836    9.32156    8.17802       CT2         2.86645    7.03179    7.89518
  H3          9.81184    6.67757    8.17802       CT3         3.77945    8.61314    7.89518
  A04H4      12.86488    6.67757    8.17802       CT4         3.77945    7.55890    6.75382
  N1          7.55890   11.33836    7.42522       CT1         0.91300   10.81124    7.89518
  H2          7.55890   13.10102    8.17802       CT2        -0.91300   10.81124    7.89518
  H3          6.03238   10.45703    8.17802       CT3         0.00000   12.39259    7.89518
  A04H4       9.08542   10.45703    8.17802       CT4        -0.00000   11.33836    6.75382
  N1          7.55890    7.55890   11.20468       CT1         0.91300    7.03179   11.67463
  H2          7.55890    9.32156   11.95747       CT2        -0.91300    7.03179   11.67463
  H3          6.03238    6.67757   11.95747       CT3         0.00000    8.61314   11.67463
  A04H4       9.08542    6.67757   11.95747       CT4        -0.00000    7.55890   10.53328
  N1         11.33836   11.33836   11.20468       CT1         4.69245   10.81124   11.67463
  H2         11.33836   13.10102   11.95747       CT2         2.86645   10.81124   11.67463
  H3          9.81184   10.45703   11.95747       CT3         3.77945   12.39259   11.67463
  A04H4      12.86488   10.45703   11.95747       CT4         3.77945   11.33836   10.53328
                                                  CT1         8.31371    7.55890    8.04287
                                                  CT2         6.80410    7.55890    8.04288
                                                  CT3         7.55890    7.05740    7.14832
                                                  CT4         7.55890    8.06041    7.14832
                                                  CT1         8.31371   11.33836   11.82233
                                                  CT2         6.80410   11.33836   11.82233
                                                  CT3         7.55890   10.83685   10.92777
                                                  CT4         7.55890   11.83986   10.92777
                                                  CT1        12.09316    7.55890   11.82233
                                                  CT2        10.58355    7.55890   11.82233
                                                  CT3        11.33836    7.05740   10.92777
                                                  CT4        11.33836    8.06041   10.92777
                                                  CT1        12.09316   11.33836    8.04287
                                                  CT2        10.58355   11.33836    8.04288
                                                  CT3        11.33836   10.83685    7.14832
                                                  CT4        11.33836   11.83986    7.14832
                                                  CT1        12.25135    7.03179    7.89518
                                                  CT2        10.42536    7.03179    7.89518
                                                  CT3        11.33836    8.61314    7.89518
                                                  CT4        11.33836    7.55890    6.75382
                                                  CT1         8.47190   10.81124    7.89518
                                                  CT2         6.64591   10.81124    7.89518
                                                  CT3         7.55890   12.39259    7.89518
                                                  CT4         7.55890   11.33836    6.75382
                                                  CT1         8.47190    7.03179   11.67463
                                                  CT2         6.64591    7.03179   11.67463
                                                  CT3         7.55890    8.61314   11.67463
                                                  CT4         7.55890    7.55890   10.53328
                                                  CT1        12.25135   10.81124   11.67463
                                                  CT2        10.42536   10.81124   11.67463
                                                  CT3        11.33836   12.39259   11.67463
                                                  CT4        11.33836   11.33836   10.53328

          ----------------
          PROPERTIES INPUT
          ----------------

     MOMENTS            FIELD           POTENTIAL          DENSITY
 IEMOM =       1   IEFLD =       0   IEPOT =       0   IEDEN =       0
 WHERE =COMASS     WHERE =NUCLEI     WHERE =NUCLEI     WHERE =NUCLEI  
 OUTPUT=BOTH       OUTPUT=BOTH       OUTPUT=BOTH       OUTPUT=BOTH    
 IEMINT=       0   IEFINT=       0                     IEDINT=       0
                                                       MORB  =       0
          EXTRAPOLATION IN EFFECT
 ORBITAL PRINTING OPTION: NPREO=     1     0     2     1

     -------------------------------
     INTEGRAL TRANSFORMATION OPTIONS
     -------------------------------
     NWORD  =            0
     CUTOFF = 1.0E-09     MPTRAN =       0
     DIRTRF =       F     AOINTS =DUP     

          ----------------------
          INTEGRAL INPUT OPTIONS
          ----------------------
 NOPK  =       1 NORDER=       0 SCHWRZ=       F

 ..... DONE SETTING UP THE RUN .....
 STEP CPU TIME =     0.77 TOTAL CPU TIME =        0.8 (    0.0 MIN)
 TOTAL WALL CLOCK TIME=        0.8 SECONDS, CPU UTILIZATION IS  98.72%

                 INDUCED DIPOLE    ATOMIC UNITS   DEBYE
                 --------------    ------------   -----
                     X(IND)         -0.02283   -0.05802
                     Y(IND)         10.07295   25.60308
                     Z(IND)         -2.25341   -5.72764

                 --------------------------------------
                 FRAGMENT-FRAGMENT INTERACTION ENERGIES
                 --------------------------------------

                 CHARGE-CHARGE         =  -8.2816285926
                 CHARGE-DIPOLE         =   0.5401213170
                 CHARGE-QUADRUPOLE     =  -0.3176134654
                 CHARGE-OCTUPOLE       =   0.0484723347
                 DIPOLE-DIPOLE         =   0.0702500554
                 DIPOLE-QUADRUPOLE     =   0.0378791094
                 QUADRUPOLE-QUADRUPOLE =  -0.1345018277
                 OVERLAP PEN. ENERGY   =   0.0000000000
                                         --------------
                 ELECTROSTATIC ENERGY  =  -8.0370210693
                 REPULSION ENERGY      =  44.3091726455
                 POLARIZATION ENERGY   =  -0.5762139720
                 TOTAL DISPERSION ENERGY(E6+E7+E8) =  -3.4559899645
                 E7 DISPERSION ENERGY     =   0.4871816720
                 E6 DISPERSION ENERGY     =  -2.9573787274
                 CHARGE TRANSFER ENRGY =  -0.1470359591
                 --------------------------------------
                 FINAL EFP ENERGY      =  32.0929116806


          ----------------------------------------
          EFFECTIVE FRAGMENT ELECTROSTATIC MOMENTS
          ----------------------------------------

 FRAGMENT DIPOLES HAVE BEEN PUNCHED

          ----------------------------
          SYSTEM ELECTROSTATIC MOMENTS
          ----------------------------

 CENTER              X           Y           Z (BOHR)    CHARGE
                5.669178    5.669178    5.669179        0.00 (A.U.)
         DX          DY          DZ         /D/  (DEBYE)
    -0.058016   25.603173  129.540438  132.046397

                92846  WORDS OF DYNAMIC MEMORY USED
 EXECUTION OF GAMESS TERMINATED NORMALLY Wed Aug  9 20:09:02 2017
 DDI: 263640 bytes (0.3 MB / 0 MWords) used by master data server.

 ----------------------------------------
 CPU timing information for all processes
 ========================================
 0: 5.548 + 0.19 = 5.568
 ----------------------------------------
 ddikick.x: exited gracefully.
unset echo
----- accounting info -----
Files used on the master node compute-0-8.local were:
-rw-rw-r-- 1 sarom sarom 111K Aug  9 20:08 /scratch/efp2-32h2o-32nh3_ctcut.F05
-rw-rw-r-- 1 sarom sarom    0 Aug  9 20:08 /scratch/efp2-32h2o-32nh3_ctcut.F08
-rw-rw-r-- 1 sarom sarom 288K Aug  9 20:08 /scratch/efp2-32h2o-32nh3_ctcut.F10
-rw-rw-r-- 1 sarom sarom    0 Aug  9 20:08 /scratch/efp2-32h2o-32nh3_ctcut.F25
rm: No match.
ls: No match.
ls: No match.
ls: No match.
Wed Aug  9 20:09:05 CDT 2017
0.264u 0.152s 0:09.06 4.5%	0+0k 224+576io 0pf+0w
/opt/gridengine/default/spool/compute-0-8/active_jobs/35776.1/pe_hostfile compute-0-8.local
