----- GAMESS execution script 'rungms' -----
This job is running on host compute-3-0
under operating system Linux at Mon Nov 28 21:25:36 CST 2016
Available scratch disk space (Kbyte units) at beginning of the job is
Filesystem            1K-blocks       Used  Available Use% Mounted on
bolt.local:/export/home/sarom
                     9590469632 1552976896 7550324736  18% /home/sarom
Copying input file mc-nacme-lif.inp to your run's scratch directory...
cp mc-nacme-lif.inp .//mc-nacme-lif.F05
unset echo
/home/sarom/gamessGH/ddikick.x /home/sarom/gamessGH/gamess.00.x mc-nacme-lif -ddi 1 1 localhost -scr ./

 Distributed Data Interface kickoff program.
 Initiating 1 compute processes on 1 nodes to run the following command:
 /home/sarom/gamessGH/gamess.00.x mc-nacme-lif 

          ******************************************************
          *         GAMESS VERSION = 18 AUG 2016 (R1)          *
          *             FROM IOWA STATE UNIVERSITY             *
          * M.W.SCHMIDT, K.K.BALDRIDGE, J.A.BOATZ, S.T.ELBERT, *
          *   M.S.GORDON, J.H.JENSEN, S.KOSEKI, N.MATSUNAGA,   *
          *          K.A.NGUYEN, S.J.SU, T.L.WINDUS,           *
          *       TOGETHER WITH M.DUPUIS, J.A.MONTGOMERY       *
          *         J.COMPUT.CHEM.  14, 1347-1363(1993)        *
          **************** 64 BIT LINUX VERSION ****************

  SINCE 1993, STUDENTS AND POSTDOCS WORKING AT IOWA STATE UNIVERSITY
  AND ALSO IN THEIR VARIOUS JOBS AFTER LEAVING ISU HAVE MADE IMPORTANT
  CONTRIBUTIONS TO THE CODE:
     IVANA ADAMOVIC, CHRISTINE AIKENS, YURI ALEXEEV, POOJA ARORA,
     ANDREY ASADCHEV, ROB BELL, PRADIPTA BANDYOPADHYAY, JONATHAN BENTZ,
     BRETT BODE, KURT BRORSEN, CALEB CARLIN, GALINA CHABAN, WEI CHEN,
     CHEOL HO CHOI, PAUL DAY, ALBERT DEFUSCO, NUWAN DESILVA, TIM DUDLEY,
     DMITRI FEDOROV, GRAHAM FLETCHER, MARK FREITAG, KURT GLAESEMANN,
     DAN KEMP, GRANT MERRILL, NORIYUKI MINEZAWA, JONATHAN MULLIN,
     TAKESHI NAGATA, SEAN NEDD, HEATHER NETZLOFF, BOSILJKA NJEGIC, RYAN OLSON,
     MIKE PAK, SPENCER PRUITT, LUKE ROSKOP, JIM SHOEMAKER, LYUDMILA SLIPCHENKO,
     TONY SMITH, SAROM SOK LEANG, JIE SONG, TETSUYA TAKETSUGU, SIMON WEBB,
     PENG XU, SOOHAENG YOO, FEDERICO ZAHARIEV

  ADDITIONAL CODE HAS BEEN PROVIDED BY COLLABORATORS IN OTHER GROUPS:
     IOWA STATE UNIVERSITY:
          JOE IVANIC, AARON WEST, LAIMUTIS BYTAUTAS, KLAUS RUEDENBERG
     UNIVERSITY OF TOKYO: KIMIHIKO HIRAO, TAKAHITO NAKAJIMA,
          TAKAO TSUNEDA, MUNEAKI KAMIYA, SUSUMU YANAGISAWA,
          KIYOSHI YAGI, MAHITO CHIBA, SEIKEN TOKURA, NAOAKI KAWAKAMI
     UNIVERSITY OF AARHUS: FRANK JENSEN
     UNIVERSITY OF IOWA: VISVALDAS KAIRYS, HUI LI
     NATIONAL INST. OF STANDARDS AND TECHNOLOGY: WALT STEVENS, DAVID GARMER
     UNIVERSITY OF PISA: BENEDETTA MENNUCCI, JACOPO TOMASI
     UNIVERSITY OF MEMPHIS: HENRY KURTZ, PRAKASHAN KORAMBATH
     UNIVERSITY OF ALBERTA: TOBY ZENG, MARIUSZ KLOBUKOWSKI
     UNIVERSITY OF NEW ENGLAND: MARK SPACKMAN
     MIE UNIVERSITY: HIROAKI UMEDA
     NAT. INST. OF ADVANCED INDUSTRIAL SCIENCE AND TECHNOLOGY: KAZUO KITAURA
     MICHIGAN STATE UNIVERSITY:
          KAROL KOWALSKI, MARTA WLOCH, JEFFREY GOUR, JESSE LUTZ,
          WEI LI, PIOTR PIECUCH
     UNIVERSITY OF SILESIA: MONIKA MUSIAL, STANISLAW KUCHARSKI
     FACULTES UNIVERSITAIRES NOTRE-DAME DE LA PAIX:
          OLIVIER QUINET, BENOIT CHAMPAGNE
     UNIVERSITY OF CALIFORNIA - SANTA BARBARA: BERNARD KIRTMAN
     INSTITUTE FOR MOLECULAR SCIENCE:
          KAZUYA ISHIMURA, MICHIO KATOUDA, AND SHIGERU NAGASE
     UNIVERSITY OF NOTRE DAME: ANNA POMOGAEVA, DAN CHIPMAN
     KYUSHU UNIVERSITY:
          HARUYUKI NAKANO,
          FENG LONG GU, JACEK KORCHOWIEC, MARCIN MAKOWSKI, AND YURIKO AOKI,
          HIROTOSHI MORI AND EISAKU MIYOSHI
     PENNSYLVANIA STATE UNIVERSITY:
          TZVETELIN IORDANOV, CHET SWALINA, JONATHAN SKONE,
          SHARON HAMMES-SCHIFFER
     WASEDA UNIVERSITY:
          MASATO KOBAYASHI, TOMOKO AKAMA, TSUGUKI TOUMA,
          TAKESHI YOSHIKAWA, YASUHIRO IKABATA, JUNJI SEINO,
          YUYA NAKAJIMA, HIROMI NAKAI
     NANJING UNIVERSITY: SHUHUA LI
     UNIVERSITY OF NEBRASKA:
          PEIFENG SU, DEJUN SI, NANDUN THELLAMUREGE, YALI WANG, HUI LI
     UNIVERSITY OF ZURICH: ROBERTO PEVERATI, KIM BALDRIDGE
     N. COPERNICUS UNIVERSITY AND JACKSON STATE UNIVERSITY:
          MARIA BARYSZ
     UNIVERSITY OF COPENHAGEN: Jimmy Kromann, CASPER STEINMANN
     TOKYO INSTITUTE OF TECHNOLOGY: HIROYA NAKATA
     NAGOYA UNIVERSITY: YOSHIO NISHIMOTO, STEPHAN IRLE
     MOSCOW STATE UNIVERSITY: VLADIMIR MIRONOV

 EXECUTION OF GAMESS BEGUN Mon Nov 28 21:25:36 2016

            ECHO OF THE FIRST FEW INPUT CARDS -
 INPUT CARD>!   this matches a standard test case of MOLPRO's for LiF NACME                 
 INPUT CARD>!                                                                               
 INPUT CARD>!   The MCSCF ran for 2 iterations, the CP-MCHF for 45 iterations               
 INPUT CARD>!       STATE-SPECIFIC GRADIENT OF STATE   1 (OVERALL STATE   1)                
 INPUT CARD>!       ENERGY=     -106.8873052635 SPIN=  0.00 WEIGHT= 0.500000                
 INPUT CARD>!       UNITS ARE HARTREE/BOHR    E'X               E'Y               E'Z       
 INPUT CARD>!          1 LITHIUM          0.000000000       0.000000001      -0.004685158   
 INPUT CARD>!          2 FLUORINE         0.000000000      -0.000000001       0.004685158   
 INPUT CARD>!                                                                               
 INPUT CARD>!       STATE-SPECIFIC GRADIENT OF STATE   4 (OVERALL STATE   7)                
 INPUT CARD>!       ENERGY=     -106.8816921639 SPIN=  0.00 WEIGHT= 0.500000                
 INPUT CARD>!       UNITS ARE HARTREE/BOHR    E'X               E'Y               E'Z       
 INPUT CARD>!          1 LITHIUM          0.000000000       0.000000000      -0.004684247   
 INPUT CARD>!          2 FLUORINE         0.000000000       0.000000000       0.004684247   
 INPUT CARD>!                                                                               
 INPUT CARD>!       NONADIABATIC COUPLING MATRIX ELEMENT (NACME), IN ONE/BOHR               
 INPUT CARD>!       <STATE  4, WEIGHT=   0.50000 | D/DQ | STATE  1, WEIGHT=   0.50000>      
 INPUT CARD>!         ATOM               D/DX           D/DY           D/DZ                 
 INPUT CARD>!          1 LITHIUM         0.0000000      0.0000000      0.6423100            
 INPUT CARD>!          2 FLUORINE        0.0000000      0.0000000     -0.6192796            
 INPUT CARD>!                                                                               
 INPUT CARD>!    This run takes 66 seconds on a 2.66 GHz Cloverton (27 Apr 2015)            
 INPUT CARD>!    results have not changed much since 2012                                   
 INPUT CARD>!                                                                               
 INPUT CARD>!    ----------------------------------------------------------------           
 INPUT CARD>!    MOLPRO searches out a geometry where the two lowest 1-sigma-plus           
 INPUT CARD>!    states are at their closest, which is at 10.37... atomic units.            
 INPUT CARD>!    Naturally, the lowest state at this long distance is neutral               
 INPUT CARD>!    Li + F atoms, with the higher state being Li+ and F- ions.                 
 INPUT CARD>!                                                                               
 INPUT CARD>!    51 AOs, 49 MOs, 2 frozen core, 8 active, 39 external MOs.                  
 INPUT CARD>!    The active space consists of 2s,2x,2y,2z, and 3x,3y,3z on F,               
 INPUT CARD>!    and a 2s on the Li atom.  Convergence is a struggle, both                  
 INPUT CARD>!    for orbitals and for CI vectors!                                           
 INPUT CARD>!                                                                               
 INPUT CARD>!    E(1)= -106.88730540    E(2)= -106.87917037   Molpro                        
 INPUT CARD>!          -106.8873052636        -106.8791705000 GAMESS                        
 INPUT CARD>!    GAMESS' CPMCHF equations solved in 37 iterations.                          
 INPUT CARD>!                                                                               
 INPUT CARD>!    STATE-SPECIFIC GRADIENT OF STATE   4 WEIGHT=   0.50000                     
 INPUT CARD>!    UNITS ARE HARTREE/BOHR    E'X               E'Y               E'Z          
 INPUT CARD>!       1 LITHIUM          0.000000000       0.000000000      -0.004684247      
 INPUT CARD>!       2 FLUORINE         0.000000000       0.000000000       0.004684247      
 INPUT CARD>!                                                                               
 INPUT CARD>!    NONADIABATIC COUPLING MATRIX ELEMENT (NACME), in Hartree/Bohr              
 INPUT CARD>!    <STATE  4, WEIGHT=    .50000 | D/DQ | STATE  1, WEIGHT=    .50000>         
 INPUT CARD>!           ATOM               D/DX         D/DY         D/DZ                   
 INPUT CARD>!       1 LITHIUM         0.0000000      0.0000000      0.6423100               
 INPUT CARD>!       2 FLUORINE        0.0000000      0.0000000     -0.6192795               
 INPUT CARD>!                                                                               
    2000000 WORDS OF MEMORY AVAILABLE


     RUN TITLE
     ---------
 LiF NACME test case....basis sets are modified Huzinaga sets                    

 THE POINT GROUP OF THE MOLECULE IS CNV     
 THE ORDER OF THE PRINCIPAL AXIS IS     4
 *** WARNING! ATOM   1 SHELL    1 TYPE S HAS NORMALIZATION   4.85898935
 *** WARNING! ATOM   2 SHELL   11 TYPE S HAS NORMALIZATION  11.60658081
 *** WARNING! ATOM   2 SHELL   19 TYPE P HAS NORMALIZATION   8.95533288

 ATOM      ATOMIC                      COORDINATES (BOHR)
           CHARGE         X                   Y                   Z
 LITHIUM     3.0     0.0000000000        0.0000000000        0.0000000000
 FLUORINE    9.0     0.0000000000        0.0000000000       10.3716609930

          INTERNUCLEAR DISTANCES (ANGS.)
          ------------------------------

                1 LITH       2 FLUO  

   1 LITH    0.0000000    5.4884470  
   2 FLUO    5.4884470    0.0000000  

  * ... LESS THAN  3.000


     ATOMIC BASIS SET
     ----------------
 THE CONTRACTED PRIMITIVE FUNCTIONS HAVE BEEN UNNORMALIZED
 THE CONTRACTED BASIS FUNCTIONS ARE NOW NORMALIZED TO UNITY

  SHELL TYPE  PRIMITIVE        EXPONENT          CONTRACTION COEFFICIENT(S)

 LITHIUM   

      1   S       1           929.3093000    0.006579071575
      1   S       2           139.9955000    0.049934375819
      1   S       3            32.3173400    0.239259064926
      1   S       4             9.4102350    0.780905184369

      2   S       5             3.1647160    1.000000000000

      3   S       6             1.1678190    1.000000000000

      4   S       7             0.4545035    1.000000000000

      5   S       8             0.1000000    1.000000000000

      6   S       9             0.0500000    1.000000000000

      7   S      10             0.0230000    1.000000000000

      8   P      11             0.4000000    1.000000000000

      9   P      12             0.0800000    1.000000000000

     10   P      13             0.0300000    1.000000000000

 FLUORINE  

     11   S      14         22686.8400000    0.004886370522
     11   S      15          3366.2680000    0.038544294217
     11   S      16           752.6394000    0.203949677363
     11   S      17           208.9682000    0.820834804868

     12   S      18            66.7281500    1.000000000000

     13   S      19            23.3537900    1.000000000000

     14   S      20             8.6138010    1.000000000000

     15   S      21             2.6812640    1.000000000000

     16   S      22             1.0007750    1.000000000000

     17   S      23             0.3700000    1.000000000000

     18   S      24             0.1400000    1.000000000000

     19   P      25            44.6080100    0.145510726368
     19   P      26            10.0966700    0.915200094961

     20   P      27             2.9848810    1.000000000000

     21   P      28             0.9322284    1.000000000000

     22   P      29             0.3400000    1.000000000000

     23   P      30             0.1300000    1.000000000000

     24   D      31             2.0000000    1.000000000000

     25   D      32             0.5000000    1.000000000000

 TOTAL NUMBER OF BASIS SET SHELLS             =   25
 NUMBER OF CARTESIAN GAUSSIAN BASIS FUNCTIONS =   51
 NOTE: THIS RUN WILL RESTRICT THE MO VARIATION SPACE TO SPHERICAL HARMONICS.
 THE NUMBER OF ORBITALS KEPT IN THE VARIATIONAL SPACE WILL BE PRINTED LATER.
 NUMBER OF ELECTRONS                          =   12
 CHARGE OF MOLECULE                           =    0
 SPIN MULTIPLICITY                            =    1
 NUMBER OF OCCUPIED ORBITALS (ALPHA)          =    6
 NUMBER OF OCCUPIED ORBITALS (BETA )          =    6
 TOTAL NUMBER OF ATOMS                        =    2
 THE NUCLEAR REPULSION ENERGY IS        2.6032474469

 THIS MOLECULE IS RECOGNIZED AS BEING LINEAR,
 ORBITAL LZ DEGENERACY TOLERANCE ETOLLZ= 1.00E-06

     $CONTRL OPTIONS
     ---------------
 SCFTYP=MCSCF        RUNTYP=NACME        EXETYP=RUN     
 MPLEVL=       0     CITYP =NONE         CCTYP =NONE         VBTYP =NONE    
 DFTTYP=NONE         TDDFT =NONE    
 MULT  =       1     ICHARG=       0     NZVAR =       0     COORD =UNIQUE  
 PP    =NONE         RELWFN=NONE         LOCAL =NONE         NUMGRD=       F
 ISPHER=       1     NOSYM =       0     MAXIT =      30     UNITS =BOHR    
 PLTORB=       F     MOLPLT=       F     AIMPAC=       F     FRIEND=        
 NPRINT=       7     IREST =       0     GEOM  =INPUT   
 NORMF =       0     NORMP =       0     ITOL  =      20     ICUT  =       9
 INTTYP=BEST         GRDTYP=BEST         QMTTOL= 1.0E-06

     $SYSTEM OPTIONS
     ---------------
  REPLICATED MEMORY=     2000000 WORDS (ON EVERY NODE).
 DISTRIBUTED MEMDDI=           2 MILLION WORDS IN AGGREGATE,
 MEMDDI DISTRIBUTED OVER   1 PROCESSORS IS     2000000 WORDS/PROCESSOR.
 TOTAL MEMORY REQUESTED ON EACH PROCESSOR=     4000000 WORDS.
 TIMLIM=      525600.00 MINUTES, OR     365.0 DAYS.
 PARALL= F  BALTYP=  DLB     KDIAG=    0  COREFL= F
 MXSEQ2=     300 MXSEQ3=     150  mem10=         0

          ----------------
          PROPERTIES INPUT
          ----------------

     MOMENTS            FIELD           POTENTIAL          DENSITY
 IEMOM =       1   IEFLD =       0   IEPOT =       0   IEDEN =       0
 WHERE =COMASS     WHERE =NUCLEI     WHERE =NUCLEI     WHERE =NUCLEI  
 OUTPUT=BOTH       OUTPUT=BOTH       OUTPUT=BOTH       OUTPUT=BOTH    
 IEMINT=       0   IEFINT=       0                     IEDINT=       0
                                                       MORB  =       0

     -------------------------------
     INTEGRAL TRANSFORMATION OPTIONS
     -------------------------------
     NWORD  =            0
     CUTOFF = 1.0E-09     MPTRAN =       0
     DIRTRF =       F     AOINTS =DUP     

          ----------------------
          MCSCF INPUT PARAMETERS
          ----------------------
 CONVERGER SELECTION: FOCAS = F  SOSCF = F  FULLNR = T  QUD = F  JACOBI = F
 SECULAR EQUATION METHOD CISTEP = ALDET   
 --- GENERAL INPUT OPTIONS:
 MAXIT =       5  MICIT =       1  ACURCY= 1.000E-06
 DAMP  =   0.000  CANONC=       T  ENGTOL= 1.000E-10
 EKT   =       F  NPUNCH=       2  NWORD =         0
 REGENERATE CI AFTER CONVERGENCE = NONE    
 DIABATIZATION AFTER CONVERGENCE =        F
 --- INPUT FOR FULLNR CONVERGER:
 METHOD=DM2       FORS  =       F  DROPC =       T
 LINSER=       F  FCORE =       F  NORB  =      51

          ----------------------
          INTEGRAL INPUT OPTIONS
          ----------------------
 NOPK  =       1 NORDER=       0 SCHWRZ=       F

     ------------------------------------------
     THE POINT GROUP IS CNV, NAXIS= 4, ORDER= 8
     ------------------------------------------

 -- VARIATIONAL SPACE WILL BE RESTRICTED TO PURE SPHERICAL HARMONICS ONLY --
 AFTER EXCLUDING CONTAMINANT COMBINATIONS FROM THE CARTESIAN GAUSSIAN BASIS
 SET, THE NUMBER OF SPHERICAL HARMONICS KEPT IN THE VARIATION SPACE IS   49

     DIMENSIONS OF THE SYMMETRY SUBSPACES ARE
 A1  =   25     A2  =    0     B1  =    2     B2  =    2     E   =   10

 ..... DONE SETTING UP THE RUN .....
 STEP CPU TIME =     0.08 TOTAL CPU TIME =        0.1 (    0.0 MIN)
 TOTAL WALL CLOCK TIME=        0.1 SECONDS, CPU UTILIZATION IS  72.73%

     ------------------------------
     CPHF RESPONSE SOLUTION OPTIONS
     ------------------------------
     POLAR  =       F     NWORD  =       0
     CPHF   =MO      

          ********************
          1 ELECTRON INTEGRALS
          ********************
 TIME TO DO   DIPOLE INTEGRALS=      0.00
 ...... END OF ONE-ELECTRON INTEGRALS ......
 STEP CPU TIME =     0.00 TOTAL CPU TIME =        0.1 (    0.0 MIN)
 TOTAL WALL CLOCK TIME=        0.1 SECONDS, CPU UTILIZATION IS  72.73%

          -------------
          GUESS OPTIONS
          -------------
          GUESS =MOREAD            NORB  =      49          NORDER=       0
          MIX   =       F          PRTMO =       F          PUNMO =       F
          TOLZ  = 1.0E-08          TOLE  = 1.0E-05
          SYMDEN=       F          PURIFY=       F

 INITIAL GUESS ORBITALS GENERATED BY MOREAD   ROUTINE.

 STATISTICS FOR GENERATION OF SYMMETRY ORBITAL -Q- MATRIX
 NUMBER OF CARTESIAN ATOMIC ORBITALS=         51
 NUMBER OF SPHERICAL CONTAMINANTS DROPPED=     2
 NUMBER OF LINEARLY DEPENDENT MOS DROPPED=     0
 TOTAL NUMBER OF MOS IN VARIATION SPACE=      49

 SYMMETRIES FOR INITIAL GUESS ORBITALS FOLLOW.   BOTH SET(S).
     6 ORBITALS ARE OCCUPIED (    2 CORE ORBITALS).
     1=A        2=A        3=A        4=A        5=A        6=A        7=A   
     8=A        9=A       10=A       11=A       12=A       13=A       14=A   
    15=A       16=A       17=A       18=A       19=A       20=A       21=A   
    22=A       23=A       24=A       25=A       26=A       27=A       28=A   
    29=A       30=A       31=A       32=A       33=A       34=A       35=A   
    36=A       37=A       38=A       39=A       40=A       41=A       42=A   
    43=A       44=A       45=A       46=A       47=A       48=A       49=A   
 ...... END OF INITIAL ORBITAL SELECTION ......
 STEP CPU TIME =     0.01 TOTAL CPU TIME =        0.1 (    0.0 MIN)
 TOTAL WALL CLOCK TIME=        0.1 SECONDS, CPU UTILIZATION IS  75.00%

                    ----------------------
                    AO INTEGRAL TECHNOLOGY
                    ----------------------
     S,P,L SHELL ROTATED AXIS INTEGRALS, REPROGRAMMED BY
        KAZUYA ISHIMURA (IMS) AND JOSE SIERRA (SYNSTAR).
     S,P,D,L SHELL ROTATED AXIS INTEGRALS PROGRAMMED BY
        KAZUYA ISHIMURA (INSTITUTE FOR MOLECULAR SCIENCE).
     S,P,D,F,G SHELL TO TOTAL QUARTET ANGULAR MOMENTUM SUM 5,
        ERIC PROGRAM BY GRAHAM FLETCHER (ELORET AND NASA ADVANCED
        SUPERCOMPUTING DIVISION, AMES RESEARCH CENTER).
     S,P,D,F,G,L SHELL GENERAL RYS QUADRATURE PROGRAMMED BY
        MICHEL DUPUIS (PACIFIC NORTHWEST NATIONAL LABORATORY).

          --------------------
          2 ELECTRON INTEGRALS
          --------------------

 THE -PK- OPTION IS OFF, THE INTEGRALS ARE NOT IN SUPERMATRIX FORM.
 STORING   15000 INTEGRALS/RECORD ON DISK, USING 12 BYTES/INTEGRAL.
 TWO ELECTRON INTEGRAL EVALUATION REQUIRES   90721 WORDS OF MEMORY.
 II,JST,KST,LST =  1  1  1  1 NREC =         1 INTLOC =    1
 II,JST,KST,LST =  2  1  1  1 NREC =         1 INTLOC =    2
 II,JST,KST,LST =  3  1  1  1 NREC =         1 INTLOC =    7
 II,JST,KST,LST =  4  1  1  1 NREC =         1 INTLOC =   22
 II,JST,KST,LST =  5  1  1  1 NREC =         1 INTLOC =   56
 II,JST,KST,LST =  6  1  1  1 NREC =         1 INTLOC =  121
 II,JST,KST,LST =  7  1  1  1 NREC =         1 INTLOC =  232
 II,JST,KST,LST =  8  1  1  1 NREC =         1 INTLOC =  407
 II,JST,KST,LST =  9  1  1  1 NREC =         1 INTLOC =  584
 II,JST,KST,LST = 10  1  1  1 NREC =         1 INTLOC = 1049
 II,JST,KST,LST = 11  1  1  1 NREC =         1 INTLOC = 1910
 II,JST,KST,LST = 12  1  1  1 NREC =         1 INTLOC = 2307
 II,JST,KST,LST = 13  1  1  1 NREC =         1 INTLOC = 2835
 II,JST,KST,LST = 14  1  1  1 NREC =         1 INTLOC = 3519
 II,JST,KST,LST = 15  1  1  1 NREC =         1 INTLOC = 4394
 II,JST,KST,LST = 16  1  1  1 NREC =         1 INTLOC = 5495
 II,JST,KST,LST = 17  1  1  1 NREC =         1 INTLOC = 6841
 II,JST,KST,LST = 18  1  1  1 NREC =         1 INTLOC = 8502
 II,JST,KST,LST = 19  1  1  1 NREC =         1 INTLOC =11023
 II,JST,KST,LST = 20  1  1  1 NREC =         2 INTLOC =  156
 II,JST,KST,LST = 21  1  1  1 NREC =         2 INTLOC = 6076
 II,JST,KST,LST = 22  1  1  1 NREC =         2 INTLOC =14035
 II,JST,KST,LST = 23  1  1  1 NREC =         3 INTLOC = 9469
 II,JST,KST,LST = 24  1  1  1 NREC =         4 INTLOC = 9689
 II,JST,KST,LST = 25  1  1  1 NREC =         7 INTLOC =  873
 TOTAL NUMBER OF NONZERO TWO-ELECTRON INTEGRALS =              143739
         10 INTEGRAL RECORDS WERE STORED ON DISK FILE  8.
  ...... END OF TWO-ELECTRON INTEGRALS .....
 STEP CPU TIME =     0.06 TOTAL CPU TIME =        0.1 (    0.0 MIN)
 TOTAL WALL CLOCK TIME=        0.2 SECONDS, CPU UTILIZATION IS  68.18%

          -----------------
          MCSCF CALCULATION
          -----------------

 ----- NUCLEAR ENERGY ----- =         2.6032474469

     --------------------------------------------------
          AMES LABORATORY DETERMINANTAL FULL CI
     PROGRAM WRITTEN BY JOE IVANIC AND KLAUS RUEDENBERG
     --------------------------------------------------

 RUNTYP=NACME    INVOLVING AN ANALYTIC NUCLEAR GRADIENT
 HAS BEEN REQUESTED FOR A RUN AVERAGING OVER   2 STATES.
 THIS REQUIRES SOLUTION OF THE MULTI-REFERENCE RESPONSE EQUATIONS,
 REQUIRING MORE COMPUTER TIME THAN SINGLE STATE GRADIENTS.
 PROVIDING $CPMCHF INPUT MAY HELP RESPONSE SOLVING.

 THE POINT GROUP                  =   C1      
 THE STATE SYMMETRY               =   A       
 NUMBER OF CORE ORBITALS          =    2
 NUMBER OF ACTIVE ORBITALS        =    8
 NUMBER OF ALPHA ELECTRONS        =    6 (   4 ACTIVE)
 NUMBER OF BETA ELECTRONS         =    6 (   4 ACTIVE)
 NUMBER OF OCCUPIED ORBITALS      =   10
 NUMBER OF CI STATES REQUESTED    =   10
 NUMBER OF CI STARTING VECTORS    =   50
 MAX. NO. OF CI EXPANSION VECTORS =  150
 SIZE OF INITIAL CI GUESS MATRIX  =  300
 MAX. NO. OF CI ITERS/STATE       =  100
 CI DIAGONALIZATION CRITERION     = 1.00E-06
 PURE SPIN STATE AVERAGED 1E- AND 2E- DENSITY MATRIX OPTION=.T.
 STATE=   1 DM2 WEIGHT=   0.50000     STATE=   4 DM2 WEIGHT=   0.50000
 STATE-AVERAGED MCSCF USING IROOT=  2 AS ITS STATE-SPECIFIC E

 CORRELATION ENERGY ANALYSIS      =    F

 SYMMETRIES FOR THE   2 CORE,   8 ACTIVE ARE

     CORE= A     A   

   ACTIVE= A     A     A     A     A     A     A     A   

     --------------------------------------------
     PARTIAL TWO ELECTRON INTEGRAL TRANSFORMATION
     --------------------------------------------

 NUMBER OF CORE MOLECULAR ORBITALS     =    2
 NUMBER OF OCCUPIED MOLECULAR ORBITALS =   10
 TOTAL NUMBER OF MOLECULAR ORBITALS    =   49
 TOTAL NUMBER OF ATOMIC ORBITALS       =   51
 THRESHOLD FOR KEEPING TRANSFORMED 2E- INTEGRALS = 1.000E-09
 AO INTEGRALS WILL BE READ IN FROM DISK...

 PLAN A: REQUIREMENTS FOR FULLY IN-MEMORY TRANSFORMATION:
 # OF WORDS AVAILABLE =              2000000
 # OF WORDS NEEDED    =               749369

 CHOOSING IN MEMORY PARTIAL TRANSFORMATION...
 TOTAL NUMBER OF TRANSFORMED 2E- INTEGRALS KEPT =        40029
 ----- FROZEN CORE ENERGY =       -84.6117041317
 ... END OF INTEGRAL TRANSFORMATION ...
 STEP CPU TIME =     0.09 TOTAL CPU TIME =        0.2 (    0.0 MIN)
 TOTAL WALL CLOCK TIME=        0.4 SECONDS, CPU UTILIZATION IS  63.16%

     --------------------------------------------------
          AMES LABORATORY DETERMINANTAL FULL CI
     PROGRAM WRITTEN BY JOE IVANIC AND KLAUS RUEDENBERG
     --------------------------------------------------

 THE NUMBER OF DETERMINANTS HAVING SPACE SYMMETRY A  
 IN POINT GROUP C1   WITH SZ=  0.0 IS           4900
 WHICH INCLUDES           1764 CSFS WITH S=  0.0
 WHICH INCLUDES           2352 CSFS WITH S=  1.0
 WHICH INCLUDES            720 CSFS WITH S=  2.0
 WHICH INCLUDES             63 CSFS WITH S=  3.0
 WHICH INCLUDES              1 CSFS WITH S=  4.0
 THE DETERMINANT FULL CI REQUIRES         1673200 WORDS
 INITIAL CI VECTOR GUESS TIME  :          0.1
 INITIAL FULL CI ITERATION TIME:          0.1

 ITERATION      ENERGY           GRADIENT
     0     -106.8557495800     0.29661045
     0     -106.8282287344     0.43512349
     0     -106.8278644807     0.41820868
     0     -106.8278644890     0.41820868
     0     -106.8278482153     0.41820963
     0     -106.8278482383     0.41820963
     0     -106.8276265449     0.43290918
     0     -106.2836909740     0.22401724
     0     -106.2836909740     0.22401724
     0     -106.2807255326     0.21262595

     1     -106.8849663887     0.09936228
     1     -106.8814959713     0.12427807
     1     -106.8783662832     0.12240596
     1     -106.8783662610     0.12240595
     1     -106.8783515597     0.12240355
     1     -106.8783515437     0.12240348
     1     -106.8773632391     0.09551217
     1     -106.2968724623     0.06329967
     1     -106.2968724623     0.06329967
     1     -106.2921290319     0.05989495

     2     -106.8871481724     0.02581063
     2     -106.8845863427     0.02965985
     2     -106.8814944327     0.02802365
     2     -106.8814944107     0.02802367
     2     -106.8814790800     0.02802599
     2     -106.8814790590     0.02802600
     2     -106.8790639074     0.02153842
     2     -106.2977827949     0.01502042
     2     -106.2977827949     0.01502042
     2     -106.2929000448     0.01695191

     3     -106.8872997087     0.00516448
     3     -106.8847885717     0.00591516
     3     -106.8816847186     0.00602477
     3     -106.8816846967     0.00602476
     3     -106.8816693251     0.00602698
     3     -106.8816693042     0.00602698
     3     -106.8791667069     0.00431169
     3     -106.2978379380     0.00632494
     3     -106.2978379380     0.00632494
     3     -106.2929858778     0.00694305

     4     -106.8873051488     0.00077789
     4     -106.8847957666     0.00087149
     4     -106.8816920997     0.00078043
     4     -106.8816920779     0.00078043
     4     -106.8816767041     0.00078395
     4     -106.8816766832     0.00078395
     4     -106.8791703575     0.00078372
     4     -106.2978471065     0.00201823
     4     -106.2978471065     0.00201823
     4     -106.2929969173     0.00180480

     5     -106.8873052606     0.00013040
     5     -106.8847959068     0.00013245
     5     -106.8816922184     0.00009717
     5     -106.8816921966     0.00009717
     5     -106.8816768222     0.00012269
     5     -106.8816768013     0.00012269
     5     -106.8791704822     0.00030150
     5     -106.2978478926     0.00062630
     5     -106.2978478926     0.00062630
     5     -106.2929976345     0.00033690

     6     -106.8873052635     0.00003406
     6     -106.8847959099     0.00002625
     6     -106.8816922203     0.00001900
     6     -106.8816921984     0.00001901
     6     -106.8816768248     0.00003219
     6     -106.8816768039     0.00003219
     6     -106.8791704997     0.00004561
     6     -106.2978479621     0.00016819
     6     -106.2978479621     0.00016819
     6     -106.2929976646     0.00007264

     7     -106.8873052637     0.00000709
     7     -106.8847959100     0.00000648
     7     -106.8816922203     0.00000389
     7     -106.8816921985     0.00000389
     7     -106.8816768250     0.00000603
     7     -106.8816768041     0.00000603
     7     -106.8791705002     0.00000832
     7     -106.2978479680     0.00003957
     7     -106.2978479680     0.00003957
     7     -106.2929976657     0.00001176

     8     -106.8873052637     0.00000138
     8     -106.8847959101     0.00000162
     8     -106.8816922203     0.00000096
     8     -106.8816921985     0.00000095
     8     -106.8816768250     0.00000131
     8     -106.8816768041     0.00000131
     8     -106.8791705002     0.00000179
     8     -106.2978479683     0.00000887
     8     -106.2978479683     0.00000887
     8     -106.2929976657     0.00000232


 CONVERGED STATE    3 ENERGY=     -106.8816922203 IN    8 ITERS


 CONVERGED STATE    4 ENERGY=     -106.8816921985 IN    8 ITERS

     0     -106.8873052637     0.00000138
     0     -106.8847959101     0.00000162
     0     -106.8816768250     0.00000131
     0     -106.8816768041     0.00000131
     0     -106.8791705002     0.00000179
     0     -106.2978479683     0.00000887
     0     -106.2978479683     0.00000887
     0     -106.2929976657     0.00000232

     1     -106.8873052637     0.00000043
     1     -106.8847959101     0.00000058
     1     -106.8816768250     0.00000041
     1     -106.8816768041     0.00000043
     1     -106.8791705002     0.00000054
     1     -106.2978479684     0.00000274
     1     -106.2978479684     0.00000274
     1     -106.2929976657     0.00000061


 CONVERGED STATE    1 ENERGY=     -106.8873052637 IN   10 ITERS


 CONVERGED STATE    2 ENERGY=     -106.8847959101 IN   10 ITERS


 CONVERGED STATE    5 ENERGY=     -106.8816768250 IN   10 ITERS


 CONVERGED STATE    6 ENERGY=     -106.8816768041 IN   10 ITERS


 CONVERGED STATE    7 ENERGY=     -106.8791705002 IN   10 ITERS


 CONVERGED STATE   10 ENERGY=     -106.2929976657 IN   10 ITERS

     0     -106.2978479684     0.00000274
     0     -106.2978479684     0.00000274

     1     -106.2978479684     0.00000125
     1     -106.2978479684     0.00000125

     2     -106.2978479684     0.00000032
     2     -106.2978479684     0.00000032


 CONVERGED STATE    8 ENERGY=     -106.2978479684 IN   13 ITERS


 CONVERGED STATE    9 ENERGY=     -106.2978479684 IN   13 ITERS

 ALL STATES CONVERGED.

 CI EIGENVECTORS WILL BE LABELED IN GROUP=C1      
 PRINTING CI COEFFICIENTS LARGER THAN 5.000E-02

 STATE   1  ENERGY=      -106.8873052637  S=  0.00  SZ=  0.00  SPACE SYM=A   

  ALPHA   |  BETA    | CI COEFFICIENT
----------|----------|---------------
 11101000 | 11110000 |   0.5738114824
 11110000 | 11101000 |   0.5738114824
 11110000 | 11110000 |  -0.5535616630

 STATE   2  ENERGY=      -106.8847959101  S=  1.00  SZ=  0.00  SPACE SYM=A   

  ALPHA   |  BETA    | CI COEFFICIENT
----------|----------|---------------
 11110000 | 11101000 |   0.6954708496
 11101000 | 11110000 |  -0.6954708496
 11100001 | 11101000 |  -0.0581026272
 11101000 | 11100001 |   0.0581026272

 STATE   3  ENERGY=      -106.8816922203  S=  1.00  SZ=  0.00  SPACE SYM=A   

  ALPHA   |  BETA    | CI COEFFICIENT
----------|----------|---------------
 10111000 | 11110000 |   0.6683218910
 11110000 | 10111000 |  -0.6683218892
 11011000 | 11110000 |   0.1925851294
 11110000 | 11011000 |  -0.1925851281
 10111000 | 10110010 |  -0.0505778221
 10110010 | 10111000 |   0.0505778220

 STATE   4  ENERGY=      -106.8816921985  S=  1.00  SZ=  0.00  SPACE SYM=A   

  ALPHA   |  BETA    | CI COEFFICIENT
----------|----------|---------------
 11011000 | 11110000 |   0.6683218912
 11110000 | 11011000 |  -0.6683218903
 10111000 | 11110000 |  -0.1925851287
 11110000 | 10111000 |   0.1925851286
 11011000 | 11010100 |   0.0505778168
 11010100 | 11011000 |  -0.0505778167

 STATE   5  ENERGY=      -106.8816768250  S=  0.00  SZ=  0.00  SPACE SYM=A   

  ALPHA   |  BETA    | CI COEFFICIENT
----------|----------|---------------
 11110000 | 11011000 |   0.6705342597
 11011000 | 11110000 |   0.6705342586
 10111000 | 11110000 |  -0.1847399656
 11110000 | 10111000 |  -0.1847399651
 11010100 | 11011000 |   0.0507503044
 11011000 | 11010100 |   0.0507503043

 STATE   6  ENERGY=      -106.8816768041  S=  0.00  SZ=  0.00  SPACE SYM=A   

  ALPHA   |  BETA    | CI COEFFICIENT
----------|----------|---------------
 11110000 | 10111000 |   0.6705342623
 10111000 | 11110000 |   0.6705342604
 11110000 | 11011000 |   0.1847399663
 11011000 | 11110000 |   0.1847399656
 10110010 | 10111000 |  -0.0507502995
 10111000 | 10110010 |  -0.0507502994

 STATE   7  ENERGY=      -106.8791705002  S=  0.00  SZ=  0.00  SPACE SYM=A   

  ALPHA   |  BETA    | CI COEFFICIENT
----------|----------|---------------
 11110000 | 11110000 |   0.8081786691
 11110000 | 11101000 |   0.3929557990
 11101000 | 11110000 |   0.3929557990

 STATE   8  ENERGY=      -106.2978479684  S=  1.00  SZ=  0.00  SPACE SYM=A   

  ALPHA   |  BETA    | CI COEFFICIENT
----------|----------|---------------
 11011000 | 11101000 |   0.6649565667
 11101000 | 11011000 |  -0.6649565667
 11001001 | 11101000 |   0.1271875774
 11101000 | 11001001 |  -0.1271875774
 11011000 | 11001100 |   0.1203947216
 11001100 | 11011000 |  -0.1203947216
 11011000 | 10101010 |  -0.0971851142
 10101010 | 11011000 |   0.0971851142
 10011010 | 11101000 |  -0.0970892220
 11101000 | 10011010 |   0.0970892220
 11101000 | 10111000 |  -0.0672561436
 10111000 | 11101000 |   0.0672561436

 STATE   9  ENERGY=      -106.2978479684  S=  1.00  SZ=  0.00  SPACE SYM=A   

  ALPHA   |  BETA    | CI COEFFICIENT
----------|----------|---------------
 10111000 | 11101000 |   0.6649565667
 11101000 | 10111000 |  -0.6649565667
 10101001 | 11101000 |   0.1271875774
 11101000 | 10101001 |  -0.1271875774
 10111000 | 10101010 |  -0.1203947216
 10101010 | 10111000 |   0.1203947216
 10111000 | 11001100 |   0.0971851142
 11001100 | 10111000 |  -0.0971851142
 10011100 | 11101000 |  -0.0970892220
 11101000 | 10011100 |   0.0970892220
 11101000 | 11011000 |   0.0672561436
 11011000 | 11101000 |  -0.0672561436

 STATE  10  ENERGY=      -106.2929976657  S=  1.00  SZ=  0.00  SPACE SYM=A   

  ALPHA   |  BETA    | CI COEFFICIENT
----------|----------|---------------
 11011000 | 10111000 |   0.6676050540
 10111000 | 11011000 |  -0.6676050540
 11011000 | 10011100 |  -0.1215669084
 10011010 | 10111000 |  -0.1215669084
 10011100 | 11011000 |   0.1215669084
 10111000 | 10011010 |   0.1215669084
 11011000 | 10101001 |   0.1047245329
 11001001 | 10111000 |   0.1047245329
 10101001 | 11011000 |  -0.1047245329
 10111000 | 11001001 |  -0.1047245329
 ..... DONE WITH DETERMINANT CI COMPUTATION .....
 STEP CPU TIME =     0.83 TOTAL CPU TIME =        1.1 (    0.0 MIN)
 TOTAL WALL CLOCK TIME=        1.2 SECONDS, CPU UTILIZATION IS  88.43%

     --------------------------------------------------
      ONE AND TWO PARTICLE DENSITY MATRIX COMPUTATION
     PROGRAM WRITTEN BY JOE IVANIC AND KLAUS RUEDENBERG
     --------------------------------------------------

      43472 WORDS WILL BE USED TO FORM THE DENSITIES
 THE DENSITIES ARE STATE AVERAGED OVER   2 ROOT(S)
 STATE=   1   ENERGY=     -106.8873052637   WEIGHT= 0.50000   S=  0.00
 STATE=   7   ENERGY=     -106.8791705002   WEIGHT= 0.50000   S=  0.00
 SIEVING THE A    SYMMETRY NONZERO DENSITY ELEMENTS IN GROUP C1      
        225 NONZERO DM2 ELEMENTS WRITTEN IN       1 RECORDS TO FILE 15
 ..... DONE WITH 1 AND 2 PARTICLE DENSITY MATRIX .....
 STEP CPU TIME =     0.01 TOTAL CPU TIME =        1.1 (    0.0 MIN)
 TOTAL WALL CLOCK TIME=        1.2 SECONDS, CPU UTILIZATION IS  87.80%

     --------------------------------     -----------------------------
     MCHF NEWTON-RAPHSON OPTIMIZATION     CODE WRITTEN BY MICHEL DUPUIS
     --------------------------------     -----------------------------
 FORMING FOCK OPERATOR OVER ACTIVE ORBITAL DENSITY, MEMORY=    132582
 STEP CPU TIME =     0.00 TOTAL CPU TIME =        1.1 (    0.0 MIN)
 TOTAL WALL CLOCK TIME=        1.2 SECONDS, CPU UTILIZATION IS  87.10%
 MEMORY DEMAND FOR 2 ELECTRON NTN-RPH CONTRIBUTIONS
      METHOD=DM2     NEEDS    203371 WORDS
      METHOD=TEI     NEEDS    128630 WORDS
 TOTAL AVAILABLE MEMORY IS   2000000 WORDS
 CHOOSING DM2 DRIVEN METHOD...
 FORMING -LGR- + -COU- + -EXC- FROM (IJ//KL) INTEGRALS
 STEP CPU TIME =     0.00 TOTAL CPU TIME =        1.1 (    0.0 MIN)
 TOTAL WALL CLOCK TIME=        1.2 SECONDS, CPU UTILIZATION IS  87.10%
 FORMING -LGR- + -COU- + -EXC- FROM (AJ//KL) INTEGRALS
 STEP CPU TIME =     0.01 TOTAL CPU TIME =        1.1 (    0.0 MIN)
 TOTAL WALL CLOCK TIME=        1.2 SECONDS, CPU UTILIZATION IS  87.90%
 FORMING         -COU-         FROM (AB//KL) INTEGRALS
 STEP CPU TIME =     0.00 TOTAL CPU TIME =        1.1 (    0.0 MIN)
 TOTAL WALL CLOCK TIME=        1.3 SECONDS, CPU UTILIZATION IS  87.20%
 FORMING                 -EXC- FROM (AJ//BL) INTEGRALS
 ..... DONE WITH 2 ELECTRON CONTRIBUTIONS .....
 STEP CPU TIME =     0.01 TOTAL CPU TIME =        1.1 (    0.0 MIN)
 TOTAL WALL CLOCK TIME=        1.3 SECONDS, CPU UTILIZATION IS  88.00%
 ..... DONE WITH 1 ELECTRON CONTRIBUTIONS .....
 STEP CPU TIME =     0.01 TOTAL CPU TIME =        1.1 (    0.0 MIN)
 TOTAL WALL CLOCK TIME=        1.3 SECONDS, CPU UTILIZATION IS  88.80%
 NUMBER OF INDEPENDENT ORBITAL ROTATION PARAMETERS =   112
 ..... DONE SOLVING NEWTON-RAPHSON EQUATIONS .....
 STEP CPU TIME =     0.00 TOTAL CPU TIME =        1.1 (    0.0 MIN)
 TOTAL WALL CLOCK TIME=        1.3 SECONDS, CPU UTILIZATION IS  88.80%
 ..... DONE WITH NTN-RPH ORBITAL ROTATIONS ..... 
 STEP CPU TIME =     0.00 TOTAL CPU TIME =        1.1 (    0.0 MIN)
 TOTAL WALL CLOCK TIME=        1.3 SECONDS, CPU UTILIZATION IS  88.80%
 MAXIMUM MEMORY USED BY NTN-RPH CODE WAS    203371 WORDS.

 ITER     TOTAL ENERGY      DEL(E)  LAGRANGIAN ASYMMETRY   SQCDF  MICIT   DAMP
   1     -106.883237882 -0.883237882  0.000000   35    3 2.891E-11  1   0.0000
   2     -106.883237882 -0.000000000  0.000000   35    3 2.898E-11  1   0.0000

          --------------------
          LAGRANGIAN CONVERGED
          --------------------

 FINAL MCSCF ENERGY IS     -106.8791705002 AFTER   2 ITERATIONS

 -MCCI- BASED ON OPTIMIZED ORBITALS
 ----------------------------------

 PLEASE NOTE: IF THE ACTIVE ORBITALS ARE CANONICALIZED BELOW,
 THE FOLLOWING CI EXPANSION COEFFICIENTS AND THE DENSITY DO NOT
 CORRESPOND TO THE PRINTED ORBITALS.  THE PRINTED EXPANSIONS MATCH
 THE ORBITALS USED DURING THE LAST ITERATION.  IF YOU WISH TO SEE
 CI EXPANSIONS BASED ON THE CANONICAL (OR NATURAL) ORBITALS, YOU
 MUST RUN A CI CALCULATION WITH THAT ORBITAL CHOICE READ IN $VEC.

 CI EIGENVECTORS WILL BE LABELED IN GROUP=C1      
 PRINTING CI COEFFICIENTS LARGER THAN 5.000E-02

 STATE   1  ENERGY=      -106.8873052638  S=  0.00  SZ=  0.00  SPACE SYM=A   

  ALPHA   |  BETA    | CI COEFFICIENT
----------|----------|---------------
 11110000 | 11101000 |   0.5738114836
 11101000 | 11110000 |   0.5738114836
 11110000 | 11110000 |  -0.5535616622

 STATE   2  ENERGY=      -106.8847959100  S=  1.00  SZ=  0.00  SPACE SYM=A   

  ALPHA   |  BETA    | CI COEFFICIENT
----------|----------|---------------
 11101000 | 11110000 |   0.6954708509
 11110000 | 11101000 |  -0.6954708509
 11101000 | 11100001 |  -0.0581026292
 11100001 | 11101000 |   0.0581026292

 STATE   3  ENERGY=      -106.8816922965  S=  1.00  SZ=  0.00  SPACE SYM=A   

  ALPHA   |  BETA    | CI COEFFICIENT
----------|----------|---------------
 10111000 | 11110000 |   0.6087443122
 11110000 | 10111000 |  -0.6087443116
 11011000 | 11110000 |   0.3364127161
 11110000 | 11011000 |  -0.3364127157

 STATE   4  ENERGY=      -106.8816922267  S=  1.00  SZ=  0.00  SPACE SYM=A   

  ALPHA   |  BETA    | CI COEFFICIENT
----------|----------|---------------
 11110000 | 11011000 |   0.6087443320
 11011000 | 11110000 |  -0.6087443309
 10111000 | 11110000 |   0.3364127362
 11110000 | 10111000 |  -0.3364127360

 STATE   5  ENERGY=      -106.8816767969  S=  0.00  SZ=  0.00  SPACE SYM=A   

  ALPHA   |  BETA    | CI COEFFICIENT
----------|----------|---------------
 11011000 | 11110000 |   0.6085753555
 11110000 | 11011000 |   0.6085753548
 10111000 | 11110000 |  -0.3367210995
 11110000 | 10111000 |  -0.3367210990

 STATE   6  ENERGY=      -106.8816767279  S=  0.00  SZ=  0.00  SPACE SYM=A   

  ALPHA   |  BETA    | CI COEFFICIENT
----------|----------|---------------
 11110000 | 10111000 |   0.6085753470
 10111000 | 11110000 |   0.6085753460
 11011000 | 11110000 |   0.3367210835
 11110000 | 11011000 |   0.3367210832

 STATE   7  ENERGY=      -106.8791705002  S=  0.00  SZ=  0.00  SPACE SYM=A   

  ALPHA   |  BETA    | CI COEFFICIENT
----------|----------|---------------
 11110000 | 11110000 |   0.8081786699
 11101000 | 11110000 |   0.3929557972
 11110000 | 11101000 |   0.3929557972

 STATE   8  ENERGY=      -106.2978479684  S=  1.00  SZ=  0.00  SPACE SYM=A   

  ALPHA   |  BETA    | CI COEFFICIENT
----------|----------|---------------
 11101000 | 11011000 |   0.6625664211
 11011000 | 11101000 |  -0.6625664211
 11001001 | 11101000 |  -0.1267304115
 11101000 | 11001001 |   0.1267304115
 11001100 | 11011000 |   0.1199619670
 11011000 | 11001100 |  -0.1199619670
 10101010 | 11011000 |  -0.0968357896
 11011000 | 10101010 |   0.0968357896
 10011010 | 11101000 |   0.0967402451
 11101000 | 10011010 |  -0.0967402451
 10111000 | 11101000 |  -0.0877289044
 11101000 | 10111000 |   0.0877289044

 STATE   9  ENERGY=      -106.2978479684  S=  1.00  SZ=  0.00  SPACE SYM=A   

  ALPHA   |  BETA    | CI COEFFICIENT
----------|----------|---------------
 10111000 | 11101000 |   0.6625664212
 11101000 | 10111000 |  -0.6625664212
 11101000 | 10101001 |  -0.1267304114
 10101001 | 11101000 |   0.1267304114
 10111000 | 10101010 |  -0.1199619669
 10101010 | 10111000 |   0.1199619669
 10111000 | 11001100 |   0.0968357895
 11001100 | 10111000 |  -0.0968357895
 11101000 | 10011100 |   0.0967402450
 10011100 | 11101000 |  -0.0967402450
 11011000 | 11101000 |  -0.0877289044
 11101000 | 11011000 |   0.0877289044

 STATE  10  ENERGY=      -106.2929976657  S=  1.00  SZ=  0.00  SPACE SYM=A   

  ALPHA   |  BETA    | CI COEFFICIENT
----------|----------|---------------
 11011000 | 10111000 |   0.6676050529
 10111000 | 11011000 |  -0.6676050529
 10111000 | 10011010 |   0.1215669181
 10011010 | 10111000 |  -0.1215669181
 11011000 | 10011100 |  -0.1215669181
 10011100 | 11011000 |   0.1215669181
 11001001 | 10111000 |   0.1047245274
 10111000 | 11001001 |  -0.1047245274
 11011000 | 10101001 |   0.1047245274
 10101001 | 11011000 |  -0.1047245274

 DENSITY MATRIX OVER ACTIVE MO-S

             1           2           3           4           5

    1    1.9979004
    2    0.0000000   1.9796284
    3    0.0000000  -0.0000000   1.9796284
    4   -0.0000003  -0.0000000   0.0000000   1.4831920
    5   -0.0000000  -0.0000000  -0.0000000  -0.0000000   0.5000043
    6   -0.0000000  -0.0000000   0.0000000  -0.0000000  -0.0000000
    7    0.0000000   0.0000000   0.0000000   0.0000000  -0.0000000
    8   -0.0000001   0.0000000  -0.0000000  -0.0000000  -0.0000000

             6           7           8

    6    0.0203829
    7    0.0000000   0.0203829
    8    0.0000000  -0.0000000   0.0188807

 FORMING THE "STANDARD FOCK OPERATOR" USING INTEGRALS FROM DISK...
     2 FILLED,    8 ACTIVE, AND   39 VIRTUAL ORBITALS  WILL BE CANONICALIZED

          ----------------------
          MCSCF NATURAL ORBITALS
          ----------------------

                      1          2          3          4          5
                  -26.1478    -2.5862     1.9979     1.9796     1.9796
                     A          A          A          A          A   
    1  LI 1  S    0.000001   0.205945  -0.000012   0.000000   0.000000
    2  LI 1  S   -0.000003   0.343789  -0.000021   0.000000   0.000000
    3  LI 1  S    0.000012   0.420899  -0.000037   0.000000   0.000000
    4  LI 1  S   -0.000017   0.173574  -0.000010   0.000000   0.000000
    5  LI 1  S    0.000093   0.002748  -0.000133  -0.000000  -0.000000
    6  LI 1  S   -0.000205  -0.000186   0.000290  -0.000000  -0.000000
    7  LI 1  S    0.000136  -0.000091   0.000210  -0.000000  -0.000000
    8  LI 1  X    0.000000  -0.000000  -0.000000   0.000192   0.000000
    9  LI 1  Y    0.000000  -0.000000  -0.000000  -0.000000   0.000192
   10  LI 1  Z    0.000016  -0.000609  -0.000015  -0.000000   0.000000
   11  LI 1  X    0.000000  -0.000000  -0.000000  -0.001536   0.000000
   12  LI 1  Y    0.000000  -0.000000  -0.000000  -0.000000  -0.001536
   13  LI 1  Z   -0.000074   0.000112   0.000095   0.000000   0.000000
   14  LI 1  X    0.000000  -0.000000  -0.000000   0.003243   0.000000
   15  LI 1  Y    0.000000  -0.000000  -0.000000  -0.000000   0.003243
   16  LI 1  Z    0.000096  -0.000064   0.000226  -0.000000   0.000000
   17  F  2  S    0.086774  -0.000000  -0.017349  -0.000000  -0.000000
   18  F  2  S    0.214704  -0.000001  -0.047909  -0.000000  -0.000000
   19  F  2  S    0.426322  -0.000003  -0.115031  -0.000000  -0.000000
   20  F  2  S    0.380999  -0.000003  -0.175476  -0.000000  -0.000000
   21  F  2  S    0.054008  -0.000003   0.109874  -0.000000   0.000000
   22  F  2  S   -0.027406   0.000027   0.565248  -0.000000   0.000000
   23  F  2  S   -0.008824  -0.000021   0.407950  -0.000000   0.000000
   24  F  2  S   -0.003406   0.000035   0.067704  -0.000000   0.000000
   25  F  2  X    0.000000  -0.000000   0.000000   0.106673   0.000000
   26  F  2  Y    0.000000  -0.000000  -0.000000  -0.000000   0.106673
   27  F  2  Z   -0.000058  -0.000000   0.000881   0.000000  -0.000000
   28  F  2  X    0.000000  -0.000000   0.000000   0.303860   0.000000
   29  F  2  Y    0.000000  -0.000000  -0.000000  -0.000000   0.303860
   30  F  2  Z   -0.000066  -0.000001   0.002244   0.000000  -0.000000
   31  F  2  X    0.000000  -0.000000   0.000000   0.432083   0.000000
   32  F  2  Y    0.000000  -0.000000  -0.000000  -0.000000   0.432083
   33  F  2  Z   -0.000124  -0.000003   0.005684   0.000000  -0.000000
   34  F  2  X    0.000000  -0.000000   0.000000   0.278096   0.000000
   35  F  2  Y    0.000000  -0.000000  -0.000000  -0.000000   0.278096
   36  F  2  Z   -0.000113   0.000004   0.002399   0.000000  -0.000000
   37  F  2  X    0.000000  -0.000000   0.000000   0.173600   0.000000
   38  F  2  Y    0.000000  -0.000000  -0.000000  -0.000000   0.173600
   39  F  2  Z    0.000158  -0.000015  -0.003895   0.000000  -0.000000
   40  F  2 XX    0.000070   0.000000   0.000026  -0.000000   0.000000
   41  F  2 YY    0.000070   0.000000   0.000026  -0.000000   0.000000
   42  F  2 ZZ   -0.000139  -0.000000  -0.000053  -0.000000   0.000000
   43  F  2 XY    0.000000  -0.000000  -0.000000  -0.000000   0.000000
   44  F  2 XZ    0.000000  -0.000000  -0.000000  -0.000329   0.000000
   45  F  2 YZ    0.000000  -0.000000  -0.000000  -0.000000  -0.000329
   46  F  2 XX   -0.000006  -0.000001   0.000694  -0.000000   0.000000
   47  F  2 YY   -0.000006  -0.000001   0.000694  -0.000000   0.000000
   48  F  2 ZZ    0.000013   0.000001  -0.001388  -0.000000   0.000000
   49  F  2 XY    0.000000  -0.000000  -0.000000  -0.000000   0.000000
   50  F  2 XZ    0.000000  -0.000000  -0.000000  -0.001540   0.000000
   51  F  2 YZ    0.000000  -0.000000  -0.000000  -0.000000  -0.001540

                      6          7          8          9         10
                    1.4832     0.5000     0.0204     0.0204     0.0189
                     A          A          A          A          A   
    1  LI 1  S   -0.000277  -0.033122  -0.000000  -0.000000  -0.001499
    2  LI 1  S   -0.000622  -0.062298   0.000000   0.000000  -0.003304
    3  LI 1  S   -0.000573  -0.103288  -0.000000  -0.000000  -0.003317
    4  LI 1  S   -0.001847  -0.117178  -0.000000  -0.000000  -0.008979
    5  LI 1  S    0.004398   0.252146   0.000000   0.000000   0.021842
    6  LI 1  S    0.011788   0.556122   0.000000   0.000000   0.044379
    7  LI 1  S   -0.012201   0.300502  -0.000000   0.000000  -0.032541
    8  LI 1  X   -0.000000   0.000000   0.000787  -0.000000   0.000000
    9  LI 1  Y   -0.000000   0.000000   0.000000   0.000787   0.000000
   10  LI 1  Z   -0.000513   0.000177  -0.000000   0.000000  -0.001741
   11  LI 1  X    0.000000  -0.000000  -0.005694  -0.000000  -0.000000
   12  LI 1  Y   -0.000000  -0.000000   0.000000  -0.005694  -0.000000
   13  LI 1  Z    0.003592   0.003040   0.000000   0.000000   0.011623
   14  LI 1  X   -0.000000   0.000000   0.011246  -0.000000  -0.000000
   15  LI 1  Y   -0.000000   0.000000   0.000000   0.011246  -0.000000
   16  LI 1  Z   -0.017110  -0.002402  -0.000000  -0.000000  -0.055245
   17  F  2  S    0.000030   0.000125   0.000000  -0.000000  -0.006660
   18  F  2  S    0.000072   0.000337  -0.000000  -0.000000  -0.019045
   19  F  2  S    0.000249   0.000814  -0.000000   0.000000  -0.042779
   20  F  2  S    0.000277   0.001157  -0.000000  -0.000000  -0.081356
   21  F  2  S   -0.001283  -0.000656   0.000000   0.000000   0.134659
   22  F  2  S   -0.001470  -0.004434   0.000000   0.000000   0.319388
   23  F  2  S    0.020289  -0.002328  -0.000000  -0.000000  -0.220923
   24  F  2  S   -0.031808  -0.005316  -0.000000  -0.000000  -0.214854
   25  F  2  X   -0.000000   0.000000  -0.152265  -0.000000   0.000000
   26  F  2  Y    0.000000   0.000000   0.000000  -0.152265   0.000000
   27  F  2  Z    0.105611   0.000830  -0.000000  -0.000000  -0.130229
   28  F  2  X   -0.000000   0.000000  -0.508540  -0.000000   0.000000
   29  F  2  Y    0.000000   0.000000   0.000000  -0.508540   0.000000
   30  F  2  Z    0.301994   0.002288  -0.000000  -0.000000  -0.447325
   31  F  2  X   -0.000000   0.000000  -0.276950  -0.000000   0.000000
   32  F  2  Y    0.000000   0.000000   0.000000  -0.276950   0.000000
   33  F  2  Z    0.431902   0.003463  -0.000000  -0.000000  -0.299159
   34  F  2  X   -0.000000   0.000000   0.546291  -0.000000  -0.000000
   35  F  2  Y    0.000000   0.000000   0.000000   0.546291  -0.000000
   36  F  2  Z    0.269950   0.001848   0.000000   0.000000   0.461245
   37  F  2  X   -0.000000   0.000000   0.446411  -0.000000  -0.000000
   38  F  2  Y    0.000000   0.000000   0.000000   0.446411  -0.000000
   39  F  2  Z    0.186366   0.006816   0.000000   0.000000   0.477387
   40  F  2 XX    0.000367  -0.000053  -0.000000  -0.000000  -0.012257
   41  F  2 YY    0.000367  -0.000053  -0.000000  -0.000000  -0.012257
   42  F  2 ZZ   -0.000734   0.000107   0.000000   0.000000   0.024514
   43  F  2 XY   -0.000000   0.000000   0.000000  -0.000000   0.000000
   44  F  2 XZ   -0.000000   0.000000   0.023835  -0.000000  -0.000000
   45  F  2 YZ   -0.000000   0.000000   0.000000   0.023835  -0.000000
   46  F  2 XX    0.001000  -0.000001   0.000000   0.000000   0.003038
   47  F  2 YY    0.001000  -0.000001   0.000000   0.000000   0.003038
   48  F  2 ZZ   -0.002001   0.000002  -0.000000  -0.000000  -0.006075
   49  F  2 XY   -0.000000   0.000000   0.000000  -0.000000   0.000000
   50  F  2 XZ   -0.000000  -0.000000  -0.013907  -0.000000   0.000000
   51  F  2 YZ   -0.000000  -0.000000   0.000000  -0.013907   0.000000

 LZ VALUE ANALYSIS FOR THE MOS
 ----------------------------------------
 MO     1 (    1) HAS LZ(WEIGHT)= 0.00(100.0%) 
 MO     2 (    2) HAS LZ(WEIGHT)= 0.00(100.0%) 
 MO     3 (    3) HAS LZ(WEIGHT)= 0.00(100.0%) 
 MO     4 (    4) HAS LZ(WEIGHT)=-1.00( 50.0%)  1.00( 50.0%) 
 MO     5 (    4) HAS LZ(WEIGHT)=-1.00( 50.0%)  1.00( 50.0%) 
 MO     6 (    5) HAS LZ(WEIGHT)= 0.00(100.0%) 
 MO     7 (    6) HAS LZ(WEIGHT)= 0.00(100.0%) 
 MO     8 (    7) HAS LZ(WEIGHT)= 0.00(100.0%) 
 MO     9 (    8) HAS LZ(WEIGHT)=-1.00( 50.0%)  1.00( 50.0%) 
 MO    10 (    8) HAS LZ(WEIGHT)=-1.00( 50.0%)  1.00( 50.0%) 
 MO    11 (    9) HAS LZ(WEIGHT)=-1.00( 50.0%)  1.00( 50.0%) 
 MO    12 (    9) HAS LZ(WEIGHT)=-1.00( 50.0%)  1.00( 50.0%) 
 MO    13 (   10) HAS LZ(WEIGHT)= 0.00(100.0%) 
 MO    14 (   11) HAS LZ(WEIGHT)= 0.00(100.0%) 
 MO    15 (   12) HAS LZ(WEIGHT)=-1.00( 50.0%)  1.00( 50.0%) 
 MO    16 (   12) HAS LZ(WEIGHT)=-1.00( 50.0%)  1.00( 50.0%) 
 MO    17 (   13) HAS LZ(WEIGHT)= 0.00(100.0%) 
 MO    18 (   14) HAS LZ(WEIGHT)= 0.00(100.0%) 
 MO    19 (   15) HAS LZ(WEIGHT)= 0.00(100.0%) 
 MO    20 (   16) HAS LZ(WEIGHT)=-1.00( 50.0%)  1.00( 50.0%) 
 MO    21 (   16) HAS LZ(WEIGHT)=-1.00( 50.0%)  1.00( 50.0%) 
 MO    22 (   17) HAS LZ(WEIGHT)= 0.00(100.0%) 
 MO    23 (   18) HAS LZ(WEIGHT)=-1.00( 50.0%)  1.00( 50.0%) 
 MO    24 (   18) HAS LZ(WEIGHT)=-1.00( 50.0%)  1.00( 50.0%) 
 MO    25 (   19) HAS LZ(WEIGHT)= 0.00(100.0%) 
 MO    26 (   20) HAS LZ(WEIGHT)= 0.00(100.0%) 
 MO    27 (   21) HAS LZ(WEIGHT)= 0.00(100.0%) 
 MO    28 (   22) HAS LZ(WEIGHT)=-1.00( 50.0%)  1.00( 50.0%) 
 MO    29 (   22) HAS LZ(WEIGHT)=-1.00( 50.0%)  1.00( 50.0%) 
 MO    30 (   23) HAS LZ(WEIGHT)=-2.00( 50.0%)  2.00( 50.0%) 
 MO    31 (   23) HAS LZ(WEIGHT)=-2.00( 50.0%)  2.00( 50.0%) 
 MO    32 (   24) HAS LZ(WEIGHT)= 0.00(100.0%) 
 MO    33 (   25) HAS LZ(WEIGHT)=-1.00( 50.0%)  1.00( 50.0%) 
 MO    34 (   25) HAS LZ(WEIGHT)=-1.00( 50.0%)  1.00( 50.0%) 
 MO    35 (   26) HAS LZ(WEIGHT)= 0.00(100.0%) 
 MO    36 (   27) HAS LZ(WEIGHT)= 0.00(100.0%) 
 MO    37 (   28) HAS LZ(WEIGHT)= 0.00(100.0%) 
 MO    38 (   29) HAS LZ(WEIGHT)=-1.00( 50.0%)  1.00( 50.0%) 
 MO    39 (   29) HAS LZ(WEIGHT)=-1.00( 50.0%)  1.00( 50.0%) 
 MO    40 (   30) HAS LZ(WEIGHT)=-2.00( 50.0%)  2.00( 50.0%) 
 MO    41 (   30) HAS LZ(WEIGHT)=-2.00( 50.0%)  2.00( 50.0%) 
 MO    42 (   31) HAS LZ(WEIGHT)= 0.00(100.0%) 
 MO    43 (   32) HAS LZ(WEIGHT)= 0.00(100.0%) 
 MO    44 (   33) HAS LZ(WEIGHT)=-1.00( 50.0%)  1.00( 50.0%) 
 MO    45 (   33) HAS LZ(WEIGHT)=-1.00( 50.0%)  1.00( 50.0%) 
 MO    46 (   34) HAS LZ(WEIGHT)= 0.00(100.0%) 
 MO    47 (   35) HAS LZ(WEIGHT)= 0.00(100.0%) 
 MO    48 (   36) HAS LZ(WEIGHT)= 0.00(100.0%) 
 MO    49 (   37) HAS LZ(WEIGHT)= 0.00(100.0%) 

          ------------------------
          MCSCF OPTIMIZED ORBITALS
          ------------------------

                      1          2          3          4          5
                  -26.1478    -2.5862    -1.4134    -0.4966    -0.4966
                     A          A          A          A          A   
    1  LI 1  S    0.000001   0.205945   0.000004   0.000000  -0.000000
    2  LI 1  S   -0.000003   0.343789   0.000009   0.000000  -0.000000
    3  LI 1  S    0.000012   0.420899   0.000014   0.000000   0.000000
    4  LI 1  S   -0.000017   0.173574   0.000046   0.000000  -0.000000
    5  LI 1  S    0.000093   0.002748  -0.000254  -0.000000  -0.000000
    6  LI 1  S   -0.000205  -0.000186   0.000005  -0.000000  -0.000000
    7  LI 1  S    0.000136  -0.000091   0.000075  -0.000000  -0.000000
    8  LI 1  X    0.000000  -0.000000   0.000000   0.000115   0.000149
    9  LI 1  Y    0.000000  -0.000000   0.000000   0.000149  -0.000115
   10  LI 1  Z    0.000016  -0.000609  -0.000015   0.000000  -0.000000
   11  LI 1  X    0.000000  -0.000000   0.000000  -0.000921  -0.001191
   12  LI 1  Y    0.000000  -0.000000   0.000000  -0.001191   0.000921
   13  LI 1  Z   -0.000074   0.000112   0.000091   0.000000   0.000000
   14  LI 1  X    0.000000  -0.000000   0.000000   0.001946   0.002517
   15  LI 1  Y    0.000000  -0.000000   0.000000   0.002517  -0.001946
   16  LI 1  Z    0.000096  -0.000064   0.000239  -0.000000  -0.000000
   17  F  2  S    0.086774  -0.000000  -0.017360   0.000000  -0.000000
   18  F  2  S    0.214704  -0.000001  -0.047939   0.000000  -0.000000
   19  F  2  S    0.426322  -0.000003  -0.115100   0.000000  -0.000000
   20  F  2  S    0.380999  -0.000003  -0.175606   0.000000  -0.000000
   21  F  2  S    0.054008  -0.000003   0.110098  -0.000000  -0.000000
   22  F  2  S   -0.027406   0.000027   0.565765   0.000000   0.000000
   23  F  2  S   -0.008824  -0.000021   0.407466   0.000000   0.000000
   24  F  2  S   -0.003406   0.000035   0.067546  -0.000000  -0.000000
   25  F  2  X    0.000000  -0.000000   0.000000   0.065758   0.085050
   26  F  2  Y    0.000000  -0.000000   0.000000   0.085050  -0.065758
   27  F  2  Z   -0.000058  -0.000000   0.000044   0.000000   0.000000
   28  F  2  X    0.000000  -0.000000   0.000000   0.187563   0.242591
   29  F  2  Y    0.000000  -0.000000   0.000000   0.242591  -0.187563
   30  F  2  Z   -0.000066  -0.000001  -0.000269   0.000000   0.000000
   31  F  2  X    0.000000  -0.000000   0.000000   0.265215   0.343025
   32  F  2  Y    0.000000  -0.000000   0.000000   0.343025  -0.265215
   33  F  2  Z   -0.000124  -0.000003   0.002642   0.000000   0.000000
   34  F  2  X    0.000000  -0.000000   0.000000   0.168266   0.217633
   35  F  2  Y    0.000000  -0.000000   0.000000   0.217633  -0.168266
   36  F  2  Z   -0.000113   0.000004   0.001544   0.000000   0.000000
   37  F  2  X    0.000000  -0.000000   0.000000   0.104686   0.135399
   38  F  2  Y    0.000000  -0.000000   0.000000   0.135399  -0.104686
   39  F  2  Z    0.000158  -0.000015  -0.004231   0.000000   0.000000
   40  F  2 XX    0.000070   0.000000   0.000005   0.000000  -0.000000
   41  F  2 YY    0.000070   0.000000   0.000005   0.000000  -0.000000
   42  F  2 ZZ   -0.000139  -0.000000  -0.000009   0.000000  -0.000000
   43  F  2 XY    0.000000  -0.000000   0.000000   0.000000  -0.000000
   44  F  2 XZ    0.000000  -0.000000   0.000000  -0.000281  -0.000363
   45  F  2 YZ    0.000000  -0.000000   0.000000  -0.000363   0.000281
   46  F  2 XX   -0.000006  -0.000001   0.000693   0.000000  -0.000000
   47  F  2 YY   -0.000006  -0.000001   0.000693   0.000000  -0.000000
   48  F  2 ZZ    0.000013   0.000001  -0.001386   0.000000  -0.000000
   49  F  2 XY    0.000000  -0.000000   0.000000   0.000000  -0.000000
   50  F  2 XZ    0.000000  -0.000000   0.000000  -0.000895  -0.001158
   51  F  2 YZ    0.000000  -0.000000   0.000000  -0.001158   0.000895

                      6          7          8          9         10
                   -0.3341    -0.0892     1.1577     1.2924     1.2924
                     A          A          A          A          A   
    1  LI 1  S   -0.000020  -0.033124  -0.001477  -0.000000   0.000000
    2  LI 1  S   -0.000148  -0.062304  -0.003261  -0.000000   0.000000
    3  LI 1  S    0.000253  -0.103291  -0.003255   0.000000   0.000000
    4  LI 1  S   -0.001006  -0.117195  -0.008884  -0.000000  -0.000000
    5  LI 1  S    0.002635   0.252189   0.021632   0.000000   0.000000
    6  LI 1  S    0.007831   0.556232   0.043875  -0.000000  -0.000000
    7  LI 1  S   -0.015393   0.300365  -0.032456   0.000000   0.000000
    8  LI 1  X    0.000000   0.000000   0.000000   0.000779  -0.000116
    9  LI 1  Y    0.000000   0.000000   0.000000   0.000116   0.000779
   10  LI 1  Z   -0.000548   0.000171  -0.001731  -0.000000   0.000000
   11  LI 1  X    0.000000  -0.000000   0.000000  -0.005640   0.000840
   12  LI 1  Y    0.000000  -0.000000   0.000000  -0.000840  -0.005640
   13  LI 1  Z    0.003783   0.003079   0.011552  -0.000000  -0.000000
   14  LI 1  X    0.000000  -0.000000   0.000000   0.011141  -0.001659
   15  LI 1  Y    0.000000  -0.000000   0.000000   0.001659   0.011141
   16  LI 1  Z   -0.018119  -0.002585  -0.054914   0.000000   0.000000
   17  F  2  S   -0.000198   0.000111  -0.006630  -0.000000   0.000000
   18  F  2  S   -0.000570   0.000298  -0.018961  -0.000000   0.000000
   19  F  2  S   -0.001237   0.000723  -0.042578   0.000000   0.000000
   20  F  2  S   -0.002290   0.001007  -0.081044   0.000000   0.000000
   21  F  2  S    0.001892  -0.000516   0.134470  -0.000000   0.000000
   22  F  2  S    0.007878  -0.003918   0.318385  -0.000000  -0.000000
   23  F  2  S    0.018567  -0.002069  -0.221968   0.000000   0.000000
   24  F  2  S   -0.035381  -0.005692  -0.214335   0.000000  -0.000000
   25  F  2  X   -0.000000   0.000000  -0.000000  -0.150023   0.022340
   26  F  2  Y    0.000000   0.000000   0.000000  -0.022340  -0.150023
   27  F  2  Z    0.103146   0.001652  -0.132186   0.000000   0.000000
   28  F  2  X   -0.000000   0.000000  -0.000000  -0.501338   0.074653
   29  F  2  Y    0.000000   0.000000  -0.000000  -0.074653  -0.501338
   30  F  2  Z    0.293539   0.004591  -0.452906   0.000000  -0.000000
   31  F  2  X   -0.000000   0.000000  -0.000000  -0.271582   0.040441
   32  F  2  Y    0.000000   0.000000  -0.000000  -0.040441  -0.271582
   33  F  2  Z    0.426203   0.006982  -0.307206   0.000000   0.000000
   34  F  2  X   -0.000000   0.000000   0.000000   0.541833  -0.080683
   35  F  2  Y    0.000000   0.000000   0.000000   0.080683   0.541833
   36  F  2  Z    0.278526   0.004472   0.456103  -0.000000  -0.000000
   37  F  2  X   -0.000000   0.000000   0.000000   0.442477  -0.065888
   38  F  2  Y    0.000000   0.000000  -0.000000   0.065888   0.442477
   39  F  2  Z    0.195184   0.008729   0.473816  -0.000000   0.000000
   40  F  2 XX    0.000138  -0.000058  -0.012262  -0.000000   0.000000
   41  F  2 YY    0.000138  -0.000058  -0.012262  -0.000000   0.000000
   42  F  2 ZZ   -0.000276   0.000117   0.024523  -0.000000   0.000000
   43  F  2 XY    0.000000   0.000000   0.000000  -0.000000   0.000000
   44  F  2 XZ    0.000000   0.000000   0.000000   0.023573  -0.003510
   45  F  2 YZ    0.000000   0.000000   0.000000   0.003510   0.023573
   46  F  2 XX    0.001061   0.000010   0.003017  -0.000000   0.000000
   47  F  2 YY    0.001061   0.000010   0.003017  -0.000000   0.000000
   48  F  2 ZZ   -0.002122  -0.000020  -0.006034  -0.000000   0.000000
   49  F  2 XY    0.000000   0.000000   0.000000  -0.000000   0.000000
   50  F  2 XZ    0.000000   0.000000   0.000000  -0.013764   0.002050
   51  F  2 YZ    0.000000   0.000000   0.000000  -0.002050  -0.013764

                     11         12         13         14         15
                    0.0083     0.0083     0.0205     0.0609     0.1292
                     A          A          A          A          A   
    1  LI 1  S    0.000000  -0.000000  -0.007818  -0.017234  -0.000000
    2  LI 1  S    0.000000  -0.000000  -0.011207  -0.020159  -0.000000
    3  LI 1  S    0.000000  -0.000000  -0.036546  -0.094710  -0.000000
    4  LI 1  S    0.000000  -0.000000   0.002160   0.046830  -0.000000
    5  LI 1  S    0.000000  -0.000000  -0.206618  -0.777425   0.000000
    6  LI 1  S    0.000000   0.000000   1.073933   3.030196  -0.000000
    7  LI 1  S   -0.000000  -0.000000  -0.936291  -2.511011   0.000000
    8  LI 1  X    0.033782   0.075540   0.000000  -0.000000   0.103057
    9  LI 1  Y    0.075540  -0.033782   0.000000  -0.000000  -0.010285
   10  LI 1  Z    0.000000  -0.000000   0.082233  -0.050449  -0.000000
   11  LI 1  X    0.077344   0.172952   0.000000   0.000000   1.393800
   12  LI 1  Y    0.172952  -0.077344   0.000000  -0.000000  -0.139094
   13  LI 1  Z    0.000000   0.000000   0.207896  -0.409872  -0.000000
   14  LI 1  X    0.337529   0.754761  -0.000000  -0.000000  -1.237390
   15  LI 1  Y    0.754761  -0.337529  -0.000000  -0.000000   0.123485
   16  LI 1  Z    0.000000   0.000000   0.749805  -0.007871   0.000000
   17  F  2  S    0.000000  -0.000000  -0.000140  -0.000003  -0.000000
   18  F  2  S    0.000000  -0.000000  -0.000475   0.000190  -0.000000
   19  F  2  S    0.000000  -0.000000  -0.000677  -0.000543  -0.000000
   20  F  2  S    0.000000  -0.000000  -0.002470   0.002274  -0.000000
   21  F  2  S    0.000000  -0.000000   0.004687  -0.008004  -0.000000
   22  F  2  S    0.000000  -0.000000  -0.001958   0.019436   0.000000
   23  F  2  S    0.000000  -0.000000   0.038060  -0.070000  -0.000000
   24  F  2  S    0.000000  -0.000000  -0.079241   0.149487  -0.000000
   25  F  2  X    0.000322   0.000719   0.000000  -0.000000  -0.000820
   26  F  2  Y    0.000719  -0.000322   0.000000  -0.000000   0.000082
   27  F  2  Z    0.000000  -0.000000  -0.002944   0.003172  -0.000000
   28  F  2  X    0.001321   0.002954   0.000000  -0.000000  -0.003248
   29  F  2  Y    0.002954  -0.001321   0.000000  -0.000000   0.000324
   30  F  2  Z    0.000000  -0.000000  -0.011874   0.013886  -0.000000
   31  F  2  X    0.000475   0.001062   0.000000  -0.000000  -0.001540
   32  F  2  Y    0.001062  -0.000475   0.000000  -0.000000   0.000154
   33  F  2  Z    0.000000  -0.000000  -0.005205   0.002014  -0.000000
   34  F  2  X    0.003030   0.006776   0.000000  -0.000000  -0.007322
   35  F  2  Y    0.006776  -0.003030   0.000000  -0.000000   0.000731
   36  F  2  Z    0.000000  -0.000000  -0.030627   0.049636  -0.000000
   37  F  2  X   -0.015550  -0.034773   0.000000  -0.000000   0.043029
   38  F  2  Y   -0.034773   0.015550   0.000000  -0.000000  -0.004294
   39  F  2  Z    0.000000   0.000000   0.138269  -0.185727   0.000000
   40  F  2 XX    0.000000  -0.000000  -0.000246   0.000259  -0.000000
   41  F  2 YY    0.000000  -0.000000  -0.000246   0.000259  -0.000000
   42  F  2 ZZ    0.000000  -0.000000   0.000492  -0.000518  -0.000000
   43  F  2 XY    0.000000  -0.000000   0.000000  -0.000000  -0.000000
   44  F  2 XZ   -0.000077  -0.000172   0.000000  -0.000000   0.000212
   45  F  2 YZ   -0.000172   0.000077   0.000000  -0.000000  -0.000021
   46  F  2 XX    0.000000  -0.000000   0.000019  -0.000369  -0.000000
   47  F  2 YY    0.000000  -0.000000   0.000019  -0.000369  -0.000000
   48  F  2 ZZ    0.000000  -0.000000  -0.000038   0.000738  -0.000000
   49  F  2 XY    0.000000  -0.000000   0.000000  -0.000000  -0.000000
   50  F  2 XZ    0.000038   0.000085   0.000000  -0.000000   0.000126
   51  F  2 YZ    0.000085  -0.000038   0.000000  -0.000000  -0.000013

                     16         17         18         19         20
                    0.1292     0.1486     0.2927     0.4260     0.6994
                     A          A          A          A          A   
    1  LI 1  S   -0.000000   0.004376   0.039838   0.002728  -0.000000
    2  LI 1  S   -0.000000   0.003992   0.121871   0.008437  -0.000000
    3  LI 1  S   -0.000000   0.028091  -0.015102  -0.001151  -0.000000
    4  LI 1  S   -0.000000  -0.022057   0.630487   0.047308  -0.000000
    5  LI 1  S   -0.000000   0.241692  -4.648429  -0.453557  -0.000000
    6  LI 1  S   -0.000000  -0.866588   5.967548   0.768144   0.000000
    7  LI 1  S    0.000000   0.720085  -2.230585  -0.430220  -0.000000
    8  LI 1  X    0.010285  -0.000000  -0.000000  -0.000000   1.136285
    9  LI 1  Y    0.103057  -0.000000  -0.000000   0.000000  -0.342347
   10  LI 1  Z   -0.000000  -0.098051   0.016442   0.059369  -0.000000
   11  LI 1  X    0.139094  -0.000000  -0.000000   0.000000  -1.022706
   12  LI 1  Y    1.393800  -0.000000  -0.000000   0.000000   0.308127
   13  LI 1  Z   -0.000000  -1.357818  -0.006785   0.103883   0.000000
   14  LI 1  X   -0.123485   0.000000  -0.000000   0.000000   0.504496
   15  LI 1  Y   -1.237390  -0.000000  -0.000000   0.000000  -0.151998
   16  LI 1  Z    0.000000   1.368183   0.012913  -0.180843  -0.000000
   17  F  2  S   -0.000000   0.000266  -0.000443   0.005909  -0.000000
   18  F  2  S   -0.000000   0.000564  -0.001276   0.019466  -0.000000
   19  F  2  S   -0.000000   0.002140  -0.002691   0.028798  -0.000000
   20  F  2  S   -0.000000   0.000631  -0.005030   0.094679  -0.000000
   21  F  2  S   -0.000000   0.005149   0.005295  -0.170102  -0.000000
   22  F  2  S   -0.000000  -0.023770   0.008098   0.226334  -0.000000
   23  F  2  S   -0.000000   0.054091   0.039947  -1.504188  -0.000000
   24  F  2  S   -0.000000  -0.161687  -0.018647   1.837988   0.000000
   25  F  2  X   -0.000082  -0.000000  -0.000000   0.000000   0.000948
   26  F  2  Y   -0.000820  -0.000000  -0.000000   0.000000  -0.000286
   27  F  2  Z   -0.000000  -0.003851  -0.000306  -0.011689  -0.000000
   28  F  2  X   -0.000324  -0.000000  -0.000000  -0.000000   0.001133
   29  F  2  Y   -0.003248  -0.000000  -0.000000   0.000000  -0.000341
   30  F  2  Z   -0.000000  -0.019093   0.001401  -0.048810  -0.000000
   31  F  2  X   -0.000154   0.000000  -0.000000  -0.000000   0.010126
   32  F  2  Y   -0.001540  -0.000000  -0.000000   0.000000  -0.003051
   33  F  2  Z   -0.000000   0.004737  -0.009390  -0.001701  -0.000000
   34  F  2  X   -0.000731  -0.000000  -0.000000   0.000000  -0.023659
   35  F  2  Y   -0.007322  -0.000000  -0.000000   0.000000   0.007128
   36  F  2  Z   -0.000000  -0.092650   0.034571  -0.253120  -0.000000
   37  F  2  X    0.004294   0.000000  -0.000000  -0.000000   0.006837
   38  F  2  Y    0.043029  -0.000000  -0.000000   0.000000  -0.002060
   39  F  2  Z   -0.000000   0.293240  -0.046306   0.443664   0.000000
   40  F  2 XX   -0.000000  -0.000442   0.000035   0.000468  -0.000000
   41  F  2 YY   -0.000000  -0.000442   0.000035   0.000468  -0.000000
   42  F  2 ZZ   -0.000000   0.000884  -0.000070  -0.000936  -0.000000
   43  F  2 XY   -0.000000  -0.000000  -0.000000   0.000000  -0.000000
   44  F  2 XZ    0.000021  -0.000000  -0.000000   0.000000  -0.000001
   45  F  2 YZ    0.000212  -0.000000  -0.000000   0.000000   0.000000
   46  F  2 XX   -0.000000   0.000850  -0.001437  -0.001152  -0.000000
   47  F  2 YY   -0.000000   0.000850  -0.001437  -0.001152  -0.000000
   48  F  2 ZZ   -0.000000  -0.001700   0.002874   0.002303  -0.000000
   49  F  2 XY   -0.000000  -0.000000  -0.000000   0.000000  -0.000000
   50  F  2 XZ    0.000013  -0.000000  -0.000000  -0.000000  -0.001540
   51  F  2 YZ    0.000126  -0.000000  -0.000000   0.000000   0.000464

                     21         22         23         24         25
                    0.6994     0.7065     1.0804     1.0804     1.1840
                     A          A          A          A          A   
    1  LI 1  S   -0.000000  -0.000128  -0.000000  -0.000000  -0.007616
    2  LI 1  S   -0.000000  -0.002536  -0.000000  -0.000000   0.005396
    3  LI 1  S   -0.000000   0.007374   0.000000   0.000000  -0.106155
    4  LI 1  S   -0.000000  -0.023568  -0.000000  -0.000000   0.181566
    5  LI 1  S   -0.000000   0.136930   0.000000   0.000000  -0.191466
    6  LI 1  S   -0.000000  -0.230870  -0.000000  -0.000000   0.273303
    7  LI 1  S   -0.000000   0.131468   0.000000   0.000000  -0.234901
    8  LI 1  X    0.342347   0.000000   0.026688   0.000244   0.000000
    9  LI 1  Y    1.136285   0.000000  -0.000244   0.026688  -0.000000
   10  LI 1  Z   -0.000000   1.188089   0.000000  -0.000000  -0.028396
   11  LI 1  X   -0.308127  -0.000000  -0.060264  -0.000552  -0.000000
   12  LI 1  Y   -1.022706  -0.000000   0.000552  -0.060264  -0.000000
   13  LI 1  Z    0.000000  -1.110980  -0.000000  -0.000000   0.130345
   14  LI 1  X    0.151998   0.000000   0.065573   0.000600   0.000000
   15  LI 1  Y    0.504496  -0.000000  -0.000600   0.065573   0.000000
   16  LI 1  Z   -0.000000   0.586058   0.000000   0.000000  -0.207224
   17  F  2  S   -0.000000  -0.000477  -0.000000  -0.000000  -0.000979
   18  F  2  S   -0.000000  -0.001469  -0.000000  -0.000000  -0.000207
   19  F  2  S   -0.000000  -0.002634  -0.000000  -0.000000  -0.013931
   20  F  2  S   -0.000000  -0.006557   0.000000  -0.000000   0.017712
   21  F  2  S   -0.000000   0.009957  -0.000000   0.000000  -0.097383
   22  F  2  S   -0.000000  -0.006086   0.000000  -0.000000   0.458795
   23  F  2  S   -0.000000   0.115404  -0.000000   0.000000  -0.923436
   24  F  2  S    0.000000  -0.193808  -0.000000  -0.000000   0.718205
   25  F  2  X    0.000286  -0.000000  -0.056878  -0.000521  -0.000000
   26  F  2  Y    0.000948  -0.000000   0.000521  -0.056878  -0.000000
   27  F  2  Z   -0.000000   0.000150  -0.000000   0.000000  -0.061630
   28  F  2  X    0.000341  -0.000000  -0.047795  -0.000437  -0.000000
   29  F  2  Y    0.001133  -0.000000   0.000437  -0.047795  -0.000000
   30  F  2  Z   -0.000000   0.000430  -0.000000   0.000000  -0.057074
   31  F  2  X    0.003051   0.000000  -0.714550  -0.006540  -0.000000
   32  F  2  Y    0.010126  -0.000000   0.006540  -0.714550  -0.000000
   33  F  2  Z   -0.000000  -0.000474   0.000000   0.000000  -0.767262
   34  F  2  X   -0.007128  -0.000000   2.029364   0.018575   0.000000
   35  F  2  Y   -0.023659  -0.000000  -0.018575   2.029364   0.000000
   36  F  2  Z   -0.000000   0.007931  -0.000000  -0.000000   2.069361
   37  F  2  X    0.002060   0.000000  -1.673318  -0.015316  -0.000000
   38  F  2  Y    0.006837  -0.000000   0.015316  -1.673318  -0.000000
   39  F  2  Z   -0.000000   0.025393   0.000000   0.000000  -1.631802
   40  F  2 XX   -0.000000  -0.000135  -0.000000  -0.000000  -0.001854
   41  F  2 YY   -0.000000  -0.000135  -0.000000  -0.000000  -0.001854
   42  F  2 ZZ   -0.000000   0.000271  -0.000000  -0.000000   0.003709
   43  F  2 XY   -0.000000  -0.000000  -0.000000  -0.000000  -0.000000
   44  F  2 XZ   -0.000000  -0.000000   0.003335   0.000031  -0.000000
   45  F  2 YZ   -0.000001  -0.000000  -0.000031   0.003335  -0.000000
   46  F  2 XX   -0.000000  -0.000059  -0.000000  -0.000000   0.001975
   47  F  2 YY   -0.000000  -0.000059  -0.000000  -0.000000   0.001975
   48  F  2 ZZ   -0.000000   0.000118  -0.000000  -0.000000  -0.003949
   49  F  2 XY   -0.000000  -0.000000  -0.000000  -0.000000  -0.000000
   50  F  2 XZ   -0.000464  -0.000000  -0.006861  -0.000063  -0.000000
   51  F  2 YZ   -0.001540  -0.000000   0.000063  -0.006861  -0.000000

                     26         27         28         29         30
                    1.3954     1.5608     1.5625     1.5625     1.5689
                     A          A          A          A          A   
    1  LI 1  S    0.136238   0.005446   0.000000   0.000000   0.000000
    2  LI 1  S   -0.057169  -0.001542  -0.000000  -0.000000   0.000000
    3  LI 1  S    1.838578   0.074651   0.000000   0.000000   0.000000
    4  LI 1  S   -3.272297  -0.140986  -0.000000  -0.000000   0.000000
    5  LI 1  S    3.677107   0.188473   0.000000   0.000000   0.000000
    6  LI 1  S   -3.251873  -0.172305  -0.000000  -0.000000   0.000000
    7  LI 1  S    1.009811   0.045566   0.000000   0.000000   0.000000
    8  LI 1  X    0.000000  -0.000000   0.000755   0.004702   0.000000
    9  LI 1  Y    0.000000  -0.000000   0.004702  -0.000755   0.000000
   10  LI 1  Z   -0.002828  -0.004680  -0.000000  -0.000000   0.000000
   11  LI 1  X    0.000000   0.000000  -0.002103  -0.013091  -0.000000
   12  LI 1  Y    0.000000  -0.000000  -0.013091   0.002103   0.000000
   13  LI 1  Z    0.005589   0.018512   0.000000   0.000000   0.000000
   14  LI 1  X    0.000000  -0.000000   0.002370   0.014756   0.000000
   15  LI 1  Y    0.000000  -0.000000   0.014756  -0.002370   0.000000
   16  LI 1  Z   -0.008175  -0.027576  -0.000000  -0.000000   0.000000
   17  F  2  S   -0.000216   0.000296  -0.000000  -0.000000   0.000000
   18  F  2  S   -0.000387   0.000580  -0.000000  -0.000000   0.000000
   19  F  2  S   -0.002024   0.002598  -0.000000   0.000000   0.000000
   20  F  2  S    0.000132   0.000320  -0.000000  -0.000000   0.000000
   21  F  2  S   -0.007228   0.008304   0.000000   0.000000   0.000000
   22  F  2  S    0.042164  -0.050171  -0.000000  -0.000000   0.000000
   23  F  2  S   -0.054044   0.060803   0.000000   0.000000   0.000000
   24  F  2  S    0.003187  -0.018993  -0.000000  -0.000000   0.000000
   25  F  2  X    0.000000  -0.000000  -0.000077  -0.000478   0.000000
   26  F  2  Y    0.000000  -0.000000  -0.000478   0.000077   0.000000
   27  F  2  Z   -0.003561  -0.000264  -0.000000  -0.000000   0.000000
   28  F  2  X    0.000000  -0.000000  -0.000095  -0.000592   0.000000
   29  F  2  Y    0.000000  -0.000000  -0.000592   0.000095   0.000000
   30  F  2  Z   -0.003671  -0.000063  -0.000000   0.000000   0.000000
   31  F  2  X    0.000000   0.000000  -0.000883  -0.005499  -0.000000
   32  F  2  Y    0.000000  -0.000000  -0.005499   0.000883   0.000000
   33  F  2  Z   -0.045482  -0.005006  -0.000000  -0.000000   0.000000
   34  F  2  X   -0.000000  -0.000000   0.002350   0.014629   0.000000
   35  F  2  Y    0.000000  -0.000000   0.014629  -0.002350   0.000000
   36  F  2  Z    0.135369   0.022313   0.000000   0.000000   0.000000
   37  F  2  X   -0.000000   0.000000  -0.001357  -0.008450  -0.000000
   38  F  2  Y   -0.000000  -0.000000  -0.008450   0.001357   0.000000
   39  F  2  Z   -0.114116  -0.022179  -0.000000  -0.000000   0.000000
   40  F  2 XX   -0.000532   0.003127   0.000000   0.000000  -0.004314
   41  F  2 YY   -0.000532   0.003127  -0.000000   0.000000   0.004314
   42  F  2 ZZ    0.001063  -0.006253  -0.000000  -0.000000   0.000000
   43  F  2 XY    0.000000  -0.000000   0.000000  -0.000000   0.000000
   44  F  2 XZ    0.000000   0.000000  -0.000946  -0.005890  -0.000000
   45  F  2 YZ    0.000000  -0.000000  -0.005890   0.000946   0.000000
   46  F  2 XX    0.019430  -0.501052  -0.000000  -0.000000   0.867992
   47  F  2 YY    0.019430  -0.501052  -0.000000  -0.000000  -0.867992
   48  F  2 ZZ   -0.038861   1.002104   0.000000   0.000000   0.000000
   49  F  2 XY    0.000000  -0.000000  -0.000000   0.000000  -0.000086
   50  F  2 XZ    0.000000  -0.000000   0.159030   0.990040   0.000000
   51  F  2 YZ    0.000000  -0.000000   0.990040  -0.159030   0.000000

                     31         32         33         34         35
                    1.5689     1.9743     5.2661     5.2661     5.3505
                     A          A          A          A          A   
    1  LI 1  S   -0.000000   0.001169   0.000000   0.000000  -0.002488
    2  LI 1  S   -0.000000  -0.000487   0.000000   0.000000  -0.045629
    3  LI 1  S   -0.000000   0.019119  -0.000000  -0.000000   0.080020
    4  LI 1  S   -0.000000  -0.044777   0.000000   0.000000  -0.039274
    5  LI 1  S   -0.000000   0.145108   0.000000   0.000000   0.005355
    6  LI 1  S   -0.000000  -0.259015   0.000000   0.000000  -0.048478
    7  LI 1  S   -0.000000   0.171105   0.000000  -0.000000   0.061656
    8  LI 1  X   -0.000000   0.000000   0.000531  -0.003925  -0.000000
    9  LI 1  Y    0.000000   0.000000  -0.003925  -0.000531  -0.000000
   10  LI 1  Z   -0.000000   0.025926   0.000000   0.000000   0.004962
   11  LI 1  X   -0.000000   0.000000  -0.002178   0.016107   0.000000
   12  LI 1  Y   -0.000000   0.000000   0.016107   0.002178  -0.000000
   13  LI 1  Z   -0.000000  -0.088346   0.000000   0.000000  -0.035981
   14  LI 1  X   -0.000000   0.000000   0.002972  -0.021981  -0.000000
   15  LI 1  Y    0.000000   0.000000  -0.021981  -0.002972  -0.000000
   16  LI 1  Z   -0.000000   0.111557   0.000000  -0.000000   0.073211
   17  F  2  S   -0.000000   0.016066   0.000000   0.000000   0.000826
   18  F  2  S   -0.000000   0.030510   0.000000   0.000000   0.000795
   19  F  2  S   -0.000000   0.145343   0.000000   0.000000   0.009474
   20  F  2  S   -0.000000   0.004314   0.000000   0.000000  -0.011026
   21  F  2  S   -0.000000   0.498883   0.000000  -0.000000   0.076723
   22  F  2  S   -0.000000  -2.863091   0.000000   0.000000  -0.225884
   23  F  2  S   -0.000000   3.671424   0.000000  -0.000000   0.199137
   24  F  2  S   -0.000000  -1.557401   0.000000   0.000000  -0.042463
   25  F  2  X   -0.000000   0.000000   0.016014  -0.118442  -0.000000
   26  F  2  Y   -0.000000   0.000000  -0.118442  -0.016014  -0.000000
   27  F  2  Z   -0.000000  -0.027312   0.000000   0.000000  -0.126913
   28  F  2  X   -0.000000   0.000000   0.157436  -1.164437  -0.000000
   29  F  2  Y   -0.000000   0.000000  -1.164437  -0.157436  -0.000000
   30  F  2  Z   -0.000000  -0.037799  -0.000000   0.000000  -1.204385
   31  F  2  X   -0.000000  -0.000000  -0.294645   2.179262   0.000000
   32  F  2  Y   -0.000000   0.000000   2.179262   0.294645   0.000000
   33  F  2  Z   -0.000000  -0.282206   0.000000  -0.000000   2.169509
   34  F  2  X   -0.000000   0.000000   0.219713  -1.625049  -0.000000
   35  F  2  Y    0.000000   0.000000  -1.625049  -0.219713  -0.000000
   36  F  2  Z   -0.000000   0.451359  -0.000000   0.000000  -1.582611
   37  F  2  X   -0.000000  -0.000000  -0.059923   0.443206   0.000000
   38  F  2  Y   -0.000000   0.000000   0.443206   0.059923   0.000000
   39  F  2  Z   -0.000000  -0.112846   0.000000  -0.000000   0.468188
   40  F  2 XX   -0.000000   0.001615   0.000000   0.000000  -0.022001
   41  F  2 YY    0.000000   0.001615   0.000000   0.000000  -0.022001
   42  F  2 ZZ   -0.000000  -0.003230   0.000000  -0.000000   0.044002
   43  F  2 XY   -0.004981   0.000000   0.000000   0.000000  -0.000000
   44  F  2 XZ   -0.000000   0.000000  -0.006537   0.048352   0.000000
[...]
     7     -106.8847959094     0.00001652
     7     -106.8816921569     0.00000561
     7     -106.8816921271     0.00000609
     7     -106.8816768968     0.00001388
     7     -106.8816768670     0.00000517
     7     -106.8791705004     0.00001331
     7     -106.2978479672     0.00005955
     7     -106.2978479671     0.00006045
     7     -106.1959994313     0.00003401

     8     -106.8873052641     0.00000540
     8     -106.8847959094     0.00000352
     8     -106.8816921569     0.00000109
     8     -106.8816921271     0.00000106
     8     -106.8816768969     0.00000338
     8     -106.8816768670     0.00000091
     8     -106.8791705005     0.00000414
     8     -106.2978479683     0.00001902
     8     -106.2978479683     0.00001919
     8     -106.1959994316     0.00000869


 CONVERGED STATE    6 ENERGY=     -106.8816768670 IN    8 ITERS

     0     -106.8873052641     0.00000540
     0     -106.8847959094     0.00000352
     0     -106.8816921569     0.00000109
     0     -106.8816921271     0.00000106
     0     -106.8816768969     0.00000338
     0     -106.8791705005     0.00000414
     0     -106.2978479683     0.00001902
     0     -106.2978479683     0.00001919
     0     -106.1959994316     0.00000869

     1     -106.8873052641     0.00000202
     1     -106.8847959094     0.00000099
     1     -106.8816921569     0.00000029
     1     -106.8816921271     0.00000035
     1     -106.8816768969     0.00000109
     1     -106.8791705005     0.00000148
     1     -106.2978479684     0.00000597
     1     -106.2978479684     0.00000597
     1     -106.1959994316     0.00000336


 CONVERGED STATE    2 ENERGY=     -106.8847959094 IN   10 ITERS


 CONVERGED STATE    3 ENERGY=     -106.8816921569 IN   10 ITERS


 CONVERGED STATE    4 ENERGY=     -106.8816921271 IN   10 ITERS

     0     -106.8873052641     0.00000202
     0     -106.8816768969     0.00000109
     0     -106.8791705005     0.00000148
     0     -106.2978479684     0.00000597
     0     -106.2978479684     0.00000597
     0     -106.1959994316     0.00000336

     1     -106.8873052641     0.00000110
     1     -106.8816768969     0.00000043
     1     -106.8791705005     0.00000078
     1     -106.2978479684     0.00000268
     1     -106.2978479684     0.00000269
     1     -106.1959994316     0.00000156


 CONVERGED STATE    5 ENERGY=     -106.8816768969 IN   12 ITERS


 CONVERGED STATE    7 ENERGY=     -106.8791705005 IN   12 ITERS

     0     -106.8873052641     0.00000110
     0     -106.2978479684     0.00000268
     0     -106.2978479684     0.00000269
     0     -106.1959994316     0.00000156

     1     -106.8873052641     0.00000051
     1     -106.2978479684     0.00000124
     1     -106.2978479684     0.00000125
     1     -106.1959994316     0.00000085


 CONVERGED STATE    1 ENERGY=     -106.8873052641 IN   14 ITERS


 CONVERGED STATE   10 ENERGY=     -106.1959994316 IN   14 ITERS

     0     -106.2978479684     0.00000124
     0     -106.2978479684     0.00000125

     1     -106.2978479684     0.00000069
     1     -106.2978479684     0.00000070


 CONVERGED STATE    8 ENERGY=     -106.2978479684 IN   16 ITERS


 CONVERGED STATE    9 ENERGY=     -106.2978479684 IN   16 ITERS

 ALL STATES CONVERGED.

 CI EIGENVECTORS WILL BE LABELED IN GROUP=C1      
 PRINTING CI COEFFICIENTS LARGER THAN 5.000E-02

 STATE   1  ENERGY=      -106.8873052641  S=  0.00  SZ=  0.00  SPACE SYM=A   

  ALPHA   |  BETA    | CI COEFFICIENT
----------|----------|---------------
 11110000 | 11101000 |   0.5685204307
 11101000 | 11110000 |   0.5685204307
 11110000 | 11110000 |  -0.5635954834
 11100100 | 11101000 |  -0.0589641172
 11101000 | 11100100 |  -0.0589641172

 STATE   2  ENERGY=      -106.8847959094  S=  1.00  SZ=  0.00  SPACE SYM=A   

  ALPHA   |  BETA    | CI COEFFICIENT
----------|----------|---------------
 11101000 | 11110000 |   0.6949569561
 11110000 | 11101000 |  -0.6949569561
 11101000 | 11100100 |  -0.0705293208
 11100100 | 11101000 |   0.0705293208

 STATE   3  ENERGY=      -106.8816921569  S=  1.00  SZ=  0.00  SPACE SYM=A   

  ALPHA   |  BETA    | CI COEFFICIENT
----------|----------|---------------
 11011000 | 11110000 |   0.5114450687
 11110000 | 11011000 |  -0.5114450684
 11110000 | 10111000 |  -0.4698608324
 10111000 | 11110000 |   0.4698608314

 STATE   4  ENERGY=      -106.8816921271  S=  1.00  SZ=  0.00  SPACE SYM=A   

  ALPHA   |  BETA    | CI COEFFICIENT
----------|----------|---------------
 10111000 | 11110000 |   0.5114450715
 11110000 | 10111000 |  -0.5114450709
 11110000 | 11011000 |   0.4698608349
 11011000 | 11110000 |  -0.4698608341

 STATE   5  ENERGY=      -106.8816768969  S=  0.00  SZ=  0.00  SPACE SYM=A   

  ALPHA   |  BETA    | CI COEFFICIENT
----------|----------|---------------
 10111000 | 11110000 |   0.5114366610
 11110000 | 10111000 |   0.5114366603
 11110000 | 11011000 |  -0.4698562157
 11011000 | 11110000 |  -0.4698562150

 STATE   6  ENERGY=      -106.8816768670  S=  0.00  SZ=  0.00  SPACE SYM=A   

  ALPHA   |  BETA    | CI COEFFICIENT
----------|----------|---------------
 11011000 | 11110000 |   0.5114366600
 11110000 | 11011000 |   0.5114366590
 11110000 | 10111000 |   0.4698562146
 10111000 | 11110000 |   0.4698562141

 STATE   7  ENERGY=      -106.8791705005  S=  0.00  SZ=  0.00  SPACE SYM=A   

  ALPHA   |  BETA    | CI COEFFICIENT
----------|----------|---------------
 11110000 | 11110000 |   0.8016336971
 11101000 | 11110000 |   0.3995876769
 11110000 | 11101000 |   0.3995876769

 STATE   8  ENERGY=      -106.2978479684  S=  1.00  SZ=  0.00  SPACE SYM=A   

  ALPHA   |  BETA    | CI COEFFICIENT
----------|----------|---------------
 11101000 | 10111000 |   0.6184063668
 10111000 | 11101000 |  -0.6184063668
 11101000 | 11011000 |   0.2513708902
 11011000 | 11101000 |  -0.2513708902
 11101000 | 10101100 |   0.1296523757
 10101100 | 11101000 |  -0.1296523757
 11101000 | 10011010 |  -0.0855810949
 10011010 | 11101000 |   0.0855810949
 10101010 | 10111000 |  -0.0768336565
 10111000 | 10101010 |   0.0768336565
 10101001 | 10111000 |  -0.0766602744
 10111000 | 10101001 |   0.0766602744
 11001001 | 10111000 |  -0.0673717238
 10111000 | 11001001 |   0.0673717238
 11001010 | 10111000 |   0.0554668620
 10111000 | 11001010 |  -0.0554668620
 11101000 | 11001100 |   0.0527013224
 11001100 | 11101000 |  -0.0527013224

 STATE   9  ENERGY=      -106.2978479684  S=  1.00  SZ=  0.00  SPACE SYM=A   

  ALPHA   |  BETA    | CI COEFFICIENT
----------|----------|---------------
 11011000 | 11101000 |   0.6184063673
 11101000 | 11011000 |  -0.6184063673
 11101000 | 10111000 |   0.2513708914
 10111000 | 11101000 |  -0.2513708914
 11001100 | 11101000 |   0.1296523754
 11101000 | 11001100 |  -0.1296523754
 10011001 | 11101000 |  -0.0855810939
 11101000 | 10011001 |   0.0855810939
 11011000 | 11001001 |  -0.0768336563
 11001001 | 11011000 |   0.0768336563
 11011000 | 11001010 |   0.0766602738
 11001010 | 11011000 |  -0.0766602738
 11011000 | 10101010 |  -0.0673717244
 10101010 | 11011000 |   0.0673717244
 11011000 | 10101001 |  -0.0554668606
 10101001 | 11011000 |   0.0554668606
 11101000 | 10101100 |   0.0527013219
 10101100 | 11101000 |  -0.0527013219

 STATE  10  ENERGY=      -106.1959994316  S=  0.00  SZ=  0.00  SPACE SYM=A   

  ALPHA   |  BETA    | CI COEFFICIENT
----------|----------|---------------
 11101000 | 11011000 |   0.4935892640
 11011000 | 11101000 |   0.4935892640
 10111000 | 11101000 |   0.4555406383
 11101000 | 10111000 |   0.4555406383
 10011010 | 11101000 |  -0.0974133195
 11101000 | 10011010 |  -0.0974133195
 11101000 | 11001100 |   0.0926511450
 11001100 | 11101000 |   0.0926511450
 10101100 | 11101000 |   0.0855090692
 11101000 | 10101100 |   0.0855090692
 11001001 | 11011000 |  -0.0582777692
 11011000 | 11001001 |  -0.0582777692
 10111000 | 10101001 |  -0.0523435632
 10101001 | 10111000 |  -0.0523435632
 10101010 | 11011000 |  -0.0516737496
 11011000 | 10101010 |  -0.0516737496
 ..... DONE WITH DETERMINANT CI COMPUTATION .....
 STEP CPU TIME =     0.37 TOTAL CPU TIME =        1.7 (    0.0 MIN)
 TOTAL WALL CLOCK TIME=        2.1 SECONDS, CPU UTILIZATION IS  83.17%

     --------------------------------------------------
      ONE AND TWO PARTICLE DENSITY MATRIX COMPUTATION
     PROGRAM WRITTEN BY JOE IVANIC AND KLAUS RUEDENBERG
     --------------------------------------------------

      43472 WORDS WILL BE USED TO FORM THE DENSITIES
 THE DENSITIES ARE STATE AVERAGED OVER   2 ROOT(S)
 STATE=   1   ENERGY=     -106.8873052641   WEIGHT= 0.50000   S=  0.00
 STATE=   7   ENERGY=     -106.8791705005   WEIGHT= 0.50000   S=  0.00
 SIEVING THE A    SYMMETRY NONZERO DENSITY ELEMENTS IN GROUP C1      
        495 NONZERO DM2 ELEMENTS WRITTEN IN       1 RECORDS TO FILE 15
 ..... DONE WITH 1 AND 2 PARTICLE DENSITY MATRIX .....
 STEP CPU TIME =     0.00 TOTAL CPU TIME =        1.7 (    0.0 MIN)
 TOTAL WALL CLOCK TIME=        2.1 SECONDS, CPU UTILIZATION IS  82.78%
 .....DONE WITH MCSCF ITERATIONS.....
 STEP CPU TIME =     0.00 TOTAL CPU TIME =        1.7 (    0.0 MIN)
 TOTAL WALL CLOCK TIME=        2.1 SECONDS, CPU UTILIZATION IS  82.78%
 DDI: Creating Array [0] - 2601 x 55 = 143055 words.
 DDI: Creating Array [1] - 39 x 550 = 21450 words.
 DDI: Creating Array [2] - 55 x 55 = 3025 words.
 DDI: Creating Array [3] - 1326 x 55 = 72930 words.

     ----------------------------------------------------------------
     PROPERTY VALUES FOR THE MCSCF SELF-CONSISTENT FIELD WAVEFUNCTION
     ----------------------------------------------------------------

 THIS MCSCF AVERAGED   2 ROOTS OF DIFFERENT ENERGY.
 SINCE NO STATE-SPECIFIC DENSITY MATRIX IS AVAILABLE,
 PROPERTIES WILL NOT BE COMPUTED.


     --------------------------------------------
     PARTIAL TWO ELECTRON INTEGRAL TRANSFORMATION
     --------------------------------------------

 NUMBER OF CORE MOLECULAR ORBITALS     =    0
 NUMBER OF OCCUPIED MOLECULAR ORBITALS =   10
 TOTAL NUMBER OF MOLECULAR ORBITALS    =   49
 TOTAL NUMBER OF ATOMIC ORBITALS       =   51
 THRESHOLD FOR KEEPING TRANSFORMED 2E- INTEGRALS = 1.000E-09

 -------------------------------     ------------------------------
 DISTRIBUTED DATA TRANSFORMATION     PROGRAM WRITTEN BY G. FLETCHER
 -------------------------------     ------------------------------

 THE DISTRIBUTED MEMORY REQUIRED FOR THIS STEP IS MEMDDI=         1 MWORDS
 CREATING DISTRIBUTED STORAGE FOR [VIR OCC|VIR OCC] INTEGRALS
 CREATING DISTRIBUTED STORAGE FOR [VIR OCC|OCC OCC] INTEGRALS
 CREATING DISTRIBUTED STORAGE FOR [OCC OCC|OCC OCC] INTEGRALS
 CREATING DISTRIBUTED STORAGE FOR [VIR VIR|OCC OCC] INTEGRALS
 FOR    1 PROCESSORS, THE REPLICATED MEMORY NEEDED IS      113436 WORDS.

      DIRECT 4-INDEX TRANSFORMATION 
      SCHWARZ INEQUALITY TEST SKIPPED          0 INTEGRAL BLOCKS
 ... END OF INTEGRAL TRANSFORMATION ...
 CPU     0: STEP CPU TIME=     0.17 TOTAL CPU TIME=        1.9 (    0.0 MIN)
 TOTAL WALL CLOCK TIME=        2.3 SECONDS, CPU UTILIZATION IS  83.70%

     ---------------------------------------------
     1ST AND 2ND INTEGRAL DERIVATIVE CONTRIBUTIONS
     ---------------------------------------------
 ...... END OF 1-ELECTRON GRAD+HESS+FOCKDER ......
 CPU     0: STEP CPU TIME=     0.00 TOTAL CPU TIME=        1.9 (    0.0 MIN)
 TOTAL WALL CLOCK TIME=        2.3 SECONDS, CPU UTILIZATION IS  83.70%

     ----------------------------------------------
     TWO ELECTRON INTEGRAL DERIVATIVE CONTRIBUTIONS
     ----------------------------------------------

     197513 WORDS REQUIRED,   2000000 WORDS AVAILABLE
 THE COARSE/FINE SCHWARZ SCREENINGS SKIPPED          0/         0 BLOCKS.
 THE NUMBER OF DERIVATIVE INTEGRAL BLOCKS COMPUTED WAS     44175
 CPU     0: STEP CPU TIME=     6.43 TOTAL CPU TIME=        8.3 (    0.1 MIN)
 TOTAL WALL CLOCK TIME=        8.7 SECONDS, CPU UTILIZATION IS  95.75%
 ...... END OF 2-ELECTRON GRAD+HESS+LAGDER ......
 CPU     0: STEP CPU TIME=     0.00 TOTAL CPU TIME=        8.3 (    0.1 MIN)
 TOTAL WALL CLOCK TIME=        8.7 SECONDS, CPU UTILIZATION IS  95.75%
 COMPUTING NACME FOR STATE WITH E=     -106.8873052641 S=  0.0
 COMPUTING NACME FOR STATE WITH E=     -106.8791705005 S=  0.0

     -------------------------------------------------
     COUPLED-PERTURBED MULTICONFIGURATION HARTREE-FOCK
     Z-VECTOR VERSION
     -------------------------------------------------

 SETTING UP RIGHT-HAND SIDE OF CPMCHF EQUATIONS.
 # OF WORDS REQUIRED  =     192374
 # OF WORDS AVAILABLE =    2000000
 NOTE THAT THE CP-MCHF DISTRIBUTED MEMORY REQUIREMENTS ARE JUST THE
 MEMORY NEEDED TO STORE TRANSFORMED INTEGRAL CLASSES (ALLOCATED ABOVE).

  --- DIPOLE MOMENTS (DEBYE) ---
  1,  1 :  DIPOLE   -0.000000   -0.000000   -8.454620    8.454620
  1,  2 : TDIPOLE    0.000000    0.000000   12.236701   12.236701
  2,  2 :  DIPOLE    0.000000    0.000000  -17.579591   17.579591

  --- OSCILLATOR STRENGTHS  ---

             1           2

    1    0.0000000
    2    0.1256931   0.0000000


 CALCULATING MCSCF ELECTRONIC HESSIAN ON THE FLY.
 # OF ORBITAL ROTATIONS   =        406
 LENGTH OF DET. EXPANSION =       4900

 SOLVING CPMCHF EQUATIONS - ESSENTIAL MEMORY.
 # OF WORDS REQUIRED  =     431501
 # OF WORDS AVAILABLE =    2000000
 DDI: Creating Array [4] - 1 x 1 = 1 words.
 DDI: Creating Array [5] - 1 x 1 = 1 words.
 DDI: Creating Array [6] - 1 x 1 = 1 words.
 DDI: Creating Array [7] - 1 x 1 = 1 words.

 MASTER NODE HAS FINISHED WITH (OO|OO) INTEGRALS, T=    0.0
 MASTER NODE HAS FINISHED WITH (VO|OO) INTEGRALS, T=    0.0
 MASTER NODE HAS FINISHED WITH (VV|OO) INTEGRALS, T=    0.0
 MASTER NODE HAS FINISHED WITH (VO|VO) INTEGRALS, T=    0.0

 FINISHED SETTING UP RIGHT-HAND SIDE.
 CPU     0: STEP CPU TIME=     0.24 TOTAL CPU TIME=        8.6 (    0.1 MIN)
 TOTAL WALL CLOCK TIME=        8.9 SECONDS, CPU UTILIZATION IS  95.86%

 SOLVING FOR    3 NUCLEAR RESPONSES AND 0 ELECTRIC FIELD RESPONSES

 SOLVING CPMCHF EQUATIONS - EXTRA SOLVER MEMORY.
 # OF WORDS REQUIRED  =      40840
 # OF WORDS AVAILABLE =    1568499

 PRECONDITIONED CONJUGATE GRADIENT SOLVER    CONV. TOLERANCE=1.00E-07
 ITER   RESPONSE ERROR    IMPROVED     ORB-ORB     CI-ORB
   1      2.07438E+00         3            0.1        0.7
 DUE TO LARGE RES. NORM, GUESS SET TO 0 VECTOR.
   1      4.96292E-02         3            0.0        0.3
   2      4.05891E-02         3            0.0        0.3
   3      5.91745E-02         3            0.0        0.3
   4      4.12163E-02         3            0.0        0.3
   5      3.48891E-02         3            0.0        0.3
   6      2.44001E-02         3            0.0        0.3
   7      3.12351E-02         3            0.0        0.3
   8      3.86180E-02         3            0.0        0.3
   9      3.01737E-02         3            0.0        0.3
  10      1.85975E-02         3            0.0        0.3
  11      1.05087E-02         3            0.1        0.3
  12      5.27281E-03         3            0.0        0.3
  13      3.90146E-03         3            0.0        0.3
  14      2.45954E-03         3            0.0        0.3
  15      1.36068E-03         3            0.1        0.3
  16      1.03658E-03         3            0.0        0.3
  17      6.33758E-04         3            0.0        0.3
  18      3.90712E-04         3            0.0        0.3
  19      1.87314E-04         3            0.0        0.3
  20      8.84859E-05         3            0.0        0.3
  21      2.97217E-05         3            0.0        0.3
  22      1.78703E-05         3            0.1        0.3
  23      1.45932E-05         3            0.0        0.3
  24      1.38912E-05         3            0.0        0.3
  25      1.50880E-05         3            0.0        0.3
  26      1.54426E-05         3            0.0        0.3
  27      1.14716E-05         3            0.0        0.3
  28      7.27269E-06         3            0.0        0.3
  29      7.03703E-06         3            0.0        0.3
  30      5.27164E-06         3            0.0        0.3
  31      2.79876E-06         3            0.0        0.3
  32      1.84323E-06         3            0.0        0.3
  33      1.02593E-06         3            0.0        0.3
  34      7.26515E-07         3            0.0        0.3
  35      6.53939E-07         2            0.0        0.3
  36      8.83749E-07         2            0.0        0.3
  37      3.67456E-06         2            0.0        0.3
  38      6.77671E-06         2            0.0        0.3
  39      1.79665E-06         2            0.0        0.3
  40      5.64183E-07         2            0.0        0.3
  41      2.61409E-07         1            0.0        0.3
  42      1.45586E-07         1            0.0        0.3
  43      1.10394E-07         1            0.0        0.3
  44      9.77050E-08         0            0.0        0.3
 RESET PDIRX AND RESIDUAL.
  45      9.77050E-08         0            0.0        0.3
 THE CPMCHF HAS CONVERGED AFTER  45 ITERATIONS.

 STATE-SPECIFIC GRADIENT OF STATE   1 (OVERALL STATE   1)
 ENERGY=     -106.8873052641 SPIN=  0.00 WEIGHT= 0.500000

 UNITS ARE HARTREE/BOHR    E'X               E'Y               E'Z 
    1 LITHIUM         -0.000000001      -0.000000001      -0.004685156
    2 FLUORINE         0.000000001       0.000000001       0.004685156

 STATE-SPECIFIC GRADIENT OF STATE   4 (OVERALL STATE   7)
 ENERGY=     -106.8816921271 SPIN=  0.00 WEIGHT= 0.500000

 UNITS ARE HARTREE/BOHR    E'X               E'Y               E'Z 
    1 LITHIUM         -0.000000001      -0.000000001      -0.004684248
    2 FLUORINE         0.000000001       0.000000001       0.004684248

 NACME FOR STATE J->I HAVE OPPOSITE SIGN TO THE NACME CONNECTING STATE I->J,
 SO ONLY NACME FOR I>J ARE PRINTED, FOR STATES WITH SPIN QUANTUM NO. S=  0.00

 NONADIABATIC COUPLING MATRIX ELEMENT (NACME), IN ONE/BOHR
 <STATE  4, WEIGHT=   0.50000 | D/DQ | STATE  1, WEIGHT=   0.50000>
   ATOM               D/DX           D/DY           D/DZ
    1 LITHIUM        -0.0000001     -0.0000001      0.6423100
    2 FLUORINE        0.0000001      0.0000001     -0.6192795

 TOTAL REPLICATED MEMORY USED FOR NACME RESPONSES=       472341 WORDS.
 FREEING DISTRIBUTED STORAGE FOR [VIR VIR|OCC OCC] INTEGRALS
 FREEING DISTRIBUTED STORAGE FOR [OCC OCC|OCC OCC] INTEGRALS
 FREEING DISTRIBUTED STORAGE FOR [VIR OCC|OCC OCC] INTEGRALS
 FREEING DISTRIBUTED STORAGE FOR [VIR OCC|VIR OCC] INTEGRALS

 ...... DONE WITH CPMCHF EQUATIONS ......
 CPU     0: STEP CPU TIME=    15.56 TOTAL CPU TIME=       24.1 (    0.4 MIN)
 TOTAL WALL CLOCK TIME=       24.5 SECONDS, CPU UTILIZATION IS  98.45%
              1721623  WORDS OF DYNAMIC MEMORY USED
 EXECUTION OF GAMESS TERMINATED NORMALLY Mon Nov 28 21:26:00 2016
 DDI: 2187352 bytes (2.1 MB / 0 MWords) used by master data server.

 ----------------------------------------
 CPU timing information for all processes
 ========================================
 0: 24.72 + 0.63 = 24.136
 ----------------------------------------
 ddikick.x: exited gracefully.
unset echo
----- accounting info -----
Files used on the master node compute-3-0 were:
-rw-rw-r-- 1 sarom sarom   51521 Nov 29  2016 .//mc-nacme-lif.dat
-rw-rw-r-- 1 sarom sarom   45998 Nov 29  2016 .//mc-nacme-lif.F05
-rw-rw-r-- 1 sarom sarom 1800160 Nov 29  2016 .//mc-nacme-lif.F08
-rw-rw-r-- 1 sarom sarom    9808 Nov 29  2016 .//mc-nacme-lif.F09
-rw-rw-r-- 1 sarom sarom 2192240 Nov 29  2016 .//mc-nacme-lif.F10
-rw-rw-r-- 1 sarom sarom  392104 Nov 29  2016 .//mc-nacme-lif.F12
-rw-rw-r-- 1 sarom sarom  181608 Nov 29  2016 .//mc-nacme-lif.F13
-rw-rw-r-- 1 sarom sarom  180464 Nov 29  2016 .//mc-nacme-lif.F15
-rw-rw-r-- 1 sarom sarom  758632 Nov 29  2016 .//mc-nacme-lif.F16
-rw-rw-r-- 1 sarom sarom  124896 Nov 29  2016 .//mc-nacme-lif.F18
-rw-rw-r-- 1 sarom sarom  470448 Nov 29  2016 .//mc-nacme-lif.F19
-rw-rw-r-- 1 sarom sarom   45998 Nov 27 05:47 .//mc-nacme-lif.inp
-rw-rw-r-- 1 sarom sarom  115463 Nov 29  2016 .//mc-nacme-lif.log
Mon Nov 28 21:26:03 CST 2016
0.201u 0.273s 0:28.06 1.6%	0+0k 0+224io 0pf+0w
