----- GAMESS execution script 'rungms' -----
This job is running on host compute-3-0
under operating system Linux at Mon Nov 28 21:25:36 CST 2016
Available scratch disk space (Kbyte units) at beginning of the job is
Filesystem            1K-blocks       Used  Available Use% Mounted on
bolt.local:/export/home/sarom
                     9590469632 1552976896 7550324736  18% /home/sarom
Copying input file mc-nacme-buta.inp to your run's scratch directory...
cp mc-nacme-buta.inp .//mc-nacme-buta.F05
unset echo
/home/sarom/gamessGH/ddikick.x /home/sarom/gamessGH/gamess.00.x mc-nacme-buta -ddi 1 1 localhost -scr ./

 Distributed Data Interface kickoff program.
 Initiating 1 compute processes on 1 nodes to run the following command:
 /home/sarom/gamessGH/gamess.00.x mc-nacme-buta 

          ******************************************************
          *         GAMESS VERSION = 18 AUG 2016 (R1)          *
          *             FROM IOWA STATE UNIVERSITY             *
          * M.W.SCHMIDT, K.K.BALDRIDGE, J.A.BOATZ, S.T.ELBERT, *
          *   M.S.GORDON, J.H.JENSEN, S.KOSEKI, N.MATSUNAGA,   *
          *          K.A.NGUYEN, S.J.SU, T.L.WINDUS,           *
          *       TOGETHER WITH M.DUPUIS, J.A.MONTGOMERY       *
          *         J.COMPUT.CHEM.  14, 1347-1363(1993)        *
          **************** 64 BIT LINUX VERSION ****************

  SINCE 1993, STUDENTS AND POSTDOCS WORKING AT IOWA STATE UNIVERSITY
  AND ALSO IN THEIR VARIOUS JOBS AFTER LEAVING ISU HAVE MADE IMPORTANT
  CONTRIBUTIONS TO THE CODE:
     IVANA ADAMOVIC, CHRISTINE AIKENS, YURI ALEXEEV, POOJA ARORA,
     ANDREY ASADCHEV, ROB BELL, PRADIPTA BANDYOPADHYAY, JONATHAN BENTZ,
     BRETT BODE, KURT BRORSEN, CALEB CARLIN, GALINA CHABAN, WEI CHEN,
     CHEOL HO CHOI, PAUL DAY, ALBERT DEFUSCO, NUWAN DESILVA, TIM DUDLEY,
     DMITRI FEDOROV, GRAHAM FLETCHER, MARK FREITAG, KURT GLAESEMANN,
     DAN KEMP, GRANT MERRILL, NORIYUKI MINEZAWA, JONATHAN MULLIN,
     TAKESHI NAGATA, SEAN NEDD, HEATHER NETZLOFF, BOSILJKA NJEGIC, RYAN OLSON,
     MIKE PAK, SPENCER PRUITT, LUKE ROSKOP, JIM SHOEMAKER, LYUDMILA SLIPCHENKO,
     TONY SMITH, SAROM SOK LEANG, JIE SONG, TETSUYA TAKETSUGU, SIMON WEBB,
     PENG XU, SOOHAENG YOO, FEDERICO ZAHARIEV

  ADDITIONAL CODE HAS BEEN PROVIDED BY COLLABORATORS IN OTHER GROUPS:
     IOWA STATE UNIVERSITY:
          JOE IVANIC, AARON WEST, LAIMUTIS BYTAUTAS, KLAUS RUEDENBERG
     UNIVERSITY OF TOKYO: KIMIHIKO HIRAO, TAKAHITO NAKAJIMA,
          TAKAO TSUNEDA, MUNEAKI KAMIYA, SUSUMU YANAGISAWA,
          KIYOSHI YAGI, MAHITO CHIBA, SEIKEN TOKURA, NAOAKI KAWAKAMI
     UNIVERSITY OF AARHUS: FRANK JENSEN
     UNIVERSITY OF IOWA: VISVALDAS KAIRYS, HUI LI
     NATIONAL INST. OF STANDARDS AND TECHNOLOGY: WALT STEVENS, DAVID GARMER
     UNIVERSITY OF PISA: BENEDETTA MENNUCCI, JACOPO TOMASI
     UNIVERSITY OF MEMPHIS: HENRY KURTZ, PRAKASHAN KORAMBATH
     UNIVERSITY OF ALBERTA: TOBY ZENG, MARIUSZ KLOBUKOWSKI
     UNIVERSITY OF NEW ENGLAND: MARK SPACKMAN
     MIE UNIVERSITY: HIROAKI UMEDA
     NAT. INST. OF ADVANCED INDUSTRIAL SCIENCE AND TECHNOLOGY: KAZUO KITAURA
     MICHIGAN STATE UNIVERSITY:
          KAROL KOWALSKI, MARTA WLOCH, JEFFREY GOUR, JESSE LUTZ,
          WEI LI, PIOTR PIECUCH
     UNIVERSITY OF SILESIA: MONIKA MUSIAL, STANISLAW KUCHARSKI
     FACULTES UNIVERSITAIRES NOTRE-DAME DE LA PAIX:
          OLIVIER QUINET, BENOIT CHAMPAGNE
     UNIVERSITY OF CALIFORNIA - SANTA BARBARA: BERNARD KIRTMAN
     INSTITUTE FOR MOLECULAR SCIENCE:
          KAZUYA ISHIMURA, MICHIO KATOUDA, AND SHIGERU NAGASE
     UNIVERSITY OF NOTRE DAME: ANNA POMOGAEVA, DAN CHIPMAN
     KYUSHU UNIVERSITY:
          HARUYUKI NAKANO,
          FENG LONG GU, JACEK KORCHOWIEC, MARCIN MAKOWSKI, AND YURIKO AOKI,
          HIROTOSHI MORI AND EISAKU MIYOSHI
     PENNSYLVANIA STATE UNIVERSITY:
          TZVETELIN IORDANOV, CHET SWALINA, JONATHAN SKONE,
          SHARON HAMMES-SCHIFFER
     WASEDA UNIVERSITY:
          MASATO KOBAYASHI, TOMOKO AKAMA, TSUGUKI TOUMA,
          TAKESHI YOSHIKAWA, YASUHIRO IKABATA, JUNJI SEINO,
          YUYA NAKAJIMA, HIROMI NAKAI
     NANJING UNIVERSITY: SHUHUA LI
     UNIVERSITY OF NEBRASKA:
          PEIFENG SU, DEJUN SI, NANDUN THELLAMUREGE, YALI WANG, HUI LI
     UNIVERSITY OF ZURICH: ROBERTO PEVERATI, KIM BALDRIDGE
     N. COPERNICUS UNIVERSITY AND JACKSON STATE UNIVERSITY:
          MARIA BARYSZ
     UNIVERSITY OF COPENHAGEN: Jimmy Kromann, CASPER STEINMANN
     TOKYO INSTITUTE OF TECHNOLOGY: HIROYA NAKATA
     NAGOYA UNIVERSITY: YOSHIO NISHIMOTO, STEPHAN IRLE
     MOSCOW STATE UNIVERSITY: VLADIMIR MIRONOV

 EXECUTION OF GAMESS BEGUN Mon Nov 28 21:25:36 2016

            ECHO OF THE FIRST FEW INPUT CARDS -
 INPUT CARD>!   butadiene...determinant CAS-SCF transition moments, via NACME run.          
 INPUT CARD>!   input to run with GUGA is shown below, producing identical moments.         
 INPUT CARD>!   test from Albert, August 2011                                               
 INPUT CARD>!                                                                               
 INPUT CARD>!   The MCSCF ran for 7 iterations, the CP-MCHF for 80 iterations               
 INPUT CARD>!   extensive results are shown below, the most important are                   
 INPUT CARD>!          --- OSCILLATOR STRENGTHS  ---                                        
 INPUT CARD>!            1    0.0000000                                                     
 INPUT CARD>!            2    1.3682844   0.0000000                                         
 INPUT CARD>!            3    0.0000019   0.0011334   0.0000000                             
 INPUT CARD>!                                                                               
 INPUT CARD>!       STATE-SPECIFIC GRADIENT OF STATE   1 (OVERALL STATE   1)                
 INPUT CARD>!       ENERGY=     -154.8767598921 SPIN=  0.00 WEIGHT= 0.333333                
 INPUT CARD>!       UNITS ARE HARTREE/BOHR    E'X               E'Y               E'Z       
 INPUT CARD>!          1 C               -0.006816363      -0.000000130      -0.001487087   
 INPUT CARD>!          2 C                0.000033840       0.000000132       0.002859470   
 INPUT CARD>!             ...snipped...                                                     
 INPUT CARD>!         10 H                0.012236408      -0.000000015      -0.008068247   
 INPUT CARD>!                                                                               
 INPUT CARD>!       NONADIABATIC COUPLING MATRIX ELEMENT (NACME), IN ONE/BOHR               
 INPUT CARD>!       <STATE  3, WEIGHT=   0.33333 | D/DQ | STATE  2, WEIGHT=   0.33333>      
 INPUT CARD>!         ATOM               D/DX           D/DY           D/DZ                 
 INPUT CARD>!          1 C               0.5341430     -0.0000305     -6.5442219            
 INPUT CARD>!          2 C              -0.2306884      0.0001410      8.8154966            
 INPUT CARD>!             ...snipped...                                                     
 INPUT CARD>!         10 H              -0.1305216      0.0000301     -0.1510436            
 INPUT CARD>!                                                                               
 INPUT CARD>!   this run takes 15 seconds on 2.66 GHz Cloverton (27 Apr 2015)               
 INPUT CARD>!   results have not changed significantly since 2012                           
 INPUT CARD>!                                                                               
 INPUT CARD>!   ----------------------------------------------------------------------      
 INPUT CARD>!    the results use state-averaged orbitals from 3 lowest singlet states:      
 INPUT CARD>!                                                                               
 INPUT CARD>!    STATE   1  ENERGY= -154.8767596989  S=  0.00  SZ=  0.00  SPACE SYM=A       
 INPUT CARD>!    STATE   4  ENERGY= -154.5875111656  S=  0.00  SZ=  0.00  SPACE SYM=A       
 INPUT CARD>!    STATE   5  ENERGY= -154.5855633185  S=  0.00  SZ=  0.00  SPACE SYM=A       
 INPUT CARD>!                                                                               
 INPUT CARD>!     --- DIPOLE MOMENTS (DEBYE) ---                                            
 INPUT CARD>!     1,  1 :  DIPOLE   -0.000150    0.000000    0.000098    0.000179           
 INPUT CARD>!     1,  2 : TDIPOLE    6.694892    0.000002    1.010325    6.770697           
 INPUT CARD>!     2,  2 :  DIPOLE   -0.002638    0.000002   -0.003733    0.004571           
 INPUT CARD>!     1,  3 : TDIPOLE    0.007866    0.000008    0.001449    0.007999           
 INPUT CARD>!     2,  3 : TDIPOLE    1.757688    0.000001    1.597160    2.374950           
 INPUT CARD>!     3,  3 :  DIPOLE    0.006259   -0.000001    0.003416    0.007130           
 INPUT CARD>!                                                                               
 INPUT CARD>!     --- OSCILLATOR STRENGTHS  ---                                             
 INPUT CARD>!                                                                               
 INPUT CARD>!                1           2           3                                      
 INPUT CARD>!                                                                               
 INPUT CARD>!       1    0.0000000                                                          
   15000000 WORDS OF MEMORY AVAILABLE

     BASIS OPTIONS
     -------------
     GBASIS=N31          IGAUSS=       6      POLAR=NONE    
     NDFUNC=       0     NFFUNC=       0     DIFFSP=       F
     NPFUNC=       0      DIFFS=       F     BASNAM=        


     RUN TITLE
     ---------
 butadiene                                                                       

 THE POINT GROUP OF THE MOLECULE IS C1      
 THE ORDER OF THE PRINCIPAL AXIS IS     0

 ATOM      ATOMIC                      COORDINATES (BOHR)
           CHARGE         X                   Y                   Z
 C           6.0    -3.5319050000       -0.0000030000       -0.1935260000
 C           6.0    -1.1538770000        0.0000030000        0.7658490000
 H           1.0    -5.2002540000       -0.0000030000        1.0220670000
 H           1.0    -3.8797960000       -0.0000070000       -2.2330600000
 H           1.0    -0.8863520000        0.0000060000        2.8234620000
 C           6.0     1.1540820000        0.0000030000       -0.7658000000
 H           1.0     0.8865340000        0.0000060000       -2.8234100000
 C           6.0     3.5317350000       -0.0000020000        0.1934840000
 H           1.0     3.8794640000       -0.0000070000        2.2330380000
 H           1.0     5.1999950000       -0.0000030000       -1.0221820000

          INTERNUCLEAR DISTANCES (ANGS.)
          ------------------------------

                1 C          2 C          3 H          4 H          5 H     

   1 C       0.0000000    1.3569468 *  1.0923447 *  1.0948634 *  2.1233904 *
   2 C       1.3569468 *  0.0000000    2.1455390 *  2.1445779 *  1.0980066 *
   3 H       1.0923447 *  2.1455390 *  0.0000000    1.8588710 *  2.4738555 *
   4 H       1.0948634 *  2.1445779 *  1.8588710 *  0.0000000    3.1095241  
   5 H       2.1233904 *  1.0980066 *  2.4738555 *  3.1095241    0.0000000  
   6 C       2.4981410 *  1.4657946 *  3.4931332    2.7746646 *  2.1848147 *
   7 H       2.7209640 *  2.1848073 *  3.8099542    2.5415064 *  3.1320091  
   8 C       3.7435237    2.4979499 *  4.6415265    4.1268670    2.7208294 *
   9 H       4.1267888    2.7743812 *  4.8473251    4.7376039    2.5412413 *
  10 H       4.6414833    3.4929204    5.6088828    4.8473569    3.8098042  

                6 C          7 H          8 C          9 H         10 H     

   1 C       2.4981410 *  2.7209640 *  3.7435237    4.1267888    4.6414833  
   2 C       1.4657946 *  2.1848073 *  2.4979499 *  2.7743812 *  3.4929204  
   3 H       3.4931332    3.8099542    4.6415265    4.8473251    5.6088828  
   4 H       2.7746646 *  2.5415064 *  4.1268670    4.7376039    4.8473569  
   5 H       2.1848147 *  3.1320091    2.7208294 *  2.5412413 *  3.8098042  
   6 C       0.0000000    1.0980066 *  1.3567448 *  2.1443589 *  2.1452994 *
   7 H       1.0980066 *  0.0000000    2.1232302 *  3.1093519    2.4736061 *
   8 C       1.3567448 *  2.1232302 *  0.0000000    1.0948594 *  1.0923294 *
   9 H       2.1443589 *  3.1093519    1.0948594 *  0.0000000    1.8589312 *
  10 H       2.1452994 *  2.4736061 *  1.0923294 *  1.8589312 *  0.0000000  

  * ... LESS THAN  3.000


     ATOMIC BASIS SET
     ----------------
 THE CONTRACTED PRIMITIVE FUNCTIONS HAVE BEEN UNNORMALIZED
 THE CONTRACTED BASIS FUNCTIONS ARE NOW NORMALIZED TO UNITY

  SHELL TYPE  PRIMITIVE        EXPONENT          CONTRACTION COEFFICIENT(S)

 C         

      1   S       1          3047.5248800    0.001834737132
      1   S       2           457.3695180    0.014037322813
      1   S       3           103.9486850    0.068842622264
      1   S       4            29.2101553    0.232184443216
      1   S       5             9.2866630    0.467941348435
      1   S       6             3.1639270    0.362311985337

      2   L       7             7.8682723   -0.119332419775    0.068999066591
      2   L       8             1.8812885   -0.160854151696    0.316423960957
      2   L       9             0.5442493    1.143456437840    0.744308290898

      3   L      10             0.1687145    1.000000000000    1.000000000000

 C         

      4   S      11          3047.5248800    0.001834737132
      4   S      12           457.3695180    0.014037322813
      4   S      13           103.9486850    0.068842622264
      4   S      14            29.2101553    0.232184443216
      4   S      15             9.2866630    0.467941348435
      4   S      16             3.1639270    0.362311985337

      5   L      17             7.8682723   -0.119332419775    0.068999066591
      5   L      18             1.8812885   -0.160854151696    0.316423960957
      5   L      19             0.5442493    1.143456437840    0.744308290898

      6   L      20             0.1687145    1.000000000000    1.000000000000

 H         

      7   S      21            18.7311370    0.033494604338
      7   S      22             2.8253944    0.234726953484
      7   S      23             0.6401217    0.813757326146

      8   S      24             0.1612778    1.000000000000

 H         

      9   S      25            18.7311370    0.033494604338
      9   S      26             2.8253944    0.234726953484
      9   S      27             0.6401217    0.813757326146

     10   S      28             0.1612778    1.000000000000

 H         

     11   S      29            18.7311370    0.033494604338
     11   S      30             2.8253944    0.234726953484
     11   S      31             0.6401217    0.813757326146

     12   S      32             0.1612778    1.000000000000

 C         

     13   S      33          3047.5248800    0.001834737132
     13   S      34           457.3695180    0.014037322813
     13   S      35           103.9486850    0.068842622264
     13   S      36            29.2101553    0.232184443216
     13   S      37             9.2866630    0.467941348435
     13   S      38             3.1639270    0.362311985337

     14   L      39             7.8682723   -0.119332419775    0.068999066591
     14   L      40             1.8812885   -0.160854151696    0.316423960957
     14   L      41             0.5442493    1.143456437840    0.744308290898

     15   L      42             0.1687145    1.000000000000    1.000000000000

 H         

     16   S      43            18.7311370    0.033494604338
     16   S      44             2.8253944    0.234726953484
     16   S      45             0.6401217    0.813757326146

     17   S      46             0.1612778    1.000000000000

 C         

     18   S      47          3047.5248800    0.001834737132
     18   S      48           457.3695180    0.014037322813
     18   S      49           103.9486850    0.068842622264
     18   S      50            29.2101553    0.232184443216
     18   S      51             9.2866630    0.467941348435
     18   S      52             3.1639270    0.362311985337

     19   L      53             7.8682723   -0.119332419775    0.068999066591
     19   L      54             1.8812885   -0.160854151696    0.316423960957
     19   L      55             0.5442493    1.143456437840    0.744308290898

     20   L      56             0.1687145    1.000000000000    1.000000000000

 H         

     21   S      57            18.7311370    0.033494604338
     21   S      58             2.8253944    0.234726953484
     21   S      59             0.6401217    0.813757326146

     22   S      60             0.1612778    1.000000000000

 H         

     23   S      61            18.7311370    0.033494604338
     23   S      62             2.8253944    0.234726953484
     23   S      63             0.6401217    0.813757326146

     24   S      64             0.1612778    1.000000000000

 TOTAL NUMBER OF BASIS SET SHELLS             =   24
 NUMBER OF CARTESIAN GAUSSIAN BASIS FUNCTIONS =   48
 NUMBER OF ELECTRONS                          =   30
 CHARGE OF MOLECULE                           =    0
 SPIN MULTIPLICITY                            =    1
 NUMBER OF OCCUPIED ORBITALS (ALPHA)          =   15
 NUMBER OF OCCUPIED ORBITALS (BETA )          =   15
 TOTAL NUMBER OF ATOMS                        =   10
 THE NUCLEAR REPULSION ENERGY IS      102.6054156196

     $CONTRL OPTIONS
     ---------------
 SCFTYP=MCSCF        RUNTYP=NACME        EXETYP=RUN     
 MPLEVL=       0     CITYP =NONE         CCTYP =NONE         VBTYP =NONE    
 DFTTYP=NONE         TDDFT =NONE    
 MULT  =       1     ICHARG=       0     NZVAR =       0     COORD =UNIQUE  
 PP    =NONE         RELWFN=NONE         LOCAL =NONE         NUMGRD=       F
 ISPHER=      -1     NOSYM =       0     MAXIT =      30     UNITS =BOHR    
 PLTORB=       F     MOLPLT=       F     AIMPAC=       F     FRIEND=        
 NPRINT=       7     IREST =       0     GEOM  =INPUT   
 NORMF =       0     NORMP =       0     ITOL  =      20     ICUT  =       9
 INTTYP=BEST         GRDTYP=BEST         QMTTOL= 1.0E-06

     $SYSTEM OPTIONS
     ---------------
  REPLICATED MEMORY=    15000000 WORDS (ON EVERY NODE).
 DISTRIBUTED MEMDDI=           5 MILLION WORDS IN AGGREGATE,
 MEMDDI DISTRIBUTED OVER   1 PROCESSORS IS     5000000 WORDS/PROCESSOR.
 TOTAL MEMORY REQUESTED ON EACH PROCESSOR=    20000000 WORDS.
 TIMLIM=      525600.00 MINUTES, OR     365.0 DAYS.
 PARALL= F  BALTYP=  DLB     KDIAG=    0  COREFL= F
 MXSEQ2=     300 MXSEQ3=     150  mem10=         0

          ----------------
          PROPERTIES INPUT
          ----------------

     MOMENTS            FIELD           POTENTIAL          DENSITY
 IEMOM =       1   IEFLD =       0   IEPOT =       0   IEDEN =       0
 WHERE =COMASS     WHERE =NUCLEI     WHERE =NUCLEI     WHERE =NUCLEI  
 OUTPUT=BOTH       OUTPUT=BOTH       OUTPUT=BOTH       OUTPUT=BOTH    
 IEMINT=       0   IEFINT=       0                     IEDINT=       0
                                                       MORB  =       0

     -------------------------------
     INTEGRAL TRANSFORMATION OPTIONS
     -------------------------------
     NWORD  =            0
     CUTOFF = 1.0E-09     MPTRAN =       0
     DIRTRF =       T     AOINTS =DUP     

          ----------------------
          MCSCF INPUT PARAMETERS
          ----------------------
 CONVERGER SELECTION: FOCAS = F  SOSCF = T  FULLNR = F  QUD = F  JACOBI = F
 SECULAR EQUATION METHOD CISTEP = ALDET   
 --- GENERAL INPUT OPTIONS:
 MAXIT =      60  MICIT =       5  ACURCY= 1.000E-05
 DAMP  =   0.000  CANONC=       T  ENGTOL= 1.000E-10
 EKT   =       F  NPUNCH=       2  NWORD =         0
 REGENERATE CI AFTER CONVERGENCE = NONE    
 DIABATIZATION AFTER CONVERGENCE =        F
 --- INPUT FOR SOSCF CONVERGER:
 FORS  =       T  NOFO  =       1

          ----------------------
          INTEGRAL INPUT OPTIONS
          ----------------------
 NOPK  =       1 NORDER=       0 SCHWRZ=       T

     ------------------------------------------
     THE POINT GROUP IS C1 , NAXIS= 0, ORDER= 1
     ------------------------------------------

     DIMENSIONS OF THE SYMMETRY SUBSPACES ARE
 A   =   48

 ..... DONE SETTING UP THE RUN .....
 STEP CPU TIME =     0.06 TOTAL CPU TIME =        0.1 (    0.0 MIN)
 TOTAL WALL CLOCK TIME=        0.1 SECONDS, CPU UTILIZATION IS 100.00%

     ------------------------------
     CPHF RESPONSE SOLUTION OPTIONS
     ------------------------------
     POLAR  =       F     NWORD  =       0
     CPHF   =MO      

          ********************
          1 ELECTRON INTEGRALS
          ********************
 TIME TO DO   DIPOLE INTEGRALS=      0.00
 ...... END OF ONE-ELECTRON INTEGRALS ......
 STEP CPU TIME =     0.01 TOTAL CPU TIME =        0.1 (    0.0 MIN)
 TOTAL WALL CLOCK TIME=        0.1 SECONDS, CPU UTILIZATION IS 100.00%

          -------------
          GUESS OPTIONS
          -------------
          GUESS =MOREAD            NORB  =      48          NORDER=       0
          MIX   =       F          PRTMO =       F          PUNMO =       F
          TOLZ  = 1.0E-08          TOLE  = 1.0E-05
          SYMDEN=       F          PURIFY=       T

 INITIAL GUESS ORBITALS GENERATED BY MOREAD   ROUTINE.
 ORBITAL PURIFICATION WILL OCCUR

 SYMMETRIES FOR INITIAL GUESS ORBITALS FOLLOW.   BOTH SET(S).
    15 ORBITALS ARE OCCUPIED (    4 CORE ORBITALS).
     1=A        2=A        3=A        4=A        5=A        6=A        7=A   
     8=A        9=A       10=A       11=A       12=A       13=A       14=A   
    15=A       16=A       17=A       18=A       19=A       20=A       21=A   
    22=A       23=A       24=A       25=A       26=A       27=A       28=A   
    29=A       30=A       31=A       32=A       33=A       34=A       35=A   
    36=A       37=A       38=A       39=A       40=A       41=A       42=A   
    43=A       44=A       45=A       46=A       47=A       48=A   
 ...... END OF INITIAL ORBITAL SELECTION ......
 STEP CPU TIME =     0.01 TOTAL CPU TIME =        0.1 (    0.0 MIN)
 TOTAL WALL CLOCK TIME=        0.1 SECONDS, CPU UTILIZATION IS 100.00%

                    ----------------------
                    AO INTEGRAL TECHNOLOGY
                    ----------------------
     S,P,L SHELL ROTATED AXIS INTEGRALS, REPROGRAMMED BY
        KAZUYA ISHIMURA (IMS) AND JOSE SIERRA (SYNSTAR).
     S,P,D,L SHELL ROTATED AXIS INTEGRALS PROGRAMMED BY
        KAZUYA ISHIMURA (INSTITUTE FOR MOLECULAR SCIENCE).
     S,P,D,F,G SHELL TO TOTAL QUARTET ANGULAR MOMENTUM SUM 5,
        ERIC PROGRAM BY GRAHAM FLETCHER (ELORET AND NASA ADVANCED
        SUPERCOMPUTING DIVISION, AMES RESEARCH CENTER).
     S,P,D,F,G,L SHELL GENERAL RYS QUADRATURE PROGRAMMED BY
        MICHEL DUPUIS (PACIFIC NORTHWEST NATIONAL LABORATORY).

          --------------------
          2 ELECTRON INTEGRALS
          --------------------

 DIRECT SCF METHOD SKIPS INTEGRAL STORAGE ON DISK.
 DIRECT TRANSFORMATION SKIPS AO INTEGRAL STORAGE ON DISK.
  ...... END OF TWO-ELECTRON INTEGRALS .....
 STEP CPU TIME =     0.01 TOTAL CPU TIME =        0.1 (    0.0 MIN)
 TOTAL WALL CLOCK TIME=        0.1 SECONDS, CPU UTILIZATION IS  69.23%

          -----------------
          MCSCF CALCULATION
          -----------------

 ----- NUCLEAR ENERGY ----- =       102.6054156196

     --------------------------------------------------
          AMES LABORATORY DETERMINANTAL FULL CI
     PROGRAM WRITTEN BY JOE IVANIC AND KLAUS RUEDENBERG
     --------------------------------------------------

 RUNTYP=NACME    INVOLVING AN ANALYTIC NUCLEAR GRADIENT
 HAS BEEN REQUESTED FOR A RUN AVERAGING OVER   3 STATES.
 THIS REQUIRES SOLUTION OF THE MULTI-REFERENCE RESPONSE EQUATIONS,
 REQUIRING MORE COMPUTER TIME THAN SINGLE STATE GRADIENTS.
 PROVIDING $CPMCHF INPUT MAY HELP RESPONSE SOLVING.

 THE POINT GROUP                  =   C1      
 THE STATE SYMMETRY               =   A       
 NUMBER OF CORE ORBITALS          =   13
 NUMBER OF ACTIVE ORBITALS        =    3
 NUMBER OF ALPHA ELECTRONS        =   15 (   2 ACTIVE)
 NUMBER OF BETA ELECTRONS         =   15 (   2 ACTIVE)
 NUMBER OF OCCUPIED ORBITALS      =   16
 NUMBER OF CI STATES REQUESTED    =    9
 NUMBER OF CI STARTING VECTORS    =    9
 MAX. NO. OF CI EXPANSION VECTORS =   18
 SIZE OF INITIAL CI GUESS MATRIX  =  300
 MAX. NO. OF CI ITERS/STATE       =  100
 CI DIAGONALIZATION CRITERION     = 1.00E-06
 PURE SPIN STATE AVERAGED 1E- AND 2E- DENSITY MATRIX OPTION=.T.
 STATE=   1 DM2 WEIGHT=   0.33333     STATE=   2 DM2 WEIGHT=   0.33333
 STATE=   3 DM2 WEIGHT=   0.33333
 STATE-AVERAGED MCSCF USING IROOT=  0 AS ITS STATE-SPECIFIC E

 CORRELATION ENERGY ANALYSIS      =    F

 SYMMETRIES FOR THE  13 CORE,   3 ACTIVE ARE

     CORE= A     A     A     A     A     A     A     A     A     A   
           A     A     A   

   ACTIVE= A     A     A   
 OPENING FILE DAFL30 WITH      81 LOGICAL RECORDS OF    2304 WORDS
 WITH A MAXIMUM OF         162 PHYSICAL RECORDS OF    2048 WORDS

 EVALUATING EXCHANGE INTEGRALS FOR DIRECT INTEGRAL TRANSFORMATION
 SCHWARZ INEQUALITY OVERHEAD:      1173 INTEGRALS, T=        0.01

          ------------------------------
          CASSCF INTEGRAL TRANSFORMATION
          ------------------------------
 AO INTEGRALS WILL BE CALCULATED IN DIRECT MODE...

 NUMBER OF CORE MOLECULAR ORBITALS     =    13
 NUMBER OF OCCUPIED MOLECULAR ORBITALS =    16
 TOTAL NUMBER OF MOLECULAR ORBITALS    =    48
 TOTAL NUMBER OF ATOMIC ORBITALS       =    48

 ----- CHOOSING THREE STEPS TRANSFORMATION -----
 NUMBER OF WORDS USED      =     286937
 NUMBER OF WORDS AVAILABLE =   15000000
 NUMBER OF PASSES          =          1
 DIRECT TRANSFORMATION SKIPS AO INTEGRAL STORAGE ON DISK.

 ----- NUCLEAR REPULSION ENERGY =    102.60541562
 ----- FROZEN CORE ENERGY       =   -254.24921198

 ... SYMMETRY ...           CPU =    0.00
 ... (PQ|RS) -> (PQ|KL) ... CPU =    0.10
 ... (PQ|KL) -> (IJ|KL) ... CPU =    0.00

 NUMBER OF (PQ|KL) INTEGRALS WRITTEN       6440
 NUMBER OF (IJ|KL) INTEGRALS WRITTEN         21
 ..... END OF CAS INTEGRAL TRANSFORMATION .....
 STEP CPU TIME =     0.11 TOTAL CPU TIME =        0.2 (    0.0 MIN)
 TOTAL WALL CLOCK TIME=        0.3 SECONDS, CPU UTILIZATION IS  71.43%

     --------------------------------------------------
          AMES LABORATORY DETERMINANTAL FULL CI
     PROGRAM WRITTEN BY JOE IVANIC AND KLAUS RUEDENBERG
     --------------------------------------------------

 THE NUMBER OF DETERMINANTS HAVING SPACE SYMMETRY A  
 IN POINT GROUP C1   WITH SZ=  0.0 IS              9
 WHICH INCLUDES              6 CSFS WITH S=  0.0
 WHICH INCLUDES              3 CSFS WITH S=  1.0
 THE DETERMINANT FULL CI REQUIRES          172680 WORDS
 SMALL CI MATRIX, JUST USING INCORE DIAGONALIZATION...

 CI EIGENVECTORS WILL BE LABELED IN GROUP=C1      
 PRINTING ALL NON-ZERO CI COEFFICIENTS

 STATE   1  ENERGY=      -154.8770960673  S=  0.00  SZ=  0.00  SPACE SYM=A   

 ALPH| BETA| CI COEFFICIENT
-----|-----|---------------
 110 | 110 |                                                                                                       0.9850147260
 101 | 101 |                                                                                                      -0.1579860486
 011 | 011 |                                                                                                      -0.0654847245
 011 | 110 |                                                                                                       0.0157820562
 110 | 011 |                                                                                                       0.0157820562
 011 | 101 |                                                                                                       0.0000327952
 101 | 011 |                                                                                                       0.0000327952
 101 | 110 |                                                                                                      -0.0000062113
 110 | 101 |                                                                                                      -0.0000062113

 STATE   2  ENERGY=      -154.7391462312  S=  1.00  SZ=  0.00  SPACE SYM=A   

 ALPH| BETA| CI COEFFICIENT
-----|-----|---------------
 110 | 101 |                                                                                                       0.6976745933
 101 | 110 |                                                                                                      -0.6976745933
 101 | 011 |                                                                                                      -0.1151092741
 011 | 101 |                                                                                                       0.1151092741
 110 | 011 |                                                                                                      -0.0001297267
 011 | 110 |                                                                                                       0.0001297267
 101 | 101 |                                                                                                       0.0000000000
 110 | 110 |                                                                                                      -0.0000000000
 011 | 011 |                                                                                                      -0.0000000000

 STATE   3  ENERGY=      -154.6134589701  S=  1.00  SZ=  0.00  SPACE SYM=A   

 ALPH| BETA| CI COEFFICIENT
-----|-----|---------------
 011 | 110 |                                                                                                       0.7071067541
 110 | 011 |                                                                                                      -0.7071067541
 011 | 101 |                                                                                                      -0.0001656445
 101 | 011 |                                                                                                       0.0001656445
 101 | 110 |                                                                                                       0.0001041509
 110 | 101 |                                                                                                      -0.0001041509
 110 | 110 |                                                                                                      -0.0000000000
 011 | 011 |                                                                                                       0.0000000000
 101 | 101 |                                                                                                      -0.0000000000

 STATE   4  ENERGY=      -154.5896363232  S=  0.00  SZ=  0.00  SPACE SYM=A   

 ALPH| BETA| CI COEFFICIENT
-----|-----|---------------
 101 | 110 |                                                                                                       0.6971785667
 110 | 101 |                                                                                                       0.6971785667
 011 | 101 |                                                                                                      -0.1180763938
 101 | 011 |                                                                                                      -0.1180763938
 110 | 011 |                                                                                                       0.0001059069
 011 | 110 |                                                                                                       0.0001059069
 110 | 110 |                                                                                                       0.0000135593
 011 | 011 |                                                                                                      -0.0000102545
 101 | 101 |                                                                                                       0.0000061089

 STATE   5  ENERGY=      -154.5737605611  S=  0.00  SZ=  0.00  SPACE SYM=A   

 ALPH| BETA| CI COEFFICIENT
-----|-----|---------------
 101 | 101 |                                                                                                       0.6102494552
 110 | 011 |                                                                                                      -0.5122366369
 011 | 110 |                                                                                                      -0.5122366369
 011 | 011 |                                                                                                      -0.3066005863
 110 | 110 |                                                                                                       0.0939087787
 011 | 101 |                                                                                                       0.0001723174
 101 | 011 |                                                                                                       0.0001723174
 101 | 110 |                                                                                                       0.0001011554
 110 | 101 |                                                                                                       0.0001011554

 STATE   6  ENERGY=      -154.4424724033  S=  1.00  SZ=  0.00  SPACE SYM=A   

 ALPH| BETA| CI COEFFICIENT
-----|-----|---------------
 011 | 101 |                                                                                                       0.6976745857
 101 | 011 |                                                                                                      -0.6976745857
 101 | 110 |                                                                                                       0.1151093001
 110 | 101 |                                                                                                      -0.1151093001
 011 | 110 |                                                                                                       0.0001464803
 110 | 011 |                                                                                                      -0.0001464803
 011 | 011 |                                                                                                       0.0000000000
 110 | 110 |                                                                                                      -0.0000000000
 101 | 101 |                                                                                                       0.0000000000

 STATE   7  ENERGY=      -154.3917191256  S=  0.00  SZ=  0.00  SPACE SYM=A   

 ALPH| BETA| CI COEFFICIENT
-----|-----|---------------
 101 | 101 |                                                                                                       0.6808946564
 110 | 011 |                                                                                                       0.4854363463
 011 | 110 |                                                                                                       0.4854363463
 011 | 011 |                                                                                                      -0.2430643286
 110 | 110 |                                                                                                       0.0774937565
 101 | 110 |                                                                                                      -0.0000899390
 110 | 101 |                                                                                                      -0.0000899390
 011 | 101 |                                                                                                      -0.0000630197
 101 | 011 |                                                                                                      -0.0000630197

 STATE   8  ENERGY=      -154.2180186913  S=  0.00  SZ=  0.00  SPACE SYM=A   

 ALPH| BETA| CI COEFFICIENT
-----|-----|---------------
 101 | 011 |                                                                                                       0.6971775622
 011 | 101 |                                                                                                       0.6971775622
 110 | 101 |                                                                                                       0.1180761793
 101 | 110 |                                                                                                       0.1180761793
 011 | 011 |                                                                                                      -0.0014900564
 101 | 101 |                                                                                                      -0.0007084506
 110 | 110 |                                                                                                      -0.0002658718
 011 | 110 |                                                                                                       0.0002574129
 110 | 011 |                                                                                                       0.0002574129

 STATE   9  ENERGY=      -154.1523153236  S=  0.00  SZ=  0.00  SPACE SYM=A   

 ALPH| BETA| CI COEFFICIENT
-----|-----|---------------
 011 | 011 |                                                                                                       0.9179462638
 101 | 101 |                                                                                                       0.3728511443
 110 | 110 |                                                                                                       0.1221547283
 011 | 110 |                                                                                                      -0.0414250015
 110 | 011 |                                                                                                      -0.0414250015
 101 | 011 |                                                                                                       0.0011735823
 011 | 101 |                                                                                                       0.0011735823
 110 | 101 |                                                                                                       0.0002089839
 101 | 110 |                                                                                                       0.0002089839
 ..... DONE WITH DETERMINANT CI COMPUTATION .....
 STEP CPU TIME =     0.00 TOTAL CPU TIME =        0.2 (    0.0 MIN)
 TOTAL WALL CLOCK TIME=        0.3 SECONDS, CPU UTILIZATION IS  62.50%

     --------------------------------------------------
      ONE AND TWO PARTICLE DENSITY MATRIX COMPUTATION
     PROGRAM WRITTEN BY JOE IVANIC AND KLAUS RUEDENBERG
     --------------------------------------------------

      30400 WORDS WILL BE USED TO FORM THE DENSITIES
 THE DENSITIES ARE STATE AVERAGED OVER   3 ROOT(S)
 STATE=   1   ENERGY=     -154.8770960673   WEIGHT= 0.33333   S=  0.00
 STATE=   4   ENERGY=     -154.5896363232   WEIGHT= 0.33333   S=  0.00
 STATE=   5   ENERGY=     -154.5737605611   WEIGHT= 0.33333   S=  0.00
 SIEVING THE A    SYMMETRY NONZERO DENSITY ELEMENTS IN GROUP C1      
         21 NONZERO DM2 ELEMENTS WRITTEN IN       1 RECORDS TO FILE 15
 ..... DONE WITH 1 AND 2 PARTICLE DENSITY MATRIX .....
 STEP CPU TIME =     0.00 TOTAL CPU TIME =        0.2 (    0.0 MIN)
 TOTAL WALL CLOCK TIME=        0.3 SECONDS, CPU UTILIZATION IS  60.61%

          --------------------------------------
          APPROXIMATE SECOND-ORDER MCSCF PROGRAM
          --------------------------------------
          PROGRAM WRITTEN BY G.CHABAN, A.MARQUEZ, AND M.DUPUIS

  NUMBER OF WORDS NEEDED     =      52141
  NUMBER AVAILABLE           =   15000000

 ----- GAMMA(IJKL)*(PQ|KL) PRODUCTS ----- CPU TIME =      0.000
 ----- ORBITAL SYMMETRY             ----- CPU TIME =      0.000
 ----- FOCK OPERATORS CONSTRUCTION  ----- CPU TIME =      0.070
 ----- WARNING : CORE-ACTIVE GAP    =    0.14098
     MICIT =   1 ASYMM =    0.026891 ROTMAX =    0.013735
 ----- EFFECTIVE FOCK + ROTATE ORBS ----- CPU TIME =      0.000
     MICIT =   2 ASYMM =    0.019432 ROTMAX =    0.003390
     MICIT =   3 ASYMM =    0.017596 ROTMAX =    0.004436
     MICIT =   4 ASYMM =    0.015198 ROTMAX =    0.004522
     MICIT =   5 ASYMM =    0.012753 ROTMAX =    0.003859
 ..... DONE WITH CASSCF ORBITAL UPDATE .....
 STEP CPU TIME =     0.08 TOTAL CPU TIME =        0.3 (    0.0 MIN)
 TOTAL WALL CLOCK TIME=        0.4 SECONDS, CPU UTILIZATION IS  68.29%

 ITER     TOTAL ENERGY      DEL(E)  LAGRANGIAN ASYMMETRY   SQCDF  MICIT   DAMP
   1     -154.680164317 -0.680164317  0.026891   17   15 1.374E-02  5   0.0000
       ----------START APPROXIMATE SECOND ORDER MCSCF----------
   2     -154.682506086 -0.002341768  0.011968   17   15 3.439E-04  1   0.0000
   3     -154.683103219 -0.000597133  0.006915   17   15 3.463E-04  1   0.0000
   4     -154.683274526 -0.000171307  0.000831   36   11 1.696E-06  1   0.0000
   5     -154.683277807 -0.000003281  0.000351   34   14 1.063E-07  1   0.0000
   6     -154.683278055 -0.000000248  0.000050   30   15 3.903E-09  1   0.0000
   7     -154.683278061 -0.000000006  0.000005   38   12 1.229E-10  1   0.0000

          --------------------
          LAGRANGIAN CONVERGED
          --------------------

 FINAL MCSCF ENERGY IS     -154.6832780610 AFTER   7 ITERATIONS

 -MCCI- BASED ON OPTIMIZED ORBITALS
 ----------------------------------

 PLEASE NOTE: IF THE ACTIVE ORBITALS ARE CANONICALIZED BELOW,
 THE FOLLOWING CI EXPANSION COEFFICIENTS AND THE DENSITY DO NOT
 CORRESPOND TO THE PRINTED ORBITALS.  THE PRINTED EXPANSIONS MATCH
 THE ORBITALS USED DURING THE LAST ITERATION.  IF YOU WISH TO SEE
 CI EXPANSIONS BASED ON THE CANONICAL (OR NATURAL) ORBITALS, YOU
 MUST RUN A CI CALCULATION WITH THAT ORBITAL CHOICE READ IN $VEC.

 CI EIGENVECTORS WILL BE LABELED IN GROUP=C1      
 PRINTING ALL NON-ZERO CI COEFFICIENTS

 STATE   1  ENERGY=      -154.8767596989  S=  0.00  SZ=  0.00  SPACE SYM=A   

 ALPH| BETA| CI COEFFICIENT
-----|-----|---------------
 110 | 110 |                                                                                                       0.9806791541
 101 | 101 |                                                                                                      -0.1814846155
 011 | 011 |                                                                                                      -0.0625945680
 110 | 011 |                                                                                                       0.0265861816
 011 | 110 |                                                                                                       0.0265861816
 101 | 011 |                                                                                                       0.0000215323
 011 | 101 |                                                                                                       0.0000215323
 101 | 110 |                                                                                                       0.0000066689
 110 | 101 |                                                                                                       0.0000066689

 STATE   2  ENERGY=      -154.7479303385  S=  1.00  SZ=  0.00  SPACE SYM=A   

 ALPH| BETA| CI COEFFICIENT
-----|-----|---------------
 110 | 101 |                                                                                                       0.6963904785
 101 | 110 |                                                                                                      -0.6963904785
 101 | 011 |                                                                                                      -0.1226388954
 011 | 101 |                                                                                                       0.1226388954
 011 | 110 |                                                                                                       0.0000535696
 110 | 011 |                                                                                                      -0.0000535696
 110 | 110 |                                                                                                       0.0000000000
 101 | 101 |                                                                                                      -0.0000000000
 011 | 011 |                                                                                                       0.0000000000

 STATE   3  ENERGY=      -154.6147348515  S=  1.00  SZ=  0.00  SPACE SYM=A   

 ALPH| BETA| CI COEFFICIENT
-----|-----|---------------
 011 | 110 |                                                                                                       0.7071067680
 110 | 011 |                                                                                                      -0.7071067680
 101 | 011 |                                                                                                       0.0001330667
 011 | 101 |                                                                                                      -0.0001330667
 110 | 101 |                                                                                                      -0.0000309600
 101 | 110 |                                                                                                       0.0000309600
 101 | 101 |                                                                                                      -0.0000000000
 011 | 011 |                                                                                                       0.0000000000
 110 | 110 |                                                                                                       0.0000000000

 STATE   4  ENERGY=      -154.5875111656  S=  0.00  SZ=  0.00  SPACE SYM=A   

 ALPH| BETA| CI COEFFICIENT
-----|-----|---------------
 101 | 110 |                                                                                                       0.6905058467
 110 | 101 |                                                                                                       0.6905058467
 101 | 011 |                                                                                                      -0.1523183965
 011 | 101 |                                                                                                      -0.1523183965
 011 | 110 |                                                                                                       0.0007164485
 110 | 011 |                                                                                                       0.0007164485
 101 | 101 |                                                                                                      -0.0006374898
 011 | 011 |                                                                                                       0.0003338643
 110 | 110 |                                                                                                      -0.0001382124

 STATE   5  ENERGY=      -154.5855633185  S=  0.00  SZ=  0.00  SPACE SYM=A   

 ALPH| BETA| CI COEFFICIENT
-----|-----|---------------
 101 | 101 |                                                                                                       0.6102520476
 110 | 011 |                                                                                                      -0.5094026383
 011 | 110 |                                                                                                      -0.5094026383
 011 | 011 |                                                                                                      -0.3065467527
 110 | 110 |                                                                                                       0.1209868963
 110 | 101 |                                                                                                       0.0008949397
 101 | 110 |                                                                                                       0.0008949397
 011 | 101 |                                                                                                      -0.0000068791
 101 | 011 |                                                                                                      -0.0000068791

 STATE   6  ENERGY=      -154.4477235834  S=  1.00  SZ=  0.00  SPACE SYM=A   

 ALPH| BETA| CI COEFFICIENT
-----|-----|---------------
 101 | 011 |                                                                                                       0.6963904678
 011 | 101 |                                                                                                      -0.6963904678
 110 | 101 |                                                                                                       0.1226389031
 101 | 110 |                                                                                                      -0.1226389031
 011 | 110 |                                                                                                      -0.0001256804
 110 | 011 |                                                                                                       0.0001256804
 101 | 101 |                                                                                                      -0.0000000000
 011 | 011 |                                                                                                       0.0000000000
 110 | 110 |                                                                                                      -0.0000000000

 STATE   7  ENERGY=      -154.3773420391  S=  0.00  SZ=  0.00  SPACE SYM=A   

 ALPH| BETA| CI COEFFICIENT
-----|-----|---------------
 101 | 101 |                                                                                                       0.6752065906
 110 | 011 |                                                                                                       0.4882544308
 011 | 110 |                                                                                                       0.4882544308
 011 | 011 |                                                                                                      -0.2458813129
 110 | 110 |                                                                                                       0.0827866420
 101 | 110 |                                                                                                      -0.0001290488
 110 | 101 |                                                                                                      -0.0001290488
 011 | 101 |                                                                                                      -0.0000084366
 101 | 011 |                                                                                                      -0.0000084366

 STATE   8  ENERGY=      -154.2223064549  S=  0.00  SZ=  0.00  SPACE SYM=A   

 ALPH| BETA| CI COEFFICIENT
-----|-----|---------------
 011 | 101 |                                                                                                       0.6905058300
 101 | 011 |                                                                                                       0.6905058300
 101 | 110 |                                                                                                       0.1523181477
 110 | 101 |                                                                                                       0.1523181477
 011 | 011 |                                                                                                      -0.0011219644
 101 | 101 |                                                                                                      -0.0006044149
 110 | 110 |                                                                                                      -0.0002270752
 011 | 110 |                                                                                                       0.0002068570
 110 | 011 |                                                                                                       0.0002068570

 STATE   9  ENERGY=      -154.1564904784  S=  0.00  SZ=  0.00  SPACE SYM=A   

 ALPH| BETA| CI COEFFICIENT
-----|-----|---------------
 011 | 011 |                                                                                                       0.9174159461
 101 | 101 |                                                                                                       0.3724930349
 110 | 110 |                                                                                                       0.1295255530
 011 | 110 |                                                                                                      -0.0375390692
 110 | 011 |                                                                                                      -0.0375390692
 011 | 101 |                                                                                                       0.0008968029
 101 | 011 |                                                                                                       0.0008968029
 101 | 110 |                                                                                                       0.0001998961
 110 | 101 |                                                                                                       0.0001998961

 DENSITY MATRIX OVER ACTIVE MO-S

             1           2           3

    1    1.7458077
    2    0.0000519   1.3964369
    3   -0.0091710   0.0000127   0.8577554

 FORMING THE "STANDARD FOCK OPERATOR" IN DIRECT AO INTEGRAL MODE...
    13 FILLED,    3 ACTIVE, AND   32 VIRTUAL ORBITALS  WILL BE CANONICALIZED

          ----------------------
          MCSCF NATURAL ORBITALS
          ----------------------

                      1          2          3          4          5
                  -11.2697   -11.2688   -11.2280   -11.2280    -1.0947
                     A          A          A          A          A   
    1  C  1  S    0.011053  -0.011601   0.166417   0.982012  -0.084978
    2  C  1  S   -0.000407   0.000235   0.003995   0.024182   0.168909
    3  C  1  X   -0.000181   0.000084   0.000106   0.000453   0.079410
    4  C  1  Y   -0.000000   0.000000   0.000000   0.000000   0.000000
    5  C  1  Z   -0.000055   0.000037   0.000039   0.000151   0.024287
    6  C  1  S    0.004763  -0.004067  -0.001308  -0.014918   0.121297
    7  C  1  X    0.002158  -0.001996   0.000449  -0.001702   0.007576
    8  C  1  Y    0.000000  -0.000000   0.000000  -0.000000   0.000000
    9  C  1  Z    0.000313   0.000228  -0.000069  -0.000557   0.004762
   10  C  2  S    0.705572  -0.703104  -0.002347  -0.016328  -0.135650
   11  C  2  S    0.017029  -0.018021  -0.000271  -0.001220   0.275667
   12  C  2  X   -0.000245   0.000018  -0.000086   0.000382   0.002218
   13  C  2  Y   -0.000000   0.000000   0.000000   0.000000  -0.000000
   14  C  2  Z   -0.000132   0.000279  -0.000024   0.000130  -0.053569
   15  C  2  S   -0.008986   0.016451   0.000215   0.005696   0.173150
   16  C  2  X    0.002443   0.001806   0.000506  -0.002421   0.017314
   17  C  2  Y    0.000000  -0.000000   0.000000  -0.000000   0.000000
   18  C  2  Z    0.001413  -0.002781   0.000528  -0.000729   0.007155
   19  H  3  S   -0.000073   0.000040  -0.000037  -0.000206   0.036307
   20  H  3  S    0.000305  -0.000222   0.000576   0.002413   0.003487
   21  H  4  S   -0.000175   0.000204  -0.000097  -0.000170   0.040708
   22  H  4  S   -0.000262   0.000338   0.000454   0.002494   0.008063
   23  H  5  S   -0.000328   0.000014  -0.000116  -0.000151   0.067369
   24  H  5  S    0.001101  -0.001470  -0.000302  -0.000092   0.007298
   25  C  6  S    0.702923   0.705751  -0.016213   0.003167  -0.135743
   26  C  6  S    0.016962   0.018086  -0.001242   0.000146   0.275859
   27  C  6  X    0.000245   0.000019  -0.000332   0.000207  -0.002057
   28  C  6  Y   -0.000000  -0.000000   0.000000   0.000000  -0.000000
   29  C  6  Z    0.000131   0.000280  -0.000115   0.000066   0.053609
   30  C  6  S   -0.008927  -0.016487   0.005452  -0.001675   0.173229
   31  C  6  X   -0.002450   0.001795   0.002120  -0.001276  -0.017286
   32  C  6  Y    0.000000   0.000000  -0.000000   0.000000   0.000000
   33  C  6  Z   -0.001404  -0.002787   0.000515  -0.000739  -0.007173
   34  H  7  S   -0.000328  -0.000015  -0.000180  -0.000060   0.067407
   35  H  7  S    0.001095   0.001474  -0.000186  -0.000255   0.007297
   36  C  8  S    0.011026   0.011659   0.982008  -0.166436  -0.085105
   37  C  8  S   -0.000406  -0.000236   0.024149  -0.004195   0.169159
   38  C  8  X    0.000181   0.000085  -0.000463   0.000049  -0.079519
   39  C  8  Y   -0.000000  -0.000000   0.000000  -0.000000   0.000000
   40  C  8  Z    0.000055   0.000037  -0.000156   0.000013  -0.024333
   41  C  8  S    0.004750   0.004087  -0.014520   0.003682   0.121464
   42  C  8  X   -0.002152  -0.002004   0.001461  -0.000985  -0.007585
   43  C  8  Y    0.000000   0.000000  -0.000000   0.000000   0.000000
   44  C  8  Z   -0.000313   0.000226   0.000549  -0.000119  -0.004749
   45  H  9  S   -0.000175  -0.000205  -0.000192  -0.000036   0.040766
   46  H  9  S   -0.000261  -0.000339   0.002504  -0.000393   0.008065
   47  H 10  S   -0.000073  -0.000040  -0.000206   0.000033   0.036367
   48  H 10  S    0.000304   0.000224   0.002468  -0.000252   0.003503

                      6          7          8          9         10
                   -0.9994    -0.8273    -0.7569    -0.6413    -0.6339
                     A          A          A          A          A   
    1  C  1  S   -0.125229  -0.112412   0.052312   0.024383  -0.010013
    2  C  1  S    0.247484   0.222196  -0.101464  -0.043887   0.018370
    3  C  1  X    0.073628  -0.070357   0.072574   0.285617  -0.015346
    4  C  1  Y    0.000000  -0.000000   0.000000   0.000001  -0.000001
    5  C  1  Z    0.035502  -0.002515   0.111904  -0.015273  -0.243389
    6  C  1  S    0.189905   0.227302  -0.120491  -0.094440   0.034266
    7  C  1  X    0.008654  -0.022514   0.017246   0.095632   0.002228
    8  C  1  Y    0.000000   0.000000   0.000000   0.000000  -0.000000
    9  C  1  Z   -0.007123   0.002996   0.029682  -0.022161  -0.101715
   10  C  2  S   -0.087607   0.068576  -0.081964  -0.033471   0.008246
   11  C  2  S    0.181426  -0.139473   0.167549   0.073863  -0.016119
   12  C  2  X   -0.145293  -0.188975   0.002954  -0.157298   0.184885
   13  C  2  Y   -0.000000  -0.000000   0.000000  -0.000000  -0.000000
   14  C  2  Z   -0.018771   0.012344   0.190475  -0.171427  -0.197488
   15  C  2  S    0.114494  -0.148753   0.186402   0.072335  -0.028780
   16  C  2  X   -0.029924  -0.043552   0.002115  -0.055487   0.058547
   17  C  2  Y   -0.000000  -0.000000   0.000000  -0.000000  -0.000000
   18  C  2  Z    0.013166  -0.006722   0.073325  -0.065035  -0.086214
   19  H  3  S    0.072408   0.118746  -0.045454  -0.164535  -0.063290
   20  H  3  S    0.021910   0.049381  -0.021107  -0.109404  -0.041328
   21  H  4  S    0.067474   0.100733  -0.109931  -0.045305   0.149351
   22  H  4  S    0.010755   0.042566  -0.063265  -0.034354   0.099245
   23  H  5  S    0.047254  -0.063042   0.173316  -0.073583  -0.107108
   24  H  5  S    0.005771  -0.018398   0.086322  -0.053730  -0.066352
   25  C  6  S    0.087467   0.068577   0.081977   0.033444   0.008301
   26  C  6  S   -0.181140  -0.139475  -0.167577  -0.073820  -0.016251
   27  C  6  X   -0.145389   0.188969   0.002936  -0.156965  -0.185366
   28  C  6  Y    0.000000  -0.000000  -0.000000   0.000000  -0.000000
   29  C  6  Z   -0.018731  -0.012356   0.190520  -0.172062   0.196918
   30  C  6  S   -0.114251  -0.148779  -0.186447  -0.072201  -0.028844
   31  C  6  X   -0.029923   0.043549   0.002103  -0.055358  -0.058730
   32  C  6  Y    0.000000  -0.000000  -0.000000   0.000000  -0.000000
   33  C  6  Z    0.013189   0.006710   0.073350  -0.065290   0.086003
   34  H  7  S   -0.047163  -0.063040  -0.173347   0.073949  -0.106798
   35  H  7  S   -0.005739  -0.018399  -0.086331   0.053964  -0.066129
   36  C  8  S    0.125176  -0.112379  -0.052328  -0.024352  -0.010069
   37  C  8  S   -0.247375   0.222131   0.101494   0.043826   0.018470
   38  C  8  X    0.073586   0.070357   0.072595   0.285791   0.016101
   39  C  8  Y   -0.000000  -0.000000  -0.000000  -0.000001  -0.000001
   40  C  8  Z    0.035506   0.002491   0.111987  -0.015924   0.243454
   41  C  8  S   -0.189837   0.227245   0.120544   0.094368   0.034512
   42  C  8  X    0.008651   0.022513   0.017243   0.095704  -0.001981
   43  C  8  Y   -0.000000  -0.000000  -0.000000  -0.000000  -0.000000
   44  C  8  Z   -0.007121  -0.003003   0.029708  -0.022442   0.101711
   45  H  9  S   -0.067439   0.100697   0.109991   0.044927   0.149526
   46  H  9  S   -0.010743   0.042549   0.063296   0.034118   0.099367
   47  H 10  S   -0.072387   0.118729   0.045455   0.164806  -0.062898
   48  H 10  S   -0.021905   0.049373   0.021111   0.109586  -0.041052

                     11         12         13         14         15
                   -0.5584    -0.5373    -0.4917     1.7459     1.3964
                     A          A          A          A          A   
    1  C  1  S   -0.014043  -0.003394   0.003158  -0.000000   0.000000
    2  C  1  S    0.038031   0.008746  -0.009333   0.000000  -0.000000
    3  C  1  X    0.300569  -0.023399   0.078674  -0.000000  -0.000001
    4  C  1  Y    0.000001   0.000001  -0.000000   0.218973   0.327193
    5  C  1  Z    0.034030   0.291321  -0.187894  -0.000000  -0.000001
    6  C  1  S   -0.002323  -0.001956   0.024854   0.000001  -0.000000
    7  C  1  X    0.100213  -0.031228   0.078172  -0.000000  -0.000001
    8  C  1  Y    0.000000   0.000000  -0.000000   0.160525   0.302443
    9  C  1  Z    0.006687   0.169913  -0.126631  -0.000000  -0.000001
   10  C  2  S   -0.002827   0.017963   0.015097  -0.000000  -0.000000
   11  C  2  S    0.012504  -0.036009  -0.034188   0.000000   0.000000
   12  C  2  X   -0.266312  -0.093192  -0.135019  -0.000001  -0.000000
   13  C  2  Y   -0.000001  -0.000000   0.000000   0.301331   0.202953
   14  C  2  Z   -0.146236  -0.111235   0.246770  -0.000001  -0.000000
   15  C  2  S   -0.011005  -0.045618  -0.043648  -0.000000   0.000000
   16  C  2  X   -0.105231  -0.015343  -0.029756  -0.000000  -0.000000
   17  C  2  Y   -0.000000  -0.000000   0.000000   0.214934   0.179466
   18  C  2  Z   -0.077290  -0.086261   0.182174  -0.000000  -0.000000
   19  H  3  S   -0.129124   0.134175  -0.135885  -0.000000   0.000000
   20  H  3  S   -0.110432   0.093829  -0.100097  -0.000000   0.000000
   21  H  4  S   -0.042167  -0.187201   0.130877   0.000000   0.000000
   22  H  4  S   -0.042634  -0.137269   0.110561  -0.000000   0.000000
   23  H  5  S   -0.118752  -0.105372   0.160535  -0.000000   0.000000
   24  H  5  S   -0.089635  -0.065162   0.125299  -0.000000   0.000000
   25  C  6  S   -0.002793  -0.017959   0.015096   0.000000   0.000000
   26  C  6  S    0.012434   0.036002  -0.034182   0.000000   0.000000
   27  C  6  X    0.266252  -0.092947   0.135030   0.000000  -0.000000
   28  C  6  Y   -0.000001   0.000000   0.000000   0.301376  -0.202951
   29  C  6  Z    0.146191  -0.111287  -0.246766   0.000001  -0.000000
   30  C  6  S   -0.011113   0.045635  -0.043702  -0.000000  -0.000001
   31  C  6  X    0.105168  -0.015220   0.029792  -0.000000  -0.000001
   32  C  6  Y   -0.000000   0.000000   0.000000   0.214952  -0.179416
   33  C  6  Z    0.077286  -0.086297  -0.182221   0.000000  -0.000000
   34  H  7  S   -0.118764   0.105386   0.160531  -0.000000  -0.000000
   35  H  7  S   -0.089630   0.065170   0.125284  -0.000000  -0.000000
   36  C  8  S   -0.014053   0.003385   0.003158  -0.000000  -0.000000
   37  C  8  S    0.038053  -0.008722  -0.009335   0.000000   0.000000
   38  C  8  X   -0.300378  -0.023568  -0.078667   0.000000  -0.000001
   39  C  8  Y    0.000001  -0.000001  -0.000000   0.219011  -0.327171
   40  C  8  Z   -0.034188   0.291230   0.187843   0.000000  -0.000001
   41  C  8  S   -0.002304   0.001955   0.024869   0.000001   0.000001
   42  C  8  X   -0.100116  -0.031298  -0.078185   0.000000  -0.000001
   43  C  8  Y    0.000000  -0.000000  -0.000000   0.160517  -0.302391
   44  C  8  Z   -0.006781   0.169910   0.126637   0.000000  -0.000001
   45  H  9  S   -0.042235   0.187140   0.130851   0.000000  -0.000000
   46  H  9  S   -0.042685   0.137202   0.110528  -0.000000  -0.000000
   47  H 10  S   -0.128956  -0.134225  -0.135864  -0.000000  -0.000000
   48  H 10  S   -0.110313  -0.093859  -0.100068  -0.000000  -0.000000

                     16
                    0.8577
                     A   
    1  C  1  S    0.000000
    2  C  1  S   -0.000000
    3  C  1  X   -0.000001
    4  C  1  Y    0.319039
    5  C  1  Z   -0.000001
    6  C  1  S   -0.000001
    7  C  1  X   -0.000000
    8  C  1  Y    0.485381
    9  C  1  Z   -0.000001
   10  C  2  S    0.000000
   11  C  2  S   -0.000000
   12  C  2  X    0.000000
   13  C  2  Y   -0.231119
   14  C  2  Z    0.000000
   15  C  2  S   -0.000001
   16  C  2  X    0.000000
   17  C  2  Y   -0.344397
   18  C  2  Z    0.000000
   19  H  3  S    0.000000
   20  H  3  S    0.000001
   21  H  4  S   -0.000000
   22  H  4  S    0.000000
   23  H  5  S    0.000000
   24  H  5  S    0.000001
   25  C  6  S    0.000000
   26  C  6  S   -0.000000
   27  C  6  X   -0.000000
   28  C  6  Y   -0.230994
   29  C  6  Z   -0.000000
   30  C  6  S   -0.000001
   31  C  6  X   -0.000001
   32  C  6  Y   -0.344269
   33  C  6  Z    0.000000
   34  H  7  S    0.000000
   35  H  7  S    0.000001
   36  C  8  S    0.000000
   37  C  8  S   -0.000000
   38  C  8  X    0.000001
   39  C  8  Y    0.318996
   40  C  8  Z    0.000001
   41  C  8  S   -0.000000
   42  C  8  X    0.000000
   43  C  8  Y    0.485326
   44  C  8  Z    0.000001
   45  H  9  S   -0.000000
   46  H  9  S    0.000000
   47  H 10  S    0.000000
   48  H 10  S    0.000001

          ------------------------
          MCSCF OPTIMIZED ORBITALS
          ------------------------

                      1          2          3          4          5
                  -11.2697   -11.2688   -11.2280   -11.2280    -1.0947
                     A          A          A          A          A   
    1  C  1  S    0.011053  -0.011601   0.166417   0.982012  -0.084978
    2  C  1  S   -0.000407   0.000235   0.003995   0.024182   0.168909
    3  C  1  X   -0.000181   0.000084   0.000106   0.000453   0.079410
    4  C  1  Y   -0.000000   0.000000   0.000000   0.000000   0.000000
    5  C  1  Z   -0.000055   0.000037   0.000039   0.000151   0.024287
    6  C  1  S    0.004763  -0.004067  -0.001308  -0.014918   0.121297
    7  C  1  X    0.002158  -0.001996   0.000449  -0.001702   0.007576
    8  C  1  Y    0.000000  -0.000000   0.000000  -0.000000   0.000000
    9  C  1  Z    0.000313   0.000228  -0.000069  -0.000557   0.004762
   10  C  2  S    0.705572  -0.703104  -0.002347  -0.016328  -0.135650
   11  C  2  S    0.017029  -0.018021  -0.000271  -0.001220   0.275667
   12  C  2  X   -0.000245   0.000018  -0.000086   0.000382   0.002218
   13  C  2  Y   -0.000000   0.000000   0.000000   0.000000  -0.000000
   14  C  2  Z   -0.000132   0.000279  -0.000024   0.000130  -0.053569
   15  C  2  S   -0.008986   0.016451   0.000215   0.005696   0.173150
   16  C  2  X    0.002443   0.001806   0.000506  -0.002421   0.017314
   17  C  2  Y    0.000000  -0.000000   0.000000  -0.000000   0.000000
   18  C  2  Z    0.001413  -0.002781   0.000528  -0.000729   0.007155
   19  H  3  S   -0.000073   0.000040  -0.000037  -0.000206   0.036307
   20  H  3  S    0.000305  -0.000222   0.000576   0.002413   0.003487
   21  H  4  S   -0.000175   0.000204  -0.000097  -0.000170   0.040708
   22  H  4  S   -0.000262   0.000338   0.000454   0.002494   0.008063
   23  H  5  S   -0.000328   0.000014  -0.000116  -0.000151   0.067369
   24  H  5  S    0.001101  -0.001470  -0.000302  -0.000092   0.007298
   25  C  6  S    0.702923   0.705751  -0.016213   0.003167  -0.135743
   26  C  6  S    0.016962   0.018086  -0.001242   0.000146   0.275859
   27  C  6  X    0.000245   0.000019  -0.000332   0.000207  -0.002057
   28  C  6  Y   -0.000000  -0.000000   0.000000   0.000000  -0.000000
   29  C  6  Z    0.000131   0.000280  -0.000115   0.000066   0.053609
   30  C  6  S   -0.008927  -0.016487   0.005452  -0.001675   0.173229
   31  C  6  X   -0.002450   0.001795   0.002120  -0.001276  -0.017286
   32  C  6  Y    0.000000   0.000000  -0.000000   0.000000   0.000000
   33  C  6  Z   -0.001404  -0.002787   0.000515  -0.000739  -0.007173
   34  H  7  S   -0.000328  -0.000015  -0.000180  -0.000060   0.067407
   35  H  7  S    0.001095   0.001474  -0.000186  -0.000255   0.007297
   36  C  8  S    0.011026   0.011659   0.982008  -0.166436  -0.085105
   37  C  8  S   -0.000406  -0.000236   0.024149  -0.004195   0.169159
   38  C  8  X    0.000181   0.000085  -0.000463   0.000049  -0.079519
   39  C  8  Y   -0.000000  -0.000000   0.000000  -0.000000   0.000000
   40  C  8  Z    0.000055   0.000037  -0.000156   0.000013  -0.024333
   41  C  8  S    0.004750   0.004087  -0.014520   0.003682   0.121464
   42  C  8  X   -0.002152  -0.002004   0.001461  -0.000985  -0.007585
   43  C  8  Y    0.000000   0.000000  -0.000000   0.000000   0.000000
   44  C  8  Z   -0.000313   0.000226   0.000549  -0.000119  -0.004749
   45  H  9  S   -0.000175  -0.000205  -0.000192  -0.000036   0.040766
   46  H  9  S   -0.000261  -0.000339   0.002504  -0.000393   0.008065
   47  H 10  S   -0.000073  -0.000040  -0.000206   0.000033   0.036367
   48  H 10  S    0.000304   0.000224   0.002468  -0.000252   0.003503

                      6          7          8          9         10
                   -0.9994    -0.8273    -0.7569    -0.6413    -0.6339
                     A          A          A          A          A   
    1  C  1  S   -0.125229  -0.112412   0.052312   0.024383  -0.010013
    2  C  1  S    0.247484   0.222196  -0.101464  -0.043887   0.018370
    3  C  1  X    0.073628  -0.070357   0.072574   0.285617  -0.015346
    4  C  1  Y    0.000000  -0.000000   0.000000   0.000001  -0.000001
    5  C  1  Z    0.035502  -0.002515   0.111904  -0.015273  -0.243389
    6  C  1  S    0.189905   0.227302  -0.120491  -0.094440   0.034266
    7  C  1  X    0.008654  -0.022514   0.017246   0.095632   0.002228
    8  C  1  Y    0.000000   0.000000   0.000000   0.000000  -0.000000
    9  C  1  Z   -0.007123   0.002996   0.029682  -0.022161  -0.101715
   10  C  2  S   -0.087607   0.068576  -0.081964  -0.033471   0.008246
   11  C  2  S    0.181426  -0.139473   0.167549   0.073863  -0.016119
   12  C  2  X   -0.145293  -0.188975   0.002954  -0.157298   0.184885
   13  C  2  Y   -0.000000  -0.000000   0.000000  -0.000000  -0.000000
   14  C  2  Z   -0.018771   0.012344   0.190475  -0.171427  -0.197488
   15  C  2  S    0.114494  -0.148753   0.186402   0.072335  -0.028780
   16  C  2  X   -0.029924  -0.043552   0.002115  -0.055487   0.058547
   17  C  2  Y   -0.000000  -0.000000   0.000000  -0.000000  -0.000000
   18  C  2  Z    0.013166  -0.006722   0.073325  -0.065035  -0.086214
   19  H  3  S    0.072408   0.118746  -0.045454  -0.164535  -0.063290
   20  H  3  S    0.021910   0.049381  -0.021107  -0.109404  -0.041328
   21  H  4  S    0.067474   0.100733  -0.109931  -0.045305   0.149351
   22  H  4  S    0.010755   0.042566  -0.063265  -0.034354   0.099245
   23  H  5  S    0.047254  -0.063042   0.173316  -0.073583  -0.107108
   24  H  5  S    0.005771  -0.018398   0.086322  -0.053730  -0.066352
   25  C  6  S    0.087467   0.068577   0.081977   0.033444   0.008301
   26  C  6  S   -0.181140  -0.139475  -0.167577  -0.073820  -0.016251
   27  C  6  X   -0.145389   0.188969   0.002936  -0.156965  -0.185366
   28  C  6  Y    0.000000  -0.000000  -0.000000   0.000000  -0.000000
   29  C  6  Z   -0.018731  -0.012356   0.190520  -0.172062   0.196918
   30  C  6  S   -0.114251  -0.148779  -0.186447  -0.072201  -0.028844
   31  C  6  X   -0.029923   0.043549   0.002103  -0.055358  -0.058730
   32  C  6  Y    0.000000  -0.000000  -0.000000   0.000000  -0.000000
   33  C  6  Z    0.013189   0.006710   0.073350  -0.065290   0.086003
   34  H  7  S   -0.047163  -0.063040  -0.173347   0.073949  -0.106798
   35  H  7  S   -0.005739  -0.018399  -0.086331   0.053964  -0.066129
   36  C  8  S    0.125176  -0.112379  -0.052328  -0.024352  -0.010069
   37  C  8  S   -0.247375   0.222131   0.101494   0.043826   0.018470
   38  C  8  X    0.073586   0.070357   0.072595   0.285791   0.016101
   39  C  8  Y   -0.000000  -0.000000  -0.000000  -0.000001  -0.000001
   40  C  8  Z    0.035506   0.002491   0.111987  -0.015924   0.243454
   41  C  8  S   -0.189837   0.227245   0.120544   0.094368   0.034512
   42  C  8  X    0.008651   0.022513   0.017243   0.095704  -0.001981
   43  C  8  Y   -0.000000  -0.000000  -0.000000  -0.000000  -0.000000
   44  C  8  Z   -0.007121  -0.003003   0.029708  -0.022442   0.101711
   45  H  9  S   -0.067439   0.100697   0.109991   0.044927   0.149526
   46  H  9  S   -0.010743   0.042549   0.063296   0.034118   0.099367
   47  H 10  S   -0.072387   0.118729   0.045455   0.164806  -0.062898
   48  H 10  S   -0.021905   0.049373   0.021111   0.109586  -0.041052

                     11         12         13         14         15
                   -0.5584    -0.5373    -0.4917    -0.3998    -0.2445
                     A          A          A          A          A   
    1  C  1  S   -0.014043  -0.003394   0.003158  -0.000000   0.000000
    2  C  1  S    0.038031   0.008746  -0.009333   0.000000  -0.000000
    3  C  1  X    0.300569  -0.023399   0.078674  -0.000000  -0.000001
    4  C  1  Y    0.000001   0.000001  -0.000000   0.207462   0.327215
    5  C  1  Z    0.034030   0.291321  -0.187894  -0.000000  -0.000001
    6  C  1  S   -0.002323  -0.001956   0.024854   0.000001  -0.000000
    7  C  1  X    0.100213  -0.031228   0.078172  -0.000000  -0.000001
    8  C  1  Y    0.000000   0.000000  -0.000000   0.143153   0.302448
    9  C  1  Z    0.006687   0.169913  -0.126631  -0.000000  -0.000001
   10  C  2  S   -0.002827   0.017963   0.015097  -0.000000  -0.000000
   11  C  2  S    0.012504  -0.036009  -0.034188   0.000000   0.000000
   12  C  2  X   -0.266312  -0.093192  -0.135019  -0.000001  -0.000000
   13  C  2  Y   -0.000001  -0.000000   0.000000   0.309308   0.203013
   14  C  2  Z   -0.146236  -0.111235   0.246770  -0.000001  -0.000000
   15  C  2  S   -0.011005  -0.045618  -0.043648  -0.000000   0.000000
   16  C  2  X   -0.105231  -0.015343  -0.029756  -0.000000  -0.000000
   17  C  2  Y   -0.000000  -0.000000   0.000000   0.226988   0.179516
   18  C  2  Z   -0.077290  -0.086261   0.182174  -0.000000  -0.000000
   19  H  3  S   -0.129124   0.134175  -0.135885  -0.000000   0.000000
   20  H  3  S   -0.110432   0.093829  -0.100097  -0.000000   0.000000
   21  H  4  S   -0.042167  -0.187201   0.130877   0.000000   0.000000
   22  H  4  S   -0.042634  -0.137269   0.110561  -0.000000   0.000000
   23  H  5  S   -0.118752  -0.105372   0.160535  -0.000000   0.000000
   24  H  5  S   -0.089635  -0.065162   0.125299  -0.000000   0.000000
   25  C  6  S   -0.002793  -0.017959   0.015096   0.000000   0.000000
   26  C  6  S    0.012434   0.036002  -0.034182   0.000000   0.000000
   27  C  6  X    0.266252  -0.092947   0.135030   0.000000  -0.000000
   28  C  6  Y   -0.000001   0.000000   0.000000   0.309415  -0.202891
   29  C  6  Z    0.146191  -0.111287  -0.246766   0.000001  -0.000000
   30  C  6  S   -0.011113   0.045635  -0.043702  -0.000000  -0.000001
   31  C  6  X    0.105168  -0.015220   0.029792   0.000000  -0.000001
   32  C  6  Y   -0.000000   0.000000   0.000000   0.227061  -0.179366
   33  C  6  Z    0.077286  -0.086297  -0.182221   0.000000  -0.000000
   34  H  7  S   -0.118764   0.105386   0.160531  -0.000000  -0.000000
   35  H  7  S   -0.089630   0.065170   0.125284  -0.000000  -0.000000
   36  C  8  S   -0.014053   0.003385   0.003158  -0.000000  -0.000000
   37  C  8  S    0.038053  -0.008722  -0.009335   0.000000   0.000000
   38  C  8  X   -0.300378  -0.023568  -0.078667   0.000000  -0.000001
   39  C  8  Y    0.000001  -0.000001  -0.000000   0.207609  -0.327149
   40  C  8  Z   -0.034188   0.291230   0.187843   0.000000  -0.000001
   41  C  8  S   -0.002304   0.001955   0.024869   0.000001   0.000001
   42  C  8  X   -0.100116  -0.031298  -0.078185  -0.000000  -0.000001
   43  C  8  Y    0.000000  -0.000000  -0.000000   0.143247  -0.302386
   44  C  8  Z   -0.006781   0.169910   0.126637   0.000000  -0.000001
   45  H  9  S   -0.042235   0.187140   0.130851   0.000000  -0.000000
   46  H  9  S   -0.042685   0.137202   0.110528  -0.000000  -0.000000
   47  H 10  S   -0.128956  -0.134225  -0.135864  -0.000000  -0.000000
   48  H 10  S   -0.110313  -0.093859  -0.100068  -0.000000  -0.000000

                     16         17         18         19         20
                    0.0160     0.2334     0.2515     0.2628     0.2730
                     A          A          A          A          A   
    1  C  1  S    0.000000  -0.000000   0.018623   0.045148  -0.091300
    2  C  1  S   -0.000000   0.000001  -0.017662  -0.035502   0.105146
    3  C  1  X   -0.000001  -0.000000  -0.019374   0.141729  -0.087629
    4  C  1  Y    0.326619   0.162892  -0.000001  -0.000000  -0.000001
    5  C  1  Z   -0.000001   0.000000   0.149735   0.013654  -0.003667
    6  C  1  S   -0.000001   0.000004  -0.276664  -0.867876   1.554385
    7  C  1  X   -0.000000  -0.000003   0.009178   0.508765  -0.453776
    8  C  1  Y    0.490782   0.514975  -0.000002  -0.000000  -0.000003
    9  C  1  Z   -0.000001   0.000002   0.417846   0.196983   0.055866
   10  C  2  S    0.000000  -0.000000  -0.039178   0.044128  -0.008517
   11  C  2  S   -0.000000  -0.000000   0.042545  -0.042732  -0.016500
   12  C  2  X    0.000000   0.000001  -0.000816  -0.018326   0.040010
   13  C  2  Y   -0.220274  -0.336101   0.000002   0.000000   0.000002
   14  C  2  Z    0.000000   0.000001   0.182166  -0.152024   0.042927
   15  C  2  S   -0.000001   0.000007   0.565477  -0.962987   0.545961
   16  C  2  X    0.000000   0.000004   0.009342  -0.051451   0.552224
   17  C  2  Y   -0.336547  -0.798023   0.000005   0.000001   0.000005
   18  C  2  Z    0.000000   0.000002   0.538315  -0.672346  -0.101798
   19  H  3  S    0.000000  -0.000000  -0.012443   0.037252  -0.023400
   20  H  3  S    0.000001  -0.000006  -0.292301   0.864594  -1.140527
   21  H  4  S   -0.000000   0.000000   0.018717  -0.018356  -0.019611
   22  H  4  S    0.000000   0.000001   0.788572   0.545520  -0.775609
   23  H  5  S    0.000000  -0.000001  -0.052846  -0.013564  -0.032662
   24  H  5  S    0.000001  -0.000006  -1.171241   1.067601  -0.262921
   25  C  6  S    0.000000   0.000000   0.039211   0.044116   0.008439
   26  C  6  S   -0.000000   0.000000  -0.042586  -0.042678   0.016563
   27  C  6  X   -0.000000   0.000001  -0.000806   0.018406   0.039938
   28  C  6  Y   -0.220164   0.336165  -0.000002  -0.000000  -0.000002
   29  C  6  Z   -0.000000   0.000002   0.182257   0.152013   0.042632
   30  C  6  S   -0.000001  -0.000009  -0.566028  -0.963610  -0.543992
   31  C  6  X   -0.000001   0.000003   0.009431   0.052427   0.552215
   32  C  6  Y   -0.336433   0.798195  -0.000005  -0.000001  -0.000005
   33  C  6  Z    0.000000   0.000002   0.538640   0.671930  -0.103120
   34  H  7  S    0.000000   0.000001   0.052866  -0.013534   0.032693
   35  H  7  S    0.000001   0.000007   1.171935   1.067459   0.260816
[...]

 ALPH| BETA| CI COEFFICIENT
-----|-----|---------------
 011 | 011 |                                                                                                       0.9191982006
 101 | 101 |                                                                                                       0.3724931264
 110 | 110 |                                                                                                       0.1277431577
 110 | 011 |                                                                                                      -0.0013367702
 011 | 110 |                                                                                                      -0.0013367702
 011 | 101 |                                                                                                       0.0008772666
 101 | 011 |                                                                                                       0.0008772666
 101 | 110 |                                                                                                       0.0002359110
 110 | 101 |                                                                                                       0.0002359110
 ..... DONE WITH DETERMINANT CI COMPUTATION .....
 STEP CPU TIME =     0.00 TOTAL CPU TIME =        1.3 (    0.0 MIN)
 TOTAL WALL CLOCK TIME=        2.0 SECONDS, CPU UTILIZATION IS  64.04%

     --------------------------------------------------
      ONE AND TWO PARTICLE DENSITY MATRIX COMPUTATION
     PROGRAM WRITTEN BY JOE IVANIC AND KLAUS RUEDENBERG
     --------------------------------------------------

      30400 WORDS WILL BE USED TO FORM THE DENSITIES
 THE DENSITIES ARE STATE AVERAGED OVER   3 ROOT(S)
 STATE=   1   ENERGY=     -154.8767598921   WEIGHT= 0.33333   S=  0.00
 STATE=   4   ENERGY=     -154.5875108174   WEIGHT= 0.33333   S=  0.00
 STATE=   5   ENERGY=     -154.5855634741   WEIGHT= 0.33333   S=  0.00
 SIEVING THE A    SYMMETRY NONZERO DENSITY ELEMENTS IN GROUP C1      
         21 NONZERO DM2 ELEMENTS WRITTEN IN       1 RECORDS TO FILE 15
 ..... DONE WITH 1 AND 2 PARTICLE DENSITY MATRIX .....
 STEP CPU TIME =     0.00 TOTAL CPU TIME =        1.3 (    0.0 MIN)
 TOTAL WALL CLOCK TIME=        2.0 SECONDS, CPU UTILIZATION IS  64.04%
 .....DONE WITH MCSCF ITERATIONS.....
 STEP CPU TIME =     0.00 TOTAL CPU TIME =        1.3 (    0.0 MIN)
 TOTAL WALL CLOCK TIME=        2.0 SECONDS, CPU UTILIZATION IS  64.04%
 DDI: Creating Array [0] - 2304 x 136 = 313344 words.
 DDI: Creating Array [1] - 32 x 2176 = 69632 words.
 DDI: Creating Array [2] - 136 x 136 = 18496 words.
 DDI: Creating Array [3] - 1176 x 136 = 159936 words.

     ----------------------------------------------------------------
     PROPERTY VALUES FOR THE MCSCF SELF-CONSISTENT FIELD WAVEFUNCTION
     ----------------------------------------------------------------

 THIS MCSCF AVERAGED   3 ROOTS OF DIFFERENT ENERGY.
 SINCE NO STATE-SPECIFIC DENSITY MATRIX IS AVAILABLE,
 PROPERTIES WILL NOT BE COMPUTED.


     --------------------------------------------
     PARTIAL TWO ELECTRON INTEGRAL TRANSFORMATION
     --------------------------------------------

 NUMBER OF CORE MOLECULAR ORBITALS     =    0
 NUMBER OF OCCUPIED MOLECULAR ORBITALS =   16
 TOTAL NUMBER OF MOLECULAR ORBITALS    =   48
 TOTAL NUMBER OF ATOMIC ORBITALS       =   48
 THRESHOLD FOR KEEPING TRANSFORMED 2E- INTEGRALS = 1.000E-09

 -------------------------------     ------------------------------
 DISTRIBUTED DATA TRANSFORMATION     PROGRAM WRITTEN BY G. FLETCHER
 -------------------------------     ------------------------------

 THE DISTRIBUTED MEMORY REQUIRED FOR THIS STEP IS MEMDDI=         1 MWORDS
 CREATING DISTRIBUTED STORAGE FOR [VIR OCC|VIR OCC] INTEGRALS
 CREATING DISTRIBUTED STORAGE FOR [VIR OCC|OCC OCC] INTEGRALS
 CREATING DISTRIBUTED STORAGE FOR [OCC OCC|OCC OCC] INTEGRALS
 CREATING DISTRIBUTED STORAGE FOR [VIR VIR|OCC OCC] INTEGRALS
 FOR    1 PROCESSORS, THE REPLICATED MEMORY NEEDED IS      108706 WORDS.
 SCHWARZ INEQUALITY OVERHEAD:      1173 INTEGRALS, T=        0.00

      DIRECT 4-INDEX TRANSFORMATION 
      SCHWARZ INEQUALITY TEST SKIPPED      12624 INTEGRAL BLOCKS
 ... END OF INTEGRAL TRANSFORMATION ...
 CPU     0: STEP CPU TIME=     0.25 TOTAL CPU TIME=        1.5 (    0.0 MIN)
 TOTAL WALL CLOCK TIME=        2.3 SECONDS, CPU UTILIZATION IS  67.69%

     ---------------------------------------------
     1ST AND 2ND INTEGRAL DERIVATIVE CONTRIBUTIONS
     ---------------------------------------------
 ...... END OF 1-ELECTRON GRAD+HESS+FOCKDER ......
 CPU     0: STEP CPU TIME=     0.01 TOTAL CPU TIME=        1.6 (    0.0 MIN)
 TOTAL WALL CLOCK TIME=        2.3 SECONDS, CPU UTILIZATION IS  67.83%

     ----------------------------------------------
     TWO ELECTRON INTEGRAL DERIVATIVE CONTRIBUTIONS
     ----------------------------------------------

     196828 WORDS REQUIRED,  15000000 WORDS AVAILABLE
 THE COARSE/FINE SCHWARZ SCREENINGS SKIPPED          0/      5757 BLOCKS.
 THE NUMBER OF DERIVATIVE INTEGRAL BLOCKS COMPUTED WAS     39273
 CPU     0: STEP CPU TIME=     2.67 TOTAL CPU TIME=        4.2 (    0.1 MIN)
 TOTAL WALL CLOCK TIME=        5.0 SECONDS, CPU UTILIZATION IS  84.60%
 ...... END OF 2-ELECTRON GRAD+HESS+LAGDER ......
 CPU     0: STEP CPU TIME=     0.00 TOTAL CPU TIME=        4.2 (    0.1 MIN)
 TOTAL WALL CLOCK TIME=        5.0 SECONDS, CPU UTILIZATION IS  84.60%
 COMPUTING NACME FOR STATE WITH E=     -154.8767598921 S=  0.0
 COMPUTING NACME FOR STATE WITH E=     -154.5875108174 S=  0.0
 COMPUTING NACME FOR STATE WITH E=     -154.5855634741 S=  0.0

     -------------------------------------------------
     COUPLED-PERTURBED MULTICONFIGURATION HARTREE-FOCK
     Z-VECTOR VERSION
     -------------------------------------------------

 SETTING UP RIGHT-HAND SIDE OF CPMCHF EQUATIONS.
 # OF WORDS REQUIRED  =     269673
 # OF WORDS AVAILABLE =   15000000
 NOTE THAT THE CP-MCHF DISTRIBUTED MEMORY REQUIREMENTS ARE JUST THE
 MEMORY NEEDED TO STORE TRANSFORMED INTEGRAL CLASSES (ALLOCATED ABOVE).

  --- DIPOLE MOMENTS (DEBYE) ---
  1,  1 :  DIPOLE   -0.000150   -0.000000    0.000098    0.000179
  1,  2 : TDIPOLE    6.694892    0.000002    1.010325    6.770697
  2,  2 :  DIPOLE   -0.002638    0.000002   -0.003733    0.004571
  1,  3 : TDIPOLE    0.007866    0.000008    0.001449    0.007999
  2,  3 : TDIPOLE    1.757688    0.000001    1.597160    2.374950
  3,  3 :  DIPOLE    0.006259   -0.000001    0.003416    0.007130

  --- OSCILLATOR STRENGTHS  ---

             1           2           3

    1    0.0000000
    2    1.3682844   0.0000000
    3    0.0000019   0.0011334   0.0000000


 CALCULATING MCSCF ELECTRONIC HESSIAN ON THE FLY.
 # OF ORBITAL ROTATIONS   =        551
 LENGTH OF DET. EXPANSION =          9

 SOLVING CPMCHF EQUATIONS - ESSENTIAL MEMORY.
 # OF WORDS REQUIRED  =     317141
 # OF WORDS AVAILABLE =   15000000
 DDI: Creating Array [4] - 1 x 1 = 1 words.
 DDI: Creating Array [5] - 1 x 1 = 1 words.
 DDI: Creating Array [6] - 1 x 1 = 1 words.
 DDI: Creating Array [7] - 1 x 1 = 1 words.

 MASTER NODE HAS FINISHED WITH (OO|OO) INTEGRALS, T=    0.0
 MASTER NODE HAS FINISHED WITH (VO|OO) INTEGRALS, T=    0.1
 MASTER NODE HAS FINISHED WITH (VV|OO) INTEGRALS, T=    0.0
 MASTER NODE HAS FINISHED WITH (VO|VO) INTEGRALS, T=    0.0

 FINISHED SETTING UP RIGHT-HAND SIDE.
 CPU     0: STEP CPU TIME=     0.14 TOTAL CPU TIME=        4.4 (    0.1 MIN)
 TOTAL WALL CLOCK TIME=        5.2 SECONDS, CPU UTILIZATION IS  84.20%

 SOLVING FOR    6 NUCLEAR RESPONSES AND 0 ELECTRIC FIELD RESPONSES

 SOLVING CPMCHF EQUATIONS - EXTRA SOLVER MEMORY.
 # OF WORDS REQUIRED  =       5265
 # OF WORDS AVAILABLE =   14682859

 PRECONDITIONED CONJUGATE GRADIENT SOLVER    CONV. TOLERANCE=1.00E-07
 ITER   RESPONSE ERROR    IMPROVED     ORB-ORB     CI-ORB
   1      4.42948E+00         6            0.0        0.0
 DUE TO LARGE RES. NORM, GUESS SET TO 0 VECTOR.
   1      4.26014E-02         6            0.0        0.0
   2      2.20174E+00         6            0.0        0.0
   3      7.16394E+00         6            0.0        0.0
   4      4.96627E+00         6            0.0        0.0
   5      5.12961E+00         6            0.0        0.0
   6      5.02744E+00         6            0.1        0.0
   7      5.09051E+00         6            0.0        0.0
   8      4.32401E+00         6            0.0        0.0
   9      2.98880E+00         6            0.0        0.0
  10      3.00934E+00         6            0.0        0.0
  11      2.52254E+00         6            0.0        0.0
  12      7.02303E-01         6            0.0        0.0
  13      7.67338E-01         6            0.0        0.0
  14      7.68616E-01         6            0.0        0.0
  15      4.20419E-01         6            0.0        0.0
  16      4.83489E-01         6            0.0        0.0
  17      2.51270E-01         6            0.0        0.0
  18      1.42172E-01         6            0.0        0.0
  19      8.95512E-02         6            0.0        0.0
  20      6.26252E-02         6            0.0        0.0
  21      4.11178E-02         6            0.0        0.0
  22      4.35516E-02         6            0.0        0.0
  23      4.47919E-02         6            0.0        0.0
  24      3.96924E-02         6            0.0        0.0
  25      2.81885E-02         6            0.0        0.0
  26      1.06312E-02         6            0.0        0.0
  27      9.34068E-03         6            0.0        0.0
  28      1.09287E-02         6            0.0        0.0
  29      7.75208E-03         6            0.0        0.0
  30      7.00744E-03         6            0.0        0.0
  31      6.47172E-03         6            0.0        0.0
  32      6.50936E-03         6            0.0        0.0
  33      5.80542E-03         6            0.0        0.0
  34      4.11389E-03         6            0.0        0.0
  35      2.91626E-03         6            0.0        0.0
  36      1.97649E-03         6            0.0        0.0
  37      1.99644E-03         6            0.0        0.0
  38      1.87336E-03         6            0.0        0.0
  39      8.48213E-04         6            0.0        0.0
  40      9.90749E-04         6            0.0        0.0
  41      8.89731E-04         6            0.0        0.0
  42      6.17867E-04         6            0.0        0.0
  43      6.00079E-04         6            0.0        0.0
  44      3.60673E-04         6            0.0        0.0
  45      3.74804E-04         6            0.0        0.0
  46      2.57610E-04         5            0.0        0.0
  47      2.22791E-04         5            0.0        0.0
  48      2.54216E-04         5            0.0        0.0
  49      2.48673E-04         5            0.0        0.0
 DUE TO SLOW CONVERGENCE, TOLERANCE HAS BEEN RAISED TO 3.00E-07
  50      1.46218E-04         3            0.0        0.0
  51      1.34452E-04         2            0.0        0.0
  52      1.24831E-04         2            0.0        0.0
  53      7.39686E-05         1            0.0        0.0
  54      5.37826E-05         1            0.0        0.0
  55      5.64905E-05         1            0.0        0.0
  56      5.17018E-05         1            0.0        0.0
  57      5.28298E-05         1            0.0        0.0
  58      2.21581E-05         1            0.0        0.0
  59      1.70814E-05         1            0.0        0.0
  60      1.25365E-05         1            0.0        0.0
  61      1.02283E-05         1            0.0        0.0
  62      8.33048E-06         1            0.0        0.0
  63      8.19718E-06         1            0.0        0.0
  64      6.19334E-06         1            0.0        0.0
  65      4.10721E-06         1            0.0        0.0
  66      3.37437E-06         1            0.0        0.0
  67      2.78761E-06         1            0.0        0.0
  68      2.09134E-06         1            0.0        0.0
  69      2.25262E-06         1            0.0        0.0
  70      1.79940E-06         1            0.0        0.0
  71      1.68424E-06         1            0.0        0.0
  72      1.28348E-06         1            0.0        0.0
  73      7.80473E-07         1            0.0        0.0
  74      6.21490E-07         1            0.0        0.0
  75      6.09172E-07         1            0.0        0.0
  76      4.57538E-07         1            0.0        0.0
  77      4.96714E-07         1            0.0        0.0
  78      3.20025E-07         1            0.0        0.0
  79      2.54279E-07         0            0.0        0.0
 RESET PDIRX AND RESIDUAL.
  80      2.89923E-07         0            0.0        0.0
 *** CAUTION! *** 
 RESPONSES CONVERGED AFTER  80 ITERATIONS,
 BUT ONLY TO WITHIN AN INCREASED CONVERGENCE TOLERANCE

 STATE-SPECIFIC GRADIENT OF STATE   1 (OVERALL STATE   1)
 ENERGY=     -154.8767598921 SPIN=  0.00 WEIGHT= 0.333333

 UNITS ARE HARTREE/BOHR    E'X               E'Y               E'Z 
    1 C               -0.006816363      -0.000000130      -0.001487087
    2 C                0.000033840       0.000000132       0.002859470
    3 H               -0.012256705       0.000000031       0.008058348
    4 H               -0.002820959      -0.000000042      -0.014347878
    5 H                0.002621515       0.000000017       0.014894941
    6 C                0.000175786       0.000000056      -0.002780617
    7 H               -0.002618040       0.000000026      -0.014894136
    8 C                0.006641938       0.000000014       0.001416953
    9 H                0.002802580      -0.000000090       0.014348253
   10 H                0.012236408      -0.000000015      -0.008068247

 STATE-SPECIFIC GRADIENT OF STATE   2 (OVERALL STATE   4)
 ENERGY=     -154.5875108174 SPIN=  0.00 WEIGHT= 0.333333

 UNITS ARE HARTREE/BOHR    E'X               E'Y               E'Z 
    1 C                0.074476423       0.000000081       0.026880781
    2 C               -0.099613549      -0.000000134       0.000426052
    3 H               -0.013689141      -0.000000036       0.009429854
    4 H               -0.002622967       0.000000040      -0.016346112
    5 H                0.001323502       0.000000063       0.015930373
    6 C                0.099816761      -0.000000192      -0.000437247
    7 H               -0.001331549       0.000000077      -0.015920016
    8 C               -0.074643693       0.000000166      -0.026881516
    9 H                0.002615511       0.000000003       0.016356461
   10 H                0.013668702      -0.000000069      -0.009438629

 STATE-SPECIFIC GRADIENT OF STATE   3 (OVERALL STATE   5)
 ENERGY=     -154.5855634741 SPIN=  0.00 WEIGHT= 0.333333

 UNITS ARE HARTREE/BOHR    E'X               E'Y               E'Z 
    1 C                0.134722110       0.000000247       0.048244334
    2 C               -0.165727968      -0.000000224      -0.009163848
    3 H               -0.013421028      -0.000000055       0.009863353
    4 H               -0.002243488      -0.000000002      -0.016637535
    5 H                0.000330148       0.000000048       0.015966812
    6 C                0.165980041      -0.000000238       0.009341352
    7 H               -0.000316847       0.000000062      -0.015976199
    8 C               -0.134934202       0.000000245      -0.048391345
    9 H                0.002212487      -0.000000016       0.016629350
   10 H                0.013398747      -0.000000068      -0.009876274

 NACME FOR STATE J->I HAVE OPPOSITE SIGN TO THE NACME CONNECTING STATE I->J,
 SO ONLY NACME FOR I>J ARE PRINTED, FOR STATES WITH SPIN QUANTUM NO. S=  0.00

 NONADIABATIC COUPLING MATRIX ELEMENT (NACME), IN ONE/BOHR
 <STATE  2, WEIGHT=   0.33333 | D/DQ | STATE  1, WEIGHT=   0.33333>
   ATOM               D/DX           D/DY           D/DZ
    1 C               0.1001853      0.0000003      0.0135621
    2 C               0.1464138      0.0000008      0.0389257
    3 H              -0.0034607     -0.0000002     -0.0007492
    4 H              -0.0022529     -0.0000000     -0.0007664
    5 H              -0.0019672      0.0000000     -0.0099988
    6 C               0.1475105     -0.0000008      0.0387671
    7 H              -0.0019601     -0.0000001     -0.0099949
    8 C               0.0999172      0.0000001      0.0134205
    9 H              -0.0022499     -0.0000000     -0.0007661
   10 H              -0.0034675      0.0000001     -0.0007486

 NONADIABATIC COUPLING MATRIX ELEMENT (NACME), IN ONE/BOHR
 <STATE  3, WEIGHT=   0.33333 | D/DQ | STATE  1, WEIGHT=   0.33333>
   ATOM               D/DX           D/DY           D/DZ
    1 C              -0.0843234      0.0000000     -0.0433979
    2 C               0.4279145      0.0000007     -0.0517962
    3 H              -0.0040878      0.0000000     -0.0014177
    4 H              -0.0013982      0.0000000      0.0007736
    5 H              -0.0008683     -0.0000003      0.0016914
    6 C              -0.4275972      0.0000005      0.0519008
    7 H               0.0008639     -0.0000003     -0.0017158
    8 C               0.0845778      0.0000000      0.0434416
    9 H               0.0013879      0.0000000     -0.0007767
   10 H               0.0040788     -0.0000000      0.0014141

 NONADIABATIC COUPLING MATRIX ELEMENT (NACME), IN ONE/BOHR
 <STATE  3, WEIGHT=   0.33333 | D/DQ | STATE  2, WEIGHT=   0.33333>
   ATOM               D/DX           D/DY           D/DZ
    1 C               0.5341430     -0.0000305     -6.5442219
    2 C              -0.2306884      0.0001410      8.8154966
    3 H              -0.1318421     -0.0000235     -0.1516366
    4 H              -1.2258823      0.0000132     -1.0493902
    5 H               1.0973913     -0.0000071     -1.0547736
    6 C              -0.2998154     -0.0001213      8.7920844
    7 H               1.0967461      0.0000009     -1.0548838
    8 C               0.6057817      0.0000030     -6.5186526
    9 H              -1.2248543     -0.0000059     -1.0493313
   10 H              -0.1305216      0.0000301     -0.1510436

 TOTAL REPLICATED MEMORY USED FOR NACME RESPONSES=       322406 WORDS.
 FREEING DISTRIBUTED STORAGE FOR [VIR VIR|OCC OCC] INTEGRALS
 FREEING DISTRIBUTED STORAGE FOR [OCC OCC|OCC OCC] INTEGRALS
 FREEING DISTRIBUTED STORAGE FOR [VIR OCC|OCC OCC] INTEGRALS
 FREEING DISTRIBUTED STORAGE FOR [VIR OCC|VIR OCC] INTEGRALS

 ...... DONE WITH CPMCHF EQUATIONS ......
 CPU     0: STEP CPU TIME=     2.81 TOTAL CPU TIME=        7.2 (    0.1 MIN)
 TOTAL WALL CLOCK TIME=        8.0 SECONDS, CPU UTILIZATION IS  89.41%
               580000  WORDS OF DYNAMIC MEMORY USED
 EXECUTION OF GAMESS TERMINATED NORMALLY Mon Nov 28 21:25:44 2016
 DDI: 4754936 bytes (4.5 MB / 0 MWords) used by master data server.

 ----------------------------------------
 CPU timing information for all processes
 ========================================
 0: 6.976 + 0.211 = 7.188
 ----------------------------------------
 ddikick.x: exited gracefully.
unset echo
----- accounting info -----
Files used on the master node compute-3-0 were:
-rw-rw-r-- 1 sarom sarom   51408 Nov 29  2016 .//mc-nacme-buta.dat
-rw-rw-r-- 1 sarom sarom   42581 Nov 29  2016 .//mc-nacme-buta.F05
-rw-rw-r-- 1 sarom sarom    9416 Nov 29  2016 .//mc-nacme-buta.F09
-rw-rw-r-- 1 sarom sarom 2323120 Nov 29  2016 .//mc-nacme-buta.F10
-rw-rw-r-- 1 sarom sarom     744 Nov 29  2016 .//mc-nacme-buta.F12
-rw-rw-r-- 1 sarom sarom   64616 Nov 29  2016 .//mc-nacme-buta.F13
-rw-rw-r-- 1 sarom sarom  181112 Nov 29  2016 .//mc-nacme-buta.F15
-rw-rw-r-- 1 sarom sarom  553200 Nov 29  2016 .//mc-nacme-buta.F18
-rw-rw-r-- 1 sarom sarom    6720 Nov 29  2016 .//mc-nacme-buta.F19
-rw-rw-r-- 1 sarom sarom   66240 Nov 29  2016 .//mc-nacme-buta.F23
-rw-rw-r-- 1 sarom sarom   42581 Nov 27 05:47 .//mc-nacme-buta.inp
-rw-rw-r-- 1 sarom sarom  132910 Nov 29  2016 .//mc-nacme-buta.log
Mon Nov 28 21:25:47 CST 2016
0.212u 0.267s 0:11.59 4.0%	0+0k 0+216io 0pf+0w
