-catch_rsh /opt/gridengine/default/spool/compute-0-2/active_jobs/23906.1/pe_hostfile
compute-0-2
The primary node assigned by SGE to this run is compute-0-2
Warning: no access to tty (Bad file descriptor).
Thus no job control in this shell.
Deleting shmid=3964928.
Deleting shmid=3997697.
Deleting shmid=4227074.
source /home/sarom/gamess.github.2017-05-31.14.06/install.info
setenv GMS_PATH /home/sarom/gamess.github.2017-05-31.14.06
setenv GMS_BUILD_DIR /home/sarom/gamess.github.2017-05-31.14.06
setenv GMS_TARGET linux64
setenv GMS_FORTRAN gfortran
setenv GMS_GFORTRAN_VERNO 4.4
setenv GMS_MATHLIB mkl-so
setenv GMS_MATHLIB_PATH /share/apps/intel/compilers_and_libraries_2017.1.132/linux/mkl/lib/intel64
setenv GMS_MKL_VERNO 12
setenv GMS_DDI_COMM sockets
setenv GMS_LIBCCHEM false
setenv GMS_EIGEN_PATH
setenv GMS_PHI false
setenv GMS_SHMTYPE sysv
setenv GMS_OPENMP false
unset echo
mc-nacme-h2cph
tests/mcscf/nacme
----- GAMESS execution script 'rungms' -----
This job is running on host compute-0-2.local
under operating system Linux at Fri Jun 2 03:59:27 CDT 2017
Available scratch disk space (Kbyte units) at beginning of the job is
Filesystem           1K-blocks      Used Available Use% Mounted on
/dev/sda1             16126920   3867312  11440408  26% /
GAMESS temporary binary files will be written to /scratch
GAMESS supplementary output files will be written to /home/sarom/restart
Copying input file mc-nacme-h2cph.inp to your run's scratch directory...
cp tests/mcscf/nacme/mc-nacme-h2cph.inp /scratch/mc-nacme-h2cph.F05
unset echo
The generated host list is
compute-0-2.local
/home/sarom/gamess.github.2017-05-31.14.06/ddikick.x /home/sarom/gamess.github.2017-05-31.14.06/gamess.00.x mc-nacme-h2cph -ddi 1 1 compute-0-2.local -scr /scratch

 Distributed Data Interface kickoff program.
 Initiating 1 compute processes on 1 nodes to run the following command:
 /home/sarom/gamess.github.2017-05-31.14.06/gamess.00.x mc-nacme-h2cph 

          ******************************************************
          *         GAMESS VERSION = 20 APR 2017 (R1)          *
          *             FROM IOWA STATE UNIVERSITY             *
          * M.W.SCHMIDT, K.K.BALDRIDGE, J.A.BOATZ, S.T.ELBERT, *
          *   M.S.GORDON, J.H.JENSEN, S.KOSEKI, N.MATSUNAGA,   *
          *          K.A.NGUYEN, S.J.SU, T.L.WINDUS,           *
          *       TOGETHER WITH M.DUPUIS, J.A.MONTGOMERY       *
          *         J.COMPUT.CHEM.  14, 1347-1363(1993)        *
          **************** 64 BIT LINUX VERSION ****************

  SINCE 1993, STUDENTS AND POSTDOCS WORKING AT IOWA STATE UNIVERSITY
  AND ALSO IN THEIR VARIOUS JOBS AFTER LEAVING ISU HAVE MADE IMPORTANT
  CONTRIBUTIONS TO THE CODE:
     IVANA ADAMOVIC, CHRISTINE AIKENS, YURI ALEXEEV, POOJA ARORA,
     ANDREY ASADCHEV, ROB BELL, PRADIPTA BANDYOPADHYAY, JONATHAN BENTZ,
     BRETT BODE, KURT BRORSEN, CALEB CARLIN, GALINA CHABAN, WEI CHEN,
     CHEOL HO CHOI, PAUL DAY, ALBERT DEFUSCO, NUWAN DESILVA, TIM DUDLEY,
     DMITRI FEDOROV, GRAHAM FLETCHER, MARK FREITAG, KURT GLAESEMANN,
     DAN KEMP, GRANT MERRILL, NORIYUKI MINEZAWA, JONATHAN MULLIN,
     TAKESHI NAGATA, SEAN NEDD, HEATHER NETZLOFF, BOSILJKA NJEGIC, RYAN OLSON,
     MIKE PAK, SPENCER PRUITT, LUKE ROSKOP, JIM SHOEMAKER, LYUDMILA SLIPCHENKO,
     TONY SMITH, SAROM SOK LEANG, JIE SONG, TETSUYA TAKETSUGU, SIMON WEBB,
     PENG XU, SOOHAENG YOO, FEDERICO ZAHARIEV

  ADDITIONAL CODE HAS BEEN PROVIDED BY COLLABORATORS IN OTHER GROUPS:
     IOWA STATE UNIVERSITY:
          JOE IVANIC, AARON WEST, LAIMUTIS BYTAUTAS, KLAUS RUEDENBERG
     UNIVERSITY OF TOKYO: KIMIHIKO HIRAO, TAKAHITO NAKAJIMA,
          TAKAO TSUNEDA, MUNEAKI KAMIYA, SUSUMU YANAGISAWA,
          KIYOSHI YAGI, MAHITO CHIBA, SEIKEN TOKURA, NAOAKI KAWAKAMI
     UNIVERSITY OF AARHUS: FRANK JENSEN
     UNIVERSITY OF IOWA: VISVALDAS KAIRYS, HUI LI
     NATIONAL INST. OF STANDARDS AND TECHNOLOGY: WALT STEVENS, DAVID GARMER
     UNIVERSITY OF PISA: BENEDETTA MENNUCCI, JACOPO TOMASI
     UNIVERSITY OF MEMPHIS: HENRY KURTZ, PRAKASHAN KORAMBATH
     UNIVERSITY OF ALBERTA: TOBY ZENG, MARIUSZ KLOBUKOWSKI
     UNIVERSITY OF NEW ENGLAND: MARK SPACKMAN
     MIE UNIVERSITY: HIROAKI UMEDA
     NAT. INST. OF ADVANCED INDUSTRIAL SCIENCE AND TECHNOLOGY: KAZUO KITAURA
     MICHIGAN STATE UNIVERSITY:
          KAROL KOWALSKI, MARTA WLOCH, JEFFREY GOUR, JESSE LUTZ,
          WEI LI, PIOTR PIECUCH
     UNIVERSITY OF SILESIA: MONIKA MUSIAL, STANISLAW KUCHARSKI
     FACULTES UNIVERSITAIRES NOTRE-DAME DE LA PAIX:
          OLIVIER QUINET, BENOIT CHAMPAGNE
     UNIVERSITY OF CALIFORNIA - SANTA BARBARA: BERNARD KIRTMAN
     INSTITUTE FOR MOLECULAR SCIENCE:
          KAZUYA ISHIMURA, MICHIO KATOUDA, AND SHIGERU NAGASE
     UNIVERSITY OF NOTRE DAME: ANNA POMOGAEVA, DAN CHIPMAN
     KYUSHU UNIVERSITY:
          HARUYUKI NAKANO,
          FENG LONG GU, JACEK KORCHOWIEC, MARCIN MAKOWSKI, AND YURIKO AOKI,
          HIROTOSHI MORI AND EISAKU MIYOSHI
     PENNSYLVANIA STATE UNIVERSITY:
          TZVETELIN IORDANOV, CHET SWALINA, JONATHAN SKONE,
          SHARON HAMMES-SCHIFFER
     WASEDA UNIVERSITY:
          MASATO KOBAYASHI, TOMOKO AKAMA, TSUGUKI TOUMA,
          TAKESHI YOSHIKAWA, YASUHIRO IKABATA, JUNJI SEINO,
          YUYA NAKAJIMA, HIROMI NAKAI
     NANJING UNIVERSITY: SHUHUA LI
     UNIVERSITY OF NEBRASKA:
          PEIFENG SU, DEJUN SI, NANDUN THELLAMUREGE, YALI WANG, HUI LI
     UNIVERSITY OF ZURICH: ROBERTO PEVERATI, KIM BALDRIDGE
     N. COPERNICUS UNIVERSITY AND JACKSON STATE UNIVERSITY:
          MARIA BARYSZ
     UNIVERSITY OF COPENHAGEN: Jimmy Kromann, CASPER STEINMANN
     TOKYO INSTITUTE OF TECHNOLOGY: HIROYA NAKATA
     NAGOYA UNIVERSITY: YOSHIO NISHIMOTO, STEPHAN IRLE
     MOSCOW STATE UNIVERSITY: VLADIMIR MIRONOV

 EXECUTION OF GAMESS BEGUN Fri Jun  2 03:59:27 2017

            ECHO OF THE FIRST FEW INPUT CARDS -
 INPUT CARD>!   H2CPH...test of NACME/SA-MCSCF gradient program                             
 INPUT CARD>!                                                                               
 INPUT CARD>!   The MCSCF ran for 2 iterations, the CP-MCHF for 44 iterations               
 INPUT CARD>!   other results are below, a key result is                                    
 INPUT CARD>!       NONADIABATIC COUPLING MATRIX ELEMENT (NACME), IN ONE/BOHR               
 INPUT CARD>!       <STATE  2, WEIGHT=   0.50000 | D/DQ | STATE  1, WEIGHT=   0.50000>      
 INPUT CARD>!         ATOM               D/DX           D/DY           D/DZ                 
 INPUT CARD>!          1 H               0.0000001      0.0000000      0.6628457            
 INPUT CARD>!          2 P               0.0000000     -0.0000001     -0.9820587            
 INPUT CARD>!          3 C               0.0000000      0.0000001      0.2834682            
 INPUT CARD>!          4 H              -0.0073873     -0.3266986     -0.0133533            
 INPUT CARD>!          5 H               0.0073874      0.3266986     -0.0133533            
 INPUT CARD>!                                                                               
 INPUT CARD>!   This run takes 7 seconds on 2.66 GHz Cloverton (13 Feb 2012)                
 INPUT CARD>!                                                                               
 INPUT CARD>!   ------------------------------------------------------------------          
 INPUT CARD>!   MCSCF energies are, states 2+3 go into the singlet NACME:                   
 INPUT CARD>!   STATE   1  ENERGY=  -380.2647728517  S=  1.00  SZ=   .00  SPACE SYM=A       
 INPUT CARD>!   STATE   2  ENERGY=  -380.2631924735  S=   .00  SZ=   .00  SPACE SYM=A       
 INPUT CARD>!   STATE   3  ENERGY=  -380.2052283934  S=   .00  SZ=   .00  SPACE SYM=A       
 INPUT CARD>!   MOLPRO's E=         -380.26319279 and -380.20522808                         
 INPUT CARD>!                                                                               
 INPUT CARD>!   NONADIABATIC COUPLING MATRIX ELEMENT (NACME), in Hartree/Bohr               
 INPUT CARD>!   <STATE  2, WEIGHT=    .50000 | D/DQ | STATE  1, WEIGHT=    .50000>          
 INPUT CARD>!     ATOM               D/DX         D/DY         D/DZ                         
 INPUT CARD>!      1 H             0.0000001    0.0000001    0.6628457                      
 INPUT CARD>!      2 P            -0.0000002   -0.0000003   -0.9820589                      
 INPUT CARD>!      3 C             0.0000000    0.0000001    0.2834681                      
 INPUT CARD>!      4 H            -0.0073873   -0.3266986   -0.0133532                      
 INPUT CARD>!      5 H             0.0073874    0.3266987   -0.0133532                      
 INPUT CARD>!   STATE-SPECIFIC GRADIENT OF STATE   2 WEIGHT=    .50000                      
 INPUT CARD>!   units are hartree/bohr    E'X               E'Y               E'Z           
 INPUT CARD>!      1 H            0.003527053       0.007231764       0.000000000           
 INPUT CARD>!      2 P           -0.021492206      -0.009507822       0.000000000           
 INPUT CARD>!      3 C            0.026121311      -0.013423590       0.000000000           
 INPUT CARD>!      4 H           -0.004078079       0.007849824      -0.000537680           
 INPUT CARD>!      5 H           -0.004078079       0.007849824       0.000537680           
 INPUT CARD>!                                                                               
 INPUT CARD>!   MOLPRO atoms permuted to match GAMESS SA-MC gradient,                       
 INPUT CARD>!   SA-MC NACME FOR STATES 1.1 - 2.1                                            
 INPUT CARD>!   Atom          dE/dx               dE/dy               dE/dz                 
 INPUT CARD>!     1          .000000000          .000000000         -.662837746             
 INPUT CARD>!     4          .000000000          .000000000          .982042826             
 INPUT CARD>!     5          .000000000          .000000000         -.283462972             
 INPUT CARD>!     2          .007387019          .326688813          .013353344             
 INPUT CARD>!     3         -.007387019         -.326688813          .013353344             
 INPUT CARD>!   SA-MC GRADIENT FOR STATE 2.1                                                
 INPUT CARD>!   Atom          dE/dx               dE/dy               dE/dz                 
 INPUT CARD>!     1          .003527061          .007231789          .000000000             
 INPUT CARD>!     4         -.021492370         -.009507769          .000000000             
    2000000 WORDS OF MEMORY AVAILABLE

     BASIS OPTIONS
     -------------
     GBASIS=N31          IGAUSS=       6      POLAR=POPN31  
     NDFUNC=       1     NFFUNC=       0     DIFFSP=       F
     NPFUNC=       0      DIFFS=       F     BASNAM=        


     RUN TITLE
     ---------
 H2C=PH...at triplet state geometry (near a rotational transition state)         

 THE POINT GROUP OF THE MOLECULE IS CS      
 THE ORDER OF THE PRINCIPAL AXIS IS     0

 ATOM      ATOMIC                      COORDINATES (BOHR)
           CHARGE         X                   Y                   Z
 H           1.0    -2.4919800757        2.2412586962        0.0000000000
 P          15.0    -1.6662822723       -0.2943627462        0.0000000000
 C           6.0     1.7033396432        0.2734792068        0.0000000000
 H           1.0     2.7605698896        0.3775262139       -1.7317375401
 H           1.0     2.7605698896        0.3775262139        1.7317375401

          INTERNUCLEAR DISTANCES (ANGS.)
          ------------------------------

                1 H          2 P          3 C          4 H          5 H     

   1 H       0.0000000    1.4111435 *  2.4521450 *  3.0884053    3.0884053  
   2 P       1.4111435 *  0.0000000    1.8082689 *  2.5404570 *  2.5404570 *
   3 C       2.4521450 *  1.8082689 *  0.0000000    1.0750866 *  1.0750866 *
   4 H       3.0884053    2.5404570 *  1.0750866 *  0.0000000    1.8327922 *
   5 H       3.0884053    2.5404570 *  1.0750866 *  1.8327922 *  0.0000000  

  * ... LESS THAN  3.000


     ATOMIC BASIS SET
     ----------------
 THE CONTRACTED PRIMITIVE FUNCTIONS HAVE BEEN UNNORMALIZED
 THE CONTRACTED BASIS FUNCTIONS ARE NOW NORMALIZED TO UNITY

  SHELL TYPE  PRIMITIVE        EXPONENT          CONTRACTION COEFFICIENT(S)

 H         

      1   S       1            18.7311370    0.033494604338
      1   S       2             2.8253944    0.234726953484
      1   S       3             0.6401217    0.813757326146

      2   S       4             0.1612778    1.000000000000

 P         

      3   S       5         19413.3000000    0.001851598923
      3   S       6          2909.4200000    0.014206191735
      3   S       7           661.3640000    0.069999459277
      3   S       8           185.7590000    0.240078860331
      3   S       9            59.1943000    0.484761717984
      3   S      10            20.0310000    0.335199804993

      4   L      11           339.4780000   -0.002782170105    0.004564616191
      4   L      12            81.0101000   -0.036049901354    0.033693571881
      4   L      13            25.8780000   -0.116631004382    0.139754883368
      4   L      14             9.4522100    0.096832803638    0.339361716786
      4   L      15             3.6656600    0.614418023082    0.450920623685
      4   L      16             1.4674600    0.403798015170    0.238585800889

      5   L      17             2.1562300   -0.252924113863   -0.017765312733
      5   L      18             0.7489970    0.032851844678    0.274058196433
      5   L      19             0.2831450    1.081254761783    0.785421562957

      6   L      20             0.0998317    1.000000000000    1.000000000000

      7   D      21             0.5500000    1.000000000000

 C         

      8   S      22          3047.5248800    0.001834737132
      8   S      23           457.3695180    0.014037322813
      8   S      24           103.9486850    0.068842622264
      8   S      25            29.2101553    0.232184443216
      8   S      26             9.2866630    0.467941348435
      8   S      27             3.1639270    0.362311985337

      9   L      28             7.8682723   -0.119332419775    0.068999066591
      9   L      29             1.8812885   -0.160854151696    0.316423960957
      9   L      30             0.5442493    1.143456437840    0.744308290898

     10   L      31             0.1687145    1.000000000000    1.000000000000

     11   D      32             0.8000000    1.000000000000

 H         

     14   S      33            18.7311370    0.033494604338
     14   S      34             2.8253944    0.234726953484
     14   S      35             0.6401217    0.813757326146

     15   S      36             0.1612778    1.000000000000

 TOTAL NUMBER OF BASIS SET SHELLS             =   15
 NUMBER OF CARTESIAN GAUSSIAN BASIS FUNCTIONS =   40
 NUMBER OF ELECTRONS                          =   24
 CHARGE OF MOLECULE                           =    0
 SPIN MULTIPLICITY                            =    1
 NUMBER OF OCCUPIED ORBITALS (ALPHA)          =   12
 NUMBER OF OCCUPIED ORBITALS (BETA )          =   12
 TOTAL NUMBER OF ATOMS                        =    5
 THE NUCLEAR REPULSION ENERGY IS       46.0446977307

     $CONTRL OPTIONS
     ---------------
 SCFTYP=MCSCF        RUNTYP=NACME        EXETYP=RUN     
 MPLEVL=       0     CITYP =NONE         CCTYP =NONE         VBTYP =NONE    
 DFTTYP=NONE         TDDFT =NONE    
 MULT  =       1     ICHARG=       0     NZVAR =       9     COORD =UNIQUE  
 PP    =NONE         RELWFN=NONE         LOCAL =NONE         NUMGRD=       F
 ISPHER=      -1     NOSYM =       0     MAXIT =      30     UNITS =ANGS    
 PLTORB=       F     MOLPLT=       F     AIMPAC=       F     FRIEND=        
 NPRINT=       7     IREST =       0     GEOM  =INPUT   
 NORMF =       0     NORMP =       0     ITOL  =      20     ICUT  =       9
 INTTYP=BEST         GRDTYP=BEST         QMTTOL= 1.0E-06

     $SYSTEM OPTIONS
     ---------------
  REPLICATED MEMORY=     2000000 WORDS (ON EVERY NODE).
 DISTRIBUTED MEMDDI=           2 MILLION WORDS IN AGGREGATE,
 MEMDDI DISTRIBUTED OVER   1 PROCESSORS IS     2000000 WORDS/PROCESSOR.
 TOTAL MEMORY REQUESTED ON EACH PROCESSOR=     4000000 WORDS.
 TIMLIM=      525600.00 MINUTES, OR     365.0 DAYS.
 PARALL= F  BALTYP=  DLB     KDIAG=    0  COREFL= F
 MXSEQ2=     300 MXSEQ3=     150  mem10=         0

          ----------------
          PROPERTIES INPUT
          ----------------

     MOMENTS            FIELD           POTENTIAL          DENSITY
 IEMOM =       1   IEFLD =       0   IEPOT =       0   IEDEN =       0
 WHERE =COMASS     WHERE =NUCLEI     WHERE =NUCLEI     WHERE =NUCLEI  
 OUTPUT=BOTH       OUTPUT=BOTH       OUTPUT=BOTH       OUTPUT=BOTH    
 IEMINT=       0   IEFINT=       0                     IEDINT=       0
                                                       MORB  =       0

     -------------------------------
     INTEGRAL TRANSFORMATION OPTIONS
     -------------------------------
     NWORD  =            0
     CUTOFF = 1.0E-09     MPTRAN =       0
     DIRTRF =       F     AOINTS =DUP     

          ----------------------
          MCSCF INPUT PARAMETERS
          ----------------------
 CONVERGER SELECTION: FOCAS = F  SOSCF = F  FULLNR = T  QUD = F  JACOBI = F
 SECULAR EQUATION METHOD CISTEP = ALDET   
 --- GENERAL INPUT OPTIONS:
 MAXIT =      30  MICIT =       1  ACURCY= 1.000E-05
 DAMP  =   0.000  CANONC=       T  ENGTOL= 1.000E-10
 EKT   =       F  NPUNCH=       2  NWORD =         0
 REGENERATE CI AFTER CONVERGENCE = NONE    
 DIABATIZATION AFTER CONVERGENCE =        F
 --- INPUT FOR FULLNR CONVERGER:
 METHOD=DM2       FORS  =       F  DROPC =       T
 LINSER=       F  FCORE =       F  NORB  =      40

          ----------------------
          INTEGRAL INPUT OPTIONS
          ----------------------
 NOPK  =       1 NORDER=       0 SCHWRZ=       F

   --- ENCODED Z MATRIX ---
 COORD  TYPE   I   J   K   L   M   N
    1      1    2   1
    2      1    3   2
    3      2    3   2   1
    4      1    5   3
    5      2    5   3   2
    6      3    5   3   2   1
    7      1    4   3
    8      2    4   3   2
    9      3    4   3   2   1

 THE DETERMINANT OF THE G MATRIX IS 10**(    -4)


                     --------------------
                     INTERNAL COORDINATES
                     --------------------

                 - - ATOMS - -         COORDINATE      COORDINATE
 NO.   TYPE    I  J  K  L  M  N        (BOHR,RAD)       (ANG,DEG)
 ----------------------------------------------------------------
   1 STRETCH   2  1                     2.6666745       1.4111435
   2 STRETCH   3  2                     3.4171328       1.8082689
   3 BEND      3  2  1                  1.7186568      98.4717834
   4 STRETCH   5  3                     2.0316192       1.0750866
   5 BEND      5  3  2                  2.1195955     121.4438774
   6 TORSION   5  3  2  1               1.6129745      92.4166304
   7 STRETCH   4  3                     2.0316192       1.0750866
   8 BEND      4  3  2                  2.1195955     121.4438774
   9 TORSION   4  3  2  1              -1.6129745     -92.4166304

     ------------------------------------------
     THE POINT GROUP IS CS , NAXIS= 0, ORDER= 2
     ------------------------------------------

     DIMENSIONS OF THE SYMMETRY SUBSPACES ARE
 A'  =   29     A'' =   11

 ..... DONE SETTING UP THE RUN .....
 STEP CPU TIME =     0.02 TOTAL CPU TIME =        0.0 (    0.0 MIN)
 TOTAL WALL CLOCK TIME=        0.0 SECONDS, CPU UTILIZATION IS  50.00%

     ------------------------------
     CPHF RESPONSE SOLUTION OPTIONS
     ------------------------------
     POLAR  =       F     NWORD  =       0
     CPHF   =MO      

          ********************
          1 ELECTRON INTEGRALS
          ********************
 TIME TO DO   DIPOLE INTEGRALS=      0.00
 ...... END OF ONE-ELECTRON INTEGRALS ......
 STEP CPU TIME =     0.00 TOTAL CPU TIME =        0.0 (    0.0 MIN)
 TOTAL WALL CLOCK TIME=        0.0 SECONDS, CPU UTILIZATION IS  50.00%

          -------------
          GUESS OPTIONS
          -------------
          GUESS =MOREAD            NORB  =      40          NORDER=       0
          MIX   =       F          PRTMO =       F          PUNMO =       F
          TOLZ  = 1.0E-08          TOLE  = 1.0E-05
          SYMDEN=       F          PURIFY=       F

 INITIAL GUESS ORBITALS GENERATED BY MOREAD   ROUTINE.

 SYMMETRIES FOR INITIAL GUESS ORBITALS FOLLOW.   BOTH SET(S).
    12 ORBITALS ARE OCCUPIED (    6 CORE ORBITALS).
     1=A        2=A        3=A        4=A        5=A        6=A        7=A   
     8=A        9=A       10=A       11=A       12=A       13=A       14=A   
    15=A       16=A       17=A       18=A       19=A       20=A       21=A   
    22=A       23=A       24=A       25=A       26=A       27=A       28=A   
    29=A       30=A       31=A       32=A       33=A       34=A       35=A   
    36=A       37=A       38=A       39=A       40=A   
 ...... END OF INITIAL ORBITAL SELECTION ......
 STEP CPU TIME =     0.01 TOTAL CPU TIME =        0.0 (    0.0 MIN)
 TOTAL WALL CLOCK TIME=        0.1 SECONDS, CPU UTILIZATION IS  60.00%

                    ----------------------
                    AO INTEGRAL TECHNOLOGY
                    ----------------------
     S,P,L SHELL ROTATED AXIS INTEGRALS, REPROGRAMMED BY
        KAZUYA ISHIMURA (IMS) AND JOSE SIERRA (SYNSTAR).
     S,P,D,L SHELL ROTATED AXIS INTEGRALS PROGRAMMED BY
        KAZUYA ISHIMURA (INSTITUTE FOR MOLECULAR SCIENCE).
     S,P,D,F,G SHELL TO TOTAL QUARTET ANGULAR MOMENTUM SUM 5,
        ERIC PROGRAM BY GRAHAM FLETCHER (ELORET AND NASA ADVANCED
        SUPERCOMPUTING DIVISION, AMES RESEARCH CENTER).
     S,P,D,F,G,L SHELL GENERAL RYS QUADRATURE PROGRAMMED BY
        MICHEL DUPUIS (PACIFIC NORTHWEST NATIONAL LABORATORY).

          --------------------
          2 ELECTRON INTEGRALS
          --------------------

 THE -PK- OPTION IS OFF, THE INTEGRALS ARE NOT IN SUPERMATRIX FORM.
 STORING   15000 INTEGRALS/RECORD ON DISK, USING 12 BYTES/INTEGRAL.
 TWO ELECTRON INTEGRAL EVALUATION REQUIRES   90516 WORDS OF MEMORY.
 II,JST,KST,LST =  1  1  1  1 NREC =         1 INTLOC =    1
 II,JST,KST,LST =  2  1  1  1 NREC =         1 INTLOC =    2
 II,JST,KST,LST =  3  1  1  1 NREC =         1 INTLOC =    7
 II,JST,KST,LST =  4  1  1  1 NREC =         1 INTLOC =   22
 II,JST,KST,LST =  5  1  1  1 NREC =         1 INTLOC =  232
 II,JST,KST,LST =  6  1  1  1 NREC =         1 INTLOC =  960
 II,JST,KST,LST =  7  1  1  1 NREC =         1 INTLOC = 2656
 II,JST,KST,LST =  8  1  1  1 NREC =         1 INTLOC = 7835
 II,JST,KST,LST =  9  1  1  1 NREC =         1 INTLOC =10719
 II,JST,KST,LST = 10  1  1  1 NREC =         2 INTLOC =11777
 II,JST,KST,LST = 11  1  1  1 NREC =         4 INTLOC = 6693
 II,JST,KST,LST = 12  1  1  1 NREC =         8 INTLOC = 3937
 II,JST,KST,LST = 13  1  1  1 NREC =         9 INTLOC =13565
 II,JST,KST,LST = 14  1  1  1 NREC =        11 INTLOC =10900
 II,JST,KST,LST = 15  1  1  1 NREC =        13 INTLOC = 9522
 TOTAL NUMBER OF NONZERO TWO-ELECTRON INTEGRALS =              221157
         15 INTEGRAL RECORDS WERE STORED ON DISK FILE  8.
  ...... END OF TWO-ELECTRON INTEGRALS .....
 STEP CPU TIME =     0.04 TOTAL CPU TIME =        0.1 (    0.0 MIN)
 TOTAL WALL CLOCK TIME=        0.1 SECONDS, CPU UTILIZATION IS  77.78%

          -----------------
          MCSCF CALCULATION
          -----------------

 ----- NUCLEAR ENERGY ----- =        46.0446977307

     --------------------------------------------------
          AMES LABORATORY DETERMINANTAL FULL CI
     PROGRAM WRITTEN BY JOE IVANIC AND KLAUS RUEDENBERG
     --------------------------------------------------

 RUNTYP=NACME    INVOLVING AN ANALYTIC NUCLEAR GRADIENT
 HAS BEEN REQUESTED FOR A RUN AVERAGING OVER   2 STATES.
 THIS REQUIRES SOLUTION OF THE MULTI-REFERENCE RESPONSE EQUATIONS,
 REQUIRING MORE COMPUTER TIME THAN SINGLE STATE GRADIENTS.
 PROVIDING $CPMCHF INPUT MAY HELP RESPONSE SOLVING.

 THE POINT GROUP                  =   C1      
 THE STATE SYMMETRY               =   A       
 NUMBER OF CORE ORBITALS          =    9
 NUMBER OF ACTIVE ORBITALS        =    5
 NUMBER OF ALPHA ELECTRONS        =   12 (   3 ACTIVE)
 NUMBER OF BETA ELECTRONS         =   12 (   3 ACTIVE)
 NUMBER OF OCCUPIED ORBITALS      =   14
 NUMBER OF CI STATES REQUESTED    =    3
 NUMBER OF CI STARTING VECTORS    =    3
 MAX. NO. OF CI EXPANSION VECTORS =   10
 SIZE OF INITIAL CI GUESS MATRIX  =  300
 MAX. NO. OF CI ITERS/STATE       =  100
 CI DIAGONALIZATION CRITERION     = 1.00E-06
 PURE SPIN STATE AVERAGED 1E- AND 2E- DENSITY MATRIX OPTION=.T.
 STATE=   1 DM2 WEIGHT=   0.50000     STATE=   2 DM2 WEIGHT=   0.50000
 STATE-AVERAGED MCSCF USING IROOT=  2 AS ITS STATE-SPECIFIC E

 CORRELATION ENERGY ANALYSIS      =    F

 SYMMETRIES FOR THE   9 CORE,   5 ACTIVE ARE

     CORE= A     A     A     A     A     A     A     A     A   

   ACTIVE= A     A     A     A     A   

     --------------------------------------------
     PARTIAL TWO ELECTRON INTEGRAL TRANSFORMATION
     --------------------------------------------

 NUMBER OF CORE MOLECULAR ORBITALS     =    9
 NUMBER OF OCCUPIED MOLECULAR ORBITALS =   14
 TOTAL NUMBER OF MOLECULAR ORBITALS    =   40
 TOTAL NUMBER OF ATOMIC ORBITALS       =   40
 THRESHOLD FOR KEEPING TRANSFORMED 2E- INTEGRALS = 1.000E-09
 AO INTEGRALS WILL BE READ IN FROM DISK...

 PLAN A: REQUIREMENTS FOR FULLY IN-MEMORY TRANSFORMATION:
 # OF WORDS AVAILABLE =              2000000
 # OF WORDS NEEDED    =               527282

 CHOOSING IN MEMORY PARTIAL TRANSFORMATION...
 TOTAL NUMBER OF TRANSFORMED 2E- INTEGRALS KEPT =        70990
 ----- FROZEN CORE ENERGY =      -418.2539642907
 ... END OF INTEGRAL TRANSFORMATION ...
 STEP CPU TIME =     0.06 TOTAL CPU TIME =        0.1 (    0.0 MIN)
 TOTAL WALL CLOCK TIME=        0.1 SECONDS, CPU UTILIZATION IS  92.86%

     --------------------------------------------------
          AMES LABORATORY DETERMINANTAL FULL CI
     PROGRAM WRITTEN BY JOE IVANIC AND KLAUS RUEDENBERG
     --------------------------------------------------

 THE NUMBER OF DETERMINANTS HAVING SPACE SYMMETRY A  
 IN POINT GROUP C1   WITH SZ=  0.0 IS            100
 WHICH INCLUDES             50 CSFS WITH S=  0.0
 WHICH INCLUDES             45 CSFS WITH S=  1.0
 WHICH INCLUDES              5 CSFS WITH S=  2.0
 THE DETERMINANT FULL CI REQUIRES          173788 WORDS
 SMALL CI MATRIX, JUST USING INCORE DIAGONALIZATION...

 CI EIGENVECTORS WILL BE LABELED IN GROUP=C1      
 PRINTING CI COEFFICIENTS LARGER THAN 5.000E-02

 STATE   1  ENERGY=      -380.2647728517  S=  1.00  SZ=  0.00  SPACE SYM=A   

ALPHA  |BETA   | CI COEFFICIENT
-------|-------|---------------
 11010 | 11100 |   0.6896516637
 11100 | 11010 |  -0.6896516637
 11010 | 10110 |   0.1250550984
 10110 | 11010 |  -0.1250550984
 01011 | 01101 |  -0.0526274501
 01101 | 01011 |   0.0526274501

 STATE   2  ENERGY=      -380.2631924735  S=  0.00  SZ=  0.00  SPACE SYM=A   

ALPHA  |BETA   | CI COEFFICIENT
-------|-------|---------------
 11100 | 11010 |   0.6839290840
 11010 | 11100 |   0.6839290840
 10110 | 11010 |   0.1500468662
 11010 | 10110 |   0.1500468662
 01101 | 01011 |  -0.0536491553
 01011 | 01101 |  -0.0536491553

 STATE   3  ENERGY=      -380.2052283934  S=  0.00  SZ=  0.00  SPACE SYM=A   

ALPHA  |BETA   | CI COEFFICIENT
-------|-------|---------------
 11100 | 11100 |   0.9007144773
 11100 | 10110 |  -0.2451073777
 10110 | 11100 |  -0.2451073777
 10110 | 10110 |  -0.2015267005
 01101 | 01101 |  -0.0591442866
 ..... DONE WITH DETERMINANT CI COMPUTATION .....
 STEP CPU TIME =     0.00 TOTAL CPU TIME =        0.1 (    0.0 MIN)
 TOTAL WALL CLOCK TIME=        0.1 SECONDS, CPU UTILIZATION IS  92.86%

     --------------------------------------------------
      ONE AND TWO PARTICLE DENSITY MATRIX COMPUTATION
     PROGRAM WRITTEN BY JOE IVANIC AND KLAUS RUEDENBERG
     --------------------------------------------------

      31074 WORDS WILL BE USED TO FORM THE DENSITIES
 THE DENSITIES ARE STATE AVERAGED OVER   2 ROOT(S)
 STATE=   2   ENERGY=     -380.2631924735   WEIGHT= 0.50000   S=  0.00
 STATE=   3   ENERGY=     -380.2052283934   WEIGHT= 0.50000   S=  0.00
 SIEVING THE A    SYMMETRY NONZERO DENSITY ELEMENTS IN GROUP C1      
         76 NONZERO DM2 ELEMENTS WRITTEN IN       1 RECORDS TO FILE 15
 ..... DONE WITH 1 AND 2 PARTICLE DENSITY MATRIX .....
 STEP CPU TIME =     0.00 TOTAL CPU TIME =        0.1 (    0.0 MIN)
 TOTAL WALL CLOCK TIME=        0.1 SECONDS, CPU UTILIZATION IS  92.86%

     --------------------------------     -----------------------------
     MCHF NEWTON-RAPHSON OPTIMIZATION     CODE WRITTEN BY MICHEL DUPUIS
     --------------------------------     -----------------------------
 FORMING FOCK OPERATOR OVER ACTIVE ORBITAL DENSITY, MEMORY=    123825
 STEP CPU TIME =     0.00 TOTAL CPU TIME =        0.1 (    0.0 MIN)
 TOTAL WALL CLOCK TIME=        0.2 SECONDS, CPU UTILIZATION IS  86.67%
 MEMORY DEMAND FOR 2 ELECTRON NTN-RPH CONTRIBUTIONS
      METHOD=DM2     NEEDS    186935 WORDS
      METHOD=TEI     NEEDS    126055 WORDS
 TOTAL AVAILABLE MEMORY IS   2000000 WORDS
 CHOOSING DM2 DRIVEN METHOD...
 FORMING -LGR- + -COU- + -EXC- FROM (IJ//KL) INTEGRALS
 STEP CPU TIME =     0.00 TOTAL CPU TIME =        0.1 (    0.0 MIN)
 TOTAL WALL CLOCK TIME=        0.2 SECONDS, CPU UTILIZATION IS  86.67%
 FORMING -LGR- + -COU- + -EXC- FROM (AJ//KL) INTEGRALS
 STEP CPU TIME =     0.01 TOTAL CPU TIME =        0.1 (    0.0 MIN)
 TOTAL WALL CLOCK TIME=        0.2 SECONDS, CPU UTILIZATION IS  93.33%
 FORMING         -COU-         FROM (AB//KL) INTEGRALS
 STEP CPU TIME =     0.00 TOTAL CPU TIME =        0.1 (    0.0 MIN)
 TOTAL WALL CLOCK TIME=        0.2 SECONDS, CPU UTILIZATION IS  93.33%
 FORMING                 -EXC- FROM (AJ//BL) INTEGRALS
 ..... DONE WITH 2 ELECTRON CONTRIBUTIONS .....
 STEP CPU TIME =     0.00 TOTAL CPU TIME =        0.1 (    0.0 MIN)
 TOTAL WALL CLOCK TIME=        0.2 SECONDS, CPU UTILIZATION IS  93.33%
 ..... DONE WITH 1 ELECTRON CONTRIBUTIONS .....
 STEP CPU TIME =     0.00 TOTAL CPU TIME =        0.1 (    0.0 MIN)
 TOTAL WALL CLOCK TIME=        0.2 SECONDS, CPU UTILIZATION IS  93.33%
 NUMBER OF INDEPENDENT ORBITAL ROTATION PARAMETERS =   247
 ..... DONE SOLVING NEWTON-RAPHSON EQUATIONS .....
 STEP CPU TIME =     0.00 TOTAL CPU TIME =        0.1 (    0.0 MIN)
 TOTAL WALL CLOCK TIME=        0.2 SECONDS, CPU UTILIZATION IS  93.33%
 ..... DONE WITH NTN-RPH ORBITAL ROTATIONS ..... 
 STEP CPU TIME =     0.00 TOTAL CPU TIME =        0.1 (    0.0 MIN)
 TOTAL WALL CLOCK TIME=        0.2 SECONDS, CPU UTILIZATION IS  93.33%
 MAXIMUM MEMORY USED BY NTN-RPH CODE WAS    186935 WORDS.

 ITER     TOTAL ENERGY      DEL(E)  LAGRANGIAN ASYMMETRY   SQCDF  MICIT   DAMP
   1     -380.234210433 -0.234210433  0.000003   28   10 7.259E-09  1   0.0000
   2     -380.234210433 -0.000000000  0.000003   28   10 7.259E-09  1   0.0000

          --------------------
          LAGRANGIAN CONVERGED
          --------------------

 FINAL MCSCF ENERGY IS     -380.2052283934 AFTER   2 ITERATIONS

 -MCCI- BASED ON OPTIMIZED ORBITALS
 ----------------------------------

 PLEASE NOTE: IF THE ACTIVE ORBITALS ARE CANONICALIZED BELOW,
 THE FOLLOWING CI EXPANSION COEFFICIENTS AND THE DENSITY DO NOT
 CORRESPOND TO THE PRINTED ORBITALS.  THE PRINTED EXPANSIONS MATCH
 THE ORBITALS USED DURING THE LAST ITERATION.  IF YOU WISH TO SEE
 CI EXPANSIONS BASED ON THE CANONICAL (OR NATURAL) ORBITALS, YOU
 MUST RUN A CI CALCULATION WITH THAT ORBITAL CHOICE READ IN $VEC.

 CI EIGENVECTORS WILL BE LABELED IN GROUP=C1      
 PRINTING CI COEFFICIENTS LARGER THAN 5.000E-02

 STATE   1  ENERGY=      -380.2647728517  S=  1.00  SZ=  0.00  SPACE SYM=A   

ALPHA  |BETA   | CI COEFFICIENT
-------|-------|---------------
 11100 | 11010 |   0.6896516637
 11010 | 11100 |  -0.6896516637
 10110 | 11010 |   0.1250550984
 11010 | 10110 |  -0.1250550984
 01101 | 01011 |  -0.0526274501
 01011 | 01101 |   0.0526274501

 STATE   2  ENERGY=      -380.2631924735  S=  0.00  SZ=  0.00  SPACE SYM=A   

ALPHA  |BETA   | CI COEFFICIENT
-------|-------|---------------
 11010 | 11100 |   0.6839290840
 11100 | 11010 |   0.6839290840
 11010 | 10110 |   0.1500468662
 10110 | 11010 |   0.1500468662
 01011 | 01101 |  -0.0536491553
 01101 | 01011 |  -0.0536491553

 STATE   3  ENERGY=      -380.2052283934  S=  0.00  SZ=  0.00  SPACE SYM=A   

ALPHA  |BETA   | CI COEFFICIENT
-------|-------|---------------
 11100 | 11100 |   0.9007144773
 10110 | 11100 |  -0.2451073777
 11100 | 10110 |  -0.2451073777
 10110 | 10110 |  -0.2015267005
 01101 | 01101 |  -0.0591442866

 DENSITY MATRIX OVER ACTIVE MO-S

             1           2           3           4           5

    1    1.9740361
    2    0.0045669   1.8635372
    3   -0.0000000  -0.0000000   1.4989545
    4   -0.0187803   0.0641804   0.0000000   0.6337196
    5    0.0031392   0.0066774  -0.0000000  -0.0074109   0.0297527

 FORMING THE "STANDARD FOCK OPERATOR" USING INTEGRALS FROM DISK...
     9 FILLED,    5 ACTIVE, AND   26 VIRTUAL ORBITALS  WILL BE CANONICALIZED

          ----------------------
          MCSCF NATURAL ORBITALS
          ----------------------

                      1          2          3          4          5
                  -79.9228   -11.2733    -7.4745    -5.3687    -5.3681
                     A          A          A          A          A   
    1  H  1  S    0.000187   0.000337  -0.000436   0.000163  -0.000494
    2  H  1  S   -0.000340   0.000457   0.000196   0.001660  -0.000726
    3  P  2  S    0.996430  -0.000091  -0.276048   0.000266   0.001197
    4  P  2  S    0.013527   0.000398   1.030349  -0.000940  -0.004707
    5  P  2  X    0.000041   0.000670   0.001542  -0.572666   0.811175
    6  P  2  Y    0.000047  -0.000142   0.002921   0.812024   0.573488
    7  P  2  Z    0.000000   0.000000  -0.000000  -0.000000   0.000000
    8  P  2  S   -0.021594  -0.000382   0.019119   0.000132   0.004357
    9  P  2  X   -0.000093  -0.001232   0.001785  -0.013562   0.019312
   10  P  2  Y   -0.000064   0.000420   0.000366   0.016927   0.011203
   11  P  2  Z    0.000000   0.000000  -0.000000  -0.000000   0.000000
   12  P  2  S    0.003318   0.002220  -0.004161  -0.001534   0.000526
   13  P  2  X    0.000059   0.001212  -0.000051   0.002409  -0.002786
   14  P  2  Y    0.000184   0.000427  -0.000642  -0.004191  -0.002235
   15  P  2  Z    0.000000   0.000000  -0.000000  -0.000000   0.000000
   16  P  2 XX    0.007447  -0.000545  -0.001182  -0.001272   0.000341
   17  P  2 YY    0.007462   0.000119  -0.001725   0.000784  -0.001092
   18  P  2 ZZ    0.007474  -0.000167  -0.001935  -0.000290  -0.001474
   19  P  2 XY    0.000002  -0.000185   0.000056  -0.000429   0.000600
   20  P  2 XZ    0.000000   0.000000  -0.000000  -0.000000   0.000000
   21  P  2 YZ    0.000000   0.000000  -0.000000  -0.000000   0.000000
   22  C  3  S    0.000012   0.996111  -0.000457   0.000515  -0.000927
   23  C  3  S    0.000121   0.026426   0.000733  -0.000924   0.001603
   24  C  3  X   -0.000088   0.001572  -0.001086   0.001188  -0.002246
   25  C  3  Y   -0.000013  -0.000043  -0.000145   0.000120  -0.000378
   26  C  3  Z    0.000000   0.000000  -0.000000  -0.000000   0.000000
   27  C  3  S    0.000115  -0.011306   0.000412  -0.000053  -0.000119
   28  C  3  X   -0.000024   0.001177  -0.000332  -0.000195   0.000398
   29  C  3  Y   -0.000036   0.000337   0.000075   0.000197   0.000131
   30  C  3  Z    0.000000   0.000000  -0.000000  -0.000000   0.000000
   31  C  3 XX   -0.000062  -0.002028   0.000011   0.000033   0.000031
   32  C  3 YY   -0.000014  -0.002446   0.000046   0.000024   0.000137
   33  C  3 ZZ    0.000018  -0.001753  -0.000009   0.000067  -0.000051
   34  C  3 XY   -0.000011  -0.000026   0.000011   0.000214   0.000160
   35  C  3 XZ    0.000000   0.000000  -0.000000  -0.000000   0.000000
   36  C  3 YZ    0.000000   0.000000  -0.000000  -0.000000   0.000000
   37  H  4  S   -0.000005   0.000010  -0.000133   0.000070  -0.000135
   38  H  4  S   -0.000197   0.002092   0.000130   0.000097  -0.000088
   39  H  5  S   -0.000005   0.000010  -0.000133   0.000070  -0.000135
   40  H  5  S   -0.000197   0.002092   0.000130   0.000097  -0.000088

                      6          7          8          9         10
                   -5.3672    -0.8651    -0.7435    -0.6132     1.9744
                     A          A          A          A          A   
    1  H  1  S   -0.000000   0.082273   0.234521  -0.000000  -0.126595
    2  H  1  S   -0.000000   0.078388   0.190926  -0.000000  -0.167137
    3  P  2  S   -0.000000   0.013196   0.053393  -0.000000   0.023813
    4  P  2  S   -0.000000  -0.062165  -0.250928  -0.000000  -0.109174
    5  P  2  X   -0.000000   0.020214   0.041015  -0.000000  -0.159498
    6  P  2  Y   -0.000000  -0.028004  -0.074088  -0.000000   0.046452
    7  P  2  Z    0.994509   0.000000   0.000000  -0.024474  -0.000000
    8  P  2  S   -0.000000   0.104771   0.477967  -0.000000   0.208802
    9  P  2  X   -0.000000  -0.061219  -0.105958  -0.000000   0.372228
   10  P  2  Y   -0.000000   0.067104   0.179612  -0.000000  -0.120228
   11  P  2  Z    0.019009   0.000000   0.000000   0.054833  -0.000000
   12  P  2  S   -0.000000   0.044409   0.217641  -0.000000   0.027139
   13  P  2  X   -0.000000  -0.028173  -0.017683  -0.000000   0.049215
   14  P  2  Y   -0.000000   0.005834   0.016325  -0.000000  -0.026111
   15  P  2  Z   -0.003695   0.000000   0.000000  -0.000502  -0.000000
   16  P  2 XX   -0.000000   0.002287  -0.009020  -0.000000   0.073481
   17  P  2 YY   -0.000000   0.019678   0.056331  -0.000000  -0.053178
   18  P  2 ZZ   -0.000000  -0.005189  -0.014163  -0.000000  -0.010481
   19  P  2 XY   -0.000000  -0.008438  -0.025682  -0.000000   0.032755
   20  P  2 XZ    0.000335   0.000000   0.000000   0.017913  -0.000000
   21  P  2 YZ    0.000287   0.000000   0.000000   0.003237  -0.000000
   22  C  3  S   -0.000000  -0.163510   0.043142  -0.000000  -0.092739
   23  C  3  S   -0.000000   0.318089  -0.086990  -0.000000   0.191490
   24  C  3  X   -0.000000   0.211062  -0.109702  -0.000000  -0.348026
   25  C  3  Y   -0.000000   0.024033   0.007508  -0.000000  -0.075473
   26  C  3  Z    0.000077   0.000000   0.000000   0.451479  -0.000000
   27  C  3  S   -0.000000   0.278941  -0.122500  -0.000000   0.235463
   28  C  3  X   -0.000000   0.114667  -0.024853  -0.000000  -0.187532
   29  C  3  Y   -0.000000   0.011669   0.009756  -0.000000  -0.042635
   30  C  3  Z   -0.001182   0.000000   0.000000   0.223291  -0.000000
   31  C  3 XX   -0.000000   0.007170   0.006223  -0.000000   0.016877
   32  C  3 YY   -0.000000  -0.014998   0.004273  -0.000000  -0.002049
   33  C  3 ZZ   -0.000000   0.028839  -0.012251  -0.000000  -0.010391
   34  C  3 XY   -0.000000   0.000770  -0.000399  -0.000000   0.008783
   35  C  3 XZ    0.000104   0.000000   0.000000   0.033758  -0.000000
   36  C  3 YZ    0.000010   0.000000   0.000000   0.001478  -0.000000
   37  H  4  S    0.000057   0.191850  -0.066853  -0.239379  -0.040561
   38  H  4  S   -0.001070   0.085592  -0.033247  -0.165130  -0.060219
   39  H  5  S   -0.000057   0.191850  -0.066853   0.239379  -0.040561
   40  H  5  S    0.001070   0.085592  -0.033247   0.165130  -0.060219

                     11         12         13         14
                    1.8668     1.4990     0.6302     0.0296
                     A          A          A          A   
    1  H  1  S    0.125469   0.000000  -0.124067  -0.029496
    2  H  1  S    0.183232   0.000000  -0.203950  -0.116754
    3  P  2  S   -0.030410   0.000000   0.013646   0.028832
    4  P  2  S    0.145224   0.000000  -0.063251  -0.120246
    5  P  2  X   -0.078356   0.000000   0.042271  -0.236371
    6  P  2  Y   -0.161254   0.000000   0.075560  -0.029078
    7  P  2  Z   -0.000000  -0.237245   0.000000   0.000000
    8  P  2  S   -0.306403   0.000000   0.153256   0.375968
    9  P  2  X    0.198797   0.000000  -0.115535   0.803103
   10  P  2  Y    0.407974   0.000000  -0.216990   0.102203
   11  P  2  Z   -0.000000   0.632138   0.000000   0.000000
   12  P  2  S   -0.357657   0.000000   0.177114   0.243707
   13  P  2  X    0.087529   0.000000  -0.076455   0.272634
   14  P  2  Y    0.169338   0.000000  -0.088680   0.108964
   15  P  2  Z   -0.000000   0.498275   0.000000   0.000000
   16  P  2 XX    0.010907   0.000000  -0.013061   0.032357
   17  P  2 YY    0.028297   0.000000  -0.014928  -0.038577
   18  P  2 ZZ   -0.031002   0.000000   0.013623   0.022217
   19  P  2 XY    0.014232   0.000000   0.061431   0.015916
   20  P  2 XZ   -0.000000   0.002501   0.000000   0.000000
   21  P  2 YZ   -0.000000   0.008922   0.000000   0.000000
   22  C  3  S   -0.036617   0.000000  -0.000745   0.109853
   23  C  3  S    0.075512   0.000000   0.007782  -0.532551
   24  C  3  X   -0.174403   0.000000  -0.049925   0.670310
   25  C  3  Y    0.188287   0.000000   0.549575   0.107657
   26  C  3  Z   -0.000000  -0.048963   0.000000   0.000000
   27  C  3  S    0.137882   0.000000   0.012098  -0.351845
   28  C  3  X   -0.122132   0.000000  -0.055705   0.129962
   29  C  3  Y    0.161403   0.000000   0.500787   0.076872
   30  C  3  Z   -0.000000  -0.000114   0.000000   0.000000
   31  C  3 XX    0.005040   0.000000  -0.002071  -0.026817
   32  C  3 YY   -0.002451   0.000000  -0.001042   0.005774
   33  C  3 ZZ   -0.003993   0.000000   0.000387   0.087755
   34  C  3 XY   -0.007686   0.000000  -0.009762  -0.010018
   35  C  3 XZ   -0.000000  -0.024664   0.000000   0.000000
   36  C  3 YZ   -0.000000  -0.003824   0.000000   0.000000
   37  H  4  S   -0.021709   0.064147   0.003354   0.039155
   38  H  4  S   -0.035743   0.128176   0.008041   0.024560
   39  H  5  S   -0.021709  -0.064147   0.003354   0.039155
   40  H  5  S   -0.035743  -0.128176   0.008041   0.024560

          ------------------------
          MCSCF OPTIMIZED ORBITALS
          ------------------------

                      1          2          3          4          5
                  -79.9228   -11.2733    -7.4745    -5.3687    -5.3681
                     A          A          A          A          A   
    1  H  1  S    0.000187   0.000337  -0.000436   0.000163  -0.000494
    2  H  1  S   -0.000340   0.000457   0.000196   0.001660  -0.000726
    3  P  2  S    0.996430  -0.000091  -0.276048   0.000266   0.001197
    4  P  2  S    0.013527   0.000398   1.030349  -0.000940  -0.004707
    5  P  2  X    0.000041   0.000670   0.001542  -0.572666   0.811175
    6  P  2  Y    0.000047  -0.000142   0.002921   0.812024   0.573488
    7  P  2  Z    0.000000   0.000000  -0.000000  -0.000000   0.000000
    8  P  2  S   -0.021594  -0.000382   0.019119   0.000132   0.004357
    9  P  2  X   -0.000093  -0.001232   0.001785  -0.013562   0.019312
   10  P  2  Y   -0.000064   0.000420   0.000366   0.016927   0.011203
   11  P  2  Z    0.000000   0.000000  -0.000000  -0.000000   0.000000
   12  P  2  S    0.003318   0.002220  -0.004161  -0.001534   0.000526
   13  P  2  X    0.000059   0.001212  -0.000051   0.002409  -0.002786
   14  P  2  Y    0.000184   0.000427  -0.000642  -0.004191  -0.002235
   15  P  2  Z    0.000000   0.000000  -0.000000  -0.000000   0.000000
   16  P  2 XX    0.007447  -0.000545  -0.001182  -0.001272   0.000341
   17  P  2 YY    0.007462   0.000119  -0.001725   0.000784  -0.001092
   18  P  2 ZZ    0.007474  -0.000167  -0.001935  -0.000290  -0.001474
   19  P  2 XY    0.000002  -0.000185   0.000056  -0.000429   0.000600
   20  P  2 XZ    0.000000   0.000000  -0.000000  -0.000000   0.000000
   21  P  2 YZ    0.000000   0.000000  -0.000000  -0.000000   0.000000
   22  C  3  S    0.000012   0.996111  -0.000457   0.000515  -0.000927
   23  C  3  S    0.000121   0.026426   0.000733  -0.000924   0.001603
   24  C  3  X   -0.000088   0.001572  -0.001086   0.001188  -0.002246
   25  C  3  Y   -0.000013  -0.000043  -0.000145   0.000120  -0.000378
   26  C  3  Z    0.000000   0.000000  -0.000000  -0.000000   0.000000
   27  C  3  S    0.000115  -0.011306   0.000412  -0.000053  -0.000119
   28  C  3  X   -0.000024   0.001177  -0.000332  -0.000195   0.000398
   29  C  3  Y   -0.000036   0.000337   0.000075   0.000197   0.000131
   30  C  3  Z    0.000000   0.000000  -0.000000  -0.000000   0.000000
   31  C  3 XX   -0.000062  -0.002028   0.000011   0.000033   0.000031
   32  C  3 YY   -0.000014  -0.002446   0.000046   0.000024   0.000137
   33  C  3 ZZ    0.000018  -0.001753  -0.000009   0.000067  -0.000051
   34  C  3 XY   -0.000011  -0.000026   0.000011   0.000214   0.000160
   35  C  3 XZ    0.000000   0.000000  -0.000000  -0.000000   0.000000
   36  C  3 YZ    0.000000   0.000000  -0.000000  -0.000000   0.000000
   37  H  4  S   -0.000005   0.000010  -0.000133   0.000070  -0.000135
   38  H  4  S   -0.000197   0.002092   0.000130   0.000097  -0.000088
   39  H  5  S   -0.000005   0.000010  -0.000133   0.000070  -0.000135
   40  H  5  S   -0.000197   0.002092   0.000130   0.000097  -0.000088

                      6          7          8          9         10
                   -5.3672    -0.8651    -0.7435    -0.6132    -0.6244
                     A          A          A          A          A   
    1  H  1  S   -0.000000   0.082273   0.234521  -0.000000  -0.132417
    2  H  1  S   -0.000000   0.078388   0.190926  -0.000000  -0.175864
    3  P  2  S   -0.000000   0.013196   0.053393  -0.000000   0.024964
    4  P  2  S   -0.000000  -0.062165  -0.250928  -0.000000  -0.114672
    5  P  2  X   -0.000000   0.020214   0.041015  -0.000000  -0.155825
    6  P  2  Y   -0.000000  -0.028004  -0.074088  -0.000000   0.052922
    7  P  2  Z    0.994509   0.000000   0.000000  -0.024474  -0.000000
    8  P  2  S   -0.000000   0.104771   0.477967  -0.000000   0.220515
    9  P  2  X   -0.000000  -0.061219  -0.105958  -0.000000   0.362514
   10  P  2  Y   -0.000000   0.067104   0.179612  -0.000000  -0.137004
   11  P  2  Z    0.019009   0.000000   0.000000   0.054833  -0.000000
   12  P  2  S   -0.000000   0.044409   0.217641  -0.000000   0.041218
   13  P  2  X   -0.000000  -0.028173  -0.017683  -0.000000   0.044771
   14  P  2  Y   -0.000000   0.005834   0.016325  -0.000000  -0.033169
   15  P  2  Z   -0.003695   0.000000   0.000000  -0.000502  -0.000000
   16  P  2 XX   -0.000000   0.002287  -0.009020  -0.000000   0.072836
   17  P  2 YY   -0.000000   0.019678   0.056331  -0.000000  -0.054243
   18  P  2 ZZ   -0.000000  -0.005189  -0.014163  -0.000000  -0.009279
   19  P  2 XY   -0.000000  -0.008438  -0.025682  -0.000000   0.033104
   20  P  2 XZ    0.000335   0.000000   0.000000   0.017913  -0.000000
   21  P  2 YZ    0.000287   0.000000   0.000000   0.003237  -0.000000
   22  C  3  S   -0.000000  -0.163510   0.043142  -0.000000  -0.091628
   23  C  3  S   -0.000000   0.318089  -0.086990  -0.000000   0.189740
   24  C  3  X   -0.000000   0.211062  -0.109702  -0.000000  -0.343670
   25  C  3  Y   -0.000000   0.024033   0.007508  -0.000000  -0.074092
   26  C  3  Z    0.000077   0.000000   0.000000   0.451479  -0.000000
   27  C  3  S   -0.000000   0.278941  -0.122500  -0.000000   0.231394
   28  C  3  X   -0.000000   0.114667  -0.024853  -0.000000  -0.184309
   29  C  3  Y   -0.000000   0.011669   0.009756  -0.000000  -0.041023
   30  C  3  Z   -0.001182   0.000000   0.000000   0.223291  -0.000000
   31  C  3 XX   -0.000000   0.007170   0.006223  -0.000000   0.016708
   32  C  3 YY   -0.000000  -0.014998   0.004273  -0.000000  -0.001989
   33  C  3 ZZ   -0.000000   0.028839  -0.012251  -0.000000  -0.010376
   34  C  3 XY   -0.000000   0.000770  -0.000399  -0.000000   0.008911
   35  C  3 XZ    0.000104   0.000000   0.000000   0.033758  -0.000000
   36  C  3 YZ    0.000010   0.000000   0.000000   0.001478  -0.000000
   37  H  4  S    0.000057   0.191850  -0.066853  -0.239379  -0.039819
   38  H  4  S   -0.001070   0.085592  -0.033247  -0.165130  -0.058908
   39  H  5  S   -0.000057   0.191850  -0.066853   0.239379  -0.039819
   40  H  5  S    0.001070   0.085592  -0.033247   0.165130  -0.058908

                     11         12         13         14         15
                   -0.3869    -0.2060    -0.0723     0.4587     0.2265
                     A          A          A          A          A   
    1  H  1  S    0.127473  -0.000000  -0.116104  -0.027706   0.134698
    2  H  1  S    0.188246  -0.000000  -0.193438  -0.113809   1.694390
    3  P  2  S   -0.030365  -0.000000   0.012101   0.028594  -0.021351
    4  P  2  S    0.144995  -0.000000  -0.055710  -0.119130   0.096154
    5  P  2  X   -0.084874  -0.000000   0.037080  -0.237439  -0.031329
    6  P  2  Y   -0.163163  -0.000000   0.066046  -0.030503   0.102121
    7  P  2  Z   -0.000000  -0.237245   0.000000   0.000000   0.000000
    8  P  2  S   -0.308182  -0.000000   0.139127   0.373310  -0.252389
    9  P  2  X    0.213829  -0.000000  -0.099378   0.805843   0.057807
   10  P  2  Y    0.413936  -0.000000  -0.192484   0.106134  -0.280476
   11  P  2  Z   -0.000000   0.632138   0.000000   0.000000   0.000000
   12  P  2  S   -0.366232  -0.000000   0.160836   0.240260  -0.851662
   13  P  2  X    0.091897  -0.000000  -0.068907   0.273971   0.496707
   14  P  2  Y    0.172280  -0.000000  -0.077963   0.110614  -1.327345
   15  P  2  Z   -0.000000   0.498275   0.000000   0.000000   0.000000
   16  P  2 XX    0.013938  -0.000000  -0.012969   0.032689  -0.039784
   17  P  2 YY    0.027362  -0.000000  -0.013251  -0.038382   0.086928
   18  P  2 ZZ   -0.032098  -0.000000   0.012388   0.021917  -0.067775
   19  P  2 XY    0.012066  -0.000000   0.061879   0.015233  -0.026010
   20  P  2 XZ   -0.000000   0.002501   0.000000   0.000000   0.000000
   21  P  2 YZ   -0.000000   0.008922   0.000000   0.000000   0.000000
   22  C  3  S   -0.040118  -0.000000  -0.000126   0.109565  -0.028971
   23  C  3  S    0.083664  -0.000000   0.002621  -0.532010   0.004368
   24  C  3  X   -0.186074  -0.000000  -0.046204   0.669686   0.014135
   25  C  3  Y    0.156363  -0.000000   0.560903   0.101096   0.071504
   26  C  3  Z   -0.000000  -0.048963   0.000000   0.000000   0.000000
   27  C  3  S    0.146451  -0.000000   0.011943  -0.351087   0.514136
   28  C  3  X   -0.125926  -0.000000  -0.058058   0.129921   0.093553
   29  C  3  Y    0.133311  -0.000000   0.509983   0.070908   0.308404
   30  C  3  Z   -0.000000  -0.000114   0.000000   0.000000   0.000000
   31  C  3 XX    0.005822  -0.000000  -0.002352  -0.026741  -0.015758
   32  C  3 YY   -0.002485  -0.000000  -0.001070   0.005775   0.008874
   33  C  3 ZZ   -0.004718  -0.000000   0.001416   0.087710  -0.010894
   34  C  3 XY   -0.006823  -0.000000  -0.010386  -0.009902   0.006979
   35  C  3 XZ   -0.000000  -0.024664   0.000000   0.000000   0.000000
   36  C  3 YZ   -0.000000  -0.003824   0.000000   0.000000   0.000000
   37  H  4  S   -0.023384   0.064147   0.003208   0.038964  -0.021863
   38  H  4  S   -0.038245   0.128176   0.007211   0.024228  -0.321603
   39  H  5  S   -0.023384  -0.064147   0.003208   0.038964  -0.021863
   40  H  5  S   -0.038245  -0.128176   0.007211   0.024228  -0.321603

                     16         17         18         19         20
                    0.2771     0.2953     0.4223     0.4328     0.4729
                     A          A          A          A          A   
    1  H  1  S   -0.007994   0.000000  -0.142526   0.062287   0.051054
    2  H  1  S   -0.261196   0.000000  -0.825876  -0.452523  -0.318128
    3  P  2  S    0.020683   0.000000  -0.052674   0.009788  -0.028167
    4  P  2  S   -0.033437   0.000000  -0.004903  -0.056431   0.028303
    5  P  2  X   -0.005868   0.000000  -0.001464   0.215975  -0.043060
    6  P  2  Y   -0.022726   0.000000   0.078968  -0.070351  -0.258927
    7  P  2  Z    0.000000   0.034926   0.000000   0.000000   0.000000
    8  P  2  S    0.451634   0.000000  -1.447026   0.068936  -0.690413
    9  P  2  X    0.068323   0.000000   0.001203  -0.979917   0.194815
   10  P  2  Y    0.078003   0.000000  -0.379044   0.293297   1.119742
   11  P  2  Z    0.000000  -0.157226   0.000000   0.000000   0.000000
   12  P  2  S   -0.204636   0.000000   2.840238   0.796997   0.910541
   13  P  2  X   -0.151644   0.000000   0.580990   1.712492  -0.275550
   14  P  2  Y    0.177200   0.000000   1.209970   0.100193  -0.976891
   15  P  2  Z    0.000000   0.519511   0.000000   0.000000   0.000000
   16  P  2 XX    0.005244   0.000000  -0.083779  -0.030155  -0.063196
   17  P  2 YY    0.019356   0.000000  -0.131946   0.047727   0.028963
   18  P  2 ZZ    0.012480   0.000000   0.074538   0.003721   0.002637
   19  P  2 XY   -0.006590   0.000000   0.020778  -0.006480   0.030347
   20  P  2 XZ    0.000000  -0.085467   0.000000   0.000000   0.000000
   21  P  2 YZ    0.000000  -0.014745   0.000000   0.000000   0.000000
   22  C  3  S   -0.106913   0.000000  -0.012017   0.004113  -0.006487
   23  C  3  S    0.065229   0.000000   0.056443   0.123830  -0.029378
   24  C  3  X    0.270161   0.000000   0.072874  -0.075535   0.059526
   25  C  3  Y    0.012789   0.000000  -0.032912   0.004842   0.047159
   26  C  3  Z    0.000000  -0.307116   0.000000   0.000000   0.000000
   27  C  3  S    2.026405   0.000000  -0.211485  -0.661137   0.169955
   28  C  3  X    0.774217   0.000000   0.726034   0.499778   0.013629
   29  C  3  Y    0.033754   0.000000  -0.063346   0.077467   0.097757
   30  C  3  Z    0.000000  -1.593122   0.000000   0.000000   0.000000
   31  C  3 XX    0.013001   0.000000  -0.038477  -0.032552   0.003287
   32  C  3 YY   -0.019830   0.000000   0.024955   0.032946  -0.010769
   33  C  3 ZZ   -0.016694   0.000000   0.014175   0.017995  -0.001919
   34  C  3 XY    0.003041   0.000000  -0.010582  -0.021553  -0.022997
   35  C  3 XZ    0.000000   0.013637   0.000000   0.000000   0.000000
   36  C  3 YZ    0.000000   0.003016   0.000000   0.000000   0.000000
   37  H  4  S   -0.015612  -0.036916  -0.053811  -0.029118  -0.005720
   38  H  4  S   -1.439010  -1.661803  -0.604211  -0.299436  -0.093675
   39  H  5  S   -0.015612   0.036916  -0.053811  -0.029118  -0.005720
   40  H  5  S   -1.439010   1.661803  -0.604211  -0.299436  -0.093675

                     21         22         23         24         25
                    0.5130     0.7105     0.7160     0.7978     0.9181
                     A          A          A          A          A   
    1  H  1  S   -0.000000  -0.068959   0.000000  -0.007525  -0.573297
    2  H  1  S   -0.000000  -0.076958   0.000000   0.127186   1.529867
    3  P  2  S   -0.000000   0.005874   0.000000   0.001155   0.012392
    4  P  2  S   -0.000000   0.001054   0.000000   0.003168  -0.012128
    5  P  2  X   -0.000000  -0.064756   0.000000   0.008896   0.035208
    6  P  2  Y   -0.000000  -0.024691   0.000000  -0.006216  -0.052170
    7  P  2  Z    0.286815  -0.000000   0.037009  -0.000000   0.000000
    8  P  2  S   -0.000000   0.123375   0.000000   0.039393   0.326366
    9  P  2  X   -0.000000   0.443512   0.000000  -0.027238  -0.138663
   10  P  2  Y   -0.000000   0.125575   0.000000   0.024066   0.169917
   11  P  2  Z   -1.250790  -0.000000  -0.147108  -0.000000   0.000000
   12  P  2  S   -0.000000   1.048642   0.000000  -0.133103  -1.130785
   13  P  2  X   -0.000000   0.536360   0.000000   0.049470   0.184080
   14  P  2  Y   -0.000000   0.157261   0.000000  -0.391222  -0.702721
   15  P  2  Z    1.254192  -0.000000  -0.223674  -0.000000   0.000000
   16  P  2 XX   -0.000000   0.256555   0.000000  -0.041561  -0.039475
   17  P  2 YY   -0.000000  -0.070704   0.000000   0.117904  -0.225906
   18  P  2 ZZ   -0.000000  -0.058385   0.000000  -0.068998   0.229185
   19  P  2 XY   -0.000000   0.064508   0.000000   0.195258   0.772438
   20  P  2 XZ   -0.003376  -0.000000   0.450902  -0.000000   0.000000
   21  P  2 YZ   -0.007947  -0.000000   0.062532  -0.000000   0.000000
   22  C  3  S   -0.000000   0.014512   0.000000   0.000925   0.009603
   23  C  3  S   -0.000000  -0.147565   0.000000  -0.011926  -0.010163
   24  C  3  X   -0.000000  -0.621591   0.000000   0.131588   0.032218
   25  C  3  Y   -0.000000  -0.083711   0.000000  -1.040914   0.137860
   26  C  3  Z    0.145622  -0.000000  -0.582609  -0.000000   0.000000
   27  C  3  S   -0.000000   0.167229   0.000000   0.016953   0.049472
   28  C  3  X   -0.000000   2.131068   0.000000  -0.188798  -0.122798
   29  C  3  Y   -0.000000   0.281597   0.000000   1.125577  -0.276425
   30  C  3  Z    0.190726  -0.000000   1.189678  -0.000000   0.000000
   31  C  3 XX   -0.000000   0.066361   0.000000   0.000296   0.054423
   32  C  3 YY   -0.000000   0.025305   0.000000  -0.003832  -0.055719
   33  C  3 ZZ   -0.000000  -0.123394   0.000000  -0.004373   0.007903
   34  C  3 XY   -0.000000   0.007121   0.000000  -0.012907  -0.120533
   35  C  3 XZ    0.010129  -0.000000  -0.127592  -0.000000   0.000000
   36  C  3 YZ    0.002176  -0.000000  -0.015130  -0.000000   0.000000
   37  H  4  S    0.005349  -0.358494   0.398087   0.009117   0.061252
   38  H  4  S    0.490395  -0.499642   0.049927   0.023653   0.033644
   39  H  5  S   -0.005349  -0.358494  -0.398087   0.009117   0.061252
   40  H  5  S   -0.490395  -0.499642  -0.049927   0.023653   0.033644

                     26         27         28         29         30
                    0.9356     0.9773     1.0384     1.1364     1.1592
                     A          A          A          A          A   
    1  H  1  S    0.000000  -0.427030  -0.260485  -0.000000  -0.135835
    2  H  1  S    0.000000   1.355388   0.499434  -0.000000  -0.380674
    3  P  2  S    0.000000   0.008476   0.001472  -0.000000  -0.009815
    4  P  2  S    0.000000  -0.000500   0.006411  -0.000000  -0.043083
    5  P  2  X    0.000000   0.035485   0.071626  -0.000000   0.002142
    6  P  2  Y    0.000000  -0.068355  -0.016972  -0.000000  -0.013190
    7  P  2  Z    0.004549   0.000000   0.000000   0.016557   0.000000
    8  P  2  S    0.000000   0.250246   0.105983  -0.000000  -0.431872
    9  P  2  X    0.000000  -0.139984  -0.454846  -0.000000   0.030024
   10  P  2  Y    0.000000   0.263580   0.022076  -0.000000   0.048447
   11  P  2  Z   -0.017611   0.000000   0.000000  -0.106394   0.000000
   12  P  2  S    0.000000  -0.999807  -1.531344  -0.000000   1.648835
   13  P  2  X    0.000000   0.226021  -0.719490  -0.000000   0.829610
   14  P  2  Y    0.000000  -0.995055  -0.372384  -0.000000   0.450429
   15  P  2  Z   -0.003619   0.000000   0.000000  -0.279483   0.000000
   16  P  2 XX    0.000000   0.354022   0.193941  -0.000000   0.765167
   17  P  2 YY    0.000000  -0.787594   0.042738  -0.000000   0.006073
   18  P  2 ZZ    0.000000   0.410461  -0.366303  -0.000000  -0.760564
   19  P  2 XY    0.000000  -0.433905  -0.037007  -0.000000   0.064531
   20  P  2 XZ   -0.173702   0.000000   0.000000  -0.551616   0.000000
   21  P  2 YZ    0.982866   0.000000   0.000000  -0.112132   0.000000
   22  C  3  S    0.000000   0.008695  -0.071298  -0.000000   0.086237
   23  C  3  S    0.000000   0.020635  -1.222948  -0.000000   0.026536
   24  C  3  X    0.000000   0.082730   0.489260  -0.000000  -0.125704
   25  C  3  Y    0.000000  -0.194067   0.073866  -0.000000   0.027789
   26  C  3  Z   -0.021948   0.000000   0.000000  -1.013473   0.000000
   27  C  3  S    0.000000  -0.030119   2.815665  -0.000000  -0.864011
   28  C  3  X    0.000000  -0.244394  -1.082088  -0.000000   0.885218
   29  C  3  Y    0.000000   0.468478  -0.172870  -0.000000   0.053183
   30  C  3  Z    0.051593   0.000000   0.000000   2.211520   0.000000
   31  C  3 XX    0.000000  -0.006544  -0.150020  -0.000000   0.115995
   32  C  3 YY    0.000000   0.001526   0.024288  -0.000000  -0.142172
   33  C  3 ZZ    0.000000   0.022219  -0.187915  -0.000000   0.077934
   34  C  3 XY    0.000000   0.108660  -0.029896  -0.000000   0.044678
   35  C  3 XZ   -0.005098   0.000000   0.000000   0.158547   0.000000
   36  C  3 YZ    0.039144   0.000000   0.000000   0.028577   0.000000
   37  H  4  S    0.001949   0.054007  -0.379086  -0.341802   0.489069
   38  H  4  S    0.022340   0.059148   0.056162   1.537130  -0.628011
   39  H  5  S   -0.001949   0.054007  -0.379086   0.341802   0.489069
   40  H  5  S   -0.022340   0.059148   0.056162  -1.537130  -0.628011

                     31         32         33         34         35
                    1.1895     1.2187     1.3984     1.9294     2.0609
                     A          A          A          A          A   
    1  H  1  S   -0.025775  -0.000000   1.169396   0.000000  -0.097849
    2  H  1  S    0.078863  -0.000000  -0.989288   0.000000  -0.025944
    3  P  2  S    0.001075  -0.000000  -0.013809   0.000000   0.000758
    4  P  2  S    0.018825  -0.000000   0.050453   0.000000  -0.008573
    5  P  2  X    0.018031  -0.000000  -0.005310   0.000000   0.006297
    6  P  2  Y    0.001606  -0.000000   0.084058   0.000000  -0.035342
    7  P  2  Z    0.000000  -0.010055  -0.000000  -0.002862   0.000000
    8  P  2  S    0.103780  -0.000000  -0.232387   0.000000  -0.001453
    9  P  2  X   -0.133922  -0.000000  -0.042954   0.000000  -0.016229
   10  P  2  Y   -0.016530  -0.000000  -0.290995   0.000000   0.117072
   11  P  2  Z    0.000000   0.008811  -0.000000   0.010331   0.000000
   12  P  2  S   -0.573761  -0.000000   0.292806   0.000000   0.102021
   13  P  2  X   -0.365443  -0.000000  -0.080601   0.000000   0.007324
   14  P  2  Y   -0.101895  -0.000000   0.265522   0.000000   0.132653
   15  P  2  Z    0.000000   0.286386  -0.000000   0.011821   0.000000
   16  P  2 XX   -0.401767  -0.000000   0.367776   0.000000  -0.103679
   17  P  2 YY    0.078002  -0.000000  -0.626333   0.000000   0.133420
   18  P  2 ZZ    0.275819  -0.000000   0.268784   0.000000  -0.041473
   19  P  2 XY   -0.097047  -0.000000   0.395557   0.000000   0.280913
   20  P  2 XZ    0.000000   0.749646  -0.000000   0.040773   0.000000
   21  P  2 YZ    0.000000   0.133402  -0.000000  -0.053942   0.000000
   22  C  3  S   -0.012778  -0.000000  -0.001610   0.000000   0.000402
   23  C  3  S   -1.402736  -0.000000  -0.445802   0.000000   0.017670
   24  C  3  X   -0.572647  -0.000000   0.136129   0.000000  -0.015056
   25  C  3  Y   -0.073846  -0.000000   0.025493   0.000000   0.055598
   26  C  3  Z    0.000000  -0.290083  -0.000000   0.012779   0.000000
   27  C  3  S    3.287836  -0.000000   0.762271   0.000000  -0.034548
   28  C  3  X    0.456457  -0.000000  -0.064105   0.000000   0.080267
   29  C  3  Y    0.037282  -0.000000  -0.016622   0.000000  -0.159037
   30  C  3  Z    0.000000  -0.554624  -0.000000  -0.052205   0.000000
   31  C  3 XX   -0.216539  -0.000000   0.021262   0.000000  -0.285742
   32  C  3 YY   -0.119741  -0.000000  -0.064085   0.000000   0.233669
   33  C  3 ZZ    0.050002  -0.000000  -0.010325   0.000000   0.051077
   34  C  3 XY   -0.022913  -0.000000   0.048261   0.000000   0.954773
   35  C  3 XZ    0.000000   0.146664  -0.000000  -0.098289   0.000000
   36  C  3 YZ    0.000000   0.000732  -0.000000   0.994500   0.000000
   37  H  4  S    0.472272  -0.664023  -0.010033  -0.005944  -0.003607
   38  H  4  S   -1.202401   0.259205  -0.205167  -0.025268  -0.020526
   39  H  5  S    0.472272   0.664023  -0.010033   0.005944  -0.003607
   40  H  5  S   -1.202401  -0.259205  -0.205167   0.025268  -0.020526

                     36         37         38         39         40
                    2.3573     2.4394     2.5476     3.8470     4.4956
                     A          A          A          A          A   
    1  H  1  S   -0.060031  -0.059514  -0.000000   0.055268   0.036869
    2  H  1  S    0.173558   0.149486  -0.000000  -0.086186   0.016212
    3  P  2  S   -0.001924  -0.026742  -0.000000   0.167839  -0.015331
    4  P  2  S    0.025832   0.096965  -0.000000  -0.665692   0.057741
    5  P  2  X    0.031998   0.107053  -0.000000   0.015366  -0.029153
    6  P  2  Y    0.003509   0.016395  -0.000000   0.003979  -0.002797
    7  P  2  Z    0.000000   0.000000  -0.020808   0.000000   0.000000
    8  P  2  S    0.021781  -0.767658  -0.000000   7.119786  -0.785878
    9  P  2  X   -0.153534  -0.618525  -0.000000  -0.099428   0.030881
   10  P  2  Y   -0.018358  -0.098024  -0.000000  -0.022155  -0.000958
   11  P  2  Z    0.000000   0.000000   0.071680   0.000000   0.000000
   12  P  2  S   -0.437289  -0.739384  -0.000000  -0.598454  -0.317473
   13  P  2  X   -0.179655  -0.301991  -0.000000  -0.044835  -0.244581
   14  P  2  Y   -0.127827  -0.137157  -0.000000   0.029744  -0.065512
   15  P  2  Z    0.000000   0.000000  -0.127510   0.000000   0.000000
   16  P  2 XX   -0.129568  -0.317290  -0.000000  -3.032381   0.416085
   17  P  2 YY    0.097733   0.413828  -0.000000  -2.932492   0.286399
   18  P  2 ZZ    0.043004   0.470690  -0.000000  -2.925608   0.322807
   19  P  2 XY   -0.056520  -0.146050  -0.000000  -0.019535   0.029591
   20  P  2 XZ    0.000000   0.000000   0.101450   0.000000   0.000000
   21  P  2 YZ    0.000000   0.000000   0.020138   0.000000   0.000000
   22  C  3  S   -0.064852  -0.029972  -0.000000  -0.060650  -0.465075
   23  C  3  S   -0.216427  -0.449058  -0.000000   0.175810   3.032711
   24  C  3  X    0.067267   0.040299  -0.000000  -0.031340   0.028037
   25  C  3  Y    0.001344   0.003902  -0.000000  -0.005240   0.008214
   26  C  3  Z    0.000000   0.000000   0.173461   0.000000   0.000000
   27  C  3  S    1.134988   1.076468  -0.000000   0.260283   1.825737
   28  C  3  X    0.045938  -0.993459  -0.000000  -0.117056  -0.059785
   29  C  3  Y    0.005381  -0.137378  -0.000000  -0.022002  -0.015886
   30  C  3  Z    0.000000   0.000000   0.519225   0.000000   0.000000
   31  C  3 XX    0.121738   1.023861  -0.000000   0.058326  -1.854399
   32  C  3 YY   -1.021213  -0.339727  -0.000000  -0.231080  -1.812687
   33  C  3 ZZ    0.794494  -0.725922  -0.000000  -0.283184  -1.876137
   34  C  3 XY    0.160320   0.282910  -0.000000   0.057943  -0.007909
   35  C  3 XZ    0.000000   0.000000   1.124999   0.000000   0.000000
   36  C  3 YZ    0.000000   0.000000   0.111173   0.000000   0.000000
   37  H  4  S   -0.573510   0.154625   0.704601   0.044256   0.175884
   38  H  4  S   -0.045489   0.077900  -0.038861  -0.019571  -0.395594
   39  H  5  S   -0.573510   0.154625  -0.704601   0.044256   0.175884
   40  H  5  S   -0.045489   0.077900   0.038861  -0.019571  -0.395594

 THIS RUN IS GOING TO SOLVE THE CP-MC-HF RESPONSE EQUATIONS,
 USING CANONICAL ACTIVE ORBITALS TO IMPROVE THEIR CONVERGENCE.
 ROTATION OF THE ACTIVE ORBITALS REQUIRES REGENERATION OF THE CI STATES,
 THE 1 PARTICLE DENSITY, AND THE 2 PARTICLE DENSITY OVER THE NEW ACTIVE
 ORBITALS.  AWAY WE GO...

          ------------------------------
          CASSCF INTEGRAL TRANSFORMATION
          ------------------------------
 AO INTEGRALS WILL BE READ IN FROM DISK...

 NUMBER OF CORE MOLECULAR ORBITALS     =     9
 NUMBER OF OCCUPIED MOLECULAR ORBITALS =    14
 TOTAL NUMBER OF MOLECULAR ORBITALS    =    40
 TOTAL NUMBER OF ATOMIC ORBITALS       =    40

 ----- CHOOSING THREE STEPS TRANSFORMATION -----
 NUMBER OF WORDS USED      =     240401
 NUMBER OF WORDS AVAILABLE =    1959100
 NUMBER OF PASSES          =          1

 ----- NUCLEAR REPULSION ENERGY =     46.04469773
 ----- FROZEN CORE ENERGY       =   -418.25396429

 ... SYMMETRY ...           CPU =    0.00
 ... (PQ|RS) -> (PQ|KL) ... CPU =    0.01
 ... (PQ|KL) -> (IJ|KL) ... CPU =    0.00

 NUMBER OF (PQ|KL) INTEGRALS WRITTEN       7905
 NUMBER OF (IJ|KL) INTEGRALS WRITTEN         76
 ..... END OF CAS INTEGRAL TRANSFORMATION .....
 STEP CPU TIME =     0.08 TOTAL CPU TIME =        0.2 (    0.0 MIN)
 TOTAL WALL CLOCK TIME=        0.2 SECONDS, CPU UTILIZATION IS  95.65%

     --------------------------------------------------
          AMES LABORATORY DETERMINANTAL FULL CI
     PROGRAM WRITTEN BY JOE IVANIC AND KLAUS RUEDENBERG
     --------------------------------------------------

 THE NUMBER OF DETERMINANTS HAVING SPACE SYMMETRY A  
 IN POINT GROUP C1   WITH SZ=  0.0 IS            100
 WHICH INCLUDES             50 CSFS WITH S=  0.0
 WHICH INCLUDES             45 CSFS WITH S=  1.0
 WHICH INCLUDES              5 CSFS WITH S=  2.0
 THE DETERMINANT FULL CI REQUIRES          173788 WORDS
 SMALL CI MATRIX, JUST USING INCORE DIAGONALIZATION...

 CI EIGENVECTORS WILL BE LABELED IN GROUP=C1      
 PRINTING CI COEFFICIENTS LARGER THAN 5.000E-02

 STATE   1  ENERGY=      -380.2647728517  S=  1.00  SZ=  0.00  SPACE SYM=A   

ALPHA  |BETA   | CI COEFFICIENT
-------|-------|---------------
 11100 | 11010 |   0.6896516638
 11010 | 11100 |  -0.6896516638
 10110 | 11010 |   0.1250550982
 11010 | 10110 |  -0.1250550982
 01101 | 01011 |  -0.0526274501
 01011 | 01101 |   0.0526274501

 STATE   2  ENERGY=      -380.2631924735  S=  0.00  SZ=  0.00  SPACE SYM=A   

ALPHA  |BETA   | CI COEFFICIENT
-------|-------|---------------
 11010 | 11100 |   0.6839290840
 11100 | 11010 |   0.6839290840
 11010 | 10110 |   0.1500468660
 10110 | 11010 |   0.1500468660
 01011 | 01101 |  -0.0536491553
 01101 | 01011 |  -0.0536491553

 STATE   3  ENERGY=      -380.2052283934  S=  0.00  SZ=  0.00  SPACE SYM=A   

ALPHA  |BETA   | CI COEFFICIENT
-------|-------|---------------
 11100 | 11100 |   0.9007144772
 10110 | 11100 |  -0.2451073780
 11100 | 10110 |  -0.2451073780
 10110 | 10110 |  -0.2015267003
 01101 | 01101 |  -0.0591442866
 ..... DONE WITH DETERMINANT CI COMPUTATION .....
 STEP CPU TIME =     0.00 TOTAL CPU TIME =        0.2 (    0.0 MIN)
 TOTAL WALL CLOCK TIME=        0.2 SECONDS, CPU UTILIZATION IS  91.67%

     --------------------------------------------------
      ONE AND TWO PARTICLE DENSITY MATRIX COMPUTATION
     PROGRAM WRITTEN BY JOE IVANIC AND KLAUS RUEDENBERG
     --------------------------------------------------

      31074 WORDS WILL BE USED TO FORM THE DENSITIES
 THE DENSITIES ARE STATE AVERAGED OVER   2 ROOT(S)
 STATE=   2   ENERGY=     -380.2631924735   WEIGHT= 0.50000   S=  0.00
 STATE=   3   ENERGY=     -380.2052283934   WEIGHT= 0.50000   S=  0.00
 SIEVING THE A    SYMMETRY NONZERO DENSITY ELEMENTS IN GROUP C1      
         76 NONZERO DM2 ELEMENTS WRITTEN IN       1 RECORDS TO FILE 15
 ..... DONE WITH 1 AND 2 PARTICLE DENSITY MATRIX .....
 STEP CPU TIME =     0.00 TOTAL CPU TIME =        0.2 (    0.0 MIN)
 TOTAL WALL CLOCK TIME=        0.2 SECONDS, CPU UTILIZATION IS  91.67%
 .....DONE WITH MCSCF ITERATIONS.....
 STEP CPU TIME =     0.00 TOTAL CPU TIME =        0.2 (    0.0 MIN)
 TOTAL WALL CLOCK TIME=        0.2 SECONDS, CPU UTILIZATION IS  91.67%
 DDI: Creating Array [0] - 1600 x 105 = 168000 words.
 DDI: Creating Array [1] - 26 x 1470 = 38220 words.
 DDI: Creating Array [2] - 105 x 105 = 11025 words.
 DDI: Creating Array [3] - 820 x 105 = 86100 words.

     ----------------------------------------------------------------
     PROPERTY VALUES FOR THE MCSCF SELF-CONSISTENT FIELD WAVEFUNCTION
     ----------------------------------------------------------------

 THIS MCSCF AVERAGED   2 ROOTS OF DIFFERENT ENERGY.
 SINCE NO STATE-SPECIFIC DENSITY MATRIX IS AVAILABLE,
 PROPERTIES WILL NOT BE COMPUTED.


     --------------------------------------------
     PARTIAL TWO ELECTRON INTEGRAL TRANSFORMATION
     --------------------------------------------

 NUMBER OF CORE MOLECULAR ORBITALS     =    0
 NUMBER OF OCCUPIED MOLECULAR ORBITALS =   14
 TOTAL NUMBER OF MOLECULAR ORBITALS    =   40
 TOTAL NUMBER OF ATOMIC ORBITALS       =   40
 THRESHOLD FOR KEEPING TRANSFORMED 2E- INTEGRALS = 1.000E-09

 -------------------------------     ------------------------------
 DISTRIBUTED DATA TRANSFORMATION     PROGRAM WRITTEN BY G. FLETCHER
 -------------------------------     ------------------------------

 THE DISTRIBUTED MEMORY REQUIRED FOR THIS STEP IS MEMDDI=         1 MWORDS
 CREATING DISTRIBUTED STORAGE FOR [VIR OCC|VIR OCC] INTEGRALS
 CREATING DISTRIBUTED STORAGE FOR [VIR OCC|OCC OCC] INTEGRALS
 CREATING DISTRIBUTED STORAGE FOR [OCC OCC|OCC OCC] INTEGRALS
 CREATING DISTRIBUTED STORAGE FOR [VIR VIR|OCC OCC] INTEGRALS
 FOR    1 PROCESSORS, THE REPLICATED MEMORY NEEDED IS      121838 WORDS.

      DIRECT 4-INDEX TRANSFORMATION 
      SCHWARZ INEQUALITY TEST SKIPPED          0 INTEGRAL BLOCKS
 ... END OF INTEGRAL TRANSFORMATION ...
 CPU     0: STEP CPU TIME=     0.15 TOTAL CPU TIME=        0.4 (    0.0 MIN)
 TOTAL WALL CLOCK TIME=        0.4 SECONDS, CPU UTILIZATION IS  94.87%

     ---------------------------------------------
     1ST AND 2ND INTEGRAL DERIVATIVE CONTRIBUTIONS
     ---------------------------------------------
 ...... END OF 1-ELECTRON GRAD+HESS+FOCKDER ......
 CPU     0: STEP CPU TIME=     0.00 TOTAL CPU TIME=        0.4 (    0.0 MIN)
 TOTAL WALL CLOCK TIME=        0.4 SECONDS, CPU UTILIZATION IS  94.87%

     ----------------------------------------------
     TWO ELECTRON INTEGRAL DERIVATIVE CONTRIBUTIONS
     ----------------------------------------------

     146390 WORDS REQUIRED,   2000000 WORDS AVAILABLE
 THE COARSE/FINE SCHWARZ SCREENINGS SKIPPED          0/         0 BLOCKS.
 THE NUMBER OF DERIVATIVE INTEGRAL BLOCKS COMPUTED WAS      7067
 CPU     0: STEP CPU TIME=     1.28 TOTAL CPU TIME=        1.6 (    0.0 MIN)
 TOTAL WALL CLOCK TIME=        1.7 SECONDS, CPU UTILIZATION IS  98.80%
 ...... END OF 2-ELECTRON GRAD+HESS+LAGDER ......
 CPU     0: STEP CPU TIME=     0.00 TOTAL CPU TIME=        1.6 (    0.0 MIN)
 TOTAL WALL CLOCK TIME=        1.7 SECONDS, CPU UTILIZATION IS  98.80%
 COMPUTING NACME FOR STATE WITH E=     -380.2631924735 S=  0.0
 COMPUTING NACME FOR STATE WITH E=     -380.2052283934 S=  0.0

     -------------------------------------------------
     COUPLED-PERTURBED MULTICONFIGURATION HARTREE-FOCK
     Z-VECTOR VERSION
     -------------------------------------------------

 SETTING UP RIGHT-HAND SIDE OF CPMCHF EQUATIONS.
 # OF WORDS REQUIRED  =     124055
 # OF WORDS AVAILABLE =    2000000
 NOTE THAT THE CP-MCHF DISTRIBUTED MEMORY REQUIREMENTS ARE JUST THE
 MEMORY NEEDED TO STORE TRANSFORMED INTEGRAL CLASSES (ALLOCATED ABOVE).

  --- DIPOLE MOMENTS (DEBYE) ---
  1,  1 :  DIPOLE    1.046046    0.925473   -0.000000    1.396679
  1,  2 : TDIPOLE   -0.000000   -0.000000   -1.195390    1.195390
  2,  2 :  DIPOLE    2.285500    0.896961    0.000000    2.455209

  --- OSCILLATOR STRENGTHS  ---

             1           2

    1    0.0000000
    2    0.0085470   0.0000000


 CALCULATING MCSCF ELECTRONIC HESSIAN ON THE FLY.
 # OF ORBITAL ROTATIONS   =        409
 LENGTH OF DET. EXPANSION =        100

 SOLVING CPMCHF EQUATIONS - ESSENTIAL MEMORY.
 # OF WORDS REQUIRED  =     157111
 # OF WORDS AVAILABLE =    2000000
 DDI: Creating Array [4] - 1 x 1 = 1 words.
 DDI: Creating Array [5] - 1 x 1 = 1 words.
 DDI: Creating Array [6] - 1 x 1 = 1 words.
 DDI: Creating Array [7] - 1 x 1 = 1 words.

 MASTER NODE HAS FINISHED WITH (OO|OO) INTEGRALS, T=    0.0
 MASTER NODE HAS FINISHED WITH (VO|OO) INTEGRALS, T=    0.0
 MASTER NODE HAS FINISHED WITH (VV|OO) INTEGRALS, T=    0.0
 MASTER NODE HAS FINISHED WITH (VO|VO) INTEGRALS, T=    0.0

 FINISHED SETTING UP RIGHT-HAND SIDE.
 CPU     0: STEP CPU TIME=     0.08 TOTAL CPU TIME=        1.7 (    0.0 MIN)
 TOTAL WALL CLOCK TIME=        1.8 SECONDS, CPU UTILIZATION IS  98.86%

 SOLVING FOR    3 NUCLEAR RESPONSES AND 0 ELECTRIC FIELD RESPONSES

 SOLVING CPMCHF EQUATIONS - EXTRA SOLVER MEMORY.
 # OF WORDS REQUIRED  =       2452
 # OF WORDS AVAILABLE =    1842889

 PRECONDITIONED CONJUGATE GRADIENT SOLVER    CONV. TOLERANCE=1.00E-07
 ITER   RESPONSE ERROR    IMPROVED     ORB-ORB     CI-ORB
   1      4.50682E+00         3            0.0        0.0
 DUE TO LARGE RES. NORM, GUESS SET TO 0 VECTOR.
   1      4.94468E-02         3            0.0        0.0
   2      2.42781E-02         3            0.0        0.0
   3      1.10612E-02         3            0.0        0.0
   4      8.84097E-03         3            0.0        0.0
   5      8.62780E-03         3            0.0        0.0
   6      5.04873E-03         3            0.0        0.0
   7      5.42146E-03         3            0.0        0.0
   8      3.62446E-03         3            0.0        0.0
   9      2.05852E-03         3            0.0        0.0
  10      2.20174E-03         3            0.0        0.0
  11      1.06958E-03         3            0.0        0.0
  12      9.29884E-04         3            0.0        0.0
  13      4.06355E-04         3            0.0        0.0
  14      4.31230E-04         3            0.0        0.0
  15      4.53097E-04         3            0.0        0.0
  16      4.41337E-04         3            0.0        0.0
  17      2.37617E-04         3            0.0        0.0
  18      2.38780E-04         3            0.0        0.0
  19      8.80283E-05         3            0.0        0.0
  20      8.97356E-05         3            0.0        0.0
  21      5.08034E-05         3            0.0        0.0
  22      4.89902E-05         3            0.0        0.0
  23      3.94125E-05         3            0.0        0.0
  24      3.22621E-05         3            0.0        0.0
  25      2.27207E-05         3            0.0        0.0
  26      1.89104E-05         3            0.0        0.0
  27      1.09525E-05         3            0.0        0.0
  28      9.96407E-06         3            0.0        0.0
  29      4.75338E-06         3            0.0        0.0
  30      3.93862E-06         3            0.0        0.0
  31      4.41131E-06         3            0.0        0.0
  32      2.13446E-06         3            0.0        0.0
  33      2.26896E-06         2            0.0        0.0
  34      1.33917E-06         2            0.0        0.0
  35      1.24559E-06         2            0.0        0.0
  36      1.01004E-06         2            0.0        0.0
  37      7.02036E-07         2            0.0        0.0
  38      3.54217E-07         2            0.0        0.0
  39      4.81413E-07         2            0.0        0.0
  40      1.77213E-07         2            0.0        0.0
  41      2.69249E-07         2            0.0        0.0
  42      1.31803E-07         2            0.0        0.0
  43      9.26577E-08         0            0.0        0.0
 RESET PDIRX AND RESIDUAL.
  44      9.26577E-08         0            0.0        0.0
 THE CPMCHF HAS CONVERGED AFTER  44 ITERATIONS.

 STATE-SPECIFIC GRADIENT OF STATE   1 (OVERALL STATE   2)
 ENERGY=     -380.2631924735 SPIN=  0.00 WEIGHT= 0.500000

 UNITS ARE HARTREE/BOHR    E'X               E'Y               E'Z 
    1 H               -0.000931155      -0.000242512       0.000000000
    2 P                0.017700407       0.003800116      -0.000000000
    3 C               -0.017105230      -0.003499771       0.000000000
    4 H                0.000167989      -0.000028917      -0.000060579
    5 H                0.000167989      -0.000028917       0.000060579

 STATE-SPECIFIC GRADIENT OF STATE   2 (OVERALL STATE   3)
 ENERGY=     -380.2052283934 SPIN=  0.00 WEIGHT= 0.500000

 UNITS ARE HARTREE/BOHR    E'X               E'Y               E'Z 
    1 H                0.003527048       0.007231770      -0.000000000
    2 P               -0.021492244      -0.009507824       0.000000000
    3 C                0.026121358      -0.013423590      -0.000000000
    4 H               -0.004078080       0.007849822      -0.000537686
    5 H               -0.004078081       0.007849823       0.000537686

 NACME FOR STATE J->I HAVE OPPOSITE SIGN TO THE NACME CONNECTING STATE I->J,
 SO ONLY NACME FOR I>J ARE PRINTED, FOR STATES WITH SPIN QUANTUM NO. S=  0.00

 NONADIABATIC COUPLING MATRIX ELEMENT (NACME), IN ONE/BOHR
 <STATE  2, WEIGHT=   0.50000 | D/DQ | STATE  1, WEIGHT=   0.50000>
   ATOM               D/DX           D/DY           D/DZ
    1 H               0.0000001      0.0000000      0.6628457
    2 P              -0.0000000     -0.0000001     -0.9820587
    3 C              -0.0000000      0.0000001      0.2834682
    4 H              -0.0073873     -0.3266986     -0.0133533
    5 H               0.0073874      0.3266986     -0.0133533

 TOTAL REPLICATED MEMORY USED FOR NACME RESPONSES=       159563 WORDS.
 FREEING DISTRIBUTED STORAGE FOR [VIR VIR|OCC OCC] INTEGRALS
 FREEING DISTRIBUTED STORAGE FOR [OCC OCC|OCC OCC] INTEGRALS
 FREEING DISTRIBUTED STORAGE FOR [VIR OCC|OCC OCC] INTEGRALS
 FREEING DISTRIBUTED STORAGE FOR [VIR OCC|VIR OCC] INTEGRALS

 ...... DONE WITH CPMCHF EQUATIONS ......
 CPU     0: STEP CPU TIME=     1.30 TOTAL CPU TIME=        3.0 (    0.1 MIN)
 TOTAL WALL CLOCK TIME=        3.1 SECONDS, CPU UTILIZATION IS  99.02%
               580000  WORDS OF DYNAMIC MEMORY USED
 EXECUTION OF GAMESS TERMINATED NORMALLY Fri Jun  2 03:59:30 2017
 DDI: 2690432 bytes (2.6 MB / 0 MWords) used by master data server.

 ----------------------------------------
 CPU timing information for all processes
 ========================================
 0: 2.978 + 0.60 = 3.39
 ----------------------------------------
 ddikick.x: exited gracefully.
unset echo
----- accounting info -----
Files used on the master node compute-0-2.local were:
-rw-rw-r-- 1 sarom sarom   30858 Jun  2 03:59 /scratch/mc-nacme-h2cph.F05
-rw-rw-r-- 1 sarom sarom 2700240 Jun  2 03:59 /scratch/mc-nacme-h2cph.F08
-rw-rw-r-- 1 sarom sarom    6568 Jun  2 03:59 /scratch/mc-nacme-h2cph.F09
-rw-rw-r-- 1 sarom sarom 2421280 Jun  2 03:59 /scratch/mc-nacme-h2cph.F10
-rw-rw-r-- 1 sarom sarom    2448 Jun  2 03:59 /scratch/mc-nacme-h2cph.F12
-rw-rw-r-- 1 sarom sarom   79552 Jun  2 03:59 /scratch/mc-nacme-h2cph.F13
-rw-rw-r-- 1 sarom sarom  180864 Jun  2 03:59 /scratch/mc-nacme-h2cph.F15
-rw-rw-r-- 1 sarom sarom  707272 Jun  2 03:59 /scratch/mc-nacme-h2cph.F16
-rw-rw-r-- 1 sarom sarom  192120 Jun  2 03:59 /scratch/mc-nacme-h2cph.F18
-rw-rw-r-- 1 sarom sarom   24120 Jun  2 03:59 /scratch/mc-nacme-h2cph.F19
rm: cannot remove `/scratch/sarom': Is a directory
rm: cannot remove `/scratch/tmp': Is a directory
ls: No match.
ls: No match.
ls: No match.
Fri Jun  2 03:59:33 CDT 2017
0.147u 0.045s 0:06.32 2.8%	0+0k 64+440io 0pf+0w
Deleting shmid=3964928.
Deleting shmid=3997697.
Deleting shmid=4227074.
/opt/gridengine/default/spool/compute-0-2/active_jobs/23906.1/pe_hostfile compute-0-2.local
