----- GAMESS execution script 'rungms' -----
This job is running on host compute-3-0
under operating system Linux at Tue Nov 29 03:47:15 CST 2016
Available scratch disk space (Kbyte units) at beginning of the job is
Filesystem            1K-blocks       Used  Available Use% Mounted on
bolt.local:/export/home/sarom
                     9590469632 1553496064 7549805568  18% /home/sarom
Copying input file criegee.inp to your run's scratch directory...
cp criegee.inp .//criegee.F05
unset echo
/home/sarom/gamessGH/ddikick.x /home/sarom/gamessGH/gamess.00.x criegee -ddi 1 1 localhost -scr ./

 Distributed Data Interface kickoff program.
 Initiating 1 compute processes on 1 nodes to run the following command:
 /home/sarom/gamessGH/gamess.00.x criegee 

          ******************************************************
          *         GAMESS VERSION = 18 AUG 2016 (R1)          *
          *             FROM IOWA STATE UNIVERSITY             *
          * M.W.SCHMIDT, K.K.BALDRIDGE, J.A.BOATZ, S.T.ELBERT, *
          *   M.S.GORDON, J.H.JENSEN, S.KOSEKI, N.MATSUNAGA,   *
          *          K.A.NGUYEN, S.J.SU, T.L.WINDUS,           *
          *       TOGETHER WITH M.DUPUIS, J.A.MONTGOMERY       *
          *         J.COMPUT.CHEM.  14, 1347-1363(1993)        *
          **************** 64 BIT LINUX VERSION ****************

  SINCE 1993, STUDENTS AND POSTDOCS WORKING AT IOWA STATE UNIVERSITY
  AND ALSO IN THEIR VARIOUS JOBS AFTER LEAVING ISU HAVE MADE IMPORTANT
  CONTRIBUTIONS TO THE CODE:
     IVANA ADAMOVIC, CHRISTINE AIKENS, YURI ALEXEEV, POOJA ARORA,
     ANDREY ASADCHEV, ROB BELL, PRADIPTA BANDYOPADHYAY, JONATHAN BENTZ,
     BRETT BODE, KURT BRORSEN, CALEB CARLIN, GALINA CHABAN, WEI CHEN,
     CHEOL HO CHOI, PAUL DAY, ALBERT DEFUSCO, NUWAN DESILVA, TIM DUDLEY,
     DMITRI FEDOROV, GRAHAM FLETCHER, MARK FREITAG, KURT GLAESEMANN,
     DAN KEMP, GRANT MERRILL, NORIYUKI MINEZAWA, JONATHAN MULLIN,
     TAKESHI NAGATA, SEAN NEDD, HEATHER NETZLOFF, BOSILJKA NJEGIC, RYAN OLSON,
     MIKE PAK, SPENCER PRUITT, LUKE ROSKOP, JIM SHOEMAKER, LYUDMILA SLIPCHENKO,
     TONY SMITH, SAROM SOK LEANG, JIE SONG, TETSUYA TAKETSUGU, SIMON WEBB,
     PENG XU, SOOHAENG YOO, FEDERICO ZAHARIEV

  ADDITIONAL CODE HAS BEEN PROVIDED BY COLLABORATORS IN OTHER GROUPS:
     IOWA STATE UNIVERSITY:
          JOE IVANIC, AARON WEST, LAIMUTIS BYTAUTAS, KLAUS RUEDENBERG
     UNIVERSITY OF TOKYO: KIMIHIKO HIRAO, TAKAHITO NAKAJIMA,
          TAKAO TSUNEDA, MUNEAKI KAMIYA, SUSUMU YANAGISAWA,
          KIYOSHI YAGI, MAHITO CHIBA, SEIKEN TOKURA, NAOAKI KAWAKAMI
     UNIVERSITY OF AARHUS: FRANK JENSEN
     UNIVERSITY OF IOWA: VISVALDAS KAIRYS, HUI LI
     NATIONAL INST. OF STANDARDS AND TECHNOLOGY: WALT STEVENS, DAVID GARMER
     UNIVERSITY OF PISA: BENEDETTA MENNUCCI, JACOPO TOMASI
     UNIVERSITY OF MEMPHIS: HENRY KURTZ, PRAKASHAN KORAMBATH
     UNIVERSITY OF ALBERTA: TOBY ZENG, MARIUSZ KLOBUKOWSKI
     UNIVERSITY OF NEW ENGLAND: MARK SPACKMAN
     MIE UNIVERSITY: HIROAKI UMEDA
     NAT. INST. OF ADVANCED INDUSTRIAL SCIENCE AND TECHNOLOGY: KAZUO KITAURA
     MICHIGAN STATE UNIVERSITY:
          KAROL KOWALSKI, MARTA WLOCH, JEFFREY GOUR, JESSE LUTZ,
          WEI LI, PIOTR PIECUCH
     UNIVERSITY OF SILESIA: MONIKA MUSIAL, STANISLAW KUCHARSKI
     FACULTES UNIVERSITAIRES NOTRE-DAME DE LA PAIX:
          OLIVIER QUINET, BENOIT CHAMPAGNE
     UNIVERSITY OF CALIFORNIA - SANTA BARBARA: BERNARD KIRTMAN
     INSTITUTE FOR MOLECULAR SCIENCE:
          KAZUYA ISHIMURA, MICHIO KATOUDA, AND SHIGERU NAGASE
     UNIVERSITY OF NOTRE DAME: ANNA POMOGAEVA, DAN CHIPMAN
     KYUSHU UNIVERSITY:
          HARUYUKI NAKANO,
          FENG LONG GU, JACEK KORCHOWIEC, MARCIN MAKOWSKI, AND YURIKO AOKI,
          HIROTOSHI MORI AND EISAKU MIYOSHI
     PENNSYLVANIA STATE UNIVERSITY:
          TZVETELIN IORDANOV, CHET SWALINA, JONATHAN SKONE,
          SHARON HAMMES-SCHIFFER
     WASEDA UNIVERSITY:
          MASATO KOBAYASHI, TOMOKO AKAMA, TSUGUKI TOUMA,
          TAKESHI YOSHIKAWA, YASUHIRO IKABATA, JUNJI SEINO,
          YUYA NAKAJIMA, HIROMI NAKAI
     NANJING UNIVERSITY: SHUHUA LI
     UNIVERSITY OF NEBRASKA:
          PEIFENG SU, DEJUN SI, NANDUN THELLAMUREGE, YALI WANG, HUI LI
     UNIVERSITY OF ZURICH: ROBERTO PEVERATI, KIM BALDRIDGE
     N. COPERNICUS UNIVERSITY AND JACKSON STATE UNIVERSITY:
          MARIA BARYSZ
     UNIVERSITY OF COPENHAGEN: Jimmy Kromann, CASPER STEINMANN
     TOKYO INSTITUTE OF TECHNOLOGY: HIROYA NAKATA
     NAGOYA UNIVERSITY: YOSHIO NISHIMOTO, STEPHAN IRLE
     MOSCOW STATE UNIVERSITY: VLADIMIR MIRONOV

 EXECUTION OF GAMESS BEGUN Tue Nov 29 03:47:15 2016

            ECHO OF THE FIRST FEW INPUT CARDS -
 INPUT CARD>!  "Criegee intermediate" aka formaldehyde oxide aka carbonyl oxide.            
 INPUT CARD>!                                                                               
 INPUT CARD>!  The H2COO radical is an important intermediate in olefin ozonolysis.         
 INPUT CARD>!  See for example R.Criegee, Record Chem. Prog. 18, 111(1957)                  
 INPUT CARD>!  For a detailed theoretical investigation of ozonolysis, see                  
 INPUT CARD>!  D.Cremer, R.Crehuet, J.Anglada  J.Am.Chem.Soc. 123, 6127-6141(2001)          
 INPUT CARD>!  There is now a good experimental geometry for this radical, which            
 INPUT CARD>!  is found to be planar (not the out of plane CH2 group used below):           
 INPUT CARD>!  M.C.McCarthy, L.Cheng, K.N.Crabtree, O.Martinez, T.L.Nguen,                  
 INPUT CARD>!  C.C.Womack, J.F.Stanton   J.Phys.Chem.Lett. 4, 4133-4139(2013)               
 INPUT CARD>!                                                                               
 INPUT CARD>!  Here we do UHF on the "singlet" state, which is of course 50% triplet.       
 INPUT CARD>!  The job tests UHF natural orbital generation for this 1-A'' state.           
 INPUT CARD>!  There are 49 AOs, 46 MOs, 12 alpha and beta electrons.                       
 INPUT CARD>!                                                                               
 INPUT CARD>!  FINAL E= -188.5612522250, <S**2>=1.020, 19 iters, RMS=0.000001252            
 INPUT CARD>!  The UHF natural orbital occupancies for orbitals 11-14 are:                  
 INPUT CARD>!        1.9965(a'), 1.0000(a'), 1.0000(a''), 0.0035(a')                        
 INPUT CARD>!                                                                               
 INPUT CARD>!  This run takes 1 second on almost anything (8 Nov 2005)                      
 INPUT CARD>!                                                                               
 INPUT CARD> $contrl scftyp=uhf mult=1 runtyp=gradient ispher=1 nzvar=9 coord=zmt $end      
 INPUT CARD> $system mwords=2 $end                                                          
 INPUT CARD> $guess  guess=huckel norder=1 jorder(12)=13,12 $end                            
 INPUT CARD> $basis  gbasis=n31 ngauss=6 ndfunc=1 $end                                      
 INPUT CARD> $scf    uhfnos=.true. $end                                                     
 INPUT CARD> $data                                                                          
 INPUT CARD>Criegee intermediate...optimized geometry                                       
 INPUT CARD>Cs                                                                              
 INPUT CARD>                                                                                
 INPUT CARD>C                                                                               
 INPUT CARD>O 1 rCO                                                                         
 INPUT CARD>O 2 rOO 1 aOOC                                                                  
 INPUT CARD>H 1 rCH 2 aHCO 3  wHCOO                                                         
 INPUT CARD>H 1 rCH 2 aHCO 3 -wHCOO                                                         
 INPUT CARD>                                                                                
 INPUT CARD>rCO=1.3824615                                                                   
 INPUT CARD>rOO=1.3105794                                                                   
 INPUT CARD>rCH=1.0726882                                                                   
 INPUT CARD>aOOC=111.3307543                                                                
 INPUT CARD>aHCO=115.9378659                                                                
 INPUT CARD>wHCOO=76.6711805                                                                
 INPUT CARD> $end                                                                           
    2000000 WORDS OF MEMORY AVAILABLE

     BASIS OPTIONS
     -------------
     GBASIS=N31          IGAUSS=       6      POLAR=POPN31  
     NDFUNC=       1     NFFUNC=       0     DIFFSP=       F
     NPFUNC=       0      DIFFS=       F     BASNAM=        


     RUN TITLE
     ---------
 Criegee intermediate...optimized geometry                                       

 THE POINT GROUP OF THE MOLECULE IS CS      
 THE ORDER OF THE PRINCIPAL AXIS IS     0

 YOUR FULLY SUBSTITUTED Z-MATRIX IS
 C   
 O      1   1.3824615
 O      2   1.3105794  1  111.3308
 H      1   1.0726882  2  115.9379  3   76.6712  0
 H      1   1.0726882  2  115.9379  3  -76.6712  0

 THE MOMENTS OF INERTIA ARE (AMU-ANGSTROM**2)
 IXX=     8.589   IYY=    40.204   IZZ=    45.241

 ATOM      ATOMIC                      COORDINATES (BOHR)
           CHARGE         X                   Y                   Z
 C           6.0    -2.2139925236        0.3787974160        0.0000000000
 O           8.0     0.0221823315       -0.9719577086        0.0000000000
 O           8.0     1.9861007761        0.5369326047        0.0000000000
 H           1.0    -2.7556357893        1.1969431165        1.7737928153
 H           1.0    -2.7556357893        1.1969431165       -1.7737928153

          INTERNUCLEAR DISTANCES (ANGS.)
          ------------------------------

                1 C          2 O          3 O          4 H          5 H     

   1 C       0.0000000    1.3824615 *  2.2241686 *  1.0726882 *  1.0726882 *
   2 O       1.3824615 *  0.0000000    1.3105794 *  2.0878537 *  2.0878537 *
   3 O       2.2241686 *  1.3105794 *  0.0000000    2.7017088 *  2.7017088 *
   4 H       1.0726882 *  2.0878537 *  2.7017088 *  0.0000000    1.8773016 *
   5 H       1.0726882 *  2.0878537 *  2.7017088 *  1.8773016 *  0.0000000  

  * ... LESS THAN  3.000


     ATOMIC BASIS SET
     ----------------
 THE CONTRACTED PRIMITIVE FUNCTIONS HAVE BEEN UNNORMALIZED
 THE CONTRACTED BASIS FUNCTIONS ARE NOW NORMALIZED TO UNITY

  SHELL TYPE  PRIMITIVE        EXPONENT          CONTRACTION COEFFICIENT(S)

 C         

      1   S       1          3047.5248800    0.001834737132
      1   S       2           457.3695180    0.014037322813
      1   S       3           103.9486850    0.068842622264
      1   S       4            29.2101553    0.232184443216
      1   S       5             9.2866630    0.467941348435
      1   S       6             3.1639270    0.362311985337

      2   L       7             7.8682723   -0.119332419775    0.068999066591
      2   L       8             1.8812885   -0.160854151696    0.316423960957
      2   L       9             0.5442493    1.143456437840    0.744308290898

      3   L      10             0.1687145    1.000000000000    1.000000000000

      4   D      11             0.8000000    1.000000000000

 O         

      5   S      12          5484.6716600    0.001831074430
      5   S      13           825.2349460    0.013950172200
      5   S      14           188.0469580    0.068445078098
      5   S      15            52.9645000    0.232714335992
      5   S      16            16.8975704    0.470192897984
      5   S      17             5.7996353    0.358520852987

      6   L      18            15.5396162   -0.110777549525    0.070874268231
      6   L      19             3.5999336   -0.148026262701    0.339752839147
      6   L      20             1.0137618    1.130767015354    0.727158577316

      7   L      21             0.2700058    1.000000000000    1.000000000000

      8   D      22             0.8000000    1.000000000000

 O         

      9   S      23          5484.6716600    0.001831074430
      9   S      24           825.2349460    0.013950172200
      9   S      25           188.0469580    0.068445078098
      9   S      26            52.9645000    0.232714335992
      9   S      27            16.8975704    0.470192897984
      9   S      28             5.7996353    0.358520852987

     10   L      29            15.5396162   -0.110777549525    0.070874268231
     10   L      30             3.5999336   -0.148026262701    0.339752839147
     10   L      31             1.0137618    1.130767015354    0.727158577316

     11   L      32             0.2700058    1.000000000000    1.000000000000

     12   D      33             0.8000000    1.000000000000

 H         

     15   S      34            18.7311370    0.033494604338
     15   S      35             2.8253944    0.234726953484
     15   S      36             0.6401217    0.813757326146

     16   S      37             0.1612778    1.000000000000

 TOTAL NUMBER OF BASIS SET SHELLS             =   16
 NUMBER OF CARTESIAN GAUSSIAN BASIS FUNCTIONS =   49
 NOTE: THIS RUN WILL RESTRICT THE MO VARIATION SPACE TO SPHERICAL HARMONICS.
 THE NUMBER OF ORBITALS KEPT IN THE VARIATIONAL SPACE WILL BE PRINTED LATER.
 NUMBER OF ELECTRONS                          =   24
 CHARGE OF MOLECULE                           =    0
 SPIN MULTIPLICITY                            =    1
 NUMBER OF OCCUPIED ORBITALS (ALPHA)          =   12
 NUMBER OF OCCUPIED ORBITALS (BETA )          =   12
 TOTAL NUMBER OF ATOMS                        =    5
 THE NUCLEAR REPULSION ENERGY IS       69.0259948981

     $CONTRL OPTIONS
     ---------------
 SCFTYP=UHF          RUNTYP=GRADIENT     EXETYP=RUN     
 MPLEVL=       0     CITYP =NONE         CCTYP =NONE         VBTYP =NONE    
 DFTTYP=NONE         TDDFT =NONE    
 MULT  =       1     ICHARG=       0     NZVAR =       9     COORD =ZMT     
 PP    =NONE         RELWFN=NONE         LOCAL =NONE         NUMGRD=       F
 ISPHER=       1     NOSYM =       0     MAXIT =      30     UNITS =ANGS    
 PLTORB=       F     MOLPLT=       F     AIMPAC=       F     FRIEND=        
 NPRINT=       7     IREST =       0     GEOM  =INPUT   
 NORMF =       0     NORMP =       0     ITOL  =      20     ICUT  =       9
 INTTYP=BEST         GRDTYP=BEST         QMTTOL= 1.0E-06

     $SYSTEM OPTIONS
     ---------------
  REPLICATED MEMORY=     2000000 WORDS (ON EVERY NODE).
 DISTRIBUTED MEMDDI=           0 MILLION WORDS IN AGGREGATE,
 MEMDDI DISTRIBUTED OVER   1 PROCESSORS IS           0 WORDS/PROCESSOR.
 TOTAL MEMORY REQUESTED ON EACH PROCESSOR=     2000000 WORDS.
 TIMLIM=      525600.00 MINUTES, OR     365.0 DAYS.
 PARALL= F  BALTYP=  DLB     KDIAG=    0  COREFL= F
 MXSEQ2=     300 MXSEQ3=     150  mem10=         0

          ----------------
          PROPERTIES INPUT
          ----------------

     MOMENTS            FIELD           POTENTIAL          DENSITY
 IEMOM =       1   IEFLD =       0   IEPOT =       0   IEDEN =       0
 WHERE =COMASS     WHERE =NUCLEI     WHERE =NUCLEI     WHERE =NUCLEI  
 OUTPUT=BOTH       OUTPUT=BOTH       OUTPUT=BOTH       OUTPUT=BOTH    
 IEMINT=       0   IEFINT=       0                     IEDINT=       0
                                                       MORB  =       0
          EXTRAPOLATION IN EFFECT
          SOSCF IN EFFECT
          DIIS or SOSCF will be reset if energy rises
 ORBITAL PRINTING OPTION: NPREO=     1    49     2     1

     -------------------------------
     INTEGRAL TRANSFORMATION OPTIONS
     -------------------------------
     NWORD  =            0
     CUTOFF = 1.0E-09     MPTRAN =       0
     DIRTRF =       F     AOINTS =DUP     

          ----------------------
          INTEGRAL INPUT OPTIONS
          ----------------------
 NOPK  =       1 NORDER=       0 SCHWRZ=       F

   --- ENCODED Z MATRIX ---
 COORD  TYPE   I   J   K   L   M   N
    1      1    2   1
    2      1    3   2
    3      2    3   2   1
    4      1    5   1
    5      2    5   1   2
    6      3    5   1   2   3
    7      1    4   1
    8      2    4   1   2
    9      3    4   1   2   3

 THE DETERMINANT OF THE G MATRIX IS 10**(    -6)


                     --------------------
                     INTERNAL COORDINATES
                     --------------------

                 - - ATOMS - -         COORDINATE      COORDINATE
 NO.   TYPE    I  J  K  L  M  N        (BOHR,RAD)       (ANG,DEG)
 ----------------------------------------------------------------
   1 STRETCH   2  1                     2.6124734       1.3824615
   2 STRETCH   3  2                     2.4766360       1.3105794
   3 BEND      3  2  1                  1.9430882     111.3307543
   4 STRETCH   5  1                     2.0270868       1.0726882
   5 BEND      5  1  2                  2.0234975     115.9378659
   6 TORSION   5  1  2  3               1.3381645      76.6711805
   7 STRETCH   4  1                     2.0270868       1.0726882
   8 BEND      4  1  2                  2.0234975     115.9378659
   9 TORSION   4  1  2  3              -1.3381645     -76.6711805

     ------------------------------------------
     THE POINT GROUP IS CS , NAXIS= 0, ORDER= 2
     ------------------------------------------

 -- VARIATIONAL SPACE WILL BE RESTRICTED TO PURE SPHERICAL HARMONICS ONLY --
 AFTER EXCLUDING CONTAMINANT COMBINATIONS FROM THE CARTESIAN GAUSSIAN BASIS
 SET, THE NUMBER OF SPHERICAL HARMONICS KEPT IN THE VARIATION SPACE IS   46

     DIMENSIONS OF THE SYMMETRY SUBSPACES ARE
 A'  =   32     A'' =   14

 ..... DONE SETTING UP THE RUN .....
 STEP CPU TIME =     0.03 TOTAL CPU TIME =        0.0 (    0.0 MIN)
 TOTAL WALL CLOCK TIME=        0.0 SECONDS, CPU UTILIZATION IS 100.00%

                    --------------------------------
                    SINGLE POINT ENERGY AND GRADIENT
                    --------------------------------

          ********************
          1 ELECTRON INTEGRALS
          ********************
 ...... END OF ONE-ELECTRON INTEGRALS ......
 STEP CPU TIME =     0.00 TOTAL CPU TIME =        0.0 (    0.0 MIN)
 TOTAL WALL CLOCK TIME=        0.0 SECONDS, CPU UTILIZATION IS 100.00%

          -------------
          GUESS OPTIONS
          -------------
          GUESS =HUCKEL            NORB  =       0          NORDER=       1
          MIX   =       F          PRTMO =       F          PUNMO =       F
          TOLZ  = 1.0E-08          TOLE  = 1.0E-05
          SYMDEN=       F          PURIFY=       F

 INITIAL GUESS ORBITALS GENERATED BY HUCKEL   ROUTINE.
 HUCKEL GUESS REQUIRES     22562 WORDS.

 STATISTICS FOR GENERATION OF SYMMETRY ORBITAL -Q- MATRIX
 NUMBER OF CARTESIAN ATOMIC ORBITALS=         49
 NUMBER OF SPHERICAL CONTAMINANTS DROPPED=     3
 NUMBER OF LINEARLY DEPENDENT MOS DROPPED=     0
 TOTAL NUMBER OF MOS IN VARIATION SPACE=      46

 SYMMETRIES FOR INITIAL GUESS ORBITALS FOLLOW.  ALPHA SET(S).
    12 ORBITALS ARE OCCUPIED (    3 CORE ORBITALS).
     4=A'       5=A'       6=A'       7=A''      8=A'       9=A'      10=A'' 
    11=A'      12=A''     13=A'      14=A'      15=A''     16=A'      17=A'  
    18=A'      19=A'      20=A'      21=A'      22=A'  

 SYMMETRIES FOR INITIAL GUESS ORBITALS FOLLOW.   BETA SET(S).
    12 ORBITALS ARE OCCUPIED (    3 CORE ORBITALS).
     4=A'       5=A'       6=A'       7=A''      8=A'       9=A'      10=A'' 
    11=A'      12=A'      13=A''     14=A'      15=A''     16=A'      17=A'  
    18=A'      19=A'      20=A'      21=A'      22=A'  
 ...... END OF INITIAL ORBITAL SELECTION ......
 STEP CPU TIME =     0.01 TOTAL CPU TIME =        0.0 (    0.0 MIN)
 TOTAL WALL CLOCK TIME=        0.0 SECONDS, CPU UTILIZATION IS 133.33%

                    ----------------------
                    AO INTEGRAL TECHNOLOGY
                    ----------------------
     S,P,L SHELL ROTATED AXIS INTEGRALS, REPROGRAMMED BY
        KAZUYA ISHIMURA (IMS) AND JOSE SIERRA (SYNSTAR).
     S,P,D,L SHELL ROTATED AXIS INTEGRALS PROGRAMMED BY
        KAZUYA ISHIMURA (INSTITUTE FOR MOLECULAR SCIENCE).
     S,P,D,F,G SHELL TO TOTAL QUARTET ANGULAR MOMENTUM SUM 5,
        ERIC PROGRAM BY GRAHAM FLETCHER (ELORET AND NASA ADVANCED
        SUPERCOMPUTING DIVISION, AMES RESEARCH CENTER).
     S,P,D,F,G,L SHELL GENERAL RYS QUADRATURE PROGRAMMED BY
        MICHEL DUPUIS (PACIFIC NORTHWEST NATIONAL LABORATORY).

          --------------------
          2 ELECTRON INTEGRALS
          --------------------

 THE -PK- OPTION IS OFF, THE INTEGRALS ARE NOT IN SUPERMATRIX FORM.
 STORING   15000 INTEGRALS/RECORD ON DISK, USING 12 BYTES/INTEGRAL.
 TWO ELECTRON INTEGRAL EVALUATION REQUIRES   90532 WORDS OF MEMORY.
 II,JST,KST,LST =  1  1  1  1 NREC =         1 INTLOC =    1
 II,JST,KST,LST =  2  1  1  1 NREC =         1 INTLOC =    2
 II,JST,KST,LST =  3  1  1  1 NREC =         1 INTLOC =   34
 II,JST,KST,LST =  4  1  1  1 NREC =         1 INTLOC =  214
 II,JST,KST,LST =  5  1  1  1 NREC =         1 INTLOC = 1189
 II,JST,KST,LST =  6  1  1  1 NREC =         1 INTLOC = 2359
 II,JST,KST,LST =  7  1  1  1 NREC =         1 INTLOC = 9250
 II,JST,KST,LST =  8  1  1  1 NREC =         2 INTLOC = 6286
 II,JST,KST,LST =  9  1  1  1 NREC =         4 INTLOC = 7009
 II,JST,KST,LST = 10  1  1  1 NREC =         4 INTLOC =14376
 II,JST,KST,LST = 11  1  1  1 NREC =         7 INTLOC = 8970
 II,JST,KST,LST = 12  1  1  1 NREC =        11 INTLOC = 4653
 II,JST,KST,LST = 13  1  1  1 NREC =        19 INTLOC = 1763
 II,JST,KST,LST = 14  1  1  1 NREC =        19 INTLOC = 1763
 II,JST,KST,LST = 15  1  1  1 NREC =        19 INTLOC = 1763
 II,JST,KST,LST = 16  1  1  1 NREC =        22 INTLOC = 6237
 TOTAL NUMBER OF NONZERO TWO-ELECTRON INTEGRALS =              378292
         26 INTEGRAL RECORDS WERE STORED ON DISK FILE  8.
  ...... END OF TWO-ELECTRON INTEGRALS .....
 STEP CPU TIME =     0.06 TOTAL CPU TIME =        0.1 (    0.0 MIN)
 TOTAL WALL CLOCK TIME=        0.2 SECONDS, CPU UTILIZATION IS  66.67%

          ---------------------------
                  UHF SCF CALCULATION
          ---------------------------

     NUCLEAR ENERGY =        69.0259948981
     MAXIT = 30     NPUNCH=  2     MULT=  1
     EXTRAP=T  DAMP=F  SHIFT=F  RSTRCT=F  DIIS=F  SOSCF=T
     DENSITY MATRIX CONV=  1.00E-05
     SOSCF WILL OPTIMIZE     408 ALPHA AND     408 BETA ROTATION ANGLES.
     SOGTOL= 2.500E-01
     MEMORY REQUIRED FOR UHF/ROHF ITERS=     60506 WORDS.

 ITER EX      TOTAL ENERGY        E CHANGE  DENSITY CHANGE    ORB. GRAD 
   1  0     -187.5823826861  -187.5823826861   0.582012296   0.000000000
   2  1     -188.1204462361    -0.5380635499   0.413285350   0.263335138
          ---------------START SECOND ORDER SCF---------------
   3  2     -188.2029475264    -0.0825012903   0.436036196   0.218062519
   4  3     -188.2963341850    -0.0933866587   0.167680343   0.164671286
   5  4     -188.5421752683    -0.2458410833   0.044427076   0.017719646
   6  5     -188.5495836967    -0.0074084283   0.072182268   0.024411218
   7  6     -188.5563057233    -0.0067220267   0.084777553   0.019152780
   8  7     -188.5599046058    -0.0035988825   0.009233305   0.009510338
   9  8     -188.5608766040    -0.0009719982   0.011906944   0.004191290
  10  9     -188.5612069511    -0.0003303471   0.003346157   0.001331731
  11 10     -188.5612372732    -0.0000303221   0.002769399   0.000820148
  12 11     -188.5612495648    -0.0000122916   0.000721006   0.000291288
  13 12     -188.5612511944    -0.0000016296   0.000711525   0.000221084
  14 13     -188.5612520120    -0.0000008176   0.000306930   0.000082467
  15 14     -188.5612521608    -0.0000001488   0.000174618   0.000041760
  16 15     -188.5612522115    -0.0000000508   0.000056472   0.000026060
  17 16     -188.5612522221    -0.0000000106   0.000030345   0.000011196
  18 17     -188.5612522246    -0.0000000025   0.000009837   0.000003903
  19 18     -188.5612522250    -0.0000000003   0.000003685   0.000001278

          -----------------
          DENSITY CONVERGED
          -----------------
     TIME TO FORM FOCK OPERATORS=       0.2 SECONDS (       0.0 SEC/ITER)
     TIME TO SOLVE SCF EQUATIONS=       0.0 SECONDS (       0.0 SEC/ITER)

 FINAL UHF ENERGY IS     -188.5612522250 AFTER  19 ITERATIONS

          --------------------
          SPIN SZ   =    0.000
          S-SQUARED =    1.020
          --------------------

  ----- ALPHA SET ----- 

          ------------
          EIGENVECTORS
          ------------

                      1          2          3          4          5
                  -20.6865   -20.6765   -11.2816    -1.5880    -1.2191
                     A'         A'         A'         A'         A'  
    1  C  1  S   -0.000071   0.000026   0.996438  -0.034108   0.071737
    2  C  1  S   -0.000834   0.000177   0.022729   0.068723  -0.133667
    3  C  1  X   -0.000190   0.000540   0.001697   0.055014  -0.086027
    4  C  1  Y   -0.000118  -0.000166  -0.000303  -0.023892   0.051263
    5  C  1  Z    0.000000   0.000000   0.000000  -0.000000   0.000000
    6  C  1  S    0.002439   0.003624  -0.009304  -0.023197  -0.047232
    7  C  1  X    0.001161   0.002020   0.000354  -0.023995   0.006440
    8  C  1  Y   -0.000121  -0.000856  -0.001112   0.006550  -0.006690
    9  C  1  Z    0.000000   0.000000   0.000000  -0.000000   0.000000
   10  C  1 XX    0.000096   0.000023   0.000226   0.009187  -0.009775
   11  C  1 YY    0.000022  -0.000194  -0.000618  -0.003913   0.004595
   12  C  1 ZZ   -0.000118   0.000171   0.000392  -0.005274   0.005180
   13  C  1 XY   -0.000050   0.000071  -0.001237  -0.011727   0.022291
   14  C  1 XZ    0.000000   0.000000   0.000000  -0.000000   0.000000
   15  C  1 YZ    0.000000   0.000000   0.000000  -0.000000   0.000000
   16  O  2  S    0.019583   0.995591  -0.000026  -0.161414   0.134705
   17  O  2  S    0.000571   0.023121   0.000834   0.359905  -0.310880
   18  O  2  X    0.000093  -0.000054  -0.000094   0.052415   0.182460
   19  O  2  Y    0.000219   0.001994   0.000121   0.095462   0.010787
   20  O  2  Z    0.000000   0.000000   0.000000  -0.000000   0.000000
   21  O  2  S    0.001717  -0.010993  -0.002572   0.315503  -0.374124
   22  O  2  X    0.002086   0.000675   0.000664  -0.004934   0.072850
   23  O  2  Y    0.000662  -0.003227  -0.001819   0.048935  -0.017656
   24  O  2  Z    0.000000   0.000000   0.000000  -0.000000   0.000000
   25  O  2 XX   -0.000228  -0.000374  -0.000605   0.009324  -0.001705
   26  O  2 YY   -0.000009  -0.000173  -0.000041   0.004004   0.004568
   27  O  2 ZZ    0.000237   0.000547   0.000646  -0.013328  -0.002864
   28  O  2 XY   -0.000364  -0.000035   0.000522   0.013127   0.023223
   29  O  2 XZ    0.000000   0.000000   0.000000  -0.000000   0.000000
   30  O  2 YZ    0.000000   0.000000   0.000000  -0.000000   0.000000
   31  O  3  S    0.995462  -0.019582  -0.000037  -0.147331  -0.166903
   32  O  3  S    0.022591  -0.000421  -0.000532   0.340955   0.400543
   33  O  3  X   -0.001511  -0.000185   0.000068  -0.091675   0.051867
   34  O  3  Y   -0.000986  -0.000063  -0.000084  -0.065573   0.020895
   35  O  3  Z    0.000000   0.000000   0.000000  -0.000000   0.000000
   36  O  3  S   -0.008055   0.002397   0.002019   0.259965   0.421737
   37  O  3  X    0.002589  -0.001108  -0.001482  -0.035083  -0.000865
   38  O  3  Y    0.001699  -0.000653  -0.000103  -0.021303   0.000726
   39  O  3  Z    0.000000   0.000000   0.000000  -0.000000   0.000000
   40  O  3 XX   -0.000482  -0.000082   0.000362   0.006839  -0.011107
   41  O  3 YY   -0.000121  -0.000192  -0.000167  -0.004121  -0.004664
   42  O  3 ZZ    0.000603   0.000274  -0.000195  -0.002718   0.015771
   43  O  3 XY   -0.000579  -0.000399   0.000090   0.019011  -0.003793
   44  O  3 XZ    0.000000   0.000000   0.000000  -0.000000   0.000000
   45  O  3 YZ    0.000000   0.000000   0.000000  -0.000000   0.000000
   46  H  4  S   -0.000129  -0.000296  -0.000366   0.011093  -0.028713
   47  H  4  S   -0.000274  -0.000015   0.002598   0.001552  -0.001973
   48  H  5  S   -0.000129  -0.000296  -0.000366   0.011093  -0.028713
   49  H  5  S   -0.000274  -0.000015   0.002598   0.001552  -0.001973

                      6          7          8          9         10
                   -0.8765    -0.7727    -0.7066    -0.6783    -0.6276
                     A'         A''        A'         A'         A'' 
    1  C  1  S   -0.156265  -0.000000  -0.058359  -0.015626  -0.000000
    2  C  1  S    0.313230  -0.000000   0.121885   0.025060  -0.000000
    3  C  1  X   -0.003758  -0.000000  -0.217865  -0.042541  -0.000000
    4  C  1  Y    0.069948  -0.000000   0.193426  -0.034368  -0.000000
    5  C  1  Z   -0.000000   0.153736   0.000000  -0.000000  -0.371055
    6  C  1  S    0.248739  -0.000000   0.140395   0.046427  -0.000000
    7  C  1  X   -0.012185  -0.000000  -0.065599  -0.001192  -0.000000
    8  C  1  Y    0.036947  -0.000000   0.052605  -0.018069  -0.000000
    9  C  1  Z   -0.000000   0.052765   0.000000  -0.000000  -0.150012
   10  C  1 XX   -0.007118  -0.000000  -0.027481  -0.011188  -0.000000
   11  C  1 YY   -0.014851  -0.000000  -0.006375   0.006670  -0.000000
   12  C  1 ZZ    0.021970  -0.000000   0.033856   0.004518  -0.000000
   13  C  1 XY   -0.020593  -0.000000   0.008134  -0.008729  -0.000000
   14  C  1 XZ   -0.000000   0.008219   0.000000  -0.000000   0.008616
   15  C  1 YZ   -0.000000   0.002695   0.000000  -0.000000  -0.023446
   16  O  2  S    0.069652  -0.000000   0.000720  -0.031220  -0.000000
   17  O  2  S   -0.171960  -0.000000  -0.003305   0.078854  -0.000000
   18  O  2  X   -0.217573  -0.000000   0.343886  -0.163683  -0.000000
   19  O  2  Y    0.155006  -0.000000  -0.109091  -0.413844  -0.000000
   20  O  2  Z   -0.000000   0.409717   0.000000  -0.000000  -0.111556
   21  O  2  S   -0.203057  -0.000000  -0.007164   0.125867  -0.000000
   22  O  2  X   -0.110512  -0.000000   0.187935  -0.092012  -0.000000
   23  O  2  Y    0.086254  -0.000000  -0.063619  -0.264739  -0.000000
   24  O  2  Z   -0.000000   0.234186   0.000000  -0.000000  -0.069876
   25  O  2 XX   -0.002476  -0.000000   0.007779   0.013827  -0.000000
   26  O  2 YY    0.009747  -0.000000  -0.007708  -0.031283  -0.000000
   27  O  2 ZZ   -0.007272  -0.000000  -0.000072   0.017457  -0.000000
   28  O  2 XY   -0.018991  -0.000000   0.021235  -0.017946  -0.000000
   29  O  2 XZ   -0.000000   0.001668   0.000000  -0.000000   0.016828
   30  O  2 YZ   -0.000000   0.024083   0.000000  -0.000000  -0.002061
   31  O  3  S   -0.045446  -0.000000   0.031201  -0.043066  -0.000000
   32  O  3  S    0.113664  -0.000000  -0.073809   0.108722  -0.000000
   33  O  3  X    0.048725  -0.000000  -0.021064   0.444707  -0.000000
   34  O  3  Y    0.187542  -0.000000  -0.334455  -0.018077  -0.000000
   35  O  3  Z   -0.000000   0.467303   0.000000  -0.000000   0.402863
   36  O  3  S    0.153536  -0.000000  -0.137611   0.198165  -0.000000
   37  O  3  X    0.023824  -0.000000  -0.000922   0.258992  -0.000000
   38  O  3  Y    0.088873  -0.000000  -0.189339  -0.025284  -0.000000
   39  O  3  Z   -0.000000   0.258707   0.000000  -0.000000   0.255146
   40  O  3 XX   -0.002371  -0.000000  -0.002819  -0.031309  -0.000000
   41  O  3 YY   -0.010202  -0.000000   0.014974   0.008027  -0.000000
   42  O  3 ZZ    0.012573  -0.000000  -0.012155   0.023283  -0.000000
   43  O  3 XY   -0.017694  -0.000000   0.020636  -0.021437  -0.000000
   44  O  3 XZ   -0.000000  -0.019745   0.000000  -0.000000  -0.005068
   45  O  3 YZ   -0.000000  -0.012360   0.000000  -0.000000  -0.003192
   46  H  4  S    0.152679   0.068023   0.147507   0.015757  -0.206656
   47  H  4  S    0.063732   0.040748   0.092684   0.014011  -0.149072
   48  H  5  S    0.152679  -0.068023   0.147507   0.015757   0.206656
   49  H  5  S    0.063732  -0.040748   0.092684   0.014011   0.149072

                     11         12         13         14         15
                   -0.5049    -0.4885     0.1222     0.2685     0.3253
                     A'         A''        A'         A'         A'  
    1  C  1  S    0.020894  -0.000000   0.034810  -0.124495   0.076040
    2  C  1  S   -0.058239  -0.000000  -0.041525   0.139141  -0.050795
    3  C  1  X   -0.164439  -0.000000   0.231556  -0.103244  -0.190218
    4  C  1  Y    0.096369  -0.000000   0.313747   0.152200   0.050335
    5  C  1  Z   -0.000000  -0.189639  -0.000000  -0.000000  -0.000000
    6  C  1  S    0.003993  -0.000000  -0.177416   2.024708  -1.108839
    7  C  1  X   -0.026346  -0.000000   0.439136  -0.447282  -1.140592
    8  C  1  Y    0.025523  -0.000000   0.536377   0.680502   0.473760
    9  C  1  Z   -0.000000  -0.061082  -0.000000  -0.000000  -0.000000
   10  C  1 XX   -0.018464  -0.000000   0.003113  -0.004495   0.010290
   11  C  1 YY    0.007408  -0.000000   0.004358   0.000395   0.001100
   12  C  1 ZZ    0.011056  -0.000000  -0.007472   0.004100  -0.011390
   13  C  1 XY    0.008752  -0.000000   0.008922  -0.007719  -0.000021
   14  C  1 XZ   -0.000000   0.025349  -0.000000  -0.000000  -0.000000
   15  C  1 YZ   -0.000000  -0.028442  -0.000000  -0.000000  -0.000000
   16  O  2  S   -0.034611  -0.000000  -0.030134  -0.006414  -0.108271
   17  O  2  S    0.086384  -0.000000   0.078443   0.011984   0.186985
   18  O  2  X    0.146762  -0.000000   0.025961   0.048892   0.008713
   19  O  2  Y   -0.347415  -0.000000  -0.017027  -0.030685   0.265062
   20  O  2  Z   -0.000000   0.546619  -0.000000  -0.000000  -0.000000
   21  O  2  S    0.137186  -0.000000   0.182771   0.122263   1.519425
   22  O  2  X    0.104695  -0.000000   0.057904   0.007970  -0.236616
   23  O  2  Y   -0.261464  -0.000000  -0.035898  -0.044000   0.652037
   24  O  2  Z   -0.000000   0.411741  -0.000000  -0.000000  -0.000000
   25  O  2 XX   -0.016046  -0.000000  -0.020411   0.004258  -0.004894
   26  O  2 YY    0.000932  -0.000000   0.010599   0.004649   0.010070
   27  O  2 ZZ    0.015114  -0.000000   0.009812  -0.008907  -0.005176
   28  O  2 XY    0.014734  -0.000000  -0.022694  -0.006063  -0.019620
   29  O  2 XZ   -0.000000  -0.011204  -0.000000  -0.000000  -0.000000
   30  O  2 YZ   -0.000000   0.011091  -0.000000  -0.000000  -0.000000
   31  O  3  S    0.001624  -0.000000   0.026714   0.001884   0.027541
   32  O  3  S   -0.011527  -0.000000  -0.081608   0.003903  -0.060037
   33  O  3  X   -0.286412  -0.000000   0.184215   0.011518   0.215374
   34  O  3  Y    0.491732  -0.000000   0.050451   0.029718   0.170623
   35  O  3  Z   -0.000000  -0.367892  -0.000000  -0.000000  -0.000000
   36  O  3  S    0.021609  -0.000000  -0.133908  -0.020268  -0.297991
   37  O  3  X   -0.215689  -0.000000   0.206044   0.030768   0.378746
   38  O  3  Y    0.343215  -0.000000   0.066584   0.015937   0.267670
   39  O  3  Z   -0.000000  -0.265195  -0.000000  -0.000000  -0.000000
   40  O  3 XX    0.002595  -0.000000   0.001411   0.000372   0.007120
   41  O  3 YY   -0.004254  -0.000000   0.001937   0.005154   0.000650
   42  O  3 ZZ    0.001659  -0.000000  -0.003349  -0.005526  -0.007770
   43  O  3 XY   -0.005565  -0.000000  -0.004746   0.001236   0.013052
   44  O  3 XZ   -0.000000  -0.005844  -0.000000  -0.000000  -0.000000
   45  O  3 YZ   -0.000000  -0.006575  -0.000000  -0.000000  -0.000000
   46  H  4  S    0.037589  -0.147115   0.028450  -0.024896  -0.012458
   47  H  4  S    0.051654  -0.159479   0.046318  -1.508085   0.091948
   48  H  5  S    0.037589   0.147115   0.028450  -0.024896  -0.012458
   49  H  5  S    0.051654   0.159479   0.046318  -1.508085   0.091948

                     16         17         18         19         20
                    0.3352     0.4161     0.7743     0.8102     0.8470
                     A''        A'         A'         A''        A'  
    1  C  1  S    0.000000  -0.050630  -0.061403   0.000000   0.007073
    2  C  1  S    0.000000   0.061359   0.110028   0.000000  -0.328085
    3  C  1  X    0.000000   0.039610   0.649505   0.000000   0.718652
    4  C  1  Y    0.000000  -0.064048  -0.634375   0.000000   0.830093
    5  C  1  Z   -0.388357  -0.000000  -0.000000  -0.663027  -0.000000
    6  C  1  S    0.000000   0.705757   0.260256   0.000000   0.412713
    7  C  1  X    0.000000   0.678589  -0.814774   0.000000  -0.706039
    8  C  1  Y    0.000000  -0.828107   0.844191   0.000000  -0.706472
    9  C  1  Z   -1.663218  -0.000000  -0.000000   2.020445  -0.000000
   10  C  1 XX    0.000000   0.010646  -0.015151   0.000000   0.029714
   11  C  1 YY    0.000000  -0.034400   0.029670   0.000000  -0.002160
   12  C  1 ZZ    0.000000   0.023755  -0.014519   0.000000  -0.027554
   13  C  1 XY    0.000000   0.005470   0.086429   0.000000   0.039223
   14  C  1 XZ   -0.004335  -0.000000  -0.000000   0.038891  -0.000000
   15  C  1 YZ   -0.006128  -0.000000  -0.000000  -0.084378  -0.000000
   16  O  2  S    0.000000  -0.016634   0.030020   0.000000   0.013901
   17  O  2  S    0.000000   0.061952  -0.187645   0.000000  -0.101115
   18  O  2  X    0.000000   0.444045   0.272244   0.000000  -0.007363
   19  O  2  Y    0.000000   0.177360  -0.200091   0.000000  -0.030604
   20  O  2  Z    0.098950  -0.000000  -0.000000  -0.318774  -0.000000
   21  O  2  S    0.000000  -0.048463   0.414939   0.000000  -0.016554
   22  O  2  X    0.000000   1.153732  -0.054243   0.000000   0.045267
   23  O  2  Y    0.000000   0.326163  -0.059418   0.000000   0.029184
   24  O  2  Z    0.273895  -0.000000  -0.000000  -0.139568  -0.000000
   25  O  2 XX    0.000000  -0.022515   0.090246   0.000000  -0.060726
   26  O  2 YY    0.000000   0.008659  -0.019640   0.000000   0.066670
   27  O  2 ZZ    0.000000   0.013856  -0.070606   0.000000  -0.005944
   28  O  2 XY    0.000000   0.006904  -0.104768   0.000000  -0.031794
   29  O  2 XZ    0.010573  -0.000000  -0.000000  -0.030558  -0.000000
   30  O  2 YZ   -0.000092  -0.000000  -0.000000  -0.013487  -0.000000
   31  O  3  S    0.000000   0.071968   0.000564   0.000000  -0.017806
   32  O  3  S    0.000000  -0.178123  -0.055464   0.000000   0.078480
   33  O  3  X    0.000000   0.266902   0.020805   0.000000   0.031624
   34  O  3  Y    0.000000   0.233665   0.020497   0.000000   0.051684
   35  O  3  Z   -0.036774  -0.000000  -0.000000  -0.140272  -0.000000
   36  O  3  S    0.000000  -0.833114   0.132894   0.000000   0.057685
   37  O  3  X    0.000000   0.682358  -0.133104   0.000000  -0.172888
   38  O  3  Y    0.000000   0.549569   0.033164   0.000000  -0.050732
   39  O  3  Z   -0.020588  -0.000000  -0.000000   0.119111  -0.000000
   40  O  3 XX    0.000000  -0.004441  -0.020124   0.000000   0.012324
   41  O  3 YY    0.000000   0.008653   0.041557   0.000000  -0.009147
   42  O  3 ZZ    0.000000  -0.004212  -0.021433   0.000000  -0.003177
   43  O  3 XY    0.000000   0.000816  -0.002442   0.000000   0.000287
   44  O  3 XZ   -0.002809  -0.000000  -0.000000  -0.004735  -0.000000
   45  O  3 YZ   -0.002726  -0.000000  -0.000000   0.036018  -0.000000
   46  H  4  S   -0.019922   0.028105  -0.320224  -0.421323  -0.114318
   47  H  4  S    1.853394   0.063066  -0.087701  -0.692688  -0.000790
   48  H  5  S    0.019922   0.028105  -0.320224   0.421323  -0.114318
   49  H  5  S   -1.853394   0.063066  -0.087701   0.692688  -0.000790

                     21         22         23         24         25
                    0.8616     1.0842     1.0995     1.1294     1.1364
                     A'         A'         A''        A'         A'' 
    1  C  1  S   -0.020597  -0.010012   0.000000   0.010497   0.000000
    2  C  1  S   -1.010536  -0.150359   0.000000  -0.061058   0.000000
    3  C  1  X   -0.354441   0.022882   0.000000   0.116833   0.000000
    4  C  1  Y    0.024030   0.084577   0.000000  -0.138524   0.000000
    5  C  1  Z    0.000000   0.000000   0.285708  -0.000000  -0.914193
    6  C  1  S    2.123808   0.332530   0.000000   0.615527   0.000000
    7  C  1  X    0.379758  -0.040128   0.000000   0.063657   0.000000
    8  C  1  Y    0.209215  -0.237369   0.000000   0.142903   0.000000
    9  C  1  Z    0.000000   0.000000  -0.726697  -0.000000   1.523708
   10  C  1 XX    0.106802  -0.017823   0.000000   0.059497   0.000000
   11  C  1 YY    0.032988   0.022980   0.000000  -0.016593   0.000000
   12  C  1 ZZ   -0.139790  -0.005158   0.000000  -0.042904   0.000000
   13  C  1 XY    0.013046  -0.012469   0.000000  -0.090792   0.000000
   14  C  1 XZ    0.000000   0.000000   0.018898  -0.000000  -0.146110
   15  C  1 YZ    0.000000   0.000000   0.053028  -0.000000   0.157041
   16  O  2  S    0.015798  -0.012884   0.000000   0.039923   0.000000
   17  O  2  S    0.005087  -0.148220   0.000000  -0.359691   0.000000
   18  O  2  X   -0.076058  -0.217756   0.000000  -0.354504   0.000000
   19  O  2  Y    0.241198  -0.325932   0.000000   0.412923   0.000000
   20  O  2  Z    0.000000   0.000000  -0.182989  -0.000000   0.185744
   21  O  2  S   -0.804953   1.244412   0.000000   0.107307   0.000000
   22  O  2  X    0.054446   1.021965   0.000000   0.563734   0.000000
   23  O  2  Y   -0.514172   0.913905   0.000000  -0.499318   0.000000
   24  O  2  Z    0.000000   0.000000   0.102737  -0.000000  -0.349395
   25  O  2 XX   -0.095713   0.095003   0.000000  -0.057190   0.000000
   26  O  2 YY    0.001528  -0.002535   0.000000   0.040516   0.000000
   27  O  2 ZZ    0.094185  -0.092468   0.000000   0.016674   0.000000
   28  O  2 XY    0.015092   0.176843   0.000000  -0.047206   0.000000
   29  O  2 XZ    0.000000   0.000000  -0.010290  -0.000000   0.121432
   30  O  2 YZ    0.000000   0.000000  -0.014768  -0.000000  -0.077767
   31  O  3  S    0.028863   0.061528   0.000000   0.030075   0.000000
   32  O  3  S   -0.338055  -0.339392   0.000000  -0.403982   0.000000
   33  O  3  X    0.238082  -0.563074   0.000000  -0.413175   0.000000
   34  O  3  Y   -0.163187  -0.502392   0.000000   0.478003   0.000000
   35  O  3  Z    0.000000   0.000000  -0.873062  -0.000000  -0.136822
   36  O  3  S    0.492167  -0.853265   0.000000   0.294350   0.000000
   37  O  3  X   -0.311672   1.355851   0.000000   0.397520   0.000000
   38  O  3  Y   -0.005866   1.103907   0.000000  -0.462339   0.000000
   39  O  3  Z    0.000000   0.000000   1.067222  -0.000000   0.189453
   40  O  3 XX    0.057724  -0.082158   0.000000   0.000961   0.000000
   41  O  3 YY   -0.034916  -0.003137   0.000000  -0.029498   0.000000
   42  O  3 ZZ   -0.022807   0.085294   0.000000   0.028537   0.000000
   43  O  3 XY   -0.004552  -0.135367   0.000000  -0.085404   0.000000
   44  O  3 XZ    0.000000   0.000000   0.037417  -0.000000  -0.012066
   45  O  3 YZ    0.000000   0.000000   0.013073  -0.000000  -0.020050
   46  H  4  S   -0.469843  -0.068186   0.018673   0.040040   0.639477
   47  H  4  S   -0.231084  -0.005606   0.328146  -0.170353  -1.412846
   48  H  5  S   -0.469843  -0.068186  -0.018673   0.040040  -0.639477
   49  H  5  S   -0.231084  -0.005606  -0.328146  -0.170353   1.412846

                     26         27         28         29         30
                    1.1728     1.2476     1.2861     1.2927     1.6106
                     A'         A'         A'         A''        A'  
    1  C  1  S    0.050586   0.017491   0.031294   0.000000   0.026823
    2  C  1  S   -1.196071  -0.739978   0.805188   0.000000   0.578180
    3  C  1  X    0.410212   0.000282   0.120611   0.000000   0.014023
    4  C  1  Y   -0.367890  -0.191767  -0.000957   0.000000   0.114108
    5  C  1  Z   -0.000000   0.000000   0.000000   0.046180   0.000000
    6  C  1  S    2.339351   1.416514  -0.907252   0.000000  -2.238013
    7  C  1  X   -0.354203  -0.089668  -0.023779   0.000000  -0.853799
    8  C  1  Y    0.562579  -0.068736  -0.423787   0.000000   0.343186
    9  C  1  Z   -0.000000   0.000000   0.000000  -1.036708   0.000000
   10  C  1 XX   -0.070056   0.033712   0.156273   0.000000  -0.015702
   11  C  1 YY   -0.033111  -0.108902  -0.119805   0.000000  -0.115486
   12  C  1 ZZ    0.103168   0.075191  -0.036468   0.000000   0.131188
   13  C  1 XY   -0.023014   0.014287  -0.084333   0.000000   0.065576
   14  C  1 XZ   -0.000000   0.000000   0.000000  -0.067236   0.000000
   15  C  1 YZ   -0.000000   0.000000   0.000000   0.105147   0.000000
   16  O  2  S    0.007172  -0.024331   0.016023   0.000000   0.024312
   17  O  2  S    0.046254   0.100626  -0.188415   0.000000  -0.502265
   18  O  2  X    0.093381  -0.349893  -0.470265   0.000000   0.427395
   19  O  2  Y    0.276285  -0.561380   0.215619   0.000000  -0.057875
   20  O  2  Z   -0.000000   0.000000   0.000000  -0.840694   0.000000
   21  O  2  S   -0.253518  -0.196969   0.339771   0.000000   0.487239
   22  O  2  X   -0.085114   0.724015   1.160071   0.000000  -1.916597
   23  O  2  Y   -0.539065   0.873630  -0.344913   0.000000  -0.184961
   24  O  2  Z   -0.000000   0.000000   0.000000   1.437130   0.000000
   25  O  2 XX    0.028322  -0.085008   0.034222   0.000000  -0.190716
   26  O  2 YY   -0.000186  -0.034428  -0.002037   0.000000   0.023112
   27  O  2 ZZ   -0.028136   0.119436  -0.032186   0.000000   0.167604
   28  O  2 XY    0.038925  -0.070854  -0.100195   0.000000  -0.110141
   29  O  2 XZ   -0.000000   0.000000   0.000000   0.108412   0.000000
   30  O  2 YZ   -0.000000   0.000000   0.000000  -0.100028   0.000000
   31  O  3  S    0.005301   0.007364   0.001634   0.000000   0.034205
   32  O  3  S   -0.037699  -0.132674  -0.012707   0.000000  -1.171564
   33  O  3  X    0.037219   0.231532   0.371656   0.000000   0.177170
   34  O  3  Y   -0.246685   0.237372  -0.409034   0.000000  -0.075180
   35  O  3  Z   -0.000000   0.000000   0.000000   0.159951   0.000000
   36  O  3  S    0.232730  -0.353700  -0.359653   0.000000   2.414722
   37  O  3  X   -0.130418  -0.080297  -0.496492   0.000000  -0.962832
   38  O  3  Y    0.279177  -0.259715   0.882485   0.000000  -0.572110
   39  O  3  Z   -0.000000   0.000000   0.000000  -0.520220   0.000000
   40  O  3 XX    0.043959  -0.085108  -0.134781   0.000000  -0.043766
   41  O  3 YY    0.017466  -0.031424   0.072999   0.000000  -0.157556
   42  O  3 ZZ   -0.061426   0.116533   0.061781   0.000000   0.201321
   43  O  3 XY    0.051389  -0.168867  -0.070593   0.000000  -0.005878
   44  O  3 XZ   -0.000000   0.000000   0.000000   0.005758   0.000000
   45  O  3 YZ   -0.000000   0.000000   0.000000  -0.083855   0.000000
   46  H  4  S    0.570680   0.201903   0.072935   0.230240   0.145563
   47  H  4  S   -1.179700  -0.527608   0.316641   0.341694   0.193503
   48  H  5  S    0.570680   0.201903   0.072935  -0.230240   0.145563
   49  H  5  S   -1.179700  -0.527608   0.316641  -0.341694   0.193503

                     31         32         33         34         35
                    1.6879     1.7305     1.7556     1.8249     2.0422
                     A'         A''        A'         A''        A'' 
    1  C  1  S   -0.002729  -0.000000  -0.012168   0.000000  -0.000000
    2  C  1  S    0.055902  -0.000000  -0.231355   0.000000  -0.000000
    3  C  1  X   -0.085990  -0.000000  -0.072300   0.000000  -0.000000
    4  C  1  Y   -0.183272  -0.000000  -0.017860   0.000000  -0.000000
    5  C  1  Z   -0.000000  -0.034163   0.000000  -0.189999   0.101634
    6  C  1  S   -0.281073  -0.000000   0.108019   0.000000  -0.000000
    7  C  1  X   -0.142361  -0.000000  -0.339638   0.000000  -0.000000
    8  C  1  Y    0.208449  -0.000000   0.335183   0.000000  -0.000000
    9  C  1  Z   -0.000000   0.204476   0.000000  -0.441117  -0.414581
   10  C  1 XX    0.220673  -0.000000  -0.240047   0.000000  -0.000000
   11  C  1 YY   -0.328127  -0.000000   0.056167   0.000000  -0.000000
   12  C  1 ZZ    0.107454  -0.000000   0.183879   0.000000  -0.000000
   13  C  1 XY    0.212654  -0.000000  -0.095353   0.000000  -0.000000
   14  C  1 XZ   -0.000000   0.238179   0.000000   0.565475  -0.400398
   15  C  1 YZ   -0.000000   0.210276   0.000000   0.249351  -0.149730
   16  O  2  S    0.011107  -0.000000   0.016792   0.000000  -0.000000
   17  O  2  S   -0.619800  -0.000000  -1.103309   0.000000  -0.000000
   18  O  2  X    0.007267  -0.000000   0.002112   0.000000  -0.000000
   19  O  2  Y   -0.074682  -0.000000  -0.005356   0.000000  -0.000000
   20  O  2  Z   -0.000000  -0.052866   0.000000  -0.110889  -0.058066
   21  O  2  S    1.566878  -0.000000   2.567830   0.000000  -0.000000
   22  O  2  X    0.275641  -0.000000   0.491986   0.000000  -0.000000
   23  O  2  Y    0.328801  -0.000000   0.783474   0.000000  -0.000000
   24  O  2  Z   -0.000000  -0.138933   0.000000   0.298132   0.232608
   25  O  2 XX   -0.356617  -0.000000  -0.020979   0.000000  -0.000000
   26  O  2 YY    0.448558  -0.000000  -0.397438   0.000000  -0.000000
   27  O  2 ZZ   -0.091941  -0.000000   0.418417   0.000000  -0.000000
   28  O  2 XY    0.030315  -0.000000   0.142096   0.000000  -0.000000
   29  O  2 XZ   -0.000000   0.257873   0.000000  -0.473309  -0.041184
   30  O  2 YZ   -0.000000   0.562170   0.000000   0.152849  -0.062095
   31  O  3  S   -0.016753  -0.000000  -0.005418   0.000000  -0.000000
   32  O  3  S    0.568808  -0.000000   0.657786   0.000000  -0.000000
   33  O  3  X   -0.061934  -0.000000  -0.012207   0.000000  -0.000000
   34  O  3  Y   -0.119148  -0.000000  -0.021791   0.000000  -0.000000
   35  O  3  Z   -0.000000  -0.054767   0.000000   0.065376  -0.009551
   36  O  3  S   -1.190412  -0.000000  -1.787941   0.000000  -0.000000
   37  O  3  X    0.583746  -0.000000   0.754609   0.000000  -0.000000
   38  O  3  Y    0.358583  -0.000000   0.601718   0.000000  -0.000000
   39  O  3  Z   -0.000000  -0.062377   0.000000  -0.058573  -0.011738
   40  O  3 XX    0.359485  -0.000000  -0.227058   0.000000  -0.000000
   41  O  3 YY   -0.278067  -0.000000  -0.070010   0.000000  -0.000000
   42  O  3 ZZ   -0.081418  -0.000000   0.297068   0.000000  -0.000000
   43  O  3 XY   -0.125286  -0.000000   0.141071   0.000000  -0.000000
   44  O  3 XZ   -0.000000  -0.535267   0.000000   0.089475  -0.537538
   45  O  3 YZ   -0.000000  -0.153831   0.000000   0.409052   0.730660
   46  H  4  S    0.020874  -0.032297  -0.106658   0.308770   0.004060
   47  H  4  S   -0.014727  -0.110414  -0.187970   0.062997   0.207914
   48  H  5  S    0.020874   0.032297  -0.106658  -0.308770  -0.004060
   49  H  5  S   -0.014727   0.110414  -0.187970  -0.062997  -0.207914

                     36         37         38         39         40
                    2.0620     2.2682     2.2851     2.3687     2.4800
                     A'         A''        A'         A'         A'  
    1  C  1  S    0.004605   0.000000   0.027605  -0.028054   0.024573
    2  C  1  S   -0.085956   0.000000   0.386135  -0.418026  -0.267246
    3  C  1  X   -0.170150   0.000000   0.099085  -0.058647  -0.216242
    4  C  1  Y    0.153401   0.000000  -0.046067   0.030931   0.037576
    5  C  1  Z   -0.000000   0.184035   0.000000  -0.000000  -0.000000
    6  C  1  S   -0.616600   0.000000  -0.813713   1.126532  -0.577259
    7  C  1  X   -0.306539   0.000000  -0.245560   0.425256   0.062551
    8  C  1  Y    0.144069   0.000000  -0.317140  -0.258962  -0.060480
    9  C  1  Z   -0.000000   0.826395   0.000000  -0.000000  -0.000000
   10  C  1 XX    0.001228   0.000000  -0.444485   0.125495   0.637935
   11  C  1 YY   -0.188255   0.000000   0.844878  -0.100139   0.166092
   12  C  1 ZZ    0.187027   0.000000  -0.400394  -0.025356  -0.804027
   13  C  1 XY   -0.159274   0.000000  -0.033029  -0.909893   0.134030
   14  C  1 XZ   -0.000000   0.148712   0.000000  -0.000000  -0.000000
   15  C  1 YZ   -0.000000   0.766845   0.000000  -0.000000  -0.000000
   16  O  2  S    0.011093   0.000000  -0.004549   0.029083   0.027594
   17  O  2  S   -0.563254   0.000000  -0.401616  -0.044655  -0.791870
   18  O  2  X    0.169734   0.000000  -0.140126   0.240422   0.127378
   19  O  2  Y   -0.084820   0.000000  -0.080731  -0.173360  -0.265857
   20  O  2  Z   -0.000000   0.150544   0.000000  -0.000000  -0.000000
   21  O  2  S    1.068723   0.000000   1.100246  -0.499473   1.106166
   22  O  2  X   -0.556471   0.000000   0.806630   0.452136  -0.335392
   23  O  2  Y    0.369710   0.000000   0.508403   0.021572   0.569080
   24  O  2  Z   -0.000000  -0.295871   0.000000  -0.000000  -0.000000
   25  O  2 XX    0.075478   0.000000  -0.013883   0.155315   0.201352
   26  O  2 YY   -0.175096   0.000000   0.018601   0.083801   0.032906
   27  O  2 ZZ    0.099618   0.000000  -0.004718  -0.239116  -0.234258
   28  O  2 XY   -0.073765   0.000000   0.119092  -0.186055   0.025275
   29  O  2 XZ   -0.000000   0.445984   0.000000  -0.000000  -0.000000
   30  O  2 YZ   -0.000000  -0.414963   0.000000  -0.000000  -0.000000
   31  O  3  S   -0.001019   0.000000   0.016363   0.000068   0.008683
   32  O  3  S   -0.024961   0.000000  -0.045254   0.158566  -0.030906
   33  O  3  X    0.011528   0.000000   0.233919  -0.005050   0.062096
   34  O  3  Y    0.002501   0.000000  -0.018385  -0.032663   0.115495
   35  O  3  Z   -0.000000   0.051321   0.000000  -0.000000  -0.000000
   36  O  3  S    0.018125   0.000000  -0.678665  -0.401837  -0.278842
   37  O  3  X    0.041621   0.000000   0.089645   0.120207   0.206283
   38  O  3  Y   -0.021944   0.000000   0.470801   0.151748  -0.083507
   39  O  3  Z   -0.000000  -0.070914   0.000000  -0.000000  -0.000000
   40  O  3 XX    0.119167   0.000000   0.467935   0.223176  -0.172118
   41  O  3 YY    0.625422   0.000000  -0.287268  -0.402827   0.211733
   42  O  3 ZZ   -0.744588   0.000000  -0.180667   0.179651  -0.039615
   43  O  3 XY   -0.384666   0.000000  -0.311171  -0.013184   0.301624
   44  O  3 XZ   -0.000000   0.027253   0.000000  -0.000000  -0.000000
   45  O  3 YZ   -0.000000   0.245259   0.000000  -0.000000  -0.000000
   46  H  4  S   -0.056086  -0.540553   0.222658  -0.133247   0.478393
   47  H  4  S    0.042871  -0.198091   0.154878  -0.109772  -0.039323
   48  H  5  S   -0.056086   0.540553   0.222658  -0.133247   0.478393
   49  H  5  S    0.042871   0.198091   0.154878  -0.109772  -0.039323

                     41         42         43         44         45
                    2.6301     2.7249     2.8483     2.9315     3.1433
                     A'         A''        A''        A'         A'  
    1  C  1  S    0.002939  -0.000000  -0.000000   0.011538   0.038585
    2  C  1  S    0.035977  -0.000000  -0.000000  -0.541072  -0.350863
    3  C  1  X   -0.081362  -0.000000  -0.000000  -0.583920  -0.488789
    4  C  1  Y    0.078472  -0.000000  -0.000000   0.164917   0.394515
    5  C  1  Z    0.000000   0.032247  -0.031201   0.000000   0.000000
    6  C  1  S   -0.242840  -0.000000  -0.000000  -0.536263  -0.882738
    7  C  1  X   -0.291398  -0.000000  -0.000000  -0.382359  -0.425291
    8  C  1  Y    0.106565  -0.000000  -0.000000   0.167213   0.280805
    9  C  1  Z    0.000000  -0.171197  -0.125768   0.000000   0.000000
   10  C  1 XX   -0.336765  -0.000000  -0.000000  -0.669490  -0.121169
   11  C  1 YY   -0.166691  -0.000000  -0.000000   0.419488  -0.178300
   12  C  1 ZZ    0.503457  -0.000000  -0.000000   0.250002   0.299469
   13  C  1 XY    0.001155  -0.000000  -0.000000   0.126890   0.674838
   14  C  1 XZ    0.000000  -0.655931   0.426984   0.000000   0.000000
   15  C  1 YZ    0.000000   0.429659  -0.544811   0.000000   0.000000
   16  O  2  S    0.008600  -0.000000  -0.000000  -0.051351  -0.058951
   17  O  2  S   -0.526519  -0.000000  -0.000000  -0.626907  -0.533998
   18  O  2  X   -0.381136  -0.000000  -0.000000   0.121342   0.078191
   19  O  2  Y   -0.191779  -0.000000  -0.000000   0.044432   0.183096
   20  O  2  Z    0.000000  -0.068086  -0.031493   0.000000   0.000000
   21  O  2  S    0.666304  -0.000000  -0.000000   2.458974   2.390537
   22  O  2  X    0.151336  -0.000000  -0.000000  -0.256812  -0.258341
   23  O  2  Y    0.357612  -0.000000  -0.000000   1.273647   0.544396
   24  O  2  Z    0.000000   0.542690   0.214260   0.000000   0.000000
   25  O  2 XX    0.323658  -0.000000  -0.000000  -0.086293   1.123217
   26  O  2 YY    0.190223  -0.000000  -0.000000   0.736273  -0.558671
   27  O  2 ZZ   -0.513881  -0.000000  -0.000000  -0.649981  -0.564546
   28  O  2 XY    0.368222  -0.000000  -0.000000  -0.370811  -0.304580
   29  O  2 XZ    0.000000  -0.029793   0.872585   0.000000   0.000000
   30  O  2 YZ    0.000000   0.770041   0.218222   0.000000   0.000000
   31  O  3  S    0.027335  -0.000000  -0.000000   0.014780   0.020535
   32  O  3  S   -0.497245  -0.000000  -0.000000   0.326805   0.217753
   33  O  3  X    0.369951  -0.000000  -0.000000  -0.006909   0.038420
   34  O  3  Y    0.246049  -0.000000  -0.000000  -0.017558   0.040496
   35  O  3  Z    0.000000   0.044980   0.006833   0.000000   0.000000
   36  O  3  S    0.178344  -0.000000  -0.000000  -1.236665  -0.938243
   37  O  3  X   -0.264829  -0.000000  -0.000000   0.851859   0.443851
   38  O  3  Y   -0.164724  -0.000000  -0.000000   0.270127   0.568254
   39  O  3  Z    0.000000  -0.323080  -0.274464   0.000000   0.000000
   40  O  3 XX    0.172951  -0.000000  -0.000000  -0.721950   0.199379
   41  O  3 YY    0.035986  -0.000000  -0.000000   0.420540  -0.485771
   42  O  3 ZZ   -0.208937  -0.000000  -0.000000   0.301410   0.286392
   43  O  3 XY    0.457365  -0.000000  -0.000000  -0.193812  -0.508795
   44  O  3 XZ    0.000000   0.592183   0.483859   0.000000   0.000000
   45  O  3 YZ    0.000000   0.254593   0.501737   0.000000   0.000000
   46  H  4  S   -0.219021  -0.286599   0.310386  -0.060387   0.009494
   47  H  4  S    0.048484   0.188832  -0.062323  -0.005088   0.041348
   48  H  5  S   -0.219021   0.286599  -0.310386  -0.060387   0.009494
   49  H  5  S    0.048484  -0.188832   0.062323  -0.005088   0.041348

                     46
                    3.2800
                     A'  
    1  C  1  S    0.031244
    2  C  1  S   -0.086699
    3  C  1  X   -0.288998
    4  C  1  Y    0.220536
    5  C  1  Z   -0.000000
    6  C  1  S   -0.872735
    7  C  1  X   -0.324278
    8  C  1  Y    0.251430
    9  C  1  Z   -0.000000
   10  C  1 XX   -0.286923
   11  C  1 YY    0.097843
   12  C  1 ZZ    0.189080
   13  C  1 XY    0.297659
   14  C  1 XZ   -0.000000
   15  C  1 YZ   -0.000000
   16  O  2  S    0.045504
   17  O  2  S    0.186744
   18  O  2  X   -0.250389
   19  O  2  Y   -0.162052
   20  O  2  Z   -0.000000
   21  O  2  S   -1.837304
   22  O  2  X   -2.116927
   23  O  2  Y   -0.904152
   24  O  2  Z   -0.000000
   25  O  2 XX   -0.216091
   26  O  2 YY   -0.156147
   27  O  2 ZZ    0.372239
   28  O  2 XY   -1.337396
   29  O  2 XZ   -0.000000
   30  O  2 YZ   -0.000000
   31  O  3  S   -0.068262
   32  O  3  S   -0.508765
   33  O  3  X   -0.273331
   34  O  3  Y   -0.215654
   35  O  3  Z   -0.000000
   36  O  3  S    2.975937
   37  O  3  X   -1.515014
   38  O  3  Y   -1.148482
   39  O  3  Z   -0.000000
   40  O  3 XX    0.575655
   41  O  3 YY   -0.017215
   42  O  3 ZZ   -0.558441
   43  O  3 XY    0.965267
   44  O  3 XZ   -0.000000
   45  O  3 YZ   -0.000000
   46  H  4  S    0.018712
   47  H  4  S    0.069244
   48  H  5  S    0.018712
   49  H  5  S    0.069244

  ----- BETA SET ----- 

          ------------
          EIGENVECTORS
          ------------

                      1          2          3          4          5
                  -20.6649   -20.6506   -11.3096    -1.5353    -1.1489
                     A'         A'         A'         A'         A'  
    1  C  1  S    0.000025  -0.000061   0.995838  -0.048948   0.110788
    2  C  1  S    0.000137  -0.000671   0.025970   0.099707  -0.220572
    3  C  1  X    0.000503  -0.000171   0.001596   0.068590  -0.067812
    4  C  1  Y   -0.000167  -0.000107  -0.000547  -0.031608   0.063964
    5  C  1  Z    0.000000  -0.000000   0.000000  -0.000000  -0.000000
    6  C  1  S    0.003559   0.001887  -0.010453   0.005115  -0.156653
    7  C  1  X    0.001988   0.000927   0.000307  -0.021001   0.004657
    8  C  1  Y   -0.000845  -0.000069  -0.001251   0.005925  -0.001197
    9  C  1  Z    0.000000  -0.000000   0.000000  -0.000000  -0.000000
   10  C  1 XX    0.000015   0.000092   0.000260   0.010493  -0.005635
   11  C  1 YY   -0.000182   0.000018   0.000139  -0.001734  -0.001874
   12  C  1 ZZ    0.000167  -0.000110  -0.000400  -0.008759   0.007509
   13  C  1 XY    0.000062  -0.000051   0.000071  -0.010219   0.012837
   14  C  1 XZ    0.000000  -0.000000   0.000000  -0.000000  -0.000000
   15  C  1 YZ    0.000000  -0.000000   0.000000  -0.000000  -0.000000
   16  O  2  S    0.995743  -0.019433  -0.000022  -0.174628   0.089732
   17  O  2  S    0.022264  -0.000306   0.000920   0.383343  -0.206871
   18  O  2  X   -0.000004   0.000010  -0.000127   0.043888   0.229179
   19  O  2  Y    0.001959   0.000068   0.000160   0.096283   0.026249
   20  O  2  Z    0.000000  -0.000000   0.000000  -0.000000  -0.000000
   21  O  2  S   -0.010358   0.001412  -0.002709   0.356125  -0.249830
   22  O  2  X    0.000848   0.001505   0.000594   0.000456   0.091888
   23  O  2  Y   -0.002995   0.000445  -0.001980   0.054767  -0.004031
   24  O  2  Z    0.000000  -0.000000   0.000000  -0.000000  -0.000000
   25  O  2 XX   -0.000276  -0.000275  -0.000645   0.010535  -0.002584
   26  O  2 YY   -0.000046  -0.000064  -0.000087   0.006083   0.001464
   27  O  2 ZZ    0.000322   0.000339   0.000732  -0.016618   0.001120
   28  O  2 XY    0.000045  -0.000427   0.000526   0.012617   0.028515
   29  O  2 XZ    0.000000  -0.000000   0.000000  -0.000000  -0.000000
   30  O  2 YZ    0.000000  -0.000000   0.000000  -0.000000  -0.000000
   31  O  3  S    0.019437   0.995943  -0.000036  -0.120552  -0.163267
   32  O  3  S    0.000430   0.020077  -0.000619   0.267191   0.376395
   33  O  3  X   -0.000215  -0.001462   0.000105  -0.103774   0.008803
   34  O  3  Y   -0.000087  -0.000950  -0.000097  -0.067666  -0.011945
   35  O  3  Z    0.000000  -0.000000   0.000000  -0.000000  -0.000000
   36  O  3  S    0.001885  -0.006762   0.002298   0.204183   0.405185
   37  O  3  X   -0.000896   0.001994  -0.001653  -0.035462  -0.010772
   38  O  3  Y   -0.000515   0.001283  -0.000124  -0.020999  -0.007878
   39  O  3  Z    0.000000  -0.000000   0.000000  -0.000000  -0.000000
   40  O  3 XX   -0.000125   0.000180   0.000399   0.018445   0.009194
   41  O  3 YY   -0.000196   0.000316  -0.000180   0.004517   0.009864
   42  O  3 ZZ    0.000320  -0.000496  -0.000220  -0.022962  -0.019058
   43  O  3 XY   -0.000423  -0.000337   0.000102   0.021172   0.004599
   44  O  3 XZ    0.000000  -0.000000   0.000000  -0.000000  -0.000000
   45  O  3 YZ    0.000000  -0.000000   0.000000  -0.000000  -0.000000
   46  H  4  S   -0.000292  -0.000101  -0.000366   0.015067  -0.050276
   47  H  4  S   -0.000013  -0.000209   0.002942  -0.001425   0.001350
   48  H  5  S   -0.000292  -0.000101  -0.000366   0.015067  -0.050276
   49  H  5  S   -0.000013  -0.000209   0.002942  -0.001425   0.001350

                      6          7          8          9         10
                   -0.9205    -0.7004    -0.6875    -0.6829    -0.5161
                     A'         A'         A''        A'         A'' 
    1  C  1  S   -0.157674  -0.037285   0.000000  -0.005574   0.000000
    2  C  1  S    0.320809   0.076436   0.000000   0.006749   0.000000
    3  C  1  X   -0.074454  -0.274164   0.000000  -0.061507   0.000000
    4  C  1  Y    0.085415   0.148193   0.000000  -0.189237   0.000000
    5  C  1  Z   -0.000000  -0.000000   0.399038  -0.000000  -0.268224
    6  C  1  S    0.358833   0.150502   0.000000   0.044668   0.000000
    7  C  1  X   -0.018861  -0.089111   0.000000  -0.022479   0.000000
    8  C  1  Y    0.034660   0.030647   0.000000  -0.094651   0.000000
    9  C  1  Z   -0.000000  -0.000000   0.177042  -0.000000  -0.118152
   10  C  1 XX   -0.011177  -0.026692   0.000000  -0.004747   0.000000
   11  C  1 YY   -0.002870   0.000312   0.000000   0.010549   0.000000
   12  C  1 ZZ    0.014047   0.026381   0.000000  -0.005803   0.000000
   13  C  1 XY    0.008031   0.017707   0.000000  -0.007361   0.000000
   14  C  1 XZ   -0.000000  -0.000000  -0.002014  -0.000000   0.028766
   15  C  1 YZ   -0.000000  -0.000000   0.015831  -0.000000  -0.027243
   16  O  2  S    0.096570  -0.020077   0.000000  -0.022010   0.000000
   17  O  2  S   -0.227262   0.052671   0.000000   0.056332   0.000000
   18  O  2  X   -0.093980   0.319179   0.000000  -0.215951   0.000000
   19  O  2  Y    0.133620  -0.244679   0.000000  -0.345423   0.000000
   20  O  2  Z   -0.000000  -0.000000   0.326571  -0.000000   0.489922
   21  O  2  S   -0.312957   0.064143   0.000000   0.085827   0.000000
   22  O  2  X   -0.037518   0.185982   0.000000  -0.109385   0.000000
   23  O  2  Y    0.062357  -0.154673   0.000000  -0.219724   0.000000
   24  O  2  Z   -0.000000  -0.000000   0.207844  -0.000000   0.392027
   25  O  2 XX   -0.001852   0.011566   0.000000   0.012263   0.000000
   26  O  2 YY    0.006369  -0.017327   0.000000  -0.025370   0.000000
   27  O  2 ZZ   -0.004516   0.005760   0.000000   0.013107   0.000000
   28  O  2 XY   -0.009172   0.020249   0.000000  -0.019294   0.000000
   29  O  2 XZ   -0.000000  -0.000000  -0.002010  -0.000000   0.012890
   30  O  2 YZ   -0.000000  -0.000000   0.022273  -0.000000   0.025943
   31  O  3  S   -0.076687   0.028328   0.000000  -0.064319   0.000000
   32  O  3  S    0.182094  -0.064626   0.000000   0.149075   0.000000
   33  O  3  X    0.058765   0.057195   0.000000   0.407278   0.000000
   34  O  3  Y    0.124389  -0.312901   0.000000   0.079149   0.000000
   35  O  3  Z   -0.000000  -0.000000   0.082250  -0.000000   0.166011
   36  O  3  S    0.229669  -0.113839   0.000000   0.269100   0.000000
   37  O  3  X    0.027349   0.042565   0.000000   0.237370   0.000000
   38  O  3  Y    0.058225  -0.183944   0.000000   0.037242   0.000000
   39  O  3  Z   -0.000000  -0.000000   0.056457  -0.000000   0.130466
   40  O  3 XX    0.004249  -0.013021   0.000000  -0.018589   0.000000
   41  O  3 YY   -0.000759   0.013594   0.000000   0.009781   0.000000
   42  O  3 ZZ   -0.003490  -0.000573   0.000000   0.008808   0.000000
   43  O  3 XY   -0.012586   0.016629   0.000000  -0.024081   0.000000
   44  O  3 XZ   -0.000000  -0.000000  -0.014099  -0.000000  -0.022640
   45  O  3 YZ   -0.000000  -0.000000  -0.009454  -0.000000  -0.016235
   46  H  4  S    0.138189   0.106637   0.177929  -0.028144  -0.163936
   47  H  4  S    0.031120   0.058810   0.101996  -0.015410  -0.138682
   48  H  5  S    0.138189   0.106637  -0.177929  -0.028144   0.163936
   49  H  5  S    0.031120   0.058810  -0.101996  -0.015410   0.138682

                     11         12         13         14         15
                   -0.4762    -0.4193     0.1296     0.2493     0.3101
                     A'         A'         A''        A'         A'  
    1  C  1  S    0.023168   0.026410  -0.000000  -0.126294   0.062956
    2  C  1  S   -0.070297  -0.063844  -0.000000   0.150730  -0.032875
    3  C  1  X   -0.168635   0.339576  -0.000000  -0.065073  -0.216027
    4  C  1  Y    0.094364   0.494689  -0.000000   0.139776   0.099342
    5  C  1  Z   -0.000000   0.000000  -0.043250   0.000000   0.000000
    6  C  1  S   -0.003162  -0.147795  -0.000000   2.103896  -0.928484
    7  C  1  X   -0.033446   0.286955  -0.000000  -0.270353  -1.241635
    8  C  1  Y    0.033949   0.384191  -0.000000   0.581581   0.674269
    9  C  1  Z   -0.000000   0.000000  -0.211655   0.000000   0.000000
   10  C  1 XX   -0.015357  -0.005104  -0.000000   0.000865   0.019464
   11  C  1 YY    0.005517  -0.001443  -0.000000   0.009917  -0.012761
   12  C  1 ZZ    0.009839   0.006546  -0.000000  -0.010782  -0.006704
   13  C  1 XY    0.006627  -0.011553  -0.000000   0.014044  -0.015733
   14  C  1 XZ   -0.000000   0.000000  -0.012455   0.000000   0.000000
   15  C  1 YZ   -0.000000   0.000000   0.017247   0.000000   0.000000
   16  O  2  S   -0.033815  -0.028072  -0.000000   0.006037  -0.107907
   17  O  2  S    0.085568   0.067485  -0.000000  -0.004182   0.174701
   18  O  2  X    0.103019  -0.061543  -0.000000   0.066970  -0.081543
   19  O  2  Y   -0.321843  -0.128867  -0.000000  -0.063045   0.235827
   20  O  2  Z   -0.000000   0.000000  -0.273809   0.000000   0.000000
   21  O  2  S    0.138955   0.145746  -0.000000  -0.069061   1.534647
   22  O  2  X    0.078226  -0.049670  -0.000000   0.078879  -0.398452
   23  O  2  Y   -0.251844  -0.117666  -0.000000  -0.118445   0.603610
   24  O  2  Z   -0.000000   0.000000  -0.262495   0.000000   0.000000
   25  O  2 XX   -0.018346  -0.012520  -0.000000   0.003385  -0.002292
   26  O  2 YY    0.005091   0.002990  -0.000000   0.004150   0.012211
   27  O  2 ZZ    0.013255   0.009530  -0.000000  -0.007535  -0.009919
   28  O  2 XY    0.013449  -0.022539  -0.000000  -0.004012  -0.020678
   29  O  2 XZ   -0.000000   0.000000   0.027680   0.000000   0.000000
   30  O  2 YZ   -0.000000   0.000000   0.008515   0.000000   0.000000
   31  O  3  S    0.000043   0.008120  -0.000000   0.001356   0.020095
   32  O  3  S   -0.005361  -0.023191  -0.000000   0.002443  -0.039016
   33  O  3  X   -0.297169   0.213337  -0.000000  -0.005374   0.175501
   34  O  3  Y    0.496649   0.023755  -0.000000   0.017567   0.130050
   35  O  3  Z   -0.000000   0.000000   0.500587   0.000000   0.000000
   36  O  3  S    0.031269  -0.012071  -0.000000  -0.008554  -0.197481
   37  O  3  X   -0.234806   0.162170  -0.000000   0.000104   0.288608
   38  O  3  Y    0.363863   0.004992  -0.000000   0.004738   0.190598
   39  O  3  Z   -0.000000   0.000000   0.623342   0.000000   0.000000
   40  O  3 XX    0.003076  -0.008291  -0.000000  -0.000589   0.005527
   41  O  3 YY   -0.004937   0.003824  -0.000000   0.004747  -0.004403
   42  O  3 ZZ    0.001861   0.004467  -0.000000  -0.004158  -0.001124
   43  O  3 XY   -0.007280  -0.008559  -0.000000   0.000191   0.009551
   44  O  3 XZ   -0.000000   0.000000  -0.009958   0.000000   0.000000
   45  O  3 YZ   -0.000000   0.000000  -0.003734   0.000000   0.000000
   46  H  4  S    0.029663   0.049169   0.031221  -0.050729  -0.004172
   47  H  4  S    0.044766   0.052513   0.283248  -1.478527  -0.122213
   48  H  5  S    0.029663   0.049169  -0.031221  -0.050729  -0.004172
   49  H  5  S    0.044766   0.052513  -0.283248  -1.478527  -0.122213

                     16         17         18         19         20
                    0.3272     0.4267     0.6990     0.7540     0.8060
                     A''        A'         A'         A'         A'' 
    1  C  1  S   -0.000000  -0.029652  -0.021205   0.044229  -0.000000
    2  C  1  S   -0.000000   0.050089   0.276239   0.056861  -0.000000
    3  C  1  X   -0.000000   0.023998  -0.366350  -0.875849  -0.000000
    4  C  1  Y   -0.000000  -0.048034  -0.923958   0.251902  -0.000000
    5  C  1  Z   -0.386391  -0.000000   0.000000   0.000000  -0.705193
    6  C  1  S   -0.000000   0.448019  -0.248615  -0.364682  -0.000000
    7  C  1  X   -0.000000   0.548864   0.392341   1.085275  -0.000000
    8  C  1  Y   -0.000000  -0.662264   1.128095  -0.475291  -0.000000
    9  C  1  Z   -1.616073  -0.000000   0.000000   0.000000   2.139042
   10  C  1 XX   -0.000000   0.017148  -0.021653   0.004942  -0.000000
   11  C  1 YY   -0.000000  -0.033374   0.026908  -0.041071  -0.000000
   12  C  1 ZZ   -0.000000   0.016225  -0.005255   0.036130  -0.000000
   13  C  1 XY   -0.000000   0.018816   0.016849  -0.106803  -0.000000
   14  C  1 XZ    0.002409  -0.000000   0.000000   0.000000   0.029121
   15  C  1 YZ    0.004061  -0.000000   0.000000   0.000000  -0.096202
   16  O  2  S   -0.000000  -0.038672  -0.002638  -0.031079  -0.000000
   17  O  2  S   -0.000000   0.101377   0.016506   0.193432  -0.000000
   18  O  2  X   -0.000000   0.443106   0.100074  -0.244473  -0.000000
   19  O  2  Y   -0.000000   0.201513  -0.037003   0.192516  -0.000000
   20  O  2  Z    0.130381  -0.000000   0.000000   0.000000  -0.286188
   21  O  2  S   -0.000000   0.244644   0.146243  -0.393490  -0.000000
   22  O  2  X   -0.000000   1.134032  -0.119401   0.034689  -0.000000
   23  O  2  Y   -0.000000   0.429303  -0.125738   0.034023  -0.000000
   24  O  2  Z    0.321027  -0.000000   0.000000   0.000000  -0.200826
   25  O  2 XX   -0.000000  -0.026191   0.063000  -0.058785  -0.000000
   26  O  2 YY   -0.000000   0.011906  -0.051657  -0.004886  -0.000000
   27  O  2 ZZ   -0.000000   0.014284  -0.011343   0.063671  -0.000000
   28  O  2 XY   -0.000000  -0.000913  -0.024122   0.100816  -0.000000
   29  O  2 XZ    0.005653  -0.000000   0.000000   0.000000  -0.030097
   30  O  2 YZ    0.000027  -0.000000   0.000000   0.000000  -0.016795
   31  O  3  S   -0.000000   0.085740   0.018278   0.007544  -0.000000
   32  O  3  S   -0.000000  -0.203747  -0.099817   0.016880  -0.000000
   33  O  3  X   -0.000000   0.305999   0.031461  -0.018688  -0.000000
   34  O  3  Y   -0.000000   0.259193  -0.027615  -0.034177  -0.000000
   35  O  3  Z   -0.095802  -0.000000   0.000000   0.000000  -0.088803
   36  O  3  S   -0.000000  -0.934677   0.044008  -0.148436  -0.000000
   37  O  3  X   -0.000000   0.746108   0.042411   0.187347  -0.000000
   38  O  3  Y   -0.000000   0.615227  -0.001735  -0.026864  -0.000000
   39  O  3  Z   -0.123970  -0.000000   0.000000   0.000000   0.046961
   40  O  3 XX   -0.000000  -0.011589  -0.010515   0.013711  -0.000000
   41  O  3 YY   -0.000000   0.000929   0.016398  -0.034304  -0.000000
   42  O  3 ZZ   -0.000000   0.010660  -0.005883   0.020593  -0.000000
   43  O  3 XY   -0.000000   0.002919   0.000714  -0.000067  -0.000000
   44  O  3 XZ   -0.001375  -0.000000   0.000000   0.000000  -0.002069
   45  O  3 YZ   -0.001924  -0.000000   0.000000   0.000000   0.033922
   46  H  4  S   -0.004604   0.016912  -0.067381   0.332797  -0.409126
   47  H  4  S    1.816435   0.116187  -0.014105   0.070575  -0.765956
   48  H  5  S    0.004604   0.016912  -0.067381   0.332797   0.409126
   49  H  5  S   -1.816435   0.116187  -0.014105   0.070575   0.765956

                     21         22         23         24         25
                    0.8369     1.0952     1.1254     1.1388     1.1533
                     A'         A'         A''        A'         A'  
    1  C  1  S   -0.011520  -0.013561   0.000000   0.022960   0.033159
    2  C  1  S   -1.088457  -0.137359   0.000000  -0.566913  -1.170974
    3  C  1  X   -0.313428  -0.027013   0.000000   0.260402   0.291783
    4  C  1  Y    0.107189   0.051949   0.000000  -0.280630  -0.311311
    5  C  1  Z    0.000000   0.000000  -0.909224  -0.000000  -0.000000
    6  C  1  S    2.162147   0.318398   0.000000   1.649504   2.137266
    7  C  1  X    0.371624   0.015495   0.000000  -0.067921  -0.333766
    8  C  1  Y    0.141293  -0.229691   0.000000   0.345388   0.502200
    9  C  1  Z    0.000000   0.000000   1.550206  -0.000000  -0.000000
   10  C  1 XX    0.116426  -0.013496   0.000000   0.024598  -0.114474
   11  C  1 YY    0.034497   0.021239   0.000000  -0.037516  -0.019263
   12  C  1 ZZ   -0.150923  -0.007743   0.000000   0.012918   0.133737
   13  C  1 XY    0.030106  -0.006684   0.000000  -0.115503  -0.005257
   14  C  1 XZ    0.000000   0.000000  -0.139200  -0.000000  -0.000000
   15  C  1 YZ    0.000000   0.000000   0.169513  -0.000000  -0.000000
   16  O  2  S    0.011935  -0.014812   0.000000   0.039113  -0.012630
   17  O  2  S    0.027491  -0.133556   0.000000  -0.328632   0.208229
   18  O  2  X   -0.096153  -0.219527   0.000000  -0.306184   0.241600
   19  O  2  Y    0.231923  -0.356616   0.000000   0.459769   0.028389
   20  O  2  Z    0.000000   0.000000   0.199935  -0.000000  -0.000000
   21  O  2  S   -0.829792   1.242749   0.000000   0.062334  -0.300032
   22  O  2  X    0.052263   1.049059   0.000000   0.601401  -0.297841
   23  O  2  Y   -0.474802   0.965115   0.000000  -0.591761  -0.183782
   24  O  2  Z    0.000000   0.000000  -0.306221  -0.000000  -0.000000
   25  O  2 XX   -0.102555   0.097068   0.000000  -0.041519   0.052234
   26  O  2 YY    0.008721  -0.006633   0.000000   0.029967  -0.029581
   27  O  2 ZZ    0.093835  -0.090434   0.000000   0.011552  -0.022653
   28  O  2 XY    0.014007   0.181274   0.000000  -0.022597   0.060882
   29  O  2 XZ    0.000000   0.000000   0.121086  -0.000000  -0.000000
   30  O  2 YZ    0.000000   0.000000  -0.068015  -0.000000  -0.000000
   31  O  3  S    0.027465   0.061916   0.000000   0.034462  -0.003460
   32  O  3  S   -0.305164  -0.309095   0.000000  -0.387903   0.106684
   33  O  3  X    0.245179  -0.553770   0.000000  -0.377375   0.175137
   34  O  3  Y   -0.148951  -0.507773   0.000000   0.332290  -0.376654
   35  O  3  Z    0.000000   0.000000   0.042232  -0.000000  -0.000000
   36  O  3  S    0.447391  -0.933519   0.000000   0.246421   0.062258
   37  O  3  X   -0.307909   1.375261   0.000000   0.389775  -0.202516
   38  O  3  Y   -0.039530   1.105693   0.000000  -0.248818   0.376284
   39  O  3  Z    0.000000   0.000000  -0.039182  -0.000000  -0.000000
   40  O  3 XX    0.057266  -0.088048   0.000000   0.007602   0.032464
   41  O  3 YY   -0.040437  -0.006612   0.000000  -0.023625   0.020899
   42  O  3 ZZ   -0.016830   0.094660   0.000000   0.016023  -0.053363
   43  O  3 XY   -0.003378  -0.139797   0.000000  -0.072578   0.076597
   44  O  3 XZ    0.000000   0.000000  -0.019308  -0.000000  -0.000000
   45  O  3 YZ    0.000000   0.000000  -0.025561  -0.000000  -0.000000
   46  H  4  S   -0.459511  -0.092647   0.651233   0.253887   0.508124
   47  H  4  S   -0.233297   0.022202  -1.435717  -0.664994  -1.099133
   48  H  5  S   -0.459511  -0.092647  -0.651233   0.253887   0.508124
   49  H  5  S   -0.233297   0.022202   1.435717  -0.664994  -1.099133

                     26         27         28         29         30
                    1.2362     1.2552     1.2862     1.3384     1.6259
                     A'         A''        A'         A''        A'  
    1  C  1  S    0.015760   0.000000   0.029891   0.000000  -0.022475
    2  C  1  S   -0.518779   0.000000   0.781953   0.000000  -0.524600
    3  C  1  X    0.000868   0.000000   0.143710   0.000000   0.008860
    4  C  1  Y   -0.165307   0.000000  -0.003125   0.000000  -0.081573
    5  C  1  Z    0.000000  -0.071962   0.000000   0.044245   0.000000
    6  C  1  S    1.085512   0.000000  -0.886000   0.000000   2.161688
    7  C  1  X   -0.071984   0.000000  -0.040237   0.000000   0.873481
    8  C  1  Y   -0.147443   0.000000  -0.354335   0.000000  -0.404334
    9  C  1  Z    0.000000   0.610726   0.000000  -0.872350   0.000000
   10  C  1 XX    0.079382   0.000000   0.163008   0.000000  -0.027541
   11  C  1 YY   -0.156786   0.000000  -0.131014   0.000000   0.193922
   12  C  1 ZZ    0.077405   0.000000  -0.031994   0.000000  -0.166381
   13  C  1 XY    0.010149   0.000000  -0.083640   0.000000  -0.094755
   14  C  1 XZ    0.000000   0.006783   0.000000  -0.054290   0.000000
   15  C  1 YZ    0.000000  -0.123461   0.000000   0.073572   0.000000
   16  O  2  S   -0.020135   0.000000   0.021500   0.000000  -0.028509
   17  O  2  S    0.060937   0.000000  -0.203874   0.000000   0.648514
   18  O  2  X   -0.405987   0.000000  -0.396364   0.000000  -0.439004
   19  O  2  Y   -0.556623   0.000000   0.289684   0.000000   0.082637
   20  O  2  Z    0.000000   0.426718   0.000000  -0.787784   0.000000
   21  O  2  S   -0.140508   0.000000   0.327263   0.000000  -0.825005
   22  O  2  X    0.828505   0.000000   0.989568   0.000000   1.851369
   23  O  2  Y    0.834926   0.000000  -0.495581   0.000000   0.098322
   24  O  2  Z    0.000000  -0.518201   0.000000   1.332596   0.000000
   25  O  2 XX   -0.087716   0.000000   0.041827   0.000000   0.251712
   26  O  2 YY   -0.018138   0.000000   0.005516   0.000000  -0.092220
   27  O  2 ZZ    0.105853   0.000000  -0.047343   0.000000  -0.159491
   28  O  2 XY   -0.091133   0.000000  -0.082015   0.000000   0.098868
[...]
    4  C  1  Y   -0.210487   0.100916  -0.268946  -0.000000  -0.154028
    5  C  1  Z   -0.000000  -0.000000   0.000000   0.538116  -0.000000
    6  C  1  S    0.987978   0.324290  -0.217758  -0.000000   1.260322
    7  C  1  X   -0.392081   0.104437  -1.547101  -0.000000   0.017547
    8  C  1  Y    0.025750  -0.524884   1.244300  -0.000000  -0.184151
    9  C  1  Z   -0.000000  -0.000000   0.000000  -1.417981  -0.000000
   10  C  1 XX   -0.144846  -0.091579  -0.274140  -0.000000   0.150786
   11  C  1 YY    0.470713   0.080030  -0.062298  -0.000000   0.289979
   12  C  1 ZZ   -0.325867   0.011549   0.336438  -0.000000  -0.440766
   13  C  1 XY   -0.083294  -0.083158   0.314823  -0.000000  -0.180782
   14  C  1 XZ   -0.000000  -0.000000   0.000000  -0.269087  -0.000000
   15  C  1 YZ   -0.000000  -0.000000   0.000000   0.308025  -0.000000
   16  O  2  S    0.004021  -0.023116  -0.026426  -0.000000   0.043456
   17  O  2  S   -0.276640   0.234965  -0.636905  -0.000000   0.089054
   18  O  2  X   -0.200316   0.025669  -0.037688  -0.000000  -0.259159
   19  O  2  Y   -0.205750  -0.183517  -0.147878  -0.000000  -0.055951
   20  O  2  Z   -0.000000  -0.000000   0.000000   0.060050  -0.000000
   21  O  2  S    0.093925   0.029157   2.680980  -0.000000  -0.814829
   22  O  2  X    0.438513   0.804380  -0.335678  -0.000000   0.609792
   23  O  2  Y    0.336759   0.369251   0.701668  -0.000000  -0.200715
   24  O  2  Z   -0.000000  -0.000000   0.000000   0.234824  -0.000000
   25  O  2 XX   -0.335343  -0.167888   0.150811  -0.000000  -0.456646
   26  O  2 YY    0.133485   0.349768  -0.256333  -0.000000   0.143952
   27  O  2 ZZ    0.201858  -0.181880   0.105522  -0.000000   0.312694
   28  O  2 XY    0.023345   0.226756  -0.275212  -0.000000  -0.163409
   29  O  2 XZ   -0.000000  -0.000000   0.000000  -0.051608  -0.000000
   30  O  2 YZ   -0.000000  -0.000000   0.000000   0.220574  -0.000000
   31  O  3  S   -0.015848   0.025473   0.002569  -0.000000   0.007460
   32  O  3  S    0.067823  -0.038668   0.074143  -0.000000  -0.190181
   33  O  3  X    0.607571  -0.043565  -0.327436  -0.000000  -0.403109
   34  O  3  Y    0.112269  -0.091746  -0.153754  -0.000000  -0.163193
   35  O  3  Z   -0.000000  -0.000000   0.000000  -0.041323  -0.000000
   36  O  3  S   -0.224300  -0.602512  -0.459709  -0.000000   0.246840
   37  O  3  X   -0.655456   0.532854   0.570289  -0.000000   0.337784
   38  O  3  Y   -0.099432   0.428445   0.442787  -0.000000   0.068042
   39  O  3  Z   -0.000000  -0.000000   0.000000  -0.016976  -0.000000
   40  O  3 XX    0.054413   0.530099   0.107470  -0.000000  -0.088382
   41  O  3 YY    0.055176  -0.731251  -0.096394  -0.000000   0.014431
   42  O  3 ZZ   -0.109589   0.201152  -0.011076  -0.000000   0.073951
   43  O  3 XY    0.194777  -0.241280  -0.310947  -0.000000   0.614479
   44  O  3 XZ   -0.000000  -0.000000   0.000000   0.453709  -0.000000
   45  O  3 YZ   -0.000000  -0.000000   0.000000  -0.299657  -0.000000
   46  H  4  S    0.528809   0.026113   0.084583  -0.677689  -0.117675
   47  H  4  S   -0.795924   0.015796  -0.742495   1.578547   0.033051
   48  H  5  S    0.528809   0.026113   0.084583   0.677689  -0.117675
   49  H  5  S   -0.795924   0.015796  -0.742495  -1.578547   0.033051

                     46
                   -0.0000
                     A'' 
    1  C  1  S   -0.000000
    2  C  1  S   -0.000000
    3  C  1  X   -0.000000
    4  C  1  Y   -0.000000
    5  C  1  Z   -0.098736
    6  C  1  S   -0.000000
    7  C  1  X   -0.000000
    8  C  1  Y   -0.000000
    9  C  1  Z   -0.275950
   10  C  1 XX   -0.000000
   11  C  1 YY   -0.000000
   12  C  1 ZZ   -0.000000
   13  C  1 XY   -0.000000
   14  C  1 XZ    0.061042
   15  C  1 YZ   -0.149301
   16  O  2  S   -0.000000
   17  O  2  S   -0.000000
   18  O  2  X   -0.000000
   19  O  2  Y   -0.000000
   20  O  2  Z    0.074452
   21  O  2  S   -0.000000
   22  O  2  X   -0.000000
   23  O  2  Y   -0.000000
   24  O  2  Z   -0.037705
   25  O  2 XX   -0.000000
   26  O  2 YY   -0.000000
   27  O  2 ZZ   -0.000000
   28  O  2 XY   -0.000000
   29  O  2 XZ   -0.271407
   30  O  2 YZ    0.944806
   31  O  3  S   -0.000000
   32  O  3  S   -0.000000
   33  O  3  X   -0.000000
   34  O  3  Y   -0.000000
   35  O  3  Z   -0.020968
   36  O  3  S   -0.000000
   37  O  3  X   -0.000000
   38  O  3  Y   -0.000000
   39  O  3  Z   -0.047946
   40  O  3 XX   -0.000000
   41  O  3 YY   -0.000000
   42  O  3 ZZ   -0.000000
   43  O  3 XY   -0.000000
   44  O  3 XZ   -0.009128
   45  O  3 YZ    0.050043
   46  H  4  S    0.154297
   47  H  4  S    0.080156
   48  H  5  S   -0.154297
   49  H  5  S   -0.080156
 ...... END OF UHF CALCULATION ......
 STEP CPU TIME =     0.21 TOTAL CPU TIME =        0.3 (    0.0 MIN)
 TOTAL WALL CLOCK TIME=        0.7 SECONDS, CPU UTILIZATION IS  45.59%

     ----------------------------------------------------------------
     PROPERTY VALUES FOR THE UHF   SELF-CONSISTENT FIELD WAVEFUNCTION
     ----------------------------------------------------------------

          -----------------
          ENERGY COMPONENTS
          -----------------

         WAVEFUNCTION NORMALIZATION =       1.0000000000

                ONE ELECTRON ENERGY =    -395.3554119218
                TWO ELECTRON ENERGY =     137.7681647987
           NUCLEAR REPULSION ENERGY =      69.0259948981
                                      ------------------
                       TOTAL ENERGY =    -188.5612522250

 ELECTRON-ELECTRON POTENTIAL ENERGY =     137.7681647987
  NUCLEUS-ELECTRON POTENTIAL ENERGY =    -583.8411422716
   NUCLEUS-NUCLEUS POTENTIAL ENERGY =      69.0259948981
                                      ------------------
             TOTAL POTENTIAL ENERGY =    -377.0469825747
               TOTAL KINETIC ENERGY =     188.4857303498
                 VIRIAL RATIO (V/T) =       2.0004006769

          ---------------------------------------
          MULLIKEN AND LOWDIN POPULATION ANALYSES
          ---------------------------------------

     ATOMIC MULLIKEN POPULATION IN EACH MOLECULAR ORBITAL
        ALPHA ORBITALS

                      1          2          3          4          5

                  1.000000   1.000000   1.000000   1.000000   1.000000

    1             0.000048   0.000353   0.999824   0.009651   0.095379
    2             0.000626   0.999085  -0.000342   0.539043   0.422319
    3             0.999327   0.000562   0.000026   0.450070   0.476320
    4            -0.000001  -0.000000   0.000247   0.000618   0.002991
    5            -0.000001  -0.000000   0.000247   0.000618   0.002991

                      6          7          8          9         10

                  1.000000   1.000000   1.000000   1.000000   1.000000

    1             0.403640   0.074886   0.281177   0.020491   0.359770
    2             0.261354   0.409053   0.266545   0.482063   0.030809
    3             0.136943   0.476931   0.275602   0.494896   0.300196
    4             0.099032   0.019565   0.088338   0.001275   0.154612
    5             0.099032   0.019565   0.088338   0.001275   0.154612

                     11         12

                  1.000000   1.000000

    1             0.066575   0.080084
    2             0.293039   0.542071
    3             0.623366   0.222572
    4             0.008510   0.077637
    5             0.008510   0.077637

     ATOMIC MULLIKEN POPULATION IN EACH MOLECULAR ORBITAL
         BETA ORBITALS

                      1          2          3          4          5

                  1.000000   1.000000   1.000000   1.000000   1.000000

    1             0.000348   0.000032   0.999759   0.039570   0.210459
    2             0.999122   0.000535  -0.000357   0.625876   0.311674
    3             0.000530   0.999433   0.000029   0.333467   0.461699
    4            -0.000000  -0.000000   0.000284   0.000544   0.008084
    5            -0.000000  -0.000000   0.000284   0.000544   0.008084

                      6          7          8          9         10

                  1.000000   1.000000   1.000000   1.000000   1.000000

    1             0.478939   0.262668   0.436878   0.111484   0.152098
    2             0.209646   0.378638   0.290906   0.391198   0.556950
    3             0.162670   0.266740   0.030786   0.491995   0.108097
    4             0.074373   0.045977   0.120714   0.002662   0.091427
    5             0.074373   0.045977   0.120714   0.002662   0.091427

                     11         12

                  1.000000   1.000000

    1             0.064236   0.864277
    2             0.241486   0.041545
    3             0.681689   0.079049
    4             0.006294   0.007564
    5             0.006294   0.007564

          MULLIKEN SPHERICAL HARMONIC POPULATIONS
       ATOM           S       P       D      F      G      H      I    TOTAL
    1 C             1.53    0.83    0.03   0.00   0.00   0.00   0.00    2.39
    2 O             1.93    2.29    0.03   0.00   0.00   0.00   0.00    4.25
    3 O             1.97    2.46    0.02   0.00   0.00   0.00   0.00    4.46
    4 H             0.45    0.00    0.00   0.00   0.00   0.00   0.00    0.45
    5 H             0.45    0.00    0.00   0.00   0.00   0.00   0.00    0.45

          MULLIKEN SPHERICAL HARMONIC POPULATIONS
       ATOM           S       P       D      F      G      H      I    TOTAL
    1 C             1.71    1.88    0.03   0.00   0.00   0.00   0.00    3.62
    2 O             1.92    2.10    0.03   0.00   0.00   0.00   0.00    4.05
    3 O             1.95    1.64    0.02   0.00   0.00   0.00   0.00    3.62
    4 H             0.36    0.00    0.00   0.00   0.00   0.00   0.00    0.36
    5 H             0.36    0.00    0.00   0.00   0.00   0.00   0.00    0.36

     ATOMIC SPIN POPULATION (ALPHA MINUS BETA)
       ATOM         MULL.POP.                    LOW.POP.
    1 C            -1.228873                    -1.069695
    2 O             0.198447                     0.166903
    3 O             0.840624                     0.808930
    4 H             0.094901                     0.046931
    5 H             0.094901                     0.046931


          ********* ALL ELECTRONS ********

               ----- POPULATIONS IN EACH AO -----
                             MULLIKEN      LOWDIN
              1  C  1  S      1.99739     1.98045
              2  C  1  S      0.67751     0.37138
              3  C  1  X      0.55522     0.52611
              4  C  1  Y      0.59675     0.55943
              5  C  1  Z      0.75475     0.66733
              6  C  1  S      0.56908     0.36003
              7  C  1  X      0.16725     0.29825
              8  C  1  Y      0.30952     0.37766
              9  C  1  Z      0.32384     0.45949
             10  C  1 XX      0.01556     0.15755
             11  C  1 YY      0.00779     0.13090
             12  C  1 ZZ      0.01285     0.19045
             13  C  1 XY      0.01171     0.02283
             14  C  1 XZ      0.01342     0.02456
             15  C  1 YZ      0.00000     0.02326
             16  O  2  S      1.99783     1.97775
             17  O  2  S      0.91987     0.71694
             18  O  2  X      0.74333     0.67738
             19  O  2  Y      0.95976     0.91722
             20  O  2  Z      1.12783     1.09174
             21  O  2  S      0.92495     0.43706
             22  O  2  X      0.32757     0.42229
             23  O  2  Y      0.54258     0.59599
             24  O  2  Z      0.69161     0.68405
             25  O  2 XX      0.00723     0.18994
             26  O  2 YY      0.01366     0.17725
             27  O  2 ZZ      0.02632     0.16202
             28  O  2 XY      0.00551     0.04231
             29  O  2 XZ      0.00484     0.01473
             30  O  2 YZ      0.00000     0.00809
             31  O  3  S      1.99806     1.97938
             32  O  3  S      0.97664     0.77126
             33  O  3  X      0.88329     0.84413
             34  O  3  Y      1.05578     1.01866
             35  O  3  Z      0.72950     0.70253
             36  O  3  S      0.95177     0.52108
             37  O  3  X      0.46730     0.55301
             38  O  3  Y      0.57078     0.63399
             39  O  3  Z      0.39762     0.43075
             40  O  3 XX      0.00681     0.18885
             41  O  3 YY      0.00710     0.18659
             42  O  3 ZZ      0.01689     0.18450
             43  O  3 XY      0.00740     0.02820
             44  O  3 XZ      0.00407     0.01644
             45  O  3 YZ      0.00000     0.00956
             46  H  4  S      0.52990     0.48409
             47  H  4  S      0.28085     0.34923
             48  H  5  S      0.52990     0.48409
             49  H  5  S      0.28085     0.34923

          ----- MULLIKEN ATOMIC OVERLAP POPULATIONS -----
          (OFF-DIAGONAL ELEMENTS NEED TO BE MULTIPLIED BY 2)

             1           2           3           4           5

    1    5.1185291
    2    0.1910173   8.1118060
    3   -0.0593711   0.0615688   8.0682911
    4    0.3812252  -0.0357542   0.0012551   0.4986178
    5    0.3812252  -0.0357542   0.0012551  -0.0345983   0.4986178

          TOTAL MULLIKEN AND LOWDIN ATOMIC POPULATIONS
       ATOM         MULL.POP.    CHARGE          LOW.POP.     CHARGE
    1 C             6.012626   -0.012626         6.149683   -0.149683
    2 O             8.292884   -0.292884         8.114757   -0.114757
    3 O             8.072999   -0.072999         8.068926   -0.068926
    4 H             0.810746    0.189254         0.833317    0.166683
    5 H             0.810746    0.189254         0.833317    0.166683

          MULLIKEN SPHERICAL HARMONIC POPULATIONS
       ATOM           S       P       D      F      G      H      I    TOTAL
    1 C             3.24    2.71    0.06   0.00   0.00   0.00   0.00    6.01
    2 O             3.84    4.39    0.06   0.00   0.00   0.00   0.00    8.29
    3 O             3.93    4.10    0.04   0.00   0.00   0.00   0.00    8.07
    4 H             0.81    0.00    0.00   0.00   0.00   0.00   0.00    0.81
    5 H             0.81    0.00    0.00   0.00   0.00   0.00   0.00    0.81

          -------------------------------
          BOND ORDER AND VALENCE ANALYSIS     BOND ORDER THRESHOLD=0.050
          -------------------------------

                   BOND                       BOND                       BOND
  ATOM PAIR DIST  ORDER      ATOM PAIR DIST  ORDER      ATOM PAIR DIST  ORDER
    1   2  1.382  0.817        1   4  1.073  0.925        1   5  1.073  0.925
    2   3  1.311  1.110

                       TOTAL       BONDED        FREE
      ATOM            VALENCE     VALENCE     VALENCE
    1 C                 3.663       2.690       0.973
    2 O                 1.956       1.921       0.035
    3 O                 1.914       1.141       0.773
    4 H                 0.929       0.920       0.009
    5 H                 0.929       0.920       0.009

          -----------------------------------------
          ATOMIC SPIN DENSITY AT THE NUCLEUS (A.U.)
          -----------------------------------------
                            SPIN DENS    ALPHA DENS     BETA DENS
    1  C            6.0    -0.3194477      58.96108      59.28052
    2  O            8.0     0.0450716     145.64599     145.60092
    3  O            8.0     0.2251173     146.08439     145.85927
    4  H            1.0     0.0279336       0.22715       0.19921
    5  H            1.0     0.0279336       0.22715       0.19921

          ---------------------
          ELECTROSTATIC MOMENTS
          ---------------------

 POINT   1           X           Y           Z (BOHR)    CHARGE
                -0.000000    0.000000    0.000000       -0.00 (A.U.)
         DX          DY          DZ         /D/  (DEBYE)
    -1.798513    1.058172    0.000000    2.086714
 ...... END OF PROPERTY EVALUATION ......
 STEP CPU TIME =     0.01 TOTAL CPU TIME =        0.3 (    0.0 MIN)
 TOTAL WALL CLOCK TIME=        0.7 SECONDS, CPU UTILIZATION IS  47.06%

 BEGINNING ONE ELECTRON GRADIENT...
 ..... END OF 1-ELECTRON GRADIENT ......
 STEP CPU TIME =     0.00 TOTAL CPU TIME =        0.3 (    0.0 MIN)
 TOTAL WALL CLOCK TIME=        0.7 SECONDS, CPU UTILIZATION IS  46.38%

          ----------------------
          GRADIENT OF THE ENERGY
          ----------------------

 THE MINIMUM MEMORY REQUIRED FOR THIS RUN IS      84124 WORDS.
 USING    1059644 WORDS FOR 2E- DERIVATIVE INTEGRAL CONTRIBUTIONS.
 THE COARSE/FINE SCHWARZ SCREENINGS SKIPPED            0/           0 BLOCKS.
 THE NUMBER OF GRADIENT INTEGRAL BLOCKS COMPUTED WAS      6121
 ...... END OF 2-ELECTRON GRADIENT ......
 STEP CPU TIME =     0.18 TOTAL CPU TIME =        0.5 (    0.0 MIN)
 TOTAL WALL CLOCK TIME=        0.9 SECONDS, CPU UTILIZATION IS  57.47%

                         ----------------------
                         GRADIENT OF THE ENERGY
                         ----------------------

 UNITS ARE HARTREE/BOHR    E'X               E'Y               E'Z 
    1 C               -0.000001973      -0.000000721       0.000000000
    2 O                0.000003260      -0.000000878       0.000000000
    3 O                0.000000703      -0.000000748       0.000000000
    4 H               -0.000000995       0.000001173       0.000000983
    5 H               -0.000000995       0.000001173      -0.000000983

                   MAXIMUM GRADIENT =    0.000003260
                       RMS GRADIENT =    0.000001252


                     --------------------
                     INTERNAL COORDINATES
                     --------------------

                 - - ATOMS - -         COORDINATE        GRADIENT
 NO.   TYPE    I  J  K  L  M  N         (ANG,DEG)     (H/B,H/RAD)
 ----------------------------------------------------------------
   1 STRETCH   2  1                     1.3824615       0.0000042
   2 STRETCH   3  2                     1.3105794       0.0000001
   3 BEND      3  2  1                111.3307543       0.0000023
   4 STRETCH   5  1                     1.0726882       0.0000016
   5 BEND      5  1  2                115.9378659       0.0000017
   6 TORSION   5  1  2  3              76.6711805      -0.0000004
   7 STRETCH   4  1                     1.0726882       0.0000016
   8 BEND      4  1  2                115.9378659       0.0000017
   9 TORSION   4  1  2  3             -76.6711805       0.0000004

                   MAXIMUM GRADIENT =    0.000004203
                       RMS GRADIENT =    0.000001955
  $VIB   
          IVIB=   0 IATOM=   0 ICOORD=   0 E=     -188.5612522250
 -1.973430423E-06-7.211885631E-07 0.000000000E+00 3.259735490E-06-8.775950388E-07
  0.000000000E+00 7.033798681E-07-7.476279975E-07 0.000000000E+00-9.948440551E-07
  1.173204432E-06 9.826692817E-07-9.948440551E-07 1.173204432E-06-9.826692817E-07
 -1.798512907E+00 1.058171765E+00 1.128770855E-15

..... END OF SINGLE POINT GRADIENT .....
 STEP CPU TIME =     0.00 TOTAL CPU TIME =        0.5 (    0.0 MIN)
 TOTAL WALL CLOCK TIME=        0.9 SECONDS, CPU UTILIZATION IS  57.47%
              1059644  WORDS OF DYNAMIC MEMORY USED
 EXECUTION OF GAMESS TERMINATED NORMALLY Tue Nov 29 03:47:16 2016
 DDI: 263640 bytes (0.3 MB / 0 MWords) used by master data server.

 ----------------------------------------
 CPU timing information for all processes
 ========================================
 0: 0.468 + 0.47 = 0.516
 ----------------------------------------
 ddikick.x: exited gracefully.
unset echo
----- accounting info -----
Files used on the master node compute-3-0 were:
-rw-rw-r-- 1 sarom sarom  112586 Nov 29  2016 .//criegee.dat
-rw-rw-r-- 1 sarom sarom    1514 Nov 29  2016 .//criegee.F05
-rw-rw-r-- 1 sarom sarom 4680416 Nov 29  2016 .//criegee.F08
-rw-rw-r-- 1 sarom sarom 2192240 Nov 29  2016 .//criegee.F10
-rw-rw-r-- 1 sarom sarom    1514 Nov 28 17:27 .//criegee.inp
-rw-rw-r-- 1 sarom sarom  143574 Nov 29  2016 .//criegee.log
Tue Nov 29 03:47:20 CST 2016
0.193u 0.265s 0:06.05 7.4%	0+0k 0+136io 0pf+0w
