----- GAMESS execution script 'rungms' -----
This job is running on host compute-3-0
under operating system Linux at Tue Nov 29 03:47:15 CST 2016
Available scratch disk space (Kbyte units) at beginning of the job is
Filesystem            1K-blocks       Used  Available Use% Mounted on
bolt.local:/export/home/sarom
                     9590469632 1553496064 7549805568  18% /home/sarom
Copying input file f2-uhf.inp to your run's scratch directory...
cp f2-uhf.inp .//f2-uhf.F05
unset echo
/home/sarom/gamessGH/ddikick.x /home/sarom/gamessGH/gamess.00.x f2-uhf -ddi 1 1 localhost -scr ./

 Distributed Data Interface kickoff program.
 Initiating 1 compute processes on 1 nodes to run the following command:
 /home/sarom/gamessGH/gamess.00.x f2-uhf 

          ******************************************************
          *         GAMESS VERSION = 18 AUG 2016 (R1)          *
          *             FROM IOWA STATE UNIVERSITY             *
          * M.W.SCHMIDT, K.K.BALDRIDGE, J.A.BOATZ, S.T.ELBERT, *
          *   M.S.GORDON, J.H.JENSEN, S.KOSEKI, N.MATSUNAGA,   *
          *          K.A.NGUYEN, S.J.SU, T.L.WINDUS,           *
          *       TOGETHER WITH M.DUPUIS, J.A.MONTGOMERY       *
          *         J.COMPUT.CHEM.  14, 1347-1363(1993)        *
          **************** 64 BIT LINUX VERSION ****************

  SINCE 1993, STUDENTS AND POSTDOCS WORKING AT IOWA STATE UNIVERSITY
  AND ALSO IN THEIR VARIOUS JOBS AFTER LEAVING ISU HAVE MADE IMPORTANT
  CONTRIBUTIONS TO THE CODE:
     IVANA ADAMOVIC, CHRISTINE AIKENS, YURI ALEXEEV, POOJA ARORA,
     ANDREY ASADCHEV, ROB BELL, PRADIPTA BANDYOPADHYAY, JONATHAN BENTZ,
     BRETT BODE, KURT BRORSEN, CALEB CARLIN, GALINA CHABAN, WEI CHEN,
     CHEOL HO CHOI, PAUL DAY, ALBERT DEFUSCO, NUWAN DESILVA, TIM DUDLEY,
     DMITRI FEDOROV, GRAHAM FLETCHER, MARK FREITAG, KURT GLAESEMANN,
     DAN KEMP, GRANT MERRILL, NORIYUKI MINEZAWA, JONATHAN MULLIN,
     TAKESHI NAGATA, SEAN NEDD, HEATHER NETZLOFF, BOSILJKA NJEGIC, RYAN OLSON,
     MIKE PAK, SPENCER PRUITT, LUKE ROSKOP, JIM SHOEMAKER, LYUDMILA SLIPCHENKO,
     TONY SMITH, SAROM SOK LEANG, JIE SONG, TETSUYA TAKETSUGU, SIMON WEBB,
     PENG XU, SOOHAENG YOO, FEDERICO ZAHARIEV

  ADDITIONAL CODE HAS BEEN PROVIDED BY COLLABORATORS IN OTHER GROUPS:
     IOWA STATE UNIVERSITY:
          JOE IVANIC, AARON WEST, LAIMUTIS BYTAUTAS, KLAUS RUEDENBERG
     UNIVERSITY OF TOKYO: KIMIHIKO HIRAO, TAKAHITO NAKAJIMA,
          TAKAO TSUNEDA, MUNEAKI KAMIYA, SUSUMU YANAGISAWA,
          KIYOSHI YAGI, MAHITO CHIBA, SEIKEN TOKURA, NAOAKI KAWAKAMI
     UNIVERSITY OF AARHUS: FRANK JENSEN
     UNIVERSITY OF IOWA: VISVALDAS KAIRYS, HUI LI
     NATIONAL INST. OF STANDARDS AND TECHNOLOGY: WALT STEVENS, DAVID GARMER
     UNIVERSITY OF PISA: BENEDETTA MENNUCCI, JACOPO TOMASI
     UNIVERSITY OF MEMPHIS: HENRY KURTZ, PRAKASHAN KORAMBATH
     UNIVERSITY OF ALBERTA: TOBY ZENG, MARIUSZ KLOBUKOWSKI
     UNIVERSITY OF NEW ENGLAND: MARK SPACKMAN
     MIE UNIVERSITY: HIROAKI UMEDA
     NAT. INST. OF ADVANCED INDUSTRIAL SCIENCE AND TECHNOLOGY: KAZUO KITAURA
     MICHIGAN STATE UNIVERSITY:
          KAROL KOWALSKI, MARTA WLOCH, JEFFREY GOUR, JESSE LUTZ,
          WEI LI, PIOTR PIECUCH
     UNIVERSITY OF SILESIA: MONIKA MUSIAL, STANISLAW KUCHARSKI
     FACULTES UNIVERSITAIRES NOTRE-DAME DE LA PAIX:
          OLIVIER QUINET, BENOIT CHAMPAGNE
     UNIVERSITY OF CALIFORNIA - SANTA BARBARA: BERNARD KIRTMAN
     INSTITUTE FOR MOLECULAR SCIENCE:
          KAZUYA ISHIMURA, MICHIO KATOUDA, AND SHIGERU NAGASE
     UNIVERSITY OF NOTRE DAME: ANNA POMOGAEVA, DAN CHIPMAN
     KYUSHU UNIVERSITY:
          HARUYUKI NAKANO,
          FENG LONG GU, JACEK KORCHOWIEC, MARCIN MAKOWSKI, AND YURIKO AOKI,
          HIROTOSHI MORI AND EISAKU MIYOSHI
     PENNSYLVANIA STATE UNIVERSITY:
          TZVETELIN IORDANOV, CHET SWALINA, JONATHAN SKONE,
          SHARON HAMMES-SCHIFFER
     WASEDA UNIVERSITY:
          MASATO KOBAYASHI, TOMOKO AKAMA, TSUGUKI TOUMA,
          TAKESHI YOSHIKAWA, YASUHIRO IKABATA, JUNJI SEINO,
          YUYA NAKAJIMA, HIROMI NAKAI
     NANJING UNIVERSITY: SHUHUA LI
     UNIVERSITY OF NEBRASKA:
          PEIFENG SU, DEJUN SI, NANDUN THELLAMUREGE, YALI WANG, HUI LI
     UNIVERSITY OF ZURICH: ROBERTO PEVERATI, KIM BALDRIDGE
     N. COPERNICUS UNIVERSITY AND JACKSON STATE UNIVERSITY:
          MARIA BARYSZ
     UNIVERSITY OF COPENHAGEN: Jimmy Kromann, CASPER STEINMANN
     TOKYO INSTITUTE OF TECHNOLOGY: HIROYA NAKATA
     NAGOYA UNIVERSITY: YOSHIO NISHIMOTO, STEPHAN IRLE
     MOSCOW STATE UNIVERSITY: VLADIMIR MIRONOV

 EXECUTION OF GAMESS BEGUN Tue Nov 29 03:47:15 2016

            ECHO OF THE FIRST FEW INPUT CARDS -
 INPUT CARD>!    F2 has a very tiny UHF instability at the equilibrium distance.!           
 INPUT CARD>!    Test inspired by                                                           
 INPUT CARD>!           "The Hartree-Fock Potential Energy Surface for F2"                  
 INPUT CARD>!            M.S. Gordon and D.G. Truhlar                                       
 INPUT CARD>!            Theoret. Chim. Acta, 71, 1 (1987)                                  
 INPUT CARD>!    To induce this, it was necessary  to use a somewhat longer distance,       
 INPUT CARD>!    where one has to reorder involving sigma orbitals.  These orbitals         
 INPUT CARD>!    are then read as the starting orbitals at Re.                              
 INPUT CARD>!                                                                               
 INPUT CARD>!    FINAL E= -198.7032563145, 15 iters, <S**2>= 0.010                          
 INPUT CARD>!    with natural orbital occupations (more digits in log file)                 
 INPUT CARD>! 2.000000  2.000000  1.999998  1.999998  1.999997  1.999997  1.999990  1.999984
 INPUT CARD>! 1.995193  0.004807  0.000016  0.000010  0.000003  0.000003  0.000002  0.000002
 INPUT CARD>! 0.000000  0.000000  0.000000                                                  
 INPUT CARD>!    the two non-2 and non-0 are the sigma/sigma* instability.                  
 INPUT CARD>!                                                                               
 INPUT CARD>!    This run takes 2 seconds on 2.66 GHz Cloverton (5 Aug 2016)                
 INPUT CARD>!                                                                               
 INPUT CARD> $contrl scftyp=uhf mult=1 runtyp=energy ispher=1 nosym=1 maxit=50 $end         
 INPUT CARD> $system mwords=1 $end                                                          
 INPUT CARD> $basis  gbasis=accd $end                                                       
 INPUT CARD>!          how to goose RHF orbs: flip sigma-g and sigma-u here                 
 INPUT CARD>x$guess  guess=moread norb=46 norder=1 jorder(7)=10 jorder(10)=7 $end           
 INPUT CARD> $guess  guess=moread norb=46 $end                                              
 INPUT CARD> $scf    dirscf=.t. vvos=.f. uhfnos=.true. $end                                 
 INPUT CARD> $data                                                                          
 INPUT CARD>F2...the RHF/ACCD geometry= 0.6691164630*2                                      
 INPUT CARD>Dnh 4                                                                           
 INPUT CARD>                                                                                
 INPUT CARD>F 9.0  0 0 0.6691164630                                                         
 INPUT CARD> $end                                                                           
 INPUT CARD>                                                                                
 INPUT CARD>--- OPEN SHELL ORBITALS --- GENERATED AT Sat Aug  6 12:47:26 2016               
 INPUT CARD>F2...at geometry= 0.7691164630*2                                                
 INPUT CARD>E(UHF)=     -198.7234586724, E(NUC)=   27.8653229065,   39 ITERS                
 INPUT CARD> $VEC                                                                           
 INPUT CARD> 1  1 5.79177135E-04-6.82421163E-04 1.88121419E-03 6.77743418E-11 1.62037902E-11
 INPUT CARD> 1  2-5.10853655E-05-2.19007178E-10-1.11753335E-10 1.83897603E-03-1.45871886E-05
 INPUT CARD> 1  3-1.45871740E-05 2.91743626E-05 0.00000000E+00 3.52298601E-11 0.00000000E+00
 INPUT CARD> 1  4-5.57099394E-04-3.43969947E-11 0.00000000E+00-3.45967871E-04-4.39749770E-04
 INPUT CARD> 1  5-4.39749830E-04 8.79499600E-04 0.00000000E+00-2.49132401E-10-1.19050088E-10
 INPUT CARD> 1  6 1.00135757E+00 2.29417003E-03-5.45059963E-03-1.01244357E-09-5.11828484E-10
 INPUT CARD> 1  7-5.90137522E-04 5.12638073E-10 2.59608339E-10 1.91026178E-03-2.00921449E-04
 INPUT CARD> 1  8-2.00923166E-04 4.01844615E-04-3.01139304E-10 1.91040008E-09 8.50300781E-10
 INPUT CARD> 1  9 1.46630053E-03-7.30030382E-11-4.90264948E-11-4.71211262E-04 5.61003757E-04
 INPUT CARD> 1 10 5.61004345E-04-1.12200810E-03 1.03557944E-10-8.47343148E-10-3.82448476E-10
 INPUT CARD> 2  1 1.00070231E+00-7.09482038E-05-4.51129890E-03-1.48218878E-09-8.92916772E-10
 INPUT CARD> 2  2 4.80324010E-04 6.05422230E-10 3.72294658E-10-1.40491021E-03 3.88870982E-04
 INPUT CARD> 2  3 3.88871149E-04-7.77742131E-04 9.23938999E-11-1.26658663E-09-2.47782048E-10
 INPUT CARD> 2  4 1.57138665E-03-1.31921745E-10-1.08429185E-10 5.74361902E-04 3.01919364E-04
    1000000 WORDS OF MEMORY AVAILABLE

     BASIS OPTIONS
     -------------
     GBASIS=ACCD         IGAUSS=       0      POLAR=NONE    
     NDFUNC=       0     NFFUNC=       0     DIFFSP=       F
     NPFUNC=       0      DIFFS=       F     BASNAM=        


     RUN TITLE
     ---------
 F2...the RHF/ACCD geometry= 0.6691164630*2                                      

 THE POINT GROUP OF THE MOLECULE IS DNH     
 THE ORDER OF THE PRINCIPAL AXIS IS     4

 ATOM      ATOMIC                      COORDINATES (BOHR)
           CHARGE         X                   Y                   Z
 F           9.0     0.0000000000        0.0000000000       -1.2644467689
 F           9.0     0.0000000000        0.0000000000        1.2644467689

          INTERNUCLEAR DISTANCES (ANGS.)
          ------------------------------

                1 F          2 F     

   1 F       0.0000000    1.3382329 *
   2 F       1.3382329 *  0.0000000  

  * ... LESS THAN  3.000


     ATOMIC BASIS SET
     ----------------
 THE CONTRACTED PRIMITIVE FUNCTIONS HAVE BEEN UNNORMALIZED
 THE CONTRACTED BASIS FUNCTIONS ARE NOW NORMALIZED TO UNITY

  SHELL TYPE  PRIMITIVE        EXPONENT          CONTRACTION COEFFICIENT(S)

 F         

     10   S       1         14710.0000000    0.000720673709
     10   S       2          2207.0000000    0.005550486969
     10   S       3           502.8000000    0.028254207663
     10   S       4           142.6000000    0.106395828367
     10   S       5            46.4700000    0.286684201243
     10   S       6            16.7000000    0.448437965824
     10   S       7             6.3560000    0.264641181411
     10   S       8             1.3160000    0.015326060993

     11   S       9         14710.0000000   -0.000321193890
     11   S      10          2207.0000000   -0.002546191568
     11   S      11           502.8000000   -0.012643359508
     11   S      12           142.6000000   -0.051957491705
     11   S      13            46.4700000   -0.143447138126
     11   S      14            16.7000000   -0.332437623296
     11   S      15             6.3560000   -0.218659067503
     11   S      16             1.3160000    1.095590413862

     12   S      17             0.3897000    1.000000000000

     13   P      18            22.6700000    0.064834021494
     13   P      19             4.9770000    0.340535359831
     13   P      20             1.3470000    0.734646406794

     14   P      21             0.3471000    1.000000000000

     15   D      22             1.6400000    1.000000000000

     16   S      23             0.0986300    1.000000000000

     17   P      24             0.0850200    1.000000000000

     18   D      25             0.4640000    1.000000000000

 TOTAL NUMBER OF BASIS SET SHELLS             =   18
 NUMBER OF CARTESIAN GAUSSIAN BASIS FUNCTIONS =   50
 NOTE: THIS RUN WILL RESTRICT THE MO VARIATION SPACE TO SPHERICAL HARMONICS.
 THE NUMBER OF ORBITALS KEPT IN THE VARIATIONAL SPACE WILL BE PRINTED LATER.
 NUMBER OF ELECTRONS                          =   18
 CHARGE OF MOLECULE                           =    0
 SPIN MULTIPLICITY                            =    1
 NUMBER OF OCCUPIED ORBITALS (ALPHA)          =    9
 NUMBER OF OCCUPIED ORBITALS (BETA )          =    9
 TOTAL NUMBER OF ATOMS                        =    2
 THE NUCLEAR REPULSION ENERGY IS       32.0298180949

 THIS MOLECULE IS RECOGNIZED AS BEING LINEAR,
 ORBITAL LZ DEGENERACY TOLERANCE ETOLLZ= 1.00E-06

     $CONTRL OPTIONS
     ---------------
 SCFTYP=UHF          RUNTYP=ENERGY       EXETYP=RUN     
 MPLEVL=       0     CITYP =NONE         CCTYP =NONE         VBTYP =NONE    
 DFTTYP=NONE         TDDFT =NONE    
 MULT  =       1     ICHARG=       0     NZVAR =       0     COORD =UNIQUE  
 PP    =NONE         RELWFN=NONE         LOCAL =NONE         NUMGRD=       F
 ISPHER=       1     NOSYM =       1     MAXIT =      50     UNITS =ANGS    
 PLTORB=       F     MOLPLT=       F     AIMPAC=       F     FRIEND=        
 NPRINT=       7     IREST =       0     GEOM  =INPUT   
 NORMF =       0     NORMP =       0     ITOL  =      20     ICUT  =       9
 INTTYP=BEST         GRDTYP=BEST         QMTTOL= 1.0E-06

     $SYSTEM OPTIONS
     ---------------
  REPLICATED MEMORY=     1000000 WORDS (ON EVERY NODE).
 DISTRIBUTED MEMDDI=           0 MILLION WORDS IN AGGREGATE,
 MEMDDI DISTRIBUTED OVER   1 PROCESSORS IS           0 WORDS/PROCESSOR.
 TOTAL MEMORY REQUESTED ON EACH PROCESSOR=     1000000 WORDS.
 TIMLIM=      525600.00 MINUTES, OR     365.0 DAYS.
 PARALL= F  BALTYP=  DLB     KDIAG=    0  COREFL= F
 MXSEQ2=     300 MXSEQ3=     150  mem10=         0

          ----------------
          PROPERTIES INPUT
          ----------------

     MOMENTS            FIELD           POTENTIAL          DENSITY
 IEMOM =       1   IEFLD =       0   IEPOT =       0   IEDEN =       0
 WHERE =COMASS     WHERE =NUCLEI     WHERE =NUCLEI     WHERE =NUCLEI  
 OUTPUT=BOTH       OUTPUT=BOTH       OUTPUT=BOTH       OUTPUT=BOTH    
 IEMINT=       0   IEFINT=       0                     IEDINT=       0
                                                       MORB  =       0
          EXTRAPOLATION IN EFFECT
          SOSCF IN EFFECT
          DIIS or SOSCF will be reset if energy rises
 ORBITAL PRINTING OPTION: NPREO=     1    50     2     1

     -------------------------------
     INTEGRAL TRANSFORMATION OPTIONS
     -------------------------------
     NWORD  =            0
     CUTOFF = 1.0E-09     MPTRAN =       0
     DIRTRF =       T     AOINTS =DUP     

          ----------------------
          INTEGRAL INPUT OPTIONS
          ----------------------
 NOPK  =       1 NORDER=       0 SCHWRZ=       T

     ------------------------------------------
     THE POINT GROUP IS C1 , NAXIS= 1, ORDER= 1
     ------------------------------------------

 -- VARIATIONAL SPACE WILL BE RESTRICTED TO PURE SPHERICAL HARMONICS ONLY --
 AFTER EXCLUDING CONTAMINANT COMBINATIONS FROM THE CARTESIAN GAUSSIAN BASIS
 SET, THE NUMBER OF SPHERICAL HARMONICS KEPT IN THE VARIATION SPACE IS   46

     DIMENSIONS OF THE SYMMETRY SUBSPACES ARE
 A   =   46

 ..... DONE SETTING UP THE RUN .....
 STEP CPU TIME =     0.09 TOTAL CPU TIME =        0.1 (    0.0 MIN)
 TOTAL WALL CLOCK TIME=        0.1 SECONDS, CPU UTILIZATION IS  69.23%

          ********************
          1 ELECTRON INTEGRALS
          ********************
 ...... END OF ONE-ELECTRON INTEGRALS ......
 STEP CPU TIME =     0.00 TOTAL CPU TIME =        0.1 (    0.0 MIN)
 TOTAL WALL CLOCK TIME=        0.1 SECONDS, CPU UTILIZATION IS  69.23%

          -------------
          GUESS OPTIONS
          -------------
          GUESS =MOREAD            NORB  =      46          NORDER=       0
          MIX   =       F          PRTMO =       F          PUNMO =       F
          TOLZ  = 1.0E-08          TOLE  = 1.0E-05
          SYMDEN=       F          PURIFY=       F

 INITIAL GUESS ORBITALS GENERATED BY MOREAD   ROUTINE.

 STATISTICS FOR GENERATION OF SYMMETRY ORBITAL -Q- MATRIX
 NUMBER OF CARTESIAN ATOMIC ORBITALS=         50
 NUMBER OF SPHERICAL CONTAMINANTS DROPPED=     4
 NUMBER OF LINEARLY DEPENDENT MOS DROPPED=     0
 TOTAL NUMBER OF MOS IN VARIATION SPACE=      46

 SYMMETRIES FOR INITIAL GUESS ORBITALS FOLLOW.  ALPHA SET(S).
     9 ORBITALS ARE OCCUPIED (    2 CORE ORBITALS).
     3=A        4=A        5=A        6=A        7=A        8=A        9=A   
    10=A       11=A       12=A       13=A       14=A       15=A       16=A   
    17=A       18=A       19=A   

 SYMMETRIES FOR INITIAL GUESS ORBITALS FOLLOW.   BETA SET(S).
     9 ORBITALS ARE OCCUPIED (    2 CORE ORBITALS).
     3=A        4=A        5=A        6=A        7=A        8=A        9=A   
    10=A       11=A       12=A       13=A       14=A       15=A       16=A   
    17=A       18=A       19=A   
 ...... END OF INITIAL ORBITAL SELECTION ......
 STEP CPU TIME =     0.01 TOTAL CPU TIME =        0.1 (    0.0 MIN)
 TOTAL WALL CLOCK TIME=        0.1 SECONDS, CPU UTILIZATION IS  71.43%

                    ----------------------
                    AO INTEGRAL TECHNOLOGY
                    ----------------------
     S,P,L SHELL ROTATED AXIS INTEGRALS, REPROGRAMMED BY
        KAZUYA ISHIMURA (IMS) AND JOSE SIERRA (SYNSTAR).
     S,P,D,L SHELL ROTATED AXIS INTEGRALS PROGRAMMED BY
        KAZUYA ISHIMURA (INSTITUTE FOR MOLECULAR SCIENCE).
     S,P,D,F,G SHELL TO TOTAL QUARTET ANGULAR MOMENTUM SUM 5,
        ERIC PROGRAM BY GRAHAM FLETCHER (ELORET AND NASA ADVANCED
        SUPERCOMPUTING DIVISION, AMES RESEARCH CENTER).
     S,P,D,F,G,L SHELL GENERAL RYS QUADRATURE PROGRAMMED BY
        MICHEL DUPUIS (PACIFIC NORTHWEST NATIONAL LABORATORY).

          --------------------
          2 ELECTRON INTEGRALS
          --------------------

 DIRECT SCF METHOD SKIPS INTEGRAL STORAGE ON DISK.
 DIRECT TRANSFORMATION SKIPS AO INTEGRAL STORAGE ON DISK.
  ...... END OF TWO-ELECTRON INTEGRALS .....
 STEP CPU TIME =     0.01 TOTAL CPU TIME =        0.1 (    0.0 MIN)
 TOTAL WALL CLOCK TIME=        0.3 SECONDS, CPU UTILIZATION IS  32.35%

          ---------------------------
                  UHF SCF CALCULATION
          ---------------------------

     NUCLEAR ENERGY =        32.0298180949
     MAXIT = 50     NPUNCH=  2     MULT=  1
     EXTRAP=T  DAMP=F  SHIFT=F  RSTRCT=F  DIIS=F  SOSCF=T
     DENSITY MATRIX CONV=  2.00E-05
     SOSCF WILL OPTIMIZE     333 ALPHA AND     333 BETA ROTATION ANGLES.
     SOGTOL= 2.500E-01
     MEMORY REQUIRED FOR UHF/ROHF ITERS=     76200 WORDS.

 DIRECT SCF CALCULATION, SCHWRZ=T   FDIFF=T
 SCHWARZ INEQUALITY OVERHEAD:      1275 INTEGRALS, T=        0.01

                                                                                NONZERO     BLOCKS
 ITER EX      TOTAL ENERGY        E CHANGE  DENSITY CHANGE    ORB. GRAD       INTEGRALS    SKIPPED
   1  0     -198.6570550350  -198.6570550350   0.063338132   0.000000000         208746          0
          ---------------START SECOND ORDER SCF---------------
   2  1     -198.6830941528    -0.0260391178   0.043091241   0.030487209         208745          1
   3  2     -198.6906229228    -0.0075287700   0.122783166   0.023075913         208729          9
   4  3     -198.7001609404    -0.0095380176   0.069003998   0.009611429         208735          7
   5  4     -198.7021016841    -0.0019407437   0.058426405   0.004642563         208735          7
   6  5     -198.7029255873    -0.0008239032   0.037901926   0.002016091         208727         11
   7  6     -198.7031533099    -0.0002277226   0.026119638   0.001558227         208727         11
   8  7     -198.7032255065    -0.0000721966   0.018962404   0.000564041         208725         13
   9  8     -198.7032483255    -0.0000228190   0.012846675   0.000300871         208724         14
  10  9     -198.7032546562    -0.0000063307   0.007699887   0.000088697         208718         20
  11 10     -198.7032560486    -0.0000013924   0.003868883   0.000063387         208678         31
  12 11     -198.7032562889    -0.0000002403   0.001303249   0.000024951         208574         45
  13 12     -198.7032563127    -0.0000000239   0.000228424   0.000007529         208448         83
  14 13     -198.7032563143    -0.0000000016   0.000017246   0.000003988         208218        151
  15 14     -198.7032563145    -0.0000000002   0.000016346   0.000001505         207040        322

          -----------------
          DENSITY CONVERGED
          -----------------
     TIME TO FORM FOCK OPERATORS=       1.0 SECONDS (       0.1 SEC/ITER)
     FOCK TIME ON FIRST ITERATION=       0.1, LAST ITERATION=       0.1
     TIME TO SOLVE SCF EQUATIONS=       0.0 SECONDS (       0.0 SEC/ITER)

 FINAL UHF ENERGY IS     -198.7032563145 AFTER  15 ITERATIONS

          --------------------
          SPIN SZ   =    0.000
          S-SQUARED =    0.010
          --------------------

 LZ VALUE ANALYSIS FOR THE MOS
 ----------------------------------------
 MO     1 (    1) HAS LZ(WEIGHT)= 0.00(100.0%) 
 MO     2 (    2) HAS LZ(WEIGHT)= 0.00(100.0%) 
 MO     3 (    3) HAS LZ(WEIGHT)= 0.00(100.0%) 
 MO     4 (    4) HAS LZ(WEIGHT)= 0.00(100.0%) 
 MO     5 (    5) HAS LZ(WEIGHT)=-1.00( 50.0%)  1.00( 50.0%) 
 MO     6 (    5) HAS LZ(WEIGHT)=-1.00( 50.0%)  1.00( 50.0%) 
 MO     7 (    6) HAS LZ(WEIGHT)= 0.00(100.0%) 
 MO     8 (    7) HAS LZ(WEIGHT)=-1.00( 50.0%)  1.00( 50.0%) 
 MO     9 (    7) HAS LZ(WEIGHT)=-1.00( 50.0%)  1.00( 50.0%) 
 MO    10 (    8) HAS LZ(WEIGHT)= 0.00(100.0%) 
 MO    11 (    9) HAS LZ(WEIGHT)= 0.00(100.0%) 
 MO    12 (   10) HAS LZ(WEIGHT)= 0.00(100.0%) 
 MO    13 (   11) HAS LZ(WEIGHT)=-1.00( 50.0%)  1.00( 50.0%) 
 MO    14 (   11) HAS LZ(WEIGHT)=-1.00( 50.0%)  1.00( 50.0%) 
 MO    15 (   12) HAS LZ(WEIGHT)=-1.00( 50.0%)  1.00( 50.0%) 
 MO    16 (   12) HAS LZ(WEIGHT)=-1.00( 50.0%)  1.00( 50.0%) 
 MO    17 (   13) HAS LZ(WEIGHT)= 0.00(100.0%) 
 MO    18 (   14) HAS LZ(WEIGHT)= 0.00(100.0%) 
 MO    19 (   15) HAS LZ(WEIGHT)=-2.00( 50.0%)  2.00( 50.0%) 
 MO    20 (   15) HAS LZ(WEIGHT)=-2.00( 50.0%)  2.00( 50.0%) 
 MO    21 (   16) HAS LZ(WEIGHT)=-1.00( 50.0%)  1.00( 50.0%) 
 MO    22 (   16) HAS LZ(WEIGHT)=-1.00( 50.0%)  1.00( 50.0%) 
 MO    23 (   17) HAS LZ(WEIGHT)= 0.00(100.0%) 
 MO    24 (   18) HAS LZ(WEIGHT)=-2.00( 50.0%)  2.00( 50.0%) 
 MO    25 (   18) HAS LZ(WEIGHT)=-2.00( 50.0%)  2.00( 50.0%) 
 MO    26 (   19) HAS LZ(WEIGHT)=-1.00( 50.0%)  1.00( 50.0%) 
 MO    27 (   19) HAS LZ(WEIGHT)=-1.00( 50.0%)  1.00( 50.0%) 
 MO    28 (   20) HAS LZ(WEIGHT)=-1.00( 50.0%)  1.00( 50.0%) 
 MO    29 (   20) HAS LZ(WEIGHT)=-1.00( 50.0%)  1.00( 50.0%) 
 MO    30 (   21) HAS LZ(WEIGHT)= 0.00(100.0%) 
 MO    31 (   22) HAS LZ(WEIGHT)= 0.00(100.0%) 
 MO    32 (   23) HAS LZ(WEIGHT)= 0.00(100.0%) 
 MO    33 (   24) HAS LZ(WEIGHT)=-1.00( 50.0%)  1.00( 50.0%) 
 MO    34 (   24) HAS LZ(WEIGHT)=-1.00( 50.0%)  1.00( 50.0%) 
 MO    35 (   25) HAS LZ(WEIGHT)= 0.00(100.0%) 
 MO    36 (   26) HAS LZ(WEIGHT)= 0.00(100.0%) 
 MO    37 (   27) HAS LZ(WEIGHT)= 0.00(100.0%) 
 MO    38 (   28) HAS LZ(WEIGHT)=-2.00( 50.0%)  2.00( 50.0%) 
 MO    39 (   28) HAS LZ(WEIGHT)=-2.00( 50.0%)  2.00( 50.0%) 
 MO    40 (   29) HAS LZ(WEIGHT)=-1.00( 50.0%)  1.00( 50.0%) 
 MO    41 (   29) HAS LZ(WEIGHT)=-1.00( 50.0%)  1.00( 50.0%) 
 MO    42 (   30) HAS LZ(WEIGHT)=-2.00( 50.0%)  2.00( 50.0%) 
 MO    43 (   30) HAS LZ(WEIGHT)=-2.00( 50.0%)  2.00( 50.0%) 
 MO    44 (   31) HAS LZ(WEIGHT)=-1.00( 50.0%)  1.00( 50.0%) 
 MO    45 (   31) HAS LZ(WEIGHT)=-1.00( 50.0%)  1.00( 50.0%) 
 MO    46 (   32) HAS LZ(WEIGHT)= 0.00(100.0%) 

  ----- ALPHA SET ----- 

          ------------
          EIGENVECTORS
          ------------

                      1          2          3          4          5
                  -26.4403   -26.4356    -1.8169    -1.4866    -0.8310
                     A          A          A          A          A   
    1  F  1  S    0.029466   1.000785  -0.002298  -0.000207  -0.000000
    2  F  1  S   -0.000768   0.001393   0.329632   0.377446  -0.000000
    3  F  1  S    0.003540  -0.006848   0.323774   0.461911  -0.000000
    4  F  1  X   -0.000000   0.000000   0.000000   0.000000   0.456035
    5  F  1  Y    0.000000   0.000000   0.000000   0.000000  -0.082032
    6  F  1  Z    0.000214   0.001111   0.077647  -0.067888   0.000000
    7  F  1  X    0.000000  -0.000000   0.000000   0.000000   0.275524
    8  F  1  Y    0.000000  -0.000000   0.000000   0.000000  -0.049561
    9  F  1  Z    0.003175  -0.003747   0.035654   0.010600   0.000000
   10  F  1 XX   -0.000027   0.000119  -0.005091   0.002945  -0.000000
   11  F  1 YY   -0.000027   0.000119  -0.005091   0.002945  -0.000000
   12  F  1 ZZ    0.000055  -0.000238   0.010182  -0.005889   0.000000
   13  F  1 XY    0.000000  -0.000000   0.000000   0.000000  -0.000000
   14  F  1 XZ    0.000000   0.000000   0.000000   0.000000   0.009943
   15  F  1 YZ    0.000000   0.000000   0.000000   0.000000  -0.001789
   16  F  1  S    0.000684   0.000043   0.004118   0.043376  -0.000000
   17  F  1  X    0.000000  -0.000000   0.000000  -0.000000   0.015433
   18  F  1  Y    0.000000  -0.000000   0.000000   0.000000  -0.002776
   19  F  1  Z    0.000067   0.000187  -0.005518   0.004049   0.000000
   20  F  1 XX   -0.000544   0.000792  -0.005462  -0.005977  -0.000000
   21  F  1 YY   -0.000544   0.000792  -0.005462  -0.005977  -0.000000
   22  F  1 ZZ    0.001088  -0.001584   0.010924   0.011953   0.000000
   23  F  1 XY    0.000000  -0.000000  -0.000000  -0.000000  -0.000000
   24  F  1 XZ    0.000000  -0.000000   0.000000   0.000000   0.011351
   25  F  1 YZ    0.000000  -0.000000   0.000000   0.000000  -0.002042
   26  F  2  S    1.000844  -0.030418  -0.001775  -0.000362  -0.000000
   27  F  2  S    0.001650  -0.000834   0.349770  -0.364486  -0.000000
   28  F  2  S   -0.006794   0.003838   0.347159  -0.447027  -0.000000
   29  F  2  X    0.000000  -0.000000   0.000000  -0.000000   0.470154
   30  F  2  Y    0.000000  -0.000000   0.000000  -0.000000  -0.084571
   31  F  2  Z   -0.001141  -0.000145  -0.082528  -0.078085  -0.000000
   32  F  2  X   -0.000000  -0.000000   0.000000  -0.000000   0.282859
   33  F  2  Y    0.000000  -0.000000   0.000000  -0.000000  -0.050881
   34  F  2  Z    0.003656  -0.003299  -0.040757   0.005664  -0.000000
   35  F  2 XX    0.000044  -0.000033  -0.005984  -0.002222  -0.000000
   36  F  2 YY    0.000044  -0.000033  -0.005984  -0.002222  -0.000000
   37  F  2 ZZ   -0.000089   0.000066   0.011968   0.004444   0.000000
   38  F  2 XY    0.000000  -0.000000  -0.000000   0.000000   0.000000
   39  F  2 XZ   -0.000000   0.000000  -0.000000   0.000000  -0.010309
   40  F  2 YZ   -0.000000  -0.000000  -0.000000   0.000000   0.001854
   41  F  2  S    0.000039   0.000625   0.005378  -0.042613  -0.000000
   42  F  2  X    0.000000  -0.000000  -0.000000   0.000000   0.015558
   43  F  2  Y    0.000000  -0.000000   0.000000   0.000000  -0.002799
   44  F  2  Z   -0.000171  -0.000048   0.005577   0.004290  -0.000000
   45  F  2 XX    0.000798  -0.000576  -0.006558   0.006368  -0.000000
   46  F  2 YY    0.000798  -0.000576  -0.006558   0.006368  -0.000000
   47  F  2 ZZ   -0.001596   0.001152   0.013115  -0.012736   0.000000
   48  F  2 XY    0.000000  -0.000000   0.000000  -0.000000  -0.000000
   49  F  2 XZ    0.000000  -0.000000  -0.000000   0.000000  -0.011012
   50  F  2 YZ    0.000000  -0.000000   0.000000   0.000000   0.001981

                      6          7          8          9         10
                   -0.8310    -0.7875    -0.6538    -0.6538     0.1007
                     A          A          A          A          A   
    1  F  1  S   -0.000000   0.008459   0.000000  -0.000000  -0.006838
    2  F  1  S   -0.000000   0.107943   0.000000   0.000000  -0.124429
    3  F  1  S   -0.000000   0.156744   0.000000   0.000000  -0.242259
    4  F  1  X    0.082032   0.000000   0.517436   0.082004   0.000000
    5  F  1  Y    0.456035   0.000000  -0.082004   0.517436   0.000000
    6  F  1  Z    0.000000  -0.417859   0.000000   0.000000  -0.343345
    7  F  1  X    0.049561   0.000000   0.344170   0.054545   0.000000
    8  F  1  Y    0.275524   0.000000  -0.054545   0.344170   0.000000
    9  F  1  Z    0.000000  -0.260805   0.000000   0.000000  -0.372194
   10  F  1 XX   -0.000000   0.010569   0.000000  -0.000000  -0.005759
   11  F  1 YY   -0.000000   0.010569  -0.000000  -0.000000  -0.005759
   12  F  1 ZZ    0.000000  -0.021138   0.000000   0.000000   0.011517
   13  F  1 XY    0.000000  -0.000000   0.000000   0.000000   0.000000
   14  F  1 XZ    0.001789   0.000000  -0.000934  -0.000148  -0.000000
   15  F  1 YZ    0.009943   0.000000   0.000148  -0.000934  -0.000000
   16  F  1  S   -0.000000   0.038631   0.000000   0.000000  -2.077351
   17  F  1  X    0.002776   0.000000   0.042721   0.006770   0.000000
   18  F  1  Y    0.015433   0.000000  -0.006770   0.042721   0.000000
   19  F  1  Z    0.000000  -0.007111   0.000000   0.000000  -1.280526
   20  F  1 XX   -0.000000   0.014653  -0.000000  -0.000000   0.007853
   21  F  1 YY   -0.000000   0.014653  -0.000000  -0.000000   0.007853
   22  F  1 ZZ    0.000000  -0.029307   0.000000   0.000000  -0.015706
   23  F  1 XY   -0.000000  -0.000000  -0.000000  -0.000000   0.000000
   24  F  1 XZ    0.002042   0.000000   0.002450   0.000388   0.000000
   25  F  1 YZ    0.011351   0.000000  -0.000388   0.002450  -0.000000
   26  F  2  S   -0.000000   0.007408  -0.000000  -0.000000   0.008496
   27  F  2  S   -0.000000   0.090705  -0.000000  -0.000000   0.128488
   28  F  2  S   -0.000000   0.130988  -0.000000  -0.000000   0.238886
   29  F  2  X    0.084571   0.000000  -0.506687  -0.080301  -0.000000
   30  F  2  Y    0.470154   0.000000   0.080301  -0.506687  -0.000000
   31  F  2  Z   -0.000000   0.475332   0.000000   0.000000  -0.321708
   32  F  2  X    0.050881   0.000000  -0.336226  -0.053286  -0.000000
   33  F  2  Y    0.282859   0.000000   0.053286  -0.336226  -0.000000
   34  F  2  Z   -0.000000   0.296451   0.000000   0.000000  -0.351407
   35  F  2 XX   -0.000000   0.009997  -0.000000  -0.000000   0.006219
   36  F  2 YY   -0.000000   0.009997  -0.000000  -0.000000   0.006219
   37  F  2 ZZ    0.000000  -0.019993   0.000000   0.000000  -0.012438
   38  F  2 XY    0.000000  -0.000000  -0.000000  -0.000000  -0.000000
   39  F  2 XZ   -0.001854  -0.000000  -0.001028  -0.000163  -0.000000
   40  F  2 YZ   -0.010309  -0.000000   0.000163  -0.001028  -0.000000
   41  F  2  S   -0.000000   0.024916  -0.000000  -0.000000   2.108970
   42  F  2  X    0.002799   0.000000  -0.041505  -0.006578  -0.000000
   43  F  2  Y    0.015558   0.000000   0.006578  -0.041505  -0.000000
   44  F  2  Z   -0.000000   0.012384   0.000000   0.000000  -1.242497
   45  F  2 XX   -0.000000   0.013671  -0.000000  -0.000000  -0.006504
   46  F  2 YY   -0.000000   0.013671  -0.000000  -0.000000  -0.006504
   47  F  2 ZZ    0.000000  -0.027341   0.000000   0.000000   0.013008
   48  F  2 XY    0.000000   0.000000   0.000000  -0.000000  -0.000000
   49  F  2 XZ   -0.001981  -0.000000   0.002250   0.000357  -0.000000
   50  F  2 YZ   -0.011012  -0.000000  -0.000357   0.002250  -0.000000

                     11         12         13         14         15
                    0.2118     0.2330     0.2334     0.2334     0.2929
                     A          A          A          A          A   
    1  F  1  S    0.017770   0.000874  -0.000000  -0.000000   0.000000
    2  F  1  S   -0.059252   0.052197  -0.000000  -0.000000   0.000000
    3  F  1  S   -0.466365   0.171674  -0.000000  -0.000001   0.000000
    4  F  1  X    0.000000  -0.000001  -0.108362  -0.056616  -0.077736
    5  F  1  Y    0.000000  -0.000000   0.056616  -0.108362   0.062230
    6  F  1  Z    0.021974   0.418899  -0.000001  -0.000002   0.000000
    7  F  1  X    0.000000  -0.000001  -0.215188  -0.112430  -0.169359
    8  F  1  Y    0.000000  -0.000001   0.112430  -0.215188   0.135576
    9  F  1  Z    0.101637   0.358470  -0.000001  -0.000002   0.000000
   10  F  1 XX   -0.000916   0.001284  -0.000000  -0.000000  -0.000000
   11  F  1 YY   -0.000916   0.001284  -0.000000  -0.000000   0.000000
   12  F  1 ZZ    0.001832  -0.002567   0.000000   0.000000  -0.000000
   13  F  1 XY   -0.000000   0.000000   0.000000  -0.000000   0.000000
   14  F  1 XZ   -0.000000  -0.000000  -0.003058  -0.001598  -0.005395
   15  F  1 YZ   -0.000000  -0.000000   0.001598  -0.003058   0.004319
   16  F  1  S    1.299075  -3.278363   0.000009   0.000016  -0.000000
   17  F  1  X    0.000000   0.000003   0.548968   0.286820   1.237471
   18  F  1  Y    0.000000   0.000002  -0.286820   0.548968  -0.990629
   19  F  1  Z   -0.396767  -1.871910   0.000005   0.000009  -0.000000
   20  F  1 XX   -0.002920   0.037915  -0.000000  -0.000000   0.000000
   21  F  1 YY   -0.002920   0.037915  -0.000000  -0.000000   0.000000
   22  F  1 ZZ    0.005840  -0.075830   0.000000   0.000000  -0.000000
   23  F  1 XY   -0.000000   0.000000   0.000000  -0.000000   0.000000
   24  F  1 XZ   -0.000000  -0.000000  -0.002206  -0.001153   0.010939
   25  F  1 YZ   -0.000000  -0.000000   0.001153  -0.002206  -0.008757
   26  F  2  S    0.016933   0.003657  -0.000000  -0.000000   0.000000
   27  F  2  S   -0.048059  -0.072735   0.000000   0.000000  -0.000000
   28  F  2  S   -0.413235  -0.317938   0.000001   0.000002  -0.000000
   29  F  2  X    0.000000  -0.000001  -0.108101  -0.056480   0.077118
   30  F  2  Y   -0.000000  -0.000000   0.056480  -0.108101  -0.061735
   31  F  2  Z   -0.117925   0.381111  -0.000001  -0.000002   0.000000
   32  F  2  X    0.000000  -0.000001  -0.215009  -0.112336   0.167918
   33  F  2  Y    0.000000  -0.000001   0.112336  -0.215009  -0.134423
   34  F  2  Z   -0.175240   0.297406  -0.000001  -0.000001   0.000000
   35  F  2 XX   -0.000540  -0.001733   0.000000   0.000000   0.000000
   36  F  2 YY   -0.000540  -0.001733   0.000000   0.000000  -0.000000
   37  F  2 ZZ    0.001081   0.003465  -0.000000  -0.000000   0.000000
   38  F  2 XY    0.000000   0.000000   0.000000  -0.000000  -0.000000
   39  F  2 XZ    0.000000   0.000000   0.003181   0.001662  -0.005454
   40  F  2 YZ    0.000000   0.000000  -0.001662   0.003181   0.004366
   41  F  2  S    0.353048   3.509552  -0.000010  -0.000017   0.000000
   42  F  2  X   -0.000000   0.000003   0.554937   0.289938  -1.235216
   43  F  2  Y   -0.000000   0.000002  -0.289938   0.554937   0.988824
   44  F  2  Z    0.913897  -1.732477   0.000005   0.000008  -0.000000
   45  F  2 XX    0.007007  -0.038712   0.000000   0.000000  -0.000000
   46  F  2 YY    0.007007  -0.038712   0.000000   0.000000  -0.000000
   47  F  2 ZZ   -0.014015   0.077425  -0.000000  -0.000000   0.000000
   48  F  2 XY   -0.000000   0.000000   0.000000  -0.000000  -0.000000
   49  F  2 XZ    0.000000   0.000000   0.002271   0.001187   0.010733
   50  F  2 YZ    0.000000   0.000000  -0.001187   0.002271  -0.008592

                     16         17         18         19         20
                    0.2929     0.3169     0.5260     1.1713     1.1713
                     A          A          A          A          A   
    1  F  1  S    0.000000   0.023313  -0.006734   0.000000   0.000000
    2  F  1  S    0.000000  -0.027903  -0.084881   0.000000   0.000000
    3  F  1  S    0.000000  -0.515720  -0.390838   0.000000  -0.000000
    4  F  1  X   -0.062230   0.000000  -0.000000  -0.000000  -0.000000
    5  F  1  Y   -0.077736   0.000000  -0.000000  -0.000000   0.000000
    6  F  1  Z    0.000000  -0.048834   0.116336  -0.000000   0.000000
    7  F  1  X   -0.135576   0.000000  -0.000000   0.000000  -0.000000
    8  F  1  Y   -0.169359   0.000000  -0.000000  -0.000000  -0.000000
    9  F  1  Z    0.000000  -0.138274   0.847314   0.000000  -0.000000
   10  F  1 XX    0.000000   0.010782   0.009441  -0.000457  -0.010992
   11  F  1 YY    0.000000   0.010782   0.009441   0.000457   0.010992
   12  F  1 ZZ   -0.000000  -0.021563  -0.018881   0.000000   0.000000
   13  F  1 XY   -0.000000   0.000000   0.000000  -0.012693   0.000527
   14  F  1 XZ   -0.004319  -0.000000  -0.000000   0.000000   0.000000
   15  F  1 YZ   -0.005395  -0.000000  -0.000000   0.000000  -0.000000
   16  F  1  S   -0.000000   0.310041   8.707688   0.000000  -0.000000
   17  F  1  X    0.990629  -0.000000   0.000000  -0.000000  -0.000000
   18  F  1  Y    1.237471  -0.000000   0.000000  -0.000000   0.000000
   19  F  1  Z   -0.000000   1.049530   2.992559   0.000000  -0.000000
   20  F  1 XX    0.000000  -0.017947  -0.118155   0.023162   0.557575
   21  F  1 YY    0.000000  -0.017947  -0.118155  -0.023162  -0.557575
   22  F  1 ZZ   -0.000000   0.035895   0.236311   0.000000  -0.000000
   23  F  1 XY    0.000000   0.000000   0.000000   0.643832  -0.026746
   24  F  1 XZ    0.008757  -0.000000   0.000000   0.000000   0.000000
   25  F  1 YZ    0.010939  -0.000000   0.000000   0.000000  -0.000000
   26  F  2  S    0.000000   0.023194   0.006948   0.000000   0.000000
   27  F  2  S   -0.000000  -0.023007   0.084080  -0.000000   0.000000
   28  F  2  S   -0.000000  -0.499586   0.385805   0.000000  -0.000000
   29  F  2  X    0.061735  -0.000000   0.000000  -0.000000  -0.000000
   30  F  2  Y    0.077118   0.000000   0.000000  -0.000000   0.000000
   31  F  2  Z    0.000000   0.029265   0.113379  -0.000000   0.000000
   32  F  2  X    0.134423   0.000000   0.000000  -0.000000  -0.000000
   33  F  2  Y    0.167918   0.000000   0.000000  -0.000000   0.000000
   34  F  2  Z    0.000000   0.120235   0.838601  -0.000000  -0.000000
   35  F  2 XX   -0.000000   0.011178  -0.009867  -0.000452  -0.010882
   36  F  2 YY   -0.000000   0.011178  -0.009867   0.000452   0.010882
   37  F  2 ZZ    0.000000  -0.022357   0.019734   0.000000  -0.000000
   38  F  2 XY    0.000000   0.000000  -0.000000  -0.012566   0.000522
   39  F  2 XZ   -0.004366   0.000000  -0.000000  -0.000000  -0.000000
   40  F  2 YZ   -0.005454   0.000000  -0.000000  -0.000000   0.000000
   41  F  2  S    0.000000   0.177808  -8.702185  -0.000000   0.000000
   42  F  2  X   -0.988824   0.000000  -0.000000   0.000000   0.000000
   43  F  2  Y   -1.235216   0.000000  -0.000000   0.000000  -0.000000
   44  F  2  Z   -0.000000  -0.985488   3.001454   0.000000  -0.000000
   45  F  2 XX   -0.000000  -0.015683   0.118162   0.023150   0.557272
   46  F  2 YY   -0.000000  -0.015683   0.118162  -0.023150  -0.557272
   47  F  2 ZZ    0.000000   0.031367  -0.236324  -0.000000   0.000000
   48  F  2 XY    0.000000   0.000000   0.000000   0.643483  -0.026731
   49  F  2 XZ    0.008592   0.000000   0.000000  -0.000000  -0.000000
   50  F  2 YZ    0.010733   0.000000   0.000000  -0.000000   0.000000

                     21         22         23         24         25
                    1.2693     1.2693     1.3976     1.5020     1.5020
                     A          A          A          A          A   
    1  F  1  S   -0.000000  -0.000000   0.019967  -0.000000  -0.000000
    2  F  1  S    0.000000   0.000000   0.031945  -0.000000  -0.000000
    3  F  1  S    0.000000   0.000000  -0.343999   0.000000   0.000000
    4  F  1  X    0.008411   0.147955   0.000000   0.000000   0.000000
    5  F  1  Y    0.147955  -0.008411   0.000000  -0.000000   0.000000
    6  F  1  Z    0.000000  -0.000000   0.297746   0.000000   0.000000
    7  F  1  X    0.003404   0.059884  -0.000000  -0.000000  -0.000000
    8  F  1  Y    0.059884  -0.003404  -0.000000   0.000000  -0.000000
    9  F  1  Z   -0.000000  -0.000000  -0.530491   0.000000   0.000000
   10  F  1 XX    0.000000  -0.000000   0.004661  -0.000065  -0.011381
   11  F  1 YY   -0.000000   0.000000   0.004661   0.000065   0.011381
   12  F  1 ZZ   -0.000000  -0.000000  -0.009322  -0.000000  -0.000000
   13  F  1 XY   -0.000000  -0.000000   0.000000   0.013141  -0.000075
   14  F  1 XZ   -0.000593  -0.010427   0.000000  -0.000000   0.000000
   15  F  1 YZ   -0.010427   0.000593   0.000000  -0.000000  -0.000000
   16  F  1  S   -0.000000   0.000000   0.067955   0.000000   0.000000
   17  F  1  X   -0.000471  -0.008279   0.000000   0.000000   0.000000
   18  F  1  Y   -0.008279   0.000471   0.000000  -0.000000  -0.000000
   19  F  1  Z    0.000000   0.000000   0.590360   0.000000   0.000000
   20  F  1 XX   -0.000000   0.000000  -0.318840   0.004030   0.703104
   21  F  1 YY    0.000000  -0.000000  -0.318840  -0.004030  -0.703104
   22  F  1 ZZ    0.000000  -0.000000   0.637680   0.000000   0.000000
   23  F  1 XY    0.000000   0.000000   0.000000  -0.811874   0.004654
   24  F  1 XZ   -0.033520  -0.589670  -0.000000  -0.000000   0.000000
   25  F  1 YZ   -0.589670   0.033520   0.000000  -0.000000  -0.000000
   26  F  2  S   -0.000000  -0.000000   0.020357  -0.000000  -0.000000
   27  F  2  S    0.000000   0.000000   0.031188  -0.000000  -0.000000
   28  F  2  S    0.000000   0.000000  -0.345074  -0.000000  -0.000000
   29  F  2  X    0.008254   0.145208   0.000000   0.000000  -0.000000
   30  F  2  Y    0.145208  -0.008254   0.000000   0.000000   0.000000
   31  F  2  Z    0.000000   0.000000  -0.321982  -0.000000  -0.000000
   32  F  2  X    0.003452   0.060727  -0.000000  -0.000000   0.000000
   33  F  2  Y    0.060727  -0.003452  -0.000000  -0.000000  -0.000000
   34  F  2  Z    0.000000   0.000000   0.574537   0.000000   0.000000
   35  F  2 XX    0.000000  -0.000000   0.004062   0.000065   0.011299
   36  F  2 YY   -0.000000   0.000000   0.004062  -0.000065  -0.011299
   37  F  2 ZZ   -0.000000  -0.000000  -0.008123   0.000000   0.000000
   38  F  2 XY   -0.000000  -0.000000   0.000000  -0.013047   0.000075
   39  F  2 XZ    0.000656   0.011543  -0.000000  -0.000000   0.000000
   40  F  2 YZ    0.011543  -0.000656  -0.000000  -0.000000  -0.000000
   41  F  2  S    0.000000  -0.000000   0.059239  -0.000000  -0.000000
   42  F  2  X   -0.000767  -0.013492   0.000000   0.000000  -0.000000
   43  F  2  Y   -0.013492   0.000767   0.000000   0.000000   0.000000
   44  F  2  Z   -0.000000   0.000000  -0.600703   0.000000   0.000000
   45  F  2 XX   -0.000000   0.000000  -0.332402  -0.004031  -0.703256
   46  F  2 YY    0.000000  -0.000000  -0.332402   0.004031   0.703256
   47  F  2 ZZ   -0.000000  -0.000000   0.664804  -0.000000  -0.000000
   48  F  2 XY    0.000000   0.000000  -0.000000   0.812050  -0.004655
   49  F  2 XZ    0.033986   0.597874  -0.000000  -0.000000   0.000000
   50  F  2 YZ    0.597874  -0.033986  -0.000000  -0.000000  -0.000000

                     26         27         28         29         30
                    1.5626     1.5626     1.5775     1.5775     1.6142
                     A          A          A          A          A   
    1  F  1  S    0.000000   0.000000  -0.000000  -0.000000   0.010313
    2  F  1  S    0.000000  -0.000000  -0.000000  -0.000000   0.049041
    3  F  1  S   -0.000000  -0.000000  -0.000000  -0.000000   0.169526
    4  F  1  X   -0.573067  -0.223821   0.211795  -0.530044  -0.000000
    5  F  1  Y    0.223821  -0.573067  -0.530044  -0.211795  -0.000000
    6  F  1  Z    0.000000   0.000000  -0.000000  -0.000000   0.537157
    7  F  1  X    0.749152   0.292594  -0.249634   0.624740   0.000000
    8  F  1  Y   -0.292594   0.749152   0.624740   0.249634   0.000000
    9  F  1  Z   -0.000000  -0.000000  -0.000000   0.000000  -0.375318
   10  F  1 XX   -0.000000  -0.000000   0.000000  -0.000000   0.006273
   11  F  1 YY    0.000000  -0.000000  -0.000000  -0.000000   0.006273
   12  F  1 ZZ    0.000000   0.000000   0.000000   0.000000  -0.012545
   13  F  1 XY    0.000000  -0.000000  -0.000000  -0.000000   0.000000
   14  F  1 XZ    0.004496   0.001756  -0.004412   0.011041   0.000000
   15  F  1 YZ   -0.001756   0.004496   0.011041   0.004412   0.000000
   16  F  1  S   -0.000000  -0.000000  -0.000000  -0.000000   0.591103
   17  F  1  X   -0.230630  -0.090077   0.245992  -0.615626  -0.000000
   18  F  1  Y    0.090077  -0.230630  -0.615626  -0.245992  -0.000000
   19  F  1  Z    0.000000   0.000000  -0.000000  -0.000000   0.394279
   20  F  1 XX   -0.000000  -0.000000  -0.000000   0.000000  -0.337691
   21  F  1 YY   -0.000000  -0.000000   0.000000   0.000000  -0.337691
   22  F  1 ZZ    0.000000   0.000000  -0.000000  -0.000000   0.675383
   23  F  1 XY   -0.000000  -0.000000   0.000000   0.000000   0.000000
   24  F  1 XZ   -0.097578  -0.038111   0.224768  -0.562510  -0.000000
   25  F  1 YZ    0.038111  -0.097578  -0.562510  -0.224768  -0.000000
   26  F  2  S   -0.000000  -0.000000   0.000000   0.000000  -0.007167
   27  F  2  S   -0.000000  -0.000000   0.000000   0.000000  -0.042303
   28  F  2  S   -0.000000  -0.000000   0.000000   0.000000  -0.204521
   29  F  2  X   -0.647026  -0.252707  -0.174682   0.437164   0.000000
   30  F  2  Y    0.252707  -0.647026   0.437164   0.174682   0.000000
   31  F  2  Z    0.000000   0.000000  -0.000000  -0.000000   0.527439
   32  F  2  X    0.837298   0.327021   0.201055  -0.503166  -0.000000
   33  F  2  Y   -0.327021   0.837298  -0.503166  -0.201055  -0.000000
   34  F  2  Z   -0.000000  -0.000000  -0.000000   0.000000  -0.361184
   35  F  2 XX   -0.000000  -0.000000  -0.000000   0.000000  -0.005589
   36  F  2 YY    0.000000  -0.000000   0.000000   0.000000  -0.005589
   37  F  2 ZZ    0.000000   0.000000  -0.000000  -0.000000   0.011178
   38  F  2 XY   -0.000000  -0.000000   0.000000   0.000000   0.000000
   39  F  2 XZ   -0.005794  -0.002263  -0.003809   0.009532   0.000000
   40  F  2 YZ    0.002263  -0.005794   0.009532   0.003809   0.000000
   41  F  2  S    0.000000   0.000000   0.000000   0.000000  -0.579720
   42  F  2  X   -0.322973  -0.126143  -0.229133   0.573435   0.000000
   43  F  2  Y    0.126143  -0.322973   0.573435   0.229133   0.000000
   44  F  2  Z   -0.000000  -0.000000  -0.000000  -0.000000   0.366319
   45  F  2 XX    0.000000  -0.000000   0.000000  -0.000000   0.314396
   46  F  2 YY   -0.000000   0.000000  -0.000000  -0.000000   0.314396
   47  F  2 ZZ    0.000000   0.000000   0.000000   0.000000  -0.628792
   48  F  2 XY    0.000000   0.000000  -0.000000  -0.000000  -0.000000
   49  F  2 XZ    0.181443   0.070866   0.214245  -0.536175  -0.000000
   50  F  2 YZ   -0.070866   0.181443  -0.536175  -0.214245  -0.000000

                     31         32         33         34         35
                    1.7857     2.0649     2.1280     2.1280     2.4773
                     A          A          A          A          A   
    1  F  1  S   -0.003214  -0.374927  -0.000000  -0.000000   0.362033
    2  F  1  S   -0.211405  -0.873932  -0.000000  -0.000000   0.878373
    3  F  1  S   -1.458575   1.447675   0.000000   0.000000  -0.652208
    4  F  1  X    0.000000  -0.000000  -0.002491   0.407123  -0.000000
    5  F  1  Y    0.000000  -0.000000   0.407123   0.002491  -0.000000
    6  F  1  Z    0.343365   0.463218  -0.000000  -0.000000   0.540655
    7  F  1  X   -0.000000   0.000000   0.007495  -1.225073   0.000000
    8  F  1  Y   -0.000000   0.000000  -1.225073  -0.007495   0.000000
    9  F  1  Z   -3.363632  -0.543738   0.000000   0.000000  -0.418805
   10  F  1 XX   -0.019217  -0.002800   0.000000  -0.000000   0.025412
   11  F  1 YY   -0.019217  -0.002800  -0.000000   0.000000   0.025412
   12  F  1 ZZ    0.038435   0.005601  -0.000000  -0.000000  -0.050824
   13  F  1 XY   -0.000000  -0.000000  -0.000000  -0.000000  -0.000000
   14  F  1 XZ   -0.000000  -0.000000  -0.000198   0.032285   0.000000
   15  F  1 YZ   -0.000000  -0.000000   0.032285   0.000198   0.000000
   16  F  1  S   -6.310557  -0.585513   0.000000   0.000000   0.112983
   17  F  1  X   -0.000000  -0.000000  -0.000875   0.143011  -0.000000
   18  F  1  Y    0.000000  -0.000000   0.143011   0.000875  -0.000000
   19  F  1  Z   -1.817651  -0.030625   0.000000   0.000000   0.093003
   20  F  1 XX    0.746250   0.204259  -0.000000   0.000000   0.196834
   21  F  1 YY    0.746250   0.204259   0.000000  -0.000000   0.196834
   22  F  1 ZZ   -1.492501  -0.408517  -0.000000  -0.000000  -0.393667
   23  F  1 XY   -0.000000   0.000000   0.000000   0.000000  -0.000000
   24  F  1 XZ   -0.000000   0.000000   0.007238  -1.182991  -0.000000
   25  F  1 YZ   -0.000000   0.000000  -1.182991  -0.007238  -0.000000
   26  F  2  S    0.009697  -0.375668  -0.000000  -0.000000   0.364226
   27  F  2  S    0.225339  -0.870804  -0.000000  -0.000000   0.883427
   28  F  2  S    1.425885   1.483132   0.000000   0.000000  -0.658695
   29  F  2  X    0.000000  -0.000000   0.002483  -0.405906  -0.000000
   30  F  2  Y    0.000000  -0.000000  -0.405906  -0.002483  -0.000000
   31  F  2  Z    0.353563  -0.442720  -0.000000  -0.000000  -0.528616
   32  F  2  X   -0.000000  -0.000000  -0.007496   1.225164   0.000000
   33  F  2  Y   -0.000000   0.000000   1.225164   0.007496   0.000000
   34  F  2  Z   -3.376611   0.461566   0.000000   0.000000   0.409950
   35  F  2 XX    0.018442  -0.001763  -0.000000   0.000000   0.025482
   36  F  2 YY    0.018442  -0.001763   0.000000  -0.000000   0.025482
   37  F  2 ZZ   -0.036884   0.003527   0.000000   0.000000  -0.050965
   38  F  2 XY   -0.000000   0.000000   0.000000   0.000000  -0.000000
   39  F  2 XZ   -0.000000   0.000000  -0.000192   0.031325  -0.000000
   40  F  2 YZ   -0.000000   0.000000   0.031325   0.000192  -0.000000
   41  F  2  S    6.323107  -0.459099  -0.000000  -0.000000   0.135695
   42  F  2  X    0.000000  -0.000000   0.000875  -0.142956  -0.000000
   43  F  2  Y    0.000000  -0.000000  -0.142956  -0.000875  -0.000000
   44  F  2  Z   -1.819040  -0.003055   0.000000   0.000000  -0.098598
   45  F  2 XX   -0.753077   0.190769   0.000000  -0.000000   0.197339
   46  F  2 YY   -0.753077   0.190769  -0.000000   0.000000   0.197339
   47  F  2 ZZ    1.506154  -0.381537   0.000000  -0.000000  -0.394677
   48  F  2 XY    0.000000  -0.000000  -0.000000  -0.000000   0.000000
   49  F  2 XZ   -0.000000   0.000000   0.007221  -1.180285  -0.000000
   50  F  2 YZ   -0.000000   0.000000  -1.180285  -0.007221  -0.000000

                     36         37         38         39         40
                    4.2001     4.6464     4.7434     4.7434     4.7819
                     A          A          A          A          A   
    1  F  1  S   -1.037272   0.077324  -0.000000  -0.000000   0.000000
    2  F  1  S   -2.009428   0.166352  -0.000000  -0.000000   0.000000
    3  F  1  S    5.754418   0.200747   0.000000   0.000000   0.000000
    4  F  1  X    0.000000   0.000000   0.000000  -0.000000  -0.011183
    5  F  1  Y    0.000000   0.000000   0.000000   0.000000   0.003133
    6  F  1  Z   -0.143496   0.162396  -0.000000  -0.000000   0.000000
    7  F  1  X   -0.000000   0.000000   0.000000  -0.000000  -0.079825
    8  F  1  Y   -0.000000   0.000000   0.000000   0.000000   0.022367
    9  F  1  Z    4.704251  -0.122877   0.000000   0.000000   0.000000
   10  F  1 XX    0.036374  -0.431727   0.071113  -0.701994   0.000000
   11  F  1 YY    0.036374  -0.431727  -0.071113   0.701994  -0.000000
   12  F  1 ZZ   -0.072747   0.863454  -0.000000  -0.000000   0.000000
   13  F  1 XY   -0.000000   0.000000   0.810593   0.082114   0.000000
   14  F  1 XZ   -0.000000   0.000000   0.000000  -0.000000  -0.788831
   15  F  1 YZ   -0.000000   0.000000   0.000000   0.000000   0.221033
   16  F  1  S    2.325395  -0.086593   0.000000   0.000000  -0.000000
   17  F  1  X    0.000000   0.000000  -0.000000   0.000000   0.010060
   18  F  1  Y    0.000000  -0.000000  -0.000000  -0.000000  -0.002819
   19  F  1  Z    0.530236  -0.182426   0.000000   0.000000  -0.000000
   20  F  1 XX   -1.033315   0.368910  -0.032135   0.317221  -0.000000
   21  F  1 YY   -1.033315   0.368910   0.032135  -0.317221   0.000000
   22  F  1 ZZ    2.066629  -0.737820   0.000000   0.000000  -0.000000
   23  F  1 XY   -0.000000  -0.000000  -0.366295  -0.037106  -0.000000
   24  F  1 XZ    0.000000  -0.000000  -0.000000   0.000000   0.402178
   25  F  1 YZ    0.000000  -0.000000  -0.000000  -0.000000  -0.112692
   26  F  2  S    1.036684   0.069149   0.000000   0.000000   0.000000
   27  F  2  S    2.007825   0.149173   0.000000   0.000000   0.000000
   28  F  2  S   -5.750428   0.234257  -0.000000  -0.000000  -0.000000
   29  F  2  X   -0.000000   0.000000   0.000000  -0.000000  -0.012433
   30  F  2  Y   -0.000000   0.000000   0.000000   0.000000   0.003484
   31  F  2  Z   -0.143587  -0.160646   0.000000   0.000000  -0.000000
   32  F  2  X    0.000000   0.000000   0.000000  -0.000000  -0.060213
   33  F  2  Y    0.000000   0.000000   0.000000   0.000000   0.016872
   34  F  2  Z    4.704766   0.100822   0.000000   0.000000   0.000000
   35  F  2 XX   -0.039687  -0.440805   0.072365  -0.714361   0.000000
   36  F  2 YY   -0.039687  -0.440805  -0.072365   0.714361  -0.000000
   37  F  2 ZZ    0.079374   0.881610  -0.000000  -0.000000   0.000000
   38  F  2 XY   -0.000000   0.000000   0.824873   0.083560   0.000000
   39  F  2 XZ   -0.000000  -0.000000  -0.000000   0.000000   0.842406
   40  F  2 YZ   -0.000000  -0.000000  -0.000000  -0.000000  -0.236045
   41  F  2  S   -2.326624  -0.102244  -0.000000  -0.000000  -0.000000
   42  F  2  X   -0.000000  -0.000000  -0.000000   0.000000   0.017944
   43  F  2  Y   -0.000000  -0.000000  -0.000000  -0.000000  -0.005028
   44  F  2  Z    0.531753   0.189769   0.000000   0.000000   0.000000
   45  F  2 XX    1.035821   0.369044  -0.032882   0.324601  -0.000000
   46  F  2 YY    1.035821   0.369044   0.032882  -0.324601   0.000000
   47  F  2 ZZ   -2.071643  -0.738087   0.000000   0.000000  -0.000000
   48  F  2 XY    0.000000  -0.000000  -0.374817  -0.037969  -0.000000
   49  F  2 XZ    0.000000   0.000000   0.000000  -0.000000  -0.450142
   50  F  2 YZ    0.000000   0.000000   0.000000   0.000000   0.126131

                     41         42         43         44         45
                    4.7819     4.8346     4.8346     4.9549     4.9549
                     A          A          A          A          A   
    1  F  1  S    0.000000   0.000000  -0.000000  -0.000000  -0.000000
    2  F  1  S    0.000000   0.000000  -0.000000  -0.000000  -0.000000
    3  F  1  S    0.000000  -0.000000   0.000000   0.000000   0.000000
    4  F  1  X   -0.003133   0.000000   0.000000   0.022503   0.005798
    5  F  1  Y   -0.011183   0.000000  -0.000000  -0.005798   0.022503
    6  F  1  Z    0.000000   0.000000  -0.000000  -0.000000  -0.000000
    7  F  1  X   -0.022367  -0.000000  -0.000000  -0.287537  -0.074081
    8  F  1  Y   -0.079825  -0.000000   0.000000   0.074081  -0.287537
    9  F  1  Z    0.000000  -0.000000   0.000000   0.000000   0.000000
   10  F  1 XX   -0.000000  -0.112336   0.723199  -0.000000   0.000000
   11  F  1 YY    0.000000   0.112336  -0.723199   0.000000  -0.000000
   12  F  1 ZZ    0.000000   0.000000  -0.000000   0.000000   0.000000
   13  F  1 XY    0.000000   0.835078   0.129715  -0.000000  -0.000000
   14  F  1 XZ   -0.221033   0.000000   0.000000   0.854303   0.220102
   15  F  1 YZ   -0.788831   0.000000  -0.000000  -0.220102   0.854303
   16  F  1  S   -0.000000  -0.000000   0.000000  -0.000000  -0.000000
   17  F  1  X    0.002819  -0.000000  -0.000000  -0.117612  -0.030301
   18  F  1  Y    0.010060  -0.000000   0.000000   0.030301  -0.117612
   19  F  1  Z   -0.000000  -0.000000   0.000000  -0.000000  -0.000000
   20  F  1 XX    0.000000   0.066149  -0.425851   0.000000  -0.000000
   21  F  1 YY   -0.000000  -0.066149   0.425851  -0.000000   0.000000
   22  F  1 ZZ   -0.000000  -0.000000   0.000000  -0.000000  -0.000000
   23  F  1 XY   -0.000000  -0.491730  -0.076382   0.000000   0.000000
   24  F  1 XZ    0.112692  -0.000000  -0.000000  -0.725164  -0.186831
   25  F  1 YZ    0.402178  -0.000000   0.000000   0.186831  -0.725164
   26  F  2  S    0.000000  -0.000000   0.000000   0.000000   0.000000
   27  F  2  S    0.000000  -0.000000   0.000000   0.000000   0.000000
   28  F  2  S   -0.000000   0.000000  -0.000000  -0.000000  -0.000000
   29  F  2  X   -0.003484  -0.000000  -0.000000  -0.021515  -0.005543
   30  F  2  Y   -0.012433  -0.000000   0.000000   0.005543  -0.021515
   31  F  2  Z   -0.000000  -0.000000   0.000000  -0.000000  -0.000000
   32  F  2  X   -0.016872   0.000000   0.000000   0.291895   0.075204
   33  F  2  Y   -0.060213   0.000000  -0.000000  -0.075204   0.291895
   34  F  2  Z    0.000000  -0.000000   0.000000   0.000000   0.000000
   35  F  2 XX   -0.000000   0.110466  -0.711155   0.000000  -0.000000
   36  F  2 YY    0.000000  -0.110466   0.711155  -0.000000   0.000000
   37  F  2 ZZ    0.000000   0.000000  -0.000000  -0.000000  -0.000000
   38  F  2 XY    0.000000  -0.821172  -0.127555   0.000000   0.000000
   39  F  2 XZ    0.236045   0.000000   0.000000   0.800930   0.206351
   40  F  2 YZ    0.842406   0.000000  -0.000000  -0.206351   0.800930
   41  F  2  S    0.000000   0.000000  -0.000000   0.000000   0.000000
   42  F  2  X    0.005028   0.000000   0.000000   0.116741   0.030077
   43  F  2  Y    0.017944   0.000000  -0.000000  -0.030077   0.116741
   44  F  2  Z    0.000000  -0.000000   0.000000  -0.000000  -0.000000
   45  F  2 XX    0.000000  -0.065313   0.420473  -0.000000   0.000000
   46  F  2 YY   -0.000000   0.065313  -0.420473   0.000000  -0.000000
   47  F  2 ZZ   -0.000000   0.000000  -0.000000   0.000000   0.000000
   48  F  2 XY   -0.000000   0.485521   0.075417  -0.000000  -0.000000
   49  F  2 XZ   -0.126131  -0.000000  -0.000000  -0.698241  -0.179894
   50  F  2 YZ   -0.450142  -0.000000   0.000000   0.179894  -0.698241

                     46
                    5.2824
                     A   
    1  F  1  S    0.012498
    2  F  1  S    0.028586
    3  F  1  S    0.254456
    4  F  1  X    0.000000
    5  F  1  Y    0.000000
    6  F  1  Z   -0.001463
    7  F  1  X   -0.000000
    8  F  1  Y   -0.000000
    9  F  1  Z    0.411100
   10  F  1 XX    0.436417
   11  F  1 YY    0.436417
   12  F  1 ZZ   -0.872833
   13  F  1 XY    0.000000
   14  F  1 XZ    0.000000
   15  F  1 YZ    0.000000
   16  F  1  S    1.240736
   17  F  1  X   -0.000000
   18  F  1  Y   -0.000000
   19  F  1  Z    0.433131
   20  F  1 XX   -0.291361
   21  F  1 YY   -0.291361
   22  F  1 ZZ    0.582723
   23  F  1 XY    0.000000
   24  F  1 XZ   -0.000000
   25  F  1 YZ   -0.000000
   26  F  2  S   -0.014667
   27  F  2  S   -0.034079
   28  F  2  S   -0.257680
   29  F  2  X   -0.000000
   30  F  2  Y   -0.000000
   31  F  2  Z    0.001883
   32  F  2  X    0.000000
   33  F  2  Y    0.000000
   34  F  2  Z    0.408885
   35  F  2 XX   -0.426981
   36  F  2 YY   -0.426981
   37  F  2 ZZ    0.853961
   38  F  2 XY   -0.000000
   39  F  2 XZ    0.000000
   40  F  2 YZ    0.000000
   41  F  2  S   -1.239179
   42  F  2  X    0.000000
   43  F  2  Y    0.000000
   44  F  2  Z    0.429704
   45  F  2 XX    0.284361
   46  F  2 YY    0.284361
   47  F  2 ZZ   -0.568722
   48  F  2 XY    0.000000
   49  F  2 XZ   -0.000000
   50  F  2 YZ   -0.000000

 LZ VALUE ANALYSIS FOR THE MOS
 ----------------------------------------
 MO     1 (    1) HAS LZ(WEIGHT)= 0.00(100.0%) 
 MO     2 (    2) HAS LZ(WEIGHT)= 0.00(100.0%) 
 MO     3 (    3) HAS LZ(WEIGHT)= 0.00(100.0%) 
 MO     4 (    4) HAS LZ(WEIGHT)= 0.00(100.0%) 
 MO     5 (    5) HAS LZ(WEIGHT)=-1.00( 50.0%)  1.00( 50.0%) 
 MO     6 (    5) HAS LZ(WEIGHT)=-1.00( 50.0%)  1.00( 50.0%) 
 MO     7 (    6) HAS LZ(WEIGHT)= 0.00(100.0%) 
 MO     8 (    7) HAS LZ(WEIGHT)=-1.00( 50.0%)  1.00( 50.0%) 
 MO     9 (    7) HAS LZ(WEIGHT)=-1.00( 50.0%)  1.00( 50.0%) 
 MO    10 (    8) HAS LZ(WEIGHT)= 0.00(100.0%) 
 MO    11 (    9) HAS LZ(WEIGHT)= 0.00(100.0%) 
 MO    12 (   10) HAS LZ(WEIGHT)= 0.00(100.0%) 
 MO    13 (   11) HAS LZ(WEIGHT)=-1.00( 50.0%)  1.00( 50.0%) 
 MO    14 (   11) HAS LZ(WEIGHT)=-1.00( 50.0%)  1.00( 50.0%) 
 MO    15 (   12) HAS LZ(WEIGHT)=-1.00( 50.0%)  1.00( 50.0%) 
 MO    16 (   12) HAS LZ(WEIGHT)=-1.00( 50.0%)  1.00( 50.0%) 
 MO    17 (   13) HAS LZ(WEIGHT)= 0.00(100.0%) 
 MO    18 (   14) HAS LZ(WEIGHT)= 0.00(100.0%) 
 MO    19 (   15) HAS LZ(WEIGHT)=-2.00( 50.0%)  2.00( 50.0%) 
 MO    20 (   15) HAS LZ(WEIGHT)=-2.00( 50.0%)  2.00( 50.0%) 
 MO    21 (   16) HAS LZ(WEIGHT)=-1.00( 50.0%)  1.00( 50.0%) 
 MO    22 (   16) HAS LZ(WEIGHT)=-1.00( 50.0%)  1.00( 50.0%) 
 MO    23 (   17) HAS LZ(WEIGHT)= 0.00(100.0%) 
 MO    24 (   18) HAS LZ(WEIGHT)=-2.00( 50.0%)  2.00( 50.0%) 
 MO    25 (   18) HAS LZ(WEIGHT)=-2.00( 50.0%)  2.00( 50.0%) 
 MO    26 (   19) HAS LZ(WEIGHT)=-1.00( 50.0%)  1.00( 50.0%) 
 MO    27 (   19) HAS LZ(WEIGHT)=-1.00( 50.0%)  1.00( 50.0%) 
 MO    28 (   20) HAS LZ(WEIGHT)=-1.00( 50.0%)  1.00( 50.0%) 
 MO    29 (   20) HAS LZ(WEIGHT)=-1.00( 50.0%)  1.00( 50.0%) 
 MO    30 (   21) HAS LZ(WEIGHT)= 0.00(100.0%) 
 MO    31 (   22) HAS LZ(WEIGHT)= 0.00(100.0%) 
 MO    32 (   23) HAS LZ(WEIGHT)= 0.00(100.0%) 
 MO    33 (   24) HAS LZ(WEIGHT)=-1.00( 50.0%)  1.00( 50.0%) 
 MO    34 (   24) HAS LZ(WEIGHT)=-1.00( 50.0%)  1.00( 50.0%) 
 MO    35 (   25) HAS LZ(WEIGHT)= 0.00(100.0%) 
 MO    36 (   26) HAS LZ(WEIGHT)= 0.00(100.0%) 
 MO    37 (   27) HAS LZ(WEIGHT)= 0.00(100.0%) 
 MO    38 (   28) HAS LZ(WEIGHT)=-2.00( 50.0%)  2.00( 50.0%) 
 MO    39 (   28) HAS LZ(WEIGHT)=-2.00( 50.0%)  2.00( 50.0%) 
 MO    40 (   29) HAS LZ(WEIGHT)=-1.00( 50.0%)  1.00( 50.0%) 
 MO    41 (   29) HAS LZ(WEIGHT)=-1.00( 50.0%)  1.00( 50.0%) 
 MO    42 (   30) HAS LZ(WEIGHT)=-2.00( 50.0%)  2.00( 50.0%) 
 MO    43 (   30) HAS LZ(WEIGHT)=-2.00( 50.0%)  2.00( 50.0%) 
 MO    44 (   31) HAS LZ(WEIGHT)=-1.00( 50.0%)  1.00( 50.0%) 
 MO    45 (   31) HAS LZ(WEIGHT)=-1.00( 50.0%)  1.00( 50.0%) 
 MO    46 (   32) HAS LZ(WEIGHT)= 0.00(100.0%) 

  ----- BETA SET ----- 

          ------------
          EIGENVECTORS
          ------------

                      1          2          3          4          5
                  -26.4403   -26.4356    -1.8169    -1.4866    -0.8310
                     A          A          A          A          A   
    1  F  1  S    1.000845  -0.030385  -0.001775  -0.000362   0.000000
    2  F  1  S    0.001650  -0.000833   0.349771  -0.364485   0.000000
    3  F  1  S   -0.006794   0.003837   0.347160  -0.447026   0.000000
    4  F  1  X   -0.000000   0.000000  -0.000000   0.000000   0.085415
    5  F  1  Y    0.000000   0.000000  -0.000000  -0.000000   0.470005
    6  F  1  Z    0.001141   0.000145   0.082528   0.078085  -0.000000
    7  F  1  X   -0.000000  -0.000000  -0.000000   0.000000   0.051388
    8  F  1  Y   -0.000000   0.000000  -0.000000   0.000000   0.282770
    9  F  1  Z   -0.003656   0.003299   0.040757  -0.005664  -0.000000
   10  F  1 XX    0.000044  -0.000033  -0.005984  -0.002222   0.000000
   11  F  1 YY    0.000044  -0.000033  -0.005984  -0.002222   0.000000
   12  F  1 ZZ   -0.000089   0.000066   0.011968   0.004444  -0.000000
   13  F  1 XY   -0.000000   0.000000  -0.000000  -0.000000  -0.000000
   14  F  1 XZ   -0.000000   0.000000  -0.000000   0.000000   0.001873
   15  F  1 YZ   -0.000000   0.000000  -0.000000   0.000000   0.010305
   16  F  1  S    0.000039   0.000625   0.005378  -0.042613   0.000000
   17  F  1  X   -0.000000  -0.000000  -0.000000  -0.000000   0.002827
   18  F  1  Y    0.000000   0.000000   0.000000  -0.000000   0.015553
   19  F  1  Z    0.000171   0.000048  -0.005577  -0.004290   0.000000
   20  F  1 XX    0.000798  -0.000576  -0.006558   0.006368   0.000000
   21  F  1 YY    0.000798  -0.000576  -0.006558   0.006368   0.000000
   22  F  1 ZZ   -0.001596   0.001152   0.013115  -0.012736  -0.000000
   23  F  1 XY   -0.000000   0.000000  -0.000000   0.000000  -0.000000
   24  F  1 XZ    0.000000  -0.000000  -0.000000   0.000000   0.002001
   25  F  1 YZ    0.000000   0.000000   0.000000   0.000000   0.011008
   26  F  2  S    0.029433   1.000786  -0.002298  -0.000207   0.000000
   27  F  2  S   -0.000768   0.001393   0.329631   0.377447   0.000000
   28  F  2  S    0.003540  -0.006848   0.323773   0.461912   0.000000
   29  F  2  X    0.000000  -0.000000  -0.000000  -0.000000   0.082849
   30  F  2  Y   -0.000000  -0.000000  -0.000000  -0.000000   0.455884
   31  F  2  Z   -0.000214  -0.001111  -0.077647   0.067888   0.000000
   32  F  2  X   -0.000000   0.000000  -0.000000  -0.000000   0.050055
   33  F  2  Y   -0.000000   0.000000  -0.000000  -0.000000   0.275433
   34  F  2  Z   -0.003175   0.003746  -0.035654  -0.010600   0.000000
   35  F  2 XX   -0.000027   0.000119  -0.005091   0.002945   0.000000
   36  F  2 YY   -0.000027   0.000119  -0.005091   0.002945   0.000000
   37  F  2 ZZ    0.000055  -0.000238   0.010182  -0.005889  -0.000000
   38  F  2 XY   -0.000000   0.000000   0.000000   0.000000  -0.000000
   39  F  2 XZ   -0.000000   0.000000   0.000000   0.000000  -0.001806
   40  F  2 YZ   -0.000000   0.000000   0.000000   0.000000  -0.009940
   41  F  2  S    0.000684   0.000043   0.004118   0.043376   0.000000
   42  F  2  X   -0.000000   0.000000  -0.000000   0.000000   0.002804
   43  F  2  Y   -0.000000   0.000000  -0.000000   0.000000   0.015428
   44  F  2  Z   -0.000067  -0.000187   0.005518  -0.004049   0.000000
   45  F  2 XX   -0.000544   0.000792  -0.005462  -0.005977   0.000000
   46  F  2 YY   -0.000544   0.000792  -0.005462  -0.005977   0.000000
   47  F  2 ZZ    0.001088  -0.001584   0.010924   0.011953  -0.000000
   48  F  2 XY   -0.000000   0.000000  -0.000000  -0.000000   0.000000
   49  F  2 XZ   -0.000000  -0.000000   0.000000   0.000000  -0.002062
   50  F  2 YZ   -0.000000  -0.000000  -0.000000   0.000000  -0.011348

                      6          7          8          9         10
                   -0.8310    -0.7875    -0.6538    -0.6538     0.1007
                     A          A          A          A          A   
    1  F  1  S    0.000000  -0.007408  -0.000000   0.000000   0.008496
    2  F  1  S    0.000000  -0.090704   0.000000   0.000000   0.128489
    3  F  1  S    0.000000  -0.130987   0.000000   0.000000   0.238886
    4  F  1  X    0.470005   0.000000  -0.088309  -0.505350   0.000000
    5  F  1  Y   -0.085415   0.000000  -0.505350   0.088309   0.000000
    6  F  1  Z   -0.000000   0.475333   0.000000   0.000000   0.321708
    7  F  1  X    0.282770   0.000000  -0.058600  -0.335339   0.000000
    8  F  1  Y   -0.051388   0.000000  -0.335339   0.058600   0.000000
    9  F  1  Z   -0.000000   0.296451   0.000000   0.000000   0.351407
   10  F  1 XX    0.000000  -0.009997  -0.000000   0.000000   0.006219
   11  F  1 YY    0.000000  -0.009997  -0.000000  -0.000000   0.006219
   12  F  1 ZZ   -0.000000   0.019993   0.000000  -0.000000  -0.012438
   13  F  1 XY    0.000000  -0.000000   0.000000  -0.000000  -0.000000
   14  F  1 XZ    0.010305   0.000000   0.000179   0.001025  -0.000000
   15  F  1 YZ   -0.001873   0.000000   0.001025  -0.000179  -0.000000
   16  F  1  S    0.000000  -0.024916   0.000000   0.000000   2.108970
   17  F  1  X    0.015553   0.000000  -0.007234  -0.041395   0.000000
   18  F  1  Y   -0.002827   0.000000  -0.041395   0.007234   0.000000
   19  F  1  Z   -0.000000   0.012384   0.000000   0.000000   1.242498
   20  F  1 XX    0.000000  -0.013671  -0.000000  -0.000000  -0.006504
   21  F  1 YY    0.000000  -0.013671  -0.000000  -0.000000  -0.006504
   22  F  1 ZZ   -0.000000   0.027341   0.000000   0.000000   0.013008
   23  F  1 XY    0.000000   0.000000   0.000000   0.000000  -0.000000
   24  F  1 XZ    0.011008   0.000000  -0.000392  -0.002244   0.000000
   25  F  1 YZ   -0.002001   0.000000  -0.002244   0.000392   0.000000
   26  F  2  S    0.000000  -0.008459  -0.000000  -0.000000  -0.006838
   27  F  2  S    0.000000  -0.107943  -0.000000  -0.000000  -0.124429
   28  F  2  S    0.000000  -0.156744  -0.000000  -0.000000  -0.242259
   29  F  2  X    0.455884   0.000000   0.090184   0.516076  -0.000000
   30  F  2  Y   -0.082849   0.000000   0.516076  -0.090184  -0.000000
   31  F  2  Z    0.000000  -0.417858   0.000000   0.000000   0.343345
   32  F  2  X    0.275433   0.000000   0.059985   0.343265  -0.000000
   33  F  2  Y   -0.050055   0.000000   0.343265  -0.059985  -0.000000
   34  F  2  Z    0.000000  -0.260805   0.000000   0.000000   0.372195
   35  F  2 XX    0.000000  -0.010569  -0.000000  -0.000000  -0.005759
   36  F  2 YY    0.000000  -0.010569  -0.000000  -0.000000  -0.005759
   37  F  2 ZZ   -0.000000   0.021138   0.000000   0.000000   0.011517
   38  F  2 XY   -0.000000  -0.000000  -0.000000  -0.000000  -0.000000
   39  F  2 XZ   -0.009940  -0.000000   0.000163   0.000931  -0.000000
   40  F  2 YZ    0.001806  -0.000000   0.000931  -0.000163  -0.000000
   41  F  2  S    0.000000  -0.038631  -0.000000  -0.000000  -2.077352
   42  F  2  X    0.015428   0.000000   0.007446   0.042608  -0.000000
   43  F  2  Y   -0.002804   0.000000   0.042608  -0.007446  -0.000000
   44  F  2  Z    0.000000  -0.007111   0.000000   0.000000   1.280526
   45  F  2 XX    0.000000  -0.014653  -0.000000  -0.000000   0.007853
   46  F  2 YY    0.000000  -0.014653  -0.000000  -0.000000   0.007853
   47  F  2 ZZ   -0.000000   0.029307   0.000000   0.000000  -0.015706
   48  F  2 XY    0.000000   0.000000   0.000000   0.000000  -0.000000
   49  F  2 XZ   -0.011348  -0.000000  -0.000427  -0.002444  -0.000000
   50  F  2 YZ    0.002062  -0.000000  -0.002444   0.000427   0.000000

                     11         12         13         14         15
                    0.2118     0.2330     0.2334     0.2334     0.2929
                     A          A          A          A          A   
    1  F  1  S    0.016933   0.003657  -0.000000  -0.000000  -0.000000
    2  F  1  S   -0.048058  -0.072735   0.000000   0.000001   0.000000
    3  F  1  S   -0.413233  -0.317941   0.000002   0.000002   0.000000
    4  F  1  X   -0.000000  -0.000001  -0.009336  -0.121608   0.019039
    5  F  1  Y   -0.000000  -0.000001  -0.121608   0.009336   0.096933
    6  F  1  Z    0.117928  -0.381111   0.000002   0.000003   0.000000
    7  F  1  X   -0.000000  -0.000002  -0.018570  -0.241875   0.041455
    8  F  1  Y   -0.000000  -0.000001  -0.241875   0.018570   0.211063
    9  F  1  Z    0.175242  -0.297405   0.000001   0.000002   0.000000
   10  F  1 XX   -0.000540  -0.001733   0.000000   0.000000   0.000000
   11  F  1 YY   -0.000540  -0.001733   0.000000   0.000000   0.000000
   12  F  1 ZZ    0.001081   0.003465  -0.000000  -0.000000  -0.000000
   13  F  1 XY   -0.000000  -0.000000   0.000000  -0.000000  -0.000000
   14  F  1 XZ    0.000000  -0.000000  -0.000275  -0.003579   0.001346
   15  F  1 YZ    0.000000  -0.000000  -0.003579   0.000275   0.006855
   16  F  1  S    0.353033   3.509555  -0.000017  -0.000026  -0.000000
   17  F  1  X    0.000000   0.000005   0.047929   0.624280  -0.304948
   18  F  1  Y    0.000000   0.000003   0.624280  -0.047929  -1.552590
   19  F  1  Z   -0.913904   1.732473  -0.000008  -0.000013  -0.000000
   20  F  1 XX    0.007007  -0.038712   0.000000   0.000000   0.000000
   21  F  1 YY    0.007007  -0.038712   0.000000   0.000000   0.000000
   22  F  1 ZZ   -0.014015   0.077425  -0.000000  -0.000001  -0.000000
   23  F  1 XY   -0.000000  -0.000000   0.000000   0.000000  -0.000000
   24  F  1 XZ    0.000000  -0.000000  -0.000196  -0.002555  -0.002650
   25  F  1 YZ    0.000000  -0.000000  -0.002555   0.000196  -0.013491
   26  F  2  S    0.017770   0.000874  -0.000000  -0.000000  -0.000000
   27  F  2  S   -0.059252   0.052196  -0.000000  -0.000000  -0.000000
   28  F  2  S   -0.466366   0.171671  -0.000001  -0.000001  -0.000000
   29  F  2  X   -0.000000  -0.000001  -0.009359  -0.121902  -0.019191
   30  F  2  Y   -0.000000  -0.000001  -0.121902   0.009359  -0.097710
   31  F  2  Z   -0.021971  -0.418899   0.000002   0.000003   0.000000
   32  F  2  X   -0.000000  -0.000002  -0.018585  -0.242076  -0.041811
   33  F  2  Y   -0.000000  -0.000001  -0.242076   0.018585  -0.212874
   34  F  2  Z   -0.101635  -0.358471   0.000002   0.000003   0.000000
   35  F  2 XX   -0.000916   0.001284  -0.000000  -0.000000  -0.000000
   36  F  2 YY   -0.000916   0.001284  -0.000000  -0.000000  -0.000000
   37  F  2 ZZ    0.001832  -0.002567   0.000000   0.000000   0.000000
   38  F  2 XY   -0.000000  -0.000000   0.000000   0.000000   0.000000
   39  F  2 XZ   -0.000000   0.000000   0.000264   0.003440   0.001332
   40  F  2 YZ   -0.000000   0.000000   0.003440  -0.000264   0.006781
   41  F  2  S    1.299088  -3.278356   0.000016   0.000025   0.000000
   42  F  2  X   -0.000000   0.000005   0.047413   0.617560   0.305505
   43  F  2  Y    0.000000   0.000003   0.617560  -0.047413   1.555426
   44  F  2  Z    0.396759   1.871912  -0.000009  -0.000014  -0.000000
   45  F  2 XX   -0.002920   0.037915  -0.000000  -0.000000  -0.000000
   46  F  2 YY   -0.002920   0.037915  -0.000000  -0.000000  -0.000000
   47  F  2 ZZ    0.005840  -0.075830   0.000000   0.000001   0.000000
   48  F  2 XY   -0.000000   0.000000   0.000000   0.000000   0.000000
   49  F  2 XZ   -0.000000   0.000000   0.000191   0.002482  -0.002701
   50  F  2 YZ   -0.000000   0.000000   0.002482  -0.000191  -0.013750

                     16         17         18         19         20
                    0.2929     0.3169     0.5260     1.1713     1.1713
                     A          A          A          A          A   
    1  F  1  S   -0.000000  -0.023194   0.006949  -0.000000  -0.000000
    2  F  1  S    0.000000   0.023007   0.084080   0.000000   0.000000
    3  F  1  S    0.000000   0.499586   0.385804  -0.000000   0.000000
    4  F  1  X    0.096933  -0.000000  -0.000000  -0.000000  -0.000000
    5  F  1  Y   -0.019039  -0.000000  -0.000000  -0.000000   0.000000
    6  F  1  Z    0.000000   0.029265  -0.113379   0.000000   0.000000
    7  F  1  X    0.211063  -0.000000  -0.000000   0.000000   0.000000
    8  F  1  Y   -0.041455  -0.000000  -0.000000   0.000000  -0.000000
    9  F  1  Z    0.000000   0.120235  -0.838601  -0.000000   0.000000
   10  F  1 XX    0.000000  -0.011178  -0.009867  -0.000517  -0.010879
   11  F  1 YY    0.000000  -0.011178  -0.009867   0.000517   0.010879
   12  F  1 ZZ   -0.000000   0.022357   0.019734  -0.000000   0.000000
   13  F  1 XY    0.000000   0.000000  -0.000000  -0.012562   0.000597
   14  F  1 XZ    0.006855  -0.000000  -0.000000  -0.000000  -0.000000
   15  F  1 YZ   -0.001346  -0.000000  -0.000000  -0.000000   0.000000
   16  F  1  S   -0.000000  -0.177809  -8.702185  -0.000000   0.000000
   17  F  1  X   -1.552590   0.000000   0.000000  -0.000000  -0.000000
   18  F  1  Y    0.304948   0.000000   0.000000  -0.000000   0.000000
   19  F  1  Z   -0.000000  -0.985488  -3.001454  -0.000000   0.000000
   20  F  1 XX    0.000000   0.015683   0.118162   0.026462   0.557126
   21  F  1 YY    0.000000   0.015683   0.118162  -0.026462  -0.557126
   22  F  1 ZZ   -0.000000  -0.031367  -0.236324  -0.000000   0.000000
   23  F  1 XY   -0.000000   0.000000  -0.000000   0.643313  -0.030556
   24  F  1 XZ   -0.013491  -0.000000   0.000000   0.000000  -0.000000
   25  F  1 YZ    0.002650  -0.000000   0.000000  -0.000000  -0.000000
   26  F  2  S   -0.000000  -0.023313  -0.006734   0.000000  -0.000000
   27  F  2  S   -0.000000   0.027903  -0.084881   0.000000  -0.000000
   28  F  2  S   -0.000000   0.515720  -0.390839  -0.000000  -0.000000
   29  F  2  X   -0.097710   0.000000   0.000000  -0.000000  -0.000000
   30  F  2  Y    0.019191   0.000000   0.000000  -0.000000   0.000000
   31  F  2  Z    0.000000  -0.048835  -0.116336   0.000000   0.000000
   32  F  2  X   -0.212874   0.000000   0.000000   0.000000   0.000000
   33  F  2  Y    0.041811   0.000000   0.000000   0.000000  -0.000000
   34  F  2  Z    0.000000  -0.138274  -0.847314  -0.000000   0.000000
   35  F  2 XX   -0.000000  -0.010782   0.009441  -0.000522  -0.010989
   36  F  2 YY   -0.000000  -0.010782   0.009441   0.000522   0.010989
   37  F  2 ZZ    0.000000   0.021563  -0.018881  -0.000000   0.000000
   38  F  2 XY    0.000000   0.000000  -0.000000  -0.012689   0.000603
   39  F  2 XZ    0.006781   0.000000  -0.000000   0.000000   0.000000
   40  F  2 YZ   -0.001332   0.000000  -0.000000   0.000000  -0.000000
   41  F  2  S    0.000000  -0.310040   8.707688   0.000000  -0.000000
   42  F  2  X    1.555426  -0.000000  -0.000000  -0.000000  -0.000000
   43  F  2  Y   -0.305505  -0.000000  -0.000000  -0.000000   0.000000
   44  F  2  Z   -0.000000   1.049530  -2.992559  -0.000000   0.000000
   45  F  2 XX   -0.000000   0.017947  -0.118155   0.026476   0.557427
   46  F  2 YY   -0.000000   0.017947  -0.118155  -0.026476  -0.557427
   47  F  2 ZZ    0.000000  -0.035895   0.236311   0.000000  -0.000000
   48  F  2 XY    0.000000   0.000000  -0.000000   0.643661  -0.030572
   49  F  2 XZ   -0.013750   0.000000   0.000000  -0.000000   0.000000
   50  F  2 YZ    0.002701   0.000000   0.000000   0.000000   0.000000

                     21         22         23         24         25
                    1.2693     1.2693     1.3976     1.5020     1.5020
                     A          A          A          A          A   
    1  F  1  S   -0.000000  -0.000000   0.020357  -0.000000   0.000000
    2  F  1  S    0.000000  -0.000000   0.031188  -0.000000   0.000000
    3  F  1  S    0.000000   0.000000  -0.345074   0.000000  -0.000000
    4  F  1  X   -0.128016  -0.069031  -0.000000  -0.000000  -0.000000
    5  F  1  Y    0.069031  -0.128016  -0.000000  -0.000000   0.000000
    6  F  1  Z   -0.000000  -0.000000   0.321983   0.000000  -0.000000
    7  F  1  X   -0.053537  -0.028869   0.000000   0.000000   0.000000
    8  F  1  Y    0.028869  -0.053537   0.000000   0.000000  -0.000000
    9  F  1  Z    0.000000   0.000000  -0.574538   0.000000  -0.000000
   10  F  1 XX   -0.000000   0.000000   0.004062   0.000300  -0.011295
   11  F  1 YY    0.000000   0.000000   0.004062  -0.000300   0.011295
   12  F  1 ZZ   -0.000000  -0.000000  -0.008123  -0.000000   0.000000
   13  F  1 XY    0.000000  -0.000000  -0.000000  -0.013042  -0.000347
   14  F  1 XZ    0.010177   0.005488   0.000000  -0.000000  -0.000000
   15  F  1 YZ   -0.005488   0.010177   0.000000  -0.000000   0.000000
   16  F  1  S    0.000000   0.000000   0.059240   0.000000  -0.000000
   17  F  1  X    0.011895   0.006414  -0.000000  -0.000000  -0.000000
   18  F  1  Y   -0.006414   0.011895  -0.000000  -0.000000   0.000000
   19  F  1  Z    0.000000   0.000000   0.600704   0.000000  -0.000000
   20  F  1 XX    0.000000   0.000000  -0.332403  -0.018694   0.703018
   21  F  1 YY   -0.000000  -0.000000  -0.332403   0.018694  -0.703018
   22  F  1 ZZ   -0.000000  -0.000000   0.664806   0.000000  -0.000000
   23  F  1 XY   -0.000000   0.000000  -0.000000   0.811775   0.021585
   24  F  1 XZ    0.527091   0.284225  -0.000000  -0.000000  -0.000000
   25  F  1 YZ   -0.284225   0.527091  -0.000000  -0.000000   0.000000
   26  F  2  S    0.000000  -0.000000   0.019967  -0.000000   0.000000
   27  F  2  S    0.000000  -0.000000   0.031944  -0.000000   0.000000
   28  F  2  S    0.000000   0.000000  -0.343999  -0.000000   0.000000
   29  F  2  X   -0.130439  -0.070337  -0.000000   0.000000   0.000000
   30  F  2  Y    0.070337  -0.130439  -0.000000   0.000000  -0.000000
   31  F  2  Z    0.000000   0.000000  -0.297745  -0.000000   0.000000
   32  F  2  X   -0.052795  -0.028469   0.000000  -0.000000  -0.000000
   33  F  2  Y    0.028469  -0.052795   0.000000  -0.000000   0.000000
   34  F  2  Z    0.000000   0.000000   0.530490   0.000000  -0.000000
   35  F  2 XX   -0.000000   0.000000   0.004661  -0.000303   0.011377
   36  F  2 YY    0.000000   0.000000   0.004661   0.000303  -0.011377
   37  F  2 ZZ   -0.000000  -0.000000  -0.009322   0.000000  -0.000000
   38  F  2 XY    0.000000  -0.000000  -0.000000   0.013137   0.000349
   39  F  2 XZ   -0.009192  -0.004957   0.000000  -0.000000  -0.000000
[...]
   34  F  2  Z   -0.000045   0.065028   0.976354  -1.118170   1.097552
   35  F  2 XX    0.411108   0.002387  -0.070883  -0.130609  -0.035131
   36  F  2 YY   -0.411093   0.012561   0.152828  -0.131326   0.152513
   37  F  2 ZZ   -0.000015  -0.014948  -0.081945   0.261935  -0.117382
   38  F  2 XY   -0.008521  -0.009667  -0.073476   0.098888  -0.078570
   39  F  2 XZ    0.000068   0.758749   0.048886  -0.043617  -0.123167
   40  F  2 YZ    0.000019  -0.178890  -0.163552   0.079957   0.096368
   41  F  2  S   -0.000133   0.005192   0.522351   0.162085   0.088550
   42  F  2  X    0.000023  -0.238245  -0.157952   0.209157   0.844783
   43  F  2  Y   -0.000061   0.066224   0.213822  -0.039896  -0.043713
   44  F  2  Z   -0.000253  -0.031631   0.632430   1.196870  -0.239734
   45  F  2 XX    0.325071   0.007301   0.287726   0.046726   0.149831
   46  F  2 YY   -0.325161  -0.000832   0.267013  -0.095965   0.159414
   47  F  2 ZZ    0.000091  -0.006469  -0.554739   0.049238  -0.309245
   48  F  2 XY   -0.006710  -0.018155  -0.202146   0.090093  -0.158209
   49  F  2 XZ   -0.000030  -0.429363   0.041443   0.034265   0.422533
   50  F  2 YZ   -0.000088   0.140346   0.613205  -0.479179  -0.858189

                     36         37         38         39         40
                   -0.0000    -0.0000    -0.0000    -0.0000    -0.0000
                     A          A          A          A          A   
    1  F  1  S   -0.052918   0.084942  -0.123258  -0.216061   0.066090
    2  F  1  S   -0.107171   0.168484  -0.217076  -0.411994   0.124526
    3  F  1  S    0.253668  -0.467047   0.861988   1.165257  -0.397141
    4  F  1  X    0.120799   0.055179   0.186422  -0.184286  -0.081748
    5  F  1  Y    0.101922   0.112928   0.047643   0.029143   0.050561
    6  F  1  Z   -0.031580   0.006398   0.222602   0.016343   0.015885
    7  F  1  X    0.104717   0.232573  -0.464455   0.519204  -0.054277
    8  F  1  Y   -0.050133  -0.311655  -0.165959   0.129568  -0.067043
    9  F  1  Z    0.233575  -0.449456   0.526385   0.215201  -0.189334
   10  F  1 XX   -0.031379   0.056621   0.096399  -0.096460   0.040847
   11  F  1 YY   -0.009379  -0.007883  -0.030865   0.008340  -0.011585
   12  F  1 ZZ    0.040758  -0.048738  -0.065534   0.088119  -0.029262
   13  F  1 XY   -0.005948   0.014028  -0.088069  -0.435175   0.124696
   14  F  1 XZ   -0.207995  -0.137193  -0.076813   0.133784   0.527610
   15  F  1 YZ   -0.249761  -0.105353  -0.042956  -0.066025  -0.541177
   16  F  1  S   -0.040122  -0.035231   0.008093  -0.787963   0.106529
   17  F  1  X    0.071153   0.869690   0.484038  -0.534981  -0.008809
   18  F  1  Y    0.032756   0.444910   0.212615  -0.251990  -0.204337
   19  F  1  Z   -0.116924   0.176514   0.025843   0.269469  -0.052514
   20  F  1 XX   -0.016920   0.092329  -0.635384   0.089091  -0.036913
   21  F  1 YY   -0.020802   0.042642   0.116860  -0.177732   0.081043
   22  F  1 ZZ    0.037722  -0.134971   0.518524   0.088641  -0.044131
   23  F  1 XY    0.015535   0.010259  -0.276659   0.023316  -0.038862
   24  F  1 XZ   -0.073206   1.070958  -0.024382   0.116006  -0.422300
   25  F  1 YZ   -0.298096  -0.002228  -0.045039   0.164423   0.029690
   26  F  2  S    0.052066  -0.072071   0.134391   0.140645  -0.025786
   27  F  2  S    0.104035  -0.132024   0.206693   0.243115  -0.033190
   28  F  2  S   -0.253644   0.430584  -1.033013  -0.789620   0.204774
   29  F  2  X    0.144145  -0.181008   0.021085   0.085549   0.084820
   30  F  2  Y    0.061984  -0.154843  -0.049235   0.152850  -0.134684
   31  F  2  Z    0.006128   0.063182  -0.423506  -0.139229   0.037663
   32  F  2  X   -0.169349  -0.042767   0.056578  -0.301877   0.040152
   33  F  2  Y    0.093812   0.343455   0.157168  -0.419045   0.209707
   34  F  2  Z    0.166295  -0.486247   1.258968   0.451408  -0.227133
   35  F  2 XX   -0.005777   0.054964  -0.389756   0.147297  -0.056584
   36  F  2 YY    0.039167  -0.081177   0.391135  -0.172667   0.096309
   37  F  2 ZZ   -0.033391   0.026213  -0.001379   0.025370  -0.039726
   38  F  2 XY   -0.014712   0.028943   0.097702   0.318034  -0.081038
   39  F  2 XZ    0.106591  -0.246463   0.101213  -0.004320   0.550187
   40  F  2 YZ    0.214375  -0.193274   0.094726  -0.269557  -0.497091
   41  F  2  S    0.076349  -0.018377   0.253899   0.531085   0.000083
   42  F  2  X    0.017047  -1.004670  -0.207872   0.395223   0.015681
   43  F  2  Y   -0.049166  -0.467618  -0.220355   0.487685   0.094841
   44  F  2  Z   -0.001118   0.068452  -0.180984   0.021431  -0.018516
   45  F  2 XX    0.043142  -0.089954   0.311441  -0.006998  -0.001793
   46  F  2 YY    0.012836  -0.051168  -0.110246   0.234558  -0.137568
   47  F  2 ZZ   -0.055978   0.141122  -0.201195  -0.227560   0.139362
   48  F  2 XY   -0.054360   0.059356   0.313291  -0.005989   0.032043
   49  F  2 XZ    0.587528   1.068483  -0.214747   0.276082  -0.449845
   50  F  2 YZ    0.173717  -0.046878  -0.124459   0.283705   0.013049

                     41         42         43         44         45
                   -0.0000    -0.0000    -0.0000    -0.0000    -0.0000
                     A          A          A          A          A   
    1  F  1  S    0.160177  -0.203914   0.321990   0.213187  -0.114864
    2  F  1  S    0.305345  -0.498822   0.617773   0.382171  -0.283228
    3  F  1  S   -1.189276   0.515422  -1.989204  -1.198956   0.411256
    4  F  1  X   -0.195846  -0.074777   0.034443   0.102791   0.163789
    5  F  1  Y   -0.273122  -0.154877   0.102814   0.001603  -0.107500
    6  F  1  Z    0.146145  -0.073932   0.127573   0.054892   0.252231
    7  F  1  X    0.525336   0.232524   0.036317  -0.215155  -0.290146
    8  F  1  Y    0.620483   0.340825  -0.091113   0.062255   0.214798
    9  F  1  Z   -1.482828   0.940273  -1.482480  -1.177634  -0.896108
   10  F  1 XX    0.058998   0.329086  -0.108525   0.026003  -0.075289
   11  F  1 YY    0.022937  -0.604947   0.279526   0.019596  -0.223038
   12  F  1 ZZ   -0.081935   0.275861  -0.171000  -0.045599   0.298327
   13  F  1 XY    0.165182  -0.117368   0.440349  -0.253107   0.382206
   14  F  1 XZ   -0.000930  -0.059062  -0.060019   0.057541  -0.170270
   15  F  1 YZ    0.107767  -0.095832   0.053759   0.464655  -0.076100
   16  F  1  S   -2.572177   4.438351   2.075665  -1.258653  -0.745308
   17  F  1  X   -0.449593  -0.219076  -0.072070   0.178595   0.176248
   18  F  1  Y   -0.482322  -0.291849   0.042934   0.023823  -0.177284
   19  F  1  Z   -0.739305   1.679771   1.150444  -0.360348  -0.193461
   20  F  1 XX    0.135654  -0.588435   0.141145   0.295309   0.558214
   21  F  1 YY    0.283603   0.220248   0.181901   0.117070   0.196491
   22  F  1 ZZ   -0.419257   0.368187  -0.323046  -0.412379  -0.754704
   23  F  1 XY   -0.138746   0.078356  -0.537257  -0.140818  -0.344543
   24  F  1 XZ    0.154208   0.168559   0.182758  -0.075839   0.237227
   25  F  1 YZ    0.033694   0.158991   0.090410  -0.434247   0.078198
   26  F  2  S    0.073246   0.105375  -0.138977  -0.341208  -0.182492
   27  F  2  S    0.264612   0.151584  -0.172873  -0.734845  -0.334219
   28  F  2  S    0.316198  -0.779016   1.267097   1.451590   1.403646
   29  F  2  X   -0.067423   0.015047   0.121971   0.068652   0.198315
   30  F  2  Y   -0.148101  -0.075656   0.178832  -0.027889  -0.077731
   31  F  2  Z    0.102008   0.066334   0.219415   0.063841  -0.090570
   32  F  2  X   -0.025428  -0.135919  -0.321182  -0.075710  -0.431404
   33  F  2  Y    0.176431   0.041122  -0.385101   0.177995   0.096475
   34  F  2  Z   -1.469522   0.853479  -1.580255  -1.157905  -0.599982
   35  F  2 XX   -0.228919   0.128950   0.126880  -0.273994   0.001331
   36  F  2 YY    0.604387  -0.160106   0.042730  -0.057816  -0.133749
   37  F  2 ZZ   -0.375468   0.031156  -0.169610   0.331811   0.132418
   38  F  2 XY    0.056702  -0.396736  -0.307236  -0.463272   0.043543
   39  F  2 XZ   -0.178776  -0.032514  -0.023481  -0.025870   0.138681
   40  F  2 YZ   -0.096193   0.065657  -0.093683  -0.446510   0.055551
   41  F  2  S    2.865408  -3.915199  -1.875393   1.354912  -0.187447
   42  F  2  X    0.104852   0.144391   0.276189   0.044057   0.311331
   43  F  2  Y   -0.074763  -0.006760   0.322852  -0.086129  -0.065276
   44  F  2  Z   -0.758190   1.478538   1.025070  -0.398154   0.305652
   45  F  2 XX    0.014117   0.154670  -0.667934   0.101760   0.245223
   46  F  2 YY   -0.934182   0.150100  -0.026791  -0.356793  -0.138609
   47  F  2 ZZ    0.920066  -0.304771   0.694725   0.255033  -0.106614
   48  F  2 XY   -0.097664   0.358861   0.300921   0.088828   0.279487
   49  F  2 XZ    0.340095   0.149010   0.125331  -0.044762  -0.114438
   50  F  2 YZ    0.292417   0.078336   0.149018   0.338179   0.021655

                     46
                   -0.0000
                     A   
    1  F  1  S    0.131303
    2  F  1  S    0.136300
    3  F  1  S   -1.529158
    4  F  1  X    0.006954
    5  F  1  Y    0.040074
    6  F  1  Z    0.077652
    7  F  1  X    0.005828
    8  F  1  Y   -0.088057
    9  F  1  Z   -2.374810
   10  F  1 XX   -0.464313
   11  F  1 YY    0.249204
   12  F  1 ZZ    0.215109
   13  F  1 XY   -0.160048
   14  F  1 XZ   -0.059219
   15  F  1 YZ   -0.193683
   16  F  1  S   -6.003457
   17  F  1  X   -0.021477
   18  F  1  Y    0.032076
   19  F  1  Z   -1.947314
   20  F  1 XX    0.805434
   21  F  1 YY    0.248914
   22  F  1 ZZ   -1.054348
   23  F  1 XY    0.348482
   24  F  1 XZ    0.088267
   25  F  1 YZ    0.203641
   26  F  2  S   -0.183684
   27  F  2  S   -0.335446
   28  F  2  S    1.285978
   29  F  2  X    0.031616
   30  F  2  Y    0.061337
   31  F  2  Z    0.250332
   32  F  2  X   -0.095137
   33  F  2  Y   -0.172856
   34  F  2  Z   -2.504798
   35  F  2 XX   -0.158069
   36  F  2 YY    0.184751
   37  F  2 ZZ   -0.026683
   38  F  2 XY   -0.321233
   39  F  2 XZ    0.036702
   40  F  2 YZ    0.178576
   41  F  2  S    6.346401
   42  F  2  X    0.074831
   43  F  2  Y    0.112246
   44  F  2  Z   -2.141022
   45  F  2 XX   -0.511338
   46  F  2 YY   -0.597318
   47  F  2 ZZ    1.108656
   48  F  2 XY    0.493304
   49  F  2 XZ   -0.000359
   50  F  2 YZ   -0.131755
 ...... END OF UHF CALCULATION ......
 STEP CPU TIME =     1.04 TOTAL CPU TIME =        1.1 (    0.0 MIN)
 TOTAL WALL CLOCK TIME=        1.5 SECONDS, CPU UTILIZATION IS  74.68%

     ----------------------------------------------------------------
     PROPERTY VALUES FOR THE UHF   SELF-CONSISTENT FIELD WAVEFUNCTION
     ----------------------------------------------------------------

          -----------------
          ENERGY COMPONENTS
          -----------------

         WAVEFUNCTION NORMALIZATION =       1.0000000000

                ONE ELECTRON ENERGY =    -341.5933243352
                TWO ELECTRON ENERGY =     110.8602499258
           NUCLEAR REPULSION ENERGY =      32.0298180949
                                      ------------------
                       TOTAL ENERGY =    -198.7032563145

 ELECTRON-ELECTRON POTENTIAL ENERGY =     110.8602499258
  NUCLEUS-ELECTRON POTENTIAL ENERGY =    -540.2242661827
   NUCLEUS-NUCLEUS POTENTIAL ENERGY =      32.0298180949
                                      ------------------
             TOTAL POTENTIAL ENERGY =    -397.3341981619
               TOTAL KINETIC ENERGY =     198.6309418474
                 VIRIAL RATIO (V/T) =       2.0003640645

  ...... PI ENERGY ANALYSIS ......

 ENERGY ANALYSIS:
            FOCK ENERGY=   -119.8728248063
          BARE H ENERGY=   -341.5933243352
     ELECTRONIC ENERGY =   -230.7330745708
         KINETIC ENERGY=    198.6309418474
          N-N REPULSION=     32.0298180949
           TOTAL ENERGY=   -198.7032564758
        SIGMA PART(1+2)=   -181.6799883713
               (K,V1,2)=    171.5591138116   -420.9854907159     67.7463885331
           PI PART(1+2)=    -49.0530861995
               (K,V1,2)=     27.0718280358   -119.2387754667     43.1138612314
  SIGMA SKELETON, ERROR=   -149.6501702764      0.0000000000
             MIXED PART=-3.87746E-14 0.00000E+00 0.00000E+00-3.87746E-14
 ...... END OF PI ENERGY ANALYSIS ......

          ---------------------------------------
          MULLIKEN AND LOWDIN POPULATION ANALYSES
          ---------------------------------------

     ATOMIC MULLIKEN POPULATION IN EACH MOLECULAR ORBITAL
        ALPHA ORBITALS

                      1          2          3          4          5

                  1.000000   1.000000   1.000000   1.000000   1.000000

    1             0.001283   0.998731   0.473442   0.519824   0.487296
    2             0.998717   0.001269   0.526558   0.480176   0.512704

                      6          7          8          9

                  1.000000   1.000000   1.000000   1.000000

    1             0.487296   0.459540   0.512918   0.512918
    2             0.512704   0.540460   0.487082   0.487082

     ATOMIC MULLIKEN POPULATION IN EACH MOLECULAR ORBITAL
         BETA ORBITALS

                      1          2          3          4          5

                  1.000000   1.000000   1.000000   1.000000   1.000000

    1             0.998719   0.001267   0.526561   0.480174   0.512710
    2             0.001281   0.998733   0.473439   0.519826   0.487290

                      6          7          8          9

                  1.000000   1.000000   1.000000   1.000000

    1             0.512710   0.540460   0.487076   0.487076
    2             0.487290   0.459540   0.512924   0.512924

          MULLIKEN SPHERICAL HARMONIC POPULATIONS
       ATOM           S       P       D      F      G      H      I    TOTAL
    1 F             2.00    2.44    0.01   0.00   0.00   0.00   0.00    4.45
    2 F             2.00    2.54    0.01   0.00   0.00   0.00   0.00    4.55

          MULLIKEN SPHERICAL HARMONIC POPULATIONS
       ATOM           S       P       D      F      G      H      I    TOTAL
    1 F             2.00    2.54    0.01   0.00   0.00   0.00   0.00    4.55
    2 F             2.00    2.44    0.01   0.00   0.00   0.00   0.00    4.45

     ATOMIC SPIN POPULATION (ALPHA MINUS BETA)
       ATOM         MULL.POP.                    LOW.POP.
    1 F            -0.093534                    -0.077391
    2 F             0.093534                     0.077391


          ********* ALL ELECTRONS ********

               ----- POPULATIONS IN EACH AO -----
                             MULLIKEN      LOWDIN
              1  F  1  S      2.00252     1.87614
              2  F  1  S      0.93210     0.69212
              3  F  1  S      1.03123     0.43374
              4  F  1  X      1.28529     1.24204
              5  F  1  Y      1.28529     1.24204
              6  F  1  Z      0.63423     0.59157
              7  F  1  X      0.68856     0.65119
              8  F  1  Y      0.68856     0.65119
              9  F  1  Z      0.36073     0.45619
             10  F  1 XX      0.00568     0.19925
             11  F  1 YY      0.00000     0.19925
             12  F  1 ZZ      0.00000     0.19611
             13  F  1 XY      0.00120     0.00000
             14  F  1 XZ      0.00120     0.00076
             15  F  1 YZ      0.00000     0.00076
             16  F  1  S      0.03234     0.08326
             17  F  1  X      0.02109     0.05654
             18  F  1  Y      0.02109     0.05654
             19  F  1  Z     -0.00453     0.04498
             20  F  1 XX      0.00569     0.05958
             21  F  1 YY      0.00000     0.05958
             22  F  1 ZZ      0.00000     0.10824
             23  F  1 XY      0.00386     0.00000
             24  F  1 XZ      0.00386     0.04947
             25  F  1 YZ      0.00000     0.04947
             26  F  2  S      2.00252     1.87614
             27  F  2  S      0.93210     0.69212
             28  F  2  S      1.03123     0.43374
             29  F  2  X      1.28529     1.24204
             30  F  2  Y      1.28529     1.24204
             31  F  2  Z      0.63423     0.59157
             32  F  2  X      0.68856     0.65119
             33  F  2  Y      0.68856     0.65119
             34  F  2  Z      0.36073     0.45618
             35  F  2 XX      0.00568     0.19925
             36  F  2 YY      0.00000     0.19925
             37  F  2 ZZ      0.00000     0.19611
             38  F  2 XY      0.00120     0.00000
             39  F  2 XZ      0.00120     0.00076
             40  F  2 YZ      0.00000     0.00076
             41  F  2  S      0.03234     0.08326
             42  F  2  X      0.02109     0.05654
             43  F  2  Y      0.02109     0.05654
             44  F  2  Z     -0.00453     0.04498
             45  F  2 XX      0.00569     0.05958
             46  F  2 YY      0.00000     0.05958
             47  F  2 ZZ      0.00000     0.10824
             48  F  2 XY      0.00386     0.00000
             49  F  2 XZ      0.00386     0.04947
             50  F  2 YZ      0.00000     0.04947

          ----- MULLIKEN ATOMIC OVERLAP POPULATIONS -----
          (OFF-DIAGONAL ELEMENTS NEED TO BE MULTIPLIED BY 2)

             1           2

    1    9.1067619
    2   -0.1067614   9.1067608

          TOTAL MULLIKEN AND LOWDIN ATOMIC POPULATIONS
       ATOM         MULL.POP.    CHARGE          LOW.POP.     CHARGE
    1 F             9.000001   -0.000001         9.000001   -0.000001
    2 F             8.999999    0.000001         8.999999    0.000001

          MULLIKEN SPHERICAL HARMONIC POPULATIONS
       ATOM           S       P       D      F      G      H      I    TOTAL
    1 F             4.00    4.98    0.02   0.00   0.00   0.00   0.00    9.00
    2 F             4.00    4.98    0.02   0.00   0.00   0.00   0.00    9.00

          -------------------------------
          BOND ORDER AND VALENCE ANALYSIS     BOND ORDER THRESHOLD=0.050
          -------------------------------

                   BOND                       BOND                       BOND
  ATOM PAIR DIST  ORDER      ATOM PAIR DIST  ORDER      ATOM PAIR DIST  ORDER
    1   2  1.338  0.790

                       TOTAL       BONDED        FREE
      ATOM            VALENCE     VALENCE     VALENCE
    1 F                 0.800       0.790       0.010
    2 F                 0.800       0.790       0.010

          -----------------------------------------
          ATOMIC SPIN DENSITY AT THE NUCLEUS (A.U.)
          -----------------------------------------
                            SPIN DENS    ALPHA DENS     BETA DENS
    1  F            9.0     0.0153255     214.73366     214.71834
    2  F            9.0    -0.0153255     214.71834     214.73366

          ---------------------
          ELECTROSTATIC MOMENTS
          ---------------------

 POINT   1           X           Y           Z (BOHR)    CHARGE
                 0.000000    0.000000    0.000000       -0.00 (A.U.)
         DX          DY          DZ         /D/  (DEBYE)
     0.000000    0.000000    0.000004    0.000004
 ...... END OF PROPERTY EVALUATION ......
 STEP CPU TIME =     0.01 TOTAL CPU TIME =        1.2 (    0.0 MIN)
 TOTAL WALL CLOCK TIME=        1.5 SECONDS, CPU UTILIZATION IS  75.32%
               580000  WORDS OF DYNAMIC MEMORY USED
 EXECUTION OF GAMESS TERMINATED NORMALLY Tue Nov 29 03:47:16 2016
 DDI: 263640 bytes (0.3 MB / 0 MWords) used by master data server.

 ----------------------------------------
 CPU timing information for all processes
 ========================================
 0: 1.136 + 0.39 = 1.176
 ----------------------------------------
 ddikick.x: exited gracefully.
unset echo
----- accounting info -----
Files used on the master node compute-3-0 were:
-rw-rw-r-- 1 sarom sarom  112964 Nov 29  2016 .//f2-uhf.dat
-rw-rw-r-- 1 sarom sarom   76057 Nov 29  2016 .//f2-uhf.F05
-rw-rw-r-- 1 sarom sarom 2028640 Nov 29  2016 .//f2-uhf.F10
-rw-rw-r-- 1 sarom sarom   76057 Nov 28 17:27 .//f2-uhf.inp
-rw-rw-r-- 1 sarom sarom  142066 Nov 29  2016 .//f2-uhf.log
Tue Nov 29 03:47:21 CST 2016
0.201u 0.267s 0:06.33 7.2%	0+0k 0+280io 0pf+0w
