-catch_rsh /opt/gridengine/default/spool/compute-1-7/active_jobs/35708.1/pe_hostfile
compute-1-7
The primary node assigned by SGE to this run is compute-1-7
Warning: no access to tty (Bad file descriptor).
Thus no job control in this shell.
source /home/sarom/dir.git.branch.saromleang-travis-ci/install.info
setenv GMS_PATH /home/sarom/dir.git.branch.saromleang-travis-ci
setenv GMS_BUILD_DIR /home/sarom/dir.git.branch.saromleang-travis-ci
setenv GMS_TARGET linux64
setenv GMS_FORTRAN gfortran
setenv GMS_GFORTRAN_VERNO 4.4
setenv GMS_MATHLIB mkl-so
setenv GMS_MATHLIB none
setenv GMS_MATHLIB_PATH /share/apps/intel/compilers_and_libraries_2017.1.132/linux/mkl/lib/intel64
setenv GMS_MKL_VERNO 12
setenv GMS_DDI_COMM sockets
setenv GMS_LIBCCHEM false
setenv GMS_EIGEN_PATH
setenv GMS_PHI false
setenv GMS_SHMTYPE sysv
setenv GMS_OPENMP false
unset echo
cmirs-ch3conh2
/home/sarom/dir.git.branch.saromleang-travis-ci/tests/solvent/svpe
----- GAMESS execution script 'rungms' -----
This job is running on host compute-1-7.local
under operating system Linux at Wed Aug 9 19:53:26 CDT 2017
Available scratch disk space (Kbyte units) at beginning of the job is
Filesystem           1K-blocks      Used Available Use% Mounted on
/dev/sda1             16126920   8505684   6802036  56% /
GAMESS temporary binary files will be written to /scratch
GAMESS supplementary output files will be written to /home/sarom/restart
Copying input file cmirs-ch3conh2.inp to your run's scratch directory...
cp /home/sarom/dir.git.branch.saromleang-travis-ci/tests/solvent/svpe/cmirs-ch3conh2.inp /scratch/cmirs-ch3conh2.F05
unset echo
The generated host list is
compute-1-7.local
/home/sarom/dir.git.branch.saromleang-travis-ci/ddikick.x /home/sarom/dir.git.branch.saromleang-travis-ci/gamess.00.x cmirs-ch3conh2 -ddi 1 1 compute-1-7.local -scr /scratch

 Distributed Data Interface kickoff program.
 Initiating 1 compute processes on 1 nodes to run the following command:
 /home/sarom/dir.git.branch.saromleang-travis-ci/gamess.00.x cmirs-ch3conh2 

          ******************************************************
          *         GAMESS VERSION = 20 APR 2017 (R1)          *
          *             FROM IOWA STATE UNIVERSITY             *
          * M.W.SCHMIDT, K.K.BALDRIDGE, J.A.BOATZ, S.T.ELBERT, *
          *   M.S.GORDON, J.H.JENSEN, S.KOSEKI, N.MATSUNAGA,   *
          *          K.A.NGUYEN, S.J.SU, T.L.WINDUS,           *
          *       TOGETHER WITH M.DUPUIS, J.A.MONTGOMERY       *
          *         J.COMPUT.CHEM.  14, 1347-1363(1993)        *
          **************** 64 BIT LINUX VERSION ****************

  SINCE 1993, STUDENTS AND POSTDOCS WORKING AT IOWA STATE UNIVERSITY
  AND ALSO IN THEIR VARIOUS JOBS AFTER LEAVING ISU HAVE MADE IMPORTANT
  CONTRIBUTIONS TO THE CODE:
     IVANA ADAMOVIC, CHRISTINE AIKENS, YURI ALEXEEV, POOJA ARORA,
     ANDREY ASADCHEV, ROB BELL, PRADIPTA BANDYOPADHYAY, JONATHAN BENTZ,
     BRETT BODE, KURT BRORSEN, CALEB CARLIN, GALINA CHABAN, WEI CHEN,
     CHEOL HO CHOI, PAUL DAY, ALBERT DEFUSCO, NUWAN DESILVA, TIM DUDLEY,
     DMITRI FEDOROV, GRAHAM FLETCHER, MARK FREITAG, KURT GLAESEMANN,
     DAN KEMP, GRANT MERRILL, NORIYUKI MINEZAWA, JONATHAN MULLIN,
     TAKESHI NAGATA, SEAN NEDD, HEATHER NETZLOFF, BOSILJKA NJEGIC, RYAN OLSON,
     MIKE PAK, SPENCER PRUITT, LUKE ROSKOP, JIM SHOEMAKER, LYUDMILA SLIPCHENKO,
     TONY SMITH, SAROM SOK LEANG, JIE SONG, TETSUYA TAKETSUGU, SIMON WEBB,
     PENG XU, SOOHAENG YOO, FEDERICO ZAHARIEV

  ADDITIONAL CODE HAS BEEN PROVIDED BY COLLABORATORS IN OTHER GROUPS:
     IOWA STATE UNIVERSITY:
          JOE IVANIC, AARON WEST, LAIMUTIS BYTAUTAS, KLAUS RUEDENBERG
     UNIVERSITY OF TOKYO: KIMIHIKO HIRAO, TAKAHITO NAKAJIMA,
          TAKAO TSUNEDA, MUNEAKI KAMIYA, SUSUMU YANAGISAWA,
          KIYOSHI YAGI, MAHITO CHIBA, SEIKEN TOKURA, NAOAKI KAWAKAMI
     UNIVERSITY OF AARHUS: FRANK JENSEN
     UNIVERSITY OF IOWA: VISVALDAS KAIRYS, HUI LI
     NATIONAL INST. OF STANDARDS AND TECHNOLOGY: WALT STEVENS, DAVID GARMER
     UNIVERSITY OF PISA: BENEDETTA MENNUCCI, JACOPO TOMASI
     UNIVERSITY OF MEMPHIS: HENRY KURTZ, PRAKASHAN KORAMBATH
     UNIVERSITY OF ALBERTA: TOBY ZENG, MARIUSZ KLOBUKOWSKI
     UNIVERSITY OF NEW ENGLAND: MARK SPACKMAN
     MIE UNIVERSITY: HIROAKI UMEDA
     NAT. INST. OF ADVANCED INDUSTRIAL SCIENCE AND TECHNOLOGY: KAZUO KITAURA
     MICHIGAN STATE UNIVERSITY:
          KAROL KOWALSKI, MARTA WLOCH, JEFFREY GOUR, JESSE LUTZ,
          WEI LI, PIOTR PIECUCH
     UNIVERSITY OF SILESIA: MONIKA MUSIAL, STANISLAW KUCHARSKI
     FACULTES UNIVERSITAIRES NOTRE-DAME DE LA PAIX:
          OLIVIER QUINET, BENOIT CHAMPAGNE
     UNIVERSITY OF CALIFORNIA - SANTA BARBARA: BERNARD KIRTMAN
     INSTITUTE FOR MOLECULAR SCIENCE:
          KAZUYA ISHIMURA, MICHIO KATOUDA, AND SHIGERU NAGASE
     UNIVERSITY OF NOTRE DAME: ANNA POMOGAEVA, DAN CHIPMAN
     KYUSHU UNIVERSITY:
          HARUYUKI NAKANO,
          FENG LONG GU, JACEK KORCHOWIEC, MARCIN MAKOWSKI, AND YURIKO AOKI,
          HIROTOSHI MORI AND EISAKU MIYOSHI
     PENNSYLVANIA STATE UNIVERSITY:
          TZVETELIN IORDANOV, CHET SWALINA, JONATHAN SKONE,
          SHARON HAMMES-SCHIFFER
     WASEDA UNIVERSITY:
          MASATO KOBAYASHI, TOMOKO AKAMA, TSUGUKI TOUMA,
          TAKESHI YOSHIKAWA, YASUHIRO IKABATA, JUNJI SEINO,
          YUYA NAKAJIMA, HIROMI NAKAI
     NANJING UNIVERSITY: SHUHUA LI
     UNIVERSITY OF NEBRASKA:
          PEIFENG SU, DEJUN SI, NANDUN THELLAMUREGE, YALI WANG, HUI LI
     UNIVERSITY OF ZURICH: ROBERTO PEVERATI, KIM BALDRIDGE
     N. COPERNICUS UNIVERSITY AND JACKSON STATE UNIVERSITY:
          MARIA BARYSZ
     UNIVERSITY OF COPENHAGEN: Jimmy Kromann, CASPER STEINMANN
     TOKYO INSTITUTE OF TECHNOLOGY: HIROYA NAKATA
     NAGOYA UNIVERSITY: YOSHIO NISHIMOTO, STEPHAN IRLE
     MOSCOW STATE UNIVERSITY: VLADIMIR MIRONOV

 EXECUTION OF GAMESS BEGUN Wed Aug  9 19:53:26 2017

            ECHO OF THE FIRST FEW INPUT CARDS -
 INPUT CARD>!    acetamide...CH3(C=O)NH2... full CMIRS 1.0 model is used.                   
 INPUT CARD>!    Note that this runs the DFT code, using HF exchange/no correlation = RHF.  
 INPUT CARD>!    Test case provided by Dan Chipman in October 2013.                         
 INPUT CARD>!                                                                               
 INPUT CARD>!    FINAL R-HFX E= -208.0062076533, 15 iters, dipole= 5.160728 Debye           
 INPUT CARD>!                                                                               
 INPUT CARD>!         SS(V)PE results are                                                   
 INPUT CARD>!    EGAS = INTERNAL ENERGY OF SOLUTE IN GAS PHASE       -207.98897518          
 INPUT CARD>!    EINT = INTERNAL ENERGY OF SOLUTE IN SOLUTION        -207.98570938          
 INPUT CARD>!    DINT = EINT-EGAS PORTION OF G OF SOLVATION             0.00326580          
 INPUT CARD>!    SS(V)PE  PORTION OF G OF SOLVATION=ERXNFIELD/2        -0.02049827          
 INPUT CARD>!    CAVITY SURFACE AREA                =     351.83295                         
 INPUT CARD>!    CAVITY VOLUME                      =     545.25819                         
 INPUT CARD>!    TOTAL SURFACE  POLARIZATION CHARGE =   -0.01036952                         
 INPUT CARD>!    CHARGE PENETRATION FROM GAUSS LAW  =   -0.15498916                         
 INPUT CARD>!                                                                               
 INPUT CARD>!         CMIRS1.0 results (SS(V)PE plus DEFESR corrections) are                
 INPUT CARD>!    EINT + SS(V)PE  + DEFESR G IN SOLUTION              -208.01351681          
 INPUT CARD>!    DINT + SS(V)PE  + DEFESR G OF SOLVATION               -0.02454163          
 INPUT CARD>!                                                                               
 INPUT CARD>!    This run takes 585 seconds on 2.66 GHz Cloverton (25 Oct 2013)             
 INPUT CARD>!                                                                               
 INPUT CARD> $contrl scftyp=rhf dfttyp=hfx  runtyp=energy $end                              
 INPUT CARD> $system mwords=6 $end                                                          
 INPUT CARD> $basis  gbasis=n31  ngauss=6  ndfunc=1  npfunc=1  $end                         
 INPUT CARD> $guess  guess=moread  norb=16  $end                                            
 INPUT CARD> $scf    nconv=8  $end                                                          
 INPUT CARD> $dft    method=grid nrad=96 nleb=1202 nrad0=96 nleb0=1202 $end                 
 INPUT CARD> $svp   nvlpl=0 rhoiso=0.001 dielst=78.304 nptleb=1202 idef=1                   
 INPUT CARD>        egas=-207.9889751769 $end                                               
 INPUT CARD> $data                                                                          
 INPUT CARD>CH3CONH2 cgz geometry RHF/6-31G(d,p)                                            
 INPUT CARD>C1                                                                              
 INPUT CARD>C          6.0         1.361261   -0.309588   -0.000262                         
 INPUT CARD>C          6.0        -0.079357    0.152773   -0.005665                         
 INPUT CARD>H          1.0         1.602076   -0.751515    0.962042                         
 INPUT CARD>H          1.0         1.537200   -1.056768   -0.767127                         
 INPUT CARD>H          1.0         2.002415    0.542830   -0.168045                         
 INPUT CARD>O          8.0        -0.387955    1.310027    0.002284                         
 INPUT CARD>N          7.0        -1.002151   -0.840834   -0.011928                         
 INPUT CARD>H          1.0        -1.961646   -0.589397    0.038911                         
 INPUT CARD>H          1.0        -0.752774   -1.798630    0.035006                         
 INPUT CARD> $end                                                                           
 INPUT CARD>gas phase vectors, E(RHF)=     -207.9889751769                                  
 INPUT CARD> $VEC                                                                           
 INPUT CARD> 1  1 1.18951669E-06 1.74015995E-05 1.63457408E-05-1.97532149E-05-1.11068342E-06
 INPUT CARD> 1  2-2.46070142E-04 2.04100332E-04 2.77801792E-05-7.83849447E-06 1.50517436E-05
 INPUT CARD> 1  3-3.49464473E-05-1.85244606E-05 6.20521678E-05-2.74096373E-07-1.12393968E-07
 INPUT CARD> 1  4-6.74591137E-06 4.16509953E-04 2.82679633E-05-1.50027050E-04-1.55624494E-06
 INPUT CARD> 1  5-3.89245485E-04 3.89812684E-04-7.59634693E-04-3.46296083E-07-6.92552154E-05
    6000000 WORDS OF MEMORY AVAILABLE

     BASIS OPTIONS
     -------------
     GBASIS=N31          IGAUSS=       6      POLAR=POPN31  
     NDFUNC=       1     NFFUNC=       0     DIFFSP=       F
     NPFUNC=       1      DIFFS=       F     BASNAM=        


     RUN TITLE
     ---------
 CH3CONH2 cgz geometry RHF/6-31G(d,p)                                            

 THE POINT GROUP OF THE MOLECULE IS C1      
 THE ORDER OF THE PRINCIPAL AXIS IS     0

 ATOM      ATOMIC                      COORDINATES (BOHR)
           CHARGE         X                   Y                   Z
 C           6.0     2.5724102878       -0.5850364891       -0.0004951082
 C           6.0    -0.1499629852        0.2886991083       -0.0107052977
 H           1.0     3.0274846515       -1.4201574257        1.8179957687
 H           1.0     2.9048867883       -1.9970019526       -1.4496598278
 H           1.0     3.7840156637        1.0257999579       -0.3175590036
 O           8.0    -0.7331286456        2.4755920665        0.0043161342
 N           7.0    -1.8937907883       -1.5889458612       -0.0225406516
 H           1.0    -3.7069734249       -1.1137988280        0.0735311279
 H           1.0    -1.4225365907       -3.3989178533        0.0661517479

          INTERNUCLEAR DISTANCES (ANGS.)
          ------------------------------

                1 C          2 C          3 H          4 H          5 H     

   1 C       0.0000000    1.5130060 *  1.0859652 *  1.0850412 *  1.0797435 *
   2 C       1.5130060 *  0.0000000    2.1404230 *  2.1577929 *  2.1242143 *
   3 H       1.0859652 *  2.1404230 *  0.0000000    1.7571038 *  1.7642837 *
   4 H       1.0850412 *  2.1577929 *  1.7571038 *  0.0000000    1.7703214 *
   5 H       1.0797435 *  2.1242143 *  1.7642837 *  1.7703214 *  0.0000000  
   6 O       2.3838867 *  1.1977198 *  3.0218064    3.1464160    2.5162416 *
   7 N       2.4224109 *  1.3560394 *  2.7818328 *  2.6580550 *  3.3115428  
   8 H       3.3348971    2.0238120 *  3.6849108    3.6207812    4.1277777  
   9 H       2.5860460 *  2.0647320 *  2.7388253 *  2.5372736 *  3.6214267  

                6 O          7 N          8 H          9 H     

   1 C       2.3838867 *  2.4224109 *  3.3348971    2.5860460 *
   2 C       1.1977198 *  1.3560394 *  2.0238120 *  2.0647320 *
   3 H       3.0218064    2.7818328 *  3.6849108    2.7388253 *
   4 H       3.1464160    2.6580550 *  3.6207812    2.5372736 *
   5 H       2.5162416 *  3.3115428    4.1277777    3.6214267  
   6 O       0.0000000    2.2368821 *  2.4669123 *  3.1301617  
   7 N       2.2368821 *  0.0000000    0.9931948 *  0.9908405 *
   8 H       2.4669123 *  0.9931948 *  0.0000000    1.7098629 *
   9 H       3.1301617    0.9908405 *  1.7098629 *  0.0000000  

  * ... LESS THAN  3.000


     ATOMIC BASIS SET
     ----------------
 THE CONTRACTED PRIMITIVE FUNCTIONS HAVE BEEN UNNORMALIZED
 THE CONTRACTED BASIS FUNCTIONS ARE NOW NORMALIZED TO UNITY

  SHELL TYPE  PRIMITIVE        EXPONENT          CONTRACTION COEFFICIENT(S)

 C         

      1   S       1          3047.5248800    0.001834737132
      1   S       2           457.3695180    0.014037322813
      1   S       3           103.9486850    0.068842622264
      1   S       4            29.2101553    0.232184443216
      1   S       5             9.2866630    0.467941348435
      1   S       6             3.1639270    0.362311985337

      2   L       7             7.8682723   -0.119332419775    0.068999066591
      2   L       8             1.8812885   -0.160854151696    0.316423960957
      2   L       9             0.5442493    1.143456437840    0.744308290898

      3   L      10             0.1687145    1.000000000000    1.000000000000

      4   D      11             0.8000000    1.000000000000

 C         

      5   S      12          3047.5248800    0.001834737132
      5   S      13           457.3695180    0.014037322813
      5   S      14           103.9486850    0.068842622264
      5   S      15            29.2101553    0.232184443216
      5   S      16             9.2866630    0.467941348435
      5   S      17             3.1639270    0.362311985337

      6   L      18             7.8682723   -0.119332419775    0.068999066591
      6   L      19             1.8812885   -0.160854151696    0.316423960957
      6   L      20             0.5442493    1.143456437840    0.744308290898

      7   L      21             0.1687145    1.000000000000    1.000000000000

      8   D      22             0.8000000    1.000000000000

 H         

      9   S      23            18.7311370    0.033494604338
      9   S      24             2.8253944    0.234726953484
      9   S      25             0.6401217    0.813757326146

     10   S      26             0.1612778    1.000000000000

     11   P      27             1.1000000    1.000000000000

 H         

     12   S      28            18.7311370    0.033494604338
     12   S      29             2.8253944    0.234726953484
     12   S      30             0.6401217    0.813757326146

     13   S      31             0.1612778    1.000000000000

     14   P      32             1.1000000    1.000000000000

 H         

     15   S      33            18.7311370    0.033494604338
     15   S      34             2.8253944    0.234726953484
     15   S      35             0.6401217    0.813757326146

     16   S      36             0.1612778    1.000000000000

     17   P      37             1.1000000    1.000000000000

 O         

     18   S      38          5484.6716600    0.001831074430
     18   S      39           825.2349460    0.013950172200
     18   S      40           188.0469580    0.068445078098
     18   S      41            52.9645000    0.232714335992
     18   S      42            16.8975704    0.470192897984
     18   S      43             5.7996353    0.358520852987

     19   L      44            15.5396162   -0.110777549525    0.070874268231
     19   L      45             3.5999336   -0.148026262701    0.339752839147
     19   L      46             1.0137618    1.130767015354    0.727158577316

     20   L      47             0.2700058    1.000000000000    1.000000000000

     21   D      48             0.8000000    1.000000000000

 N         

     22   S      49          4173.5114600    0.001834772160
     22   S      50           627.4579110    0.013994627002
     22   S      51           142.9020930    0.068586551812
     22   S      52            40.2343293    0.232240873040
     22   S      53            12.8202129    0.469069948082
     22   S      54             4.3904370    0.360455199063

     23   L      55            11.6263619   -0.114961181702    0.067579743878
     23   L      56             2.7162798   -0.169117478561    0.323907295893
     23   L      57             0.7722184    1.145851947027    0.740895139755

     24   L      58             0.2120315    1.000000000000    1.000000000000

     25   D      59             0.8000000    1.000000000000

 H         

     26   S      60            18.7311370    0.033494604338
     26   S      61             2.8253944    0.234726953484
     26   S      62             0.6401217    0.813757326146

     27   S      63             0.1612778    1.000000000000

     28   P      64             1.1000000    1.000000000000

 H         

     29   S      65            18.7311370    0.033494604338
     29   S      66             2.8253944    0.234726953484
     29   S      67             0.6401217    0.813757326146

     30   S      68             0.1612778    1.000000000000

     31   P      69             1.1000000    1.000000000000

 TOTAL NUMBER OF BASIS SET SHELLS             =   31
 NUMBER OF CARTESIAN GAUSSIAN BASIS FUNCTIONS =   85
 NUMBER OF ELECTRONS                          =   32
 CHARGE OF MOLECULE                           =    0
 SPIN MULTIPLICITY                            =    1
 NUMBER OF OCCUPIED ORBITALS (ALPHA)          =   16
 NUMBER OF OCCUPIED ORBITALS (BETA )          =   16
 TOTAL NUMBER OF ATOMS                        =    9
 THE NUCLEAR REPULSION ENERGY IS      122.7774327068

     LEBEDEV GRID-BASED DFT OPTIONS
     ------------------------------
     DFTTYP=HFX     
     NRAD  =      96     NLEB  =    1202
     NRAD0 =      96     NLEB0 =    1202
     SWOFF =    5.00E-03 (PURE SCF -> DFT)
     SWITCH=    3.00E-04 (COARSE -> TIGHT GRID)
     THRESH=    0.00E+00 GTHRE=    1.00E+00

 GRIMME'S EMPIRICAL DISPERSION CORRECTION= F

     $CONTRL OPTIONS
     ---------------
 SCFTYP=RHF          RUNTYP=ENERGY       EXETYP=RUN     
 MPLEVL=       0     CITYP =NONE         CCTYP =NONE         VBTYP =NONE    
 DFTTYP=HFX          TDDFT =NONE    
 MULT  =       1     ICHARG=       0     NZVAR =       0     COORD =UNIQUE  
 PP    =NONE         RELWFN=NONE         LOCAL =NONE         NUMGRD=       F
 ISPHER=      -1     NOSYM =       0     MAXIT =      30     UNITS =ANGS    
 PLTORB=       F     MOLPLT=       F     AIMPAC=       F     FRIEND=        
 NPRINT=       7     IREST =       0     GEOM  =INPUT   
 NORMF =       0     NORMP =       0     ITOL  =      20     ICUT  =       9
 INTTYP=BEST         GRDTYP=BEST         QMTTOL= 1.0E-06

     $SYSTEM OPTIONS
     ---------------
  REPLICATED MEMORY=     6000000 WORDS (ON EVERY NODE).
 DISTRIBUTED MEMDDI=           0 MILLION WORDS IN AGGREGATE,
 MEMDDI DISTRIBUTED OVER   1 PROCESSORS IS           0 WORDS/PROCESSOR.
 TOTAL MEMORY REQUESTED ON EACH PROCESSOR=     6000000 WORDS.
 TIMLIM=      525600.00 MINUTES, OR     365.0 DAYS.
 PARALL= F  BALTYP=  DLB     KDIAG=    0  COREFL= F
 MXSEQ2=     300 MXSEQ3=     150  mem10=         0

          -------------
          -SVP- SOLVENT
          -------------

 ----- INPUT GROUP $SVP -----
 NVLPL =   0 ISHAPE=   0 ITRCAV=  99 NDRCAV=   0
 INTCAV=   0 NPTLEB=1202 NPTTHE=   8 NPTPHI=  16
 ITRNGR=   2 IROTGR=   2 IOPPRD=   0 IDEF  =   1
 LINEQ =   1 IRDRF =   0 IPNRF =   0 IVERT =   0
 RHOISO=    0.001000 TOLCAV=  0.1000D-09 RADSPH=    2.645617 TOLCHG=  0.1000D-05
 DIELST=   78.304000 DIELOP=    1.776000 CVGLIN=  0.1000D-06 CSDIAG=    1.104000
 ROTTHE=    0.000000 ROTPHI=    0.000000 ROTCHI=    0.000000
 TRANX =    0.000000 TRANY =    0.000000 TRANZ =    0.000000
 EGAS  = -207.988975
 RHOSLV=    0.0500        NGSLGR=  6             DISDMP= 7.0
 DISLIN=    0.108250D-01  EXCLIN=  0.455764D-01  FNNL  = 3.6
 FNLIN =   -0.944375D+03  FPLIN = -0.178174D+02  FPNL  = 3.6

          ----------------
          PROPERTIES INPUT
          ----------------

     MOMENTS            FIELD           POTENTIAL          DENSITY
 IEMOM =       1   IEFLD =       0   IEPOT =       0   IEDEN =       0
 WHERE =COMASS     WHERE =NUCLEI     WHERE =NUCLEI     WHERE =NUCLEI  
 OUTPUT=BOTH       OUTPUT=BOTH       OUTPUT=BOTH       OUTPUT=BOTH    
 IEMINT=       0   IEFINT=       0                     IEDINT=       0
                                                       MORB  =       0
          EXTRAPOLATION IN EFFECT
          DIIS IN EFFECT
 ORBITAL PRINTING OPTION: NPREO=     1    85     2     1

     -------------------------------
     INTEGRAL TRANSFORMATION OPTIONS
     -------------------------------
     NWORD  =            0
     CUTOFF = 1.0E-09     MPTRAN =       0
     DIRTRF =       F     AOINTS =DUP     

          ----------------------
          INTEGRAL INPUT OPTIONS
          ----------------------
 NOPK  =       1 NORDER=       0 SCHWRZ=       T

     ------------------------------------------
     THE POINT GROUP IS C1 , NAXIS= 0, ORDER= 1
     ------------------------------------------

     DIMENSIONS OF THE SYMMETRY SUBSPACES ARE
 A   =   85

 ..... DONE SETTING UP THE RUN .....
 STEP CPU TIME =     0.09 TOTAL CPU TIME =        0.1 (    0.0 MIN)
 TOTAL WALL CLOCK TIME=        0.1 SECONDS, CPU UTILIZATION IS  90.00%

          ********************
          1 ELECTRON INTEGRALS
          ********************
 ...... END OF ONE-ELECTRON INTEGRALS ......
 STEP CPU TIME =     0.00 TOTAL CPU TIME =        0.1 (    0.0 MIN)
 TOTAL WALL CLOCK TIME=        0.1 SECONDS, CPU UTILIZATION IS  90.00%

          -------------
          GUESS OPTIONS
          -------------
          GUESS =MOREAD            NORB  =      16          NORDER=       0
          MIX   =       F          PRTMO =       F          PUNMO =       F
          TOLZ  = 1.0E-08          TOLE  = 1.0E-05
          SYMDEN=       F          PURIFY=       F

 INITIAL GUESS ORBITALS GENERATED BY MOREAD   ROUTINE.

 SYMMETRIES FOR INITIAL GUESS ORBITALS FOLLOW.   BOTH SET(S).
    16 ORBITALS ARE OCCUPIED (    4 CORE ORBITALS).
     1=A        2=A        3=A        4=A        5=A        6=A        7=A   
     8=A        9=A       10=A       11=A       12=A       13=A       14=A   
    15=A       16=A       17=A       18=A       19=A       20=A       21=A   
    22=A       23=A       24=A       25=A       26=A       27=A       28=A   
    29=A       30=A       31=A       32=A       33=A       34=A       35=A   
    36=A       37=A       38=A       39=A       40=A       41=A       42=A   
    43=A       44=A       45=A       46=A       47=A       48=A       49=A   
    50=A       51=A       52=A       53=A       54=A       55=A       56=A   
    57=A       58=A       59=A       60=A       61=A       62=A       63=A   
    64=A       65=A       66=A       67=A       68=A       69=A       70=A   
    71=A       72=A       73=A       74=A       75=A       76=A       77=A   
    78=A       79=A       80=A       81=A       82=A       83=A       84=A   
    85=A   
 ...... END OF INITIAL ORBITAL SELECTION ......
 STEP CPU TIME =     0.01 TOTAL CPU TIME =        0.1 (    0.0 MIN)
 TOTAL WALL CLOCK TIME=        0.1 SECONDS, CPU UTILIZATION IS  90.91%

                    ----------------------
                    AO INTEGRAL TECHNOLOGY
                    ----------------------
     S,P,L SHELL ROTATED AXIS INTEGRALS, REPROGRAMMED BY
        KAZUYA ISHIMURA (IMS) AND JOSE SIERRA (SYNSTAR).
     S,P,D,L SHELL ROTATED AXIS INTEGRALS PROGRAMMED BY
        KAZUYA ISHIMURA (INSTITUTE FOR MOLECULAR SCIENCE).
     S,P,D,F,G SHELL TO TOTAL QUARTET ANGULAR MOMENTUM SUM 5,
        ERIC PROGRAM BY GRAHAM FLETCHER (ELORET AND NASA ADVANCED
        SUPERCOMPUTING DIVISION, AMES RESEARCH CENTER).
     S,P,D,F,G,L SHELL GENERAL RYS QUADRATURE PROGRAMMED BY
        MICHEL DUPUIS (PACIFIC NORTHWEST NATIONAL LABORATORY).

          --------------------
          2 ELECTRON INTEGRALS
          --------------------

 THE -PK- OPTION IS OFF, THE INTEGRALS ARE NOT IN SUPERMATRIX FORM.
 STORING   15000 INTEGRALS/RECORD ON DISK, USING 12 BYTES/INTEGRAL.
 TWO ELECTRON INTEGRAL EVALUATION REQUIRES   90892 WORDS OF MEMORY.
 SCHWARZ INEQUALITY OVERHEAD:      3652 INTEGRALS, T=        0.00
 II,JST,KST,LST =  1  1  1  1 NREC =         1 INTLOC =    1
 II,JST,KST,LST =  2  1  1  1 NREC =         1 INTLOC =    2
 II,JST,KST,LST =  3  1  1  1 NREC =         1 INTLOC =   34
 II,JST,KST,LST =  4  1  1  1 NREC =         1 INTLOC =  214
 II,JST,KST,LST =  5  1  1  1 NREC =         1 INTLOC = 1189
 II,JST,KST,LST =  6  1  1  1 NREC =         1 INTLOC = 3193
 II,JST,KST,LST =  7  1  1  1 NREC =         2 INTLOC =  917
 II,JST,KST,LST =  8  1  1  1 NREC =         3 INTLOC = 8141
 II,JST,KST,LST =  9  1  1  1 NREC =         7 INTLOC = 6011
 II,JST,KST,LST = 10  1  1  1 NREC =         8 INTLOC = 5920
 II,JST,KST,LST = 11  1  1  1 NREC =         9 INTLOC = 7320
 II,JST,KST,LST = 12  1  1  1 NREC =        13 INTLOC = 6263
 II,JST,KST,LST = 13  1  1  1 NREC =        14 INTLOC =14597
 II,JST,KST,LST = 14  1  1  1 NREC =        16 INTLOC = 9938
 II,JST,KST,LST = 15  1  1  1 NREC =        22 INTLOC = 8829
 II,JST,KST,LST = 16  1  1  1 NREC =        24 INTLOC =13279
 II,JST,KST,LST = 17  1  1  1 NREC =        27 INTLOC = 5330
 II,JST,KST,LST = 18  1  1  1 NREC =        35 INTLOC =12664
 II,JST,KST,LST = 19  1  1  1 NREC =        37 INTLOC =13690
 II,JST,KST,LST = 20  1  1  1 NREC =        51 INTLOC =10977
 II,JST,KST,LST = 21  1  1  1 NREC =        70 INTLOC = 8023
 II,JST,KST,LST = 22  1  1  1 NREC =       106 INTLOC = 8417
 II,JST,KST,LST = 23  1  1  1 NREC =       111 INTLOC = 2417
 II,JST,KST,LST = 24  1  1  1 NREC =       141 INTLOC = 7353
 II,JST,KST,LST = 25  1  1  1 NREC =       181 INTLOC = 1040
 II,JST,KST,LST = 26  1  1  1 NREC =       249 INTLOC =12288
 II,JST,KST,LST = 27  1  1  1 NREC =       260 INTLOC =12425
 II,JST,KST,LST = 28  1  1  1 NREC =       275 INTLOC = 5396
 II,JST,KST,LST = 29  1  1  1 NREC =       308 INTLOC =10971
 II,JST,KST,LST = 30  1  1  1 NREC =       323 INTLOC = 7251
 II,JST,KST,LST = 31  1  1  1 NREC =       340 INTLOC =13565
 SCHWARZ INEQUALITY TEST SKIPPED       15621 INTEGRAL BLOCKS.
 TOTAL NUMBER OF NONZERO TWO-ELECTRON INTEGRALS =             5772221
        385 INTEGRAL RECORDS WERE STORED ON DISK FILE  8.
  ...... END OF TWO-ELECTRON INTEGRALS .....
 STEP CPU TIME =     0.34 TOTAL CPU TIME =        0.4 (    0.0 MIN)
 TOTAL WALL CLOCK TIME=        0.5 SECONDS, CPU UTILIZATION IS  97.78%

          --------------------------
               R-HFX SCF CALCULATION
          --------------------------

     NUCLEAR ENERGY =       122.7774327068
     MAXIT =   30     NPUNCH=    2
     EXTRAP=T  DAMP=F  SHIFT=F  RSTRCT=F  DIIS=T  DEM=F  SOSCF=F
         DENSITY MATRIX CONVERGENCE THRESHOLD=  1.00E-08
     COARSE -> FINE DFT GRID SWITCH THRESHOLD=  3.00E-04 (SWITCH IN $DFT)
                   HF -> DFT SWITCH THRESHOLD=  0.00E+00 (SWOFF IN $DFT)
     MEMORY REQUIRED FOR RHF ITERS=   4120030 WORDS.

     EXCHANGE FUNCTIONAL   =HFX       
     CORRELATION FUNCTIONAL=NONE      
     DFT THRESHOLD         =.963E-09
 FOR AN EULER-MACLAURIN QUADRATURE USING  96 RADIAL POINTS:
 SMALLEST GAUSSIAN PRIMITIVE EXPONENT=        0.1612777588 OF TYPE -S-
 ON ATOM NUMBER   3 HAS RADIAL NORMALIZATION=  1.000000
  LARGEST GAUSSIAN PRIMITIVE EXPONENT=     5484.6716600000 OF TYPE -S-
 ON ATOM NUMBER   6 HAS RADIAL NORMALIZATION=  1.000000

 ITER EX DEM     TOTAL ENERGY        E CHANGE  DENSITY CHANGE    DIIS ERROR
          * * *   INITIATING DIIS PROCEDURE   * * *
   1  0  0     -208.0033762569  -208.0033762569   0.028831805   0.017885794
   2  1  0     -208.0056737919    -0.0022975350   0.009140572   0.007312020
   3  2  0     -208.0060326935    -0.0003589016   0.005288232   0.003976513
   4  3  0     -208.0061766431    -0.0001439496   0.001677947   0.000907420
   5  4  0     -208.0062043917    -0.0000277486   0.000873699   0.000416532
   6  5  0     -208.0062071485    -0.0000027567   0.000295345   0.000130221
   7  6  0     -208.0062078833    -0.0000007348   0.000076016   0.000026732
   8  7  0     -208.0062076747     0.0000002086   0.000012086   0.000006065
   9  8  0     -208.0062076672     0.0000000076   0.000003417   0.000002556
  10  9  0     -208.0062076704    -0.0000000032   0.000001099   0.000000369
  11 10  0     -208.0062076582     0.0000000121   0.000000248   0.000000058
  12 11  0     -208.0062076687    -0.0000000104   0.000000040   0.000000033
  13 12  0     -208.0062076657     0.0000000030   0.000000026   0.000000015
  14 13  0     -208.0062076657     0.0000000000   0.000000018   0.000000016
  15 14  0     -208.0062076587     0.0000000070   0.000000010   0.000000015

          --------------
          DIIS CONVERGED
          --------------
     TIME TO FORM FOCK OPERATORS=     120.7 SECONDS (       8.0 SEC/ITER)
     TIME TO SOLVE SCF EQUATIONS=       0.1 SECONDS (       0.0 SEC/ITER)

 FINAL R-HFX ENERGY IS     -208.0062076587 AFTER  15 ITERATIONS
 DFT EXCHANGE + CORRELATION ENERGY =         0.0000000000
 TOTAL ELECTRON NUMBER             =        31.9999994887

 SS(V)PE  (LONG-RANGE DIELECTRIC) SOLVATION ENERGY          (G = FREE ENERGY) AND
 DEFESR (DISPERSION,                  EXCHANGE AND FIELD-EXTREMUM SHORT-RANGE) SOLVATION                ENERGIES
 -------------------------------------------------------------------------------
                                                           AU           KCAL/MOL
 EGAS = INTERNAL ENERGY OF SOLUTE IN GAS PHASE       -207.98897518
 EINT = INTERNAL ENERGY OF SOLUTE IN SOLUTION        -207.98570938
 DINT = EINT-EGAS PORTION OF G OF SOLVATION             0.00326580       2.04932
        DUE TO POLARIZATION OF SOLUTE BY SS(V)PE 

 SS(V)PE  PORTION OF G OF SOLVATION=ERXNFIELD/2        -0.02049828     -12.86287

 DISPERSION ENERGY                                     -0.01472089      -9.23749
 EXCHANGE ENERGY                                        0.01853379      11.63013
 FIELD EXTREMUM (NEGATIVE FIELD) ENERGY                -0.01006030      -6.31293
 FIELD EXTREMUM (POSITIVE FIELD) ENERGY                -0.00106223      -0.66656
 NET DEFESR PORTION  OF G OF SOLVATION                 -0.00730962      -4.58685

 CMIRS1.0 (COMPOSITE METHOD FOR IMPLICIT REPRESENTATION OF SOLVENT) ENERGIES: 
 EINT + SS(V)PE  + DEFESR G IN SOLUTION              -208.01351728
 DINT + SS(V)PE  + DEFESR G OF SOLVATION               -0.02454210     -15.40040

 (N.B.- THESE SOLVATION RESULTS ONLY TREAT             ELECTRONIC ENERGIES, AND SO DO NOT
  INCLUDE ANY             POSSIBLE CHANGES IN VIBRATIONAL OR ROTATIONAL/                   LIBRATIONAL  FREE
  ENERGIES UPON SOLVATION,                  EXCEPT TO THE EXTENT THAT THESE MAY BE INHERENTLY
  INCLUDED IN SOME  OVERALL AVERAGE MANNER THROUGH            THE EMPIRICAL OPTIMIZATION
  OF VARIOUS FITTED               PARAMETERS THAT ARE USED)

 SS(V)PE  SOLVATION METHOD PROPERTIES
 ------------------------------------
 CONVERGENCE ON SURFACE CHARGES     =      0.669462D-08
 CAVITY SURFACE AREA                =     351.83295 (     98.52328 ANG**2 )
 CAVITY VOLUME                      =     545.25819 (     80.79895 ANG**3 )
 TOTAL SURFACE  POLARIZATION CHARGE =   -0.01036950
 CHARGE PENETRATION FROM GAUSS LAW  =   -0.15498916
 
 CAVITY TRANSLATED TO XYZ (AU)      =     -0.000000    0.000000    0.000000
                      XYZ (ANG)     =     -0.000000    0.000000    0.000000
 CAVITY   ROTATED  BY TPC (RAD)     =      0.000000    0.000000    0.000000
                      TPC (DEG)     =       0.00000     0.00000     0.00000
 
 SOLUTE/CAVITY PROXIMITY
 -----------------------
 IAT =     1 ICAV =     367 DIST =   3.5809 (   1.8950  ANG ) 
 IAT =     2 ICAV =     356 DIST =   3.3580 (   1.7770  ANG ) 
 IAT =     3 ICAV =    1183 DIST =   2.5268 (   1.3371  ANG ) 
 IAT =     4 ICAV =     227 DIST =   2.5345 (   1.3412  ANG ) 
 IAT =     5 ICAV =     725 DIST =   2.5290 (   1.3383  ANG ) 
 IAT =     6 ICAV =     366 DIST =   3.2556 (   1.7228  ANG ) 
 IAT =     7 ICAV =      16 DIST =   3.4639 (   1.8330  ANG ) 
 IAT =     8 ICAV =     344 DIST =   2.2227 (   1.1762  ANG ) 
 IAT =     9 ICAV =     456 DIST =   2.2017 (   1.1651  ANG ) 

          ------------
          EIGENVECTORS
          ------------

                      1          2          3          4          5
                  -20.5285   -15.5699   -11.3516   -11.2225    -1.3975
                     A          A          A          A          A   
    1  C  1  S    0.000001  -0.000014   0.002293   0.995737  -0.017650
    2  C  1  S    0.000020  -0.000064   0.000078   0.028678   0.034406
    3  C  1  X    0.000016   0.000037  -0.000010  -0.000180  -0.024652
    4  C  1  Y   -0.000019   0.000011  -0.000025  -0.000073   0.011968
    5  C  1  Z   -0.000001  -0.000005   0.000012   0.000046  -0.000006
    6  C  1  S   -0.000252   0.000353   0.004786  -0.015910  -0.001170
    7  C  1  X    0.000207  -0.000072  -0.002562   0.001233   0.007366
    8  C  1  Y    0.000035   0.000269   0.000296  -0.000453   0.005128
    9  C  1  Z   -0.000008   0.000029  -0.000134  -0.000104  -0.000014
   10  C  1 XX    0.000013  -0.000047  -0.000443  -0.001786   0.006277
   11  C  1 YY   -0.000034   0.000011  -0.000309  -0.001665   0.000416
   12  C  1 ZZ   -0.000017  -0.000043  -0.000194  -0.001629  -0.000705
   13  C  1 XY    0.000060  -0.000041   0.000122   0.000065  -0.004144
   14  C  1 XZ   -0.000000   0.000001   0.000001  -0.000002   0.000016
   15  C  1 YZ   -0.000000  -0.000000   0.000006   0.000003  -0.000061
   16  C  2  S   -0.000005   0.000020   0.995814  -0.002637  -0.124987
   17  C  2  S    0.000409   0.000201   0.026560   0.000036   0.241437
   18  C  2  X    0.000022  -0.000122  -0.000528   0.000069  -0.060535
   19  C  2  Y   -0.000131  -0.000155   0.000213  -0.000044   0.145880
   20  C  2  Z   -0.000001   0.000000  -0.000003   0.000003   0.001220
   21  C  2  S   -0.000429   0.001235  -0.007038   0.003086   0.063471
   22  C  2  X    0.000395  -0.001063  -0.003999   0.003037   0.023657
   23  C  2  Y   -0.000795  -0.001086   0.004302   0.000105  -0.027433
   24  C  2  Z   -0.000001   0.000011   0.000029  -0.000008   0.000031
   25  C  2 XX   -0.000067  -0.000111  -0.001439  -0.000581  -0.012157
   26  C  2 YY   -0.000815  -0.000151  -0.000614  -0.000301   0.027185
   27  C  2 ZZ   -0.000027  -0.000064  -0.002433  -0.000139  -0.020180
   28  C  2 XY    0.000227  -0.000043  -0.000077   0.000094  -0.010835
   29  C  2 XZ    0.000003  -0.000004   0.000004   0.000002  -0.000071
   30  C  2 YZ   -0.000006  -0.000002   0.000010  -0.000002   0.000327
   31  H  3  S    0.000019  -0.000006  -0.000175   0.000079   0.006437
   32  H  3  S   -0.000021  -0.000043   0.000385   0.002581   0.000488
   33  H  3  X    0.000005   0.000018  -0.000078  -0.000013  -0.000171
   34  H  3  Y   -0.000001  -0.000011   0.000066  -0.000065   0.000057
   35  H  3  Z   -0.000006  -0.000008  -0.000058   0.000200  -0.000545
   36  H  4  S    0.000018  -0.000005  -0.000181   0.000077   0.006268
   37  H  4  S   -0.000024   0.000018   0.000174   0.002458   0.000453
   38  H  4  X    0.000014   0.000021  -0.000070  -0.000029  -0.000048
   39  H  4  Y   -0.000001  -0.000008   0.000074  -0.000128   0.000165
   40  H  4  Z    0.000008   0.000007   0.000040  -0.000160   0.000482
   41  H  5  S    0.000001  -0.000027  -0.000081   0.000110   0.008461
   42  H  5  S   -0.000080  -0.000009   0.000208   0.002457  -0.000908
   43  H  5  X   -0.000004  -0.000023  -0.000027   0.000084  -0.001208
   44  H  5  Y    0.000022  -0.000003  -0.000061   0.000146  -0.000505
   45  H  5  Z   -0.000005  -0.000003   0.000025  -0.000022   0.000151
   46  O  6  S    0.994634  -0.000010  -0.000274  -0.000015  -0.184979
   47  O  6  S    0.021081  -0.000090   0.000913  -0.000136   0.399566
   48  O  6  X    0.000378  -0.000007   0.000048  -0.000019   0.032085
   49  O  6  Y   -0.001514   0.000016  -0.000342   0.000010  -0.131463
   50  O  6  Z   -0.000010   0.000001  -0.000002  -0.000006  -0.000830
   51  O  6  S    0.005054   0.000424  -0.005020   0.000241   0.380152
   52  O  6  X    0.000021   0.000333  -0.000034  -0.000367   0.008650
   53  O  6  Y   -0.000143  -0.000029   0.002284  -0.000302  -0.049034
   54  O  6  Z   -0.000003  -0.000008   0.000020   0.000022  -0.000371
   55  O  6 XX   -0.003995  -0.000004   0.000357  -0.000044  -0.002878
   56  O  6 YY   -0.003658  -0.000043   0.000154   0.000084   0.015777
   57  O  6 ZZ   -0.004209  -0.000093   0.000547  -0.000161  -0.003042
   58  O  6 XY   -0.000117  -0.000065  -0.000055   0.000017  -0.005156
   59  O  6 XZ   -0.000003  -0.000002   0.000002   0.000008  -0.000022
   60  O  6 YZ    0.000004   0.000002  -0.000006  -0.000001   0.000150
   61  N  7  S   -0.000003   0.994902  -0.000337  -0.000043  -0.047190
   62  N  7  S   -0.000021   0.025297   0.000115  -0.000300   0.098626
   63  N  7  X   -0.000010   0.000071  -0.000073  -0.000104   0.021711
   64  N  7  Y   -0.000023   0.000039   0.000055  -0.000021   0.036705
   65  N  7  Z    0.000000   0.000128  -0.000010  -0.000002   0.001275
   66  N  7  S   -0.000019  -0.002414   0.001454   0.001357   0.078162
   67  N  7  X   -0.000142  -0.000574   0.001213   0.000805   0.002406
   68  N  7  Y    0.000132  -0.000635  -0.001602   0.000632   0.019631
   69  N  7  Z    0.000001  -0.000072  -0.000007   0.000012   0.000467
   70  N  7 XX    0.000129  -0.003462  -0.000597   0.000007   0.001875
   71  N  7 YY   -0.000113  -0.003434  -0.000635   0.000028   0.006370
   72  N  7 ZZ   -0.000038  -0.003498   0.000027  -0.000210  -0.001960
   73  N  7 XY    0.000004  -0.000050  -0.000167   0.000055   0.006010
   74  N  7 XZ   -0.000003  -0.000005   0.000017   0.000011   0.000041
   75  N  7 YZ    0.000002  -0.000005  -0.000009  -0.000002   0.000111
   76  H  8  S   -0.000078   0.000193   0.000433   0.000018   0.023895
   77  H  8  S   -0.000072   0.000216   0.000445   0.000376   0.000663
   78  H  8  X   -0.000046  -0.000109   0.000263   0.000013   0.004108
   79  H  8  Y    0.000026   0.000058   0.000048  -0.000011  -0.000019
   80  H  8  Z    0.000005   0.000008  -0.000020  -0.000000  -0.000150
   81  H  9  S    0.000068   0.000155  -0.000161  -0.000122   0.019296
   82  H  9  S    0.000023   0.000224  -0.000675   0.000207   0.001283
   83  H  9  X   -0.000039   0.000073   0.000069  -0.000029  -0.000339
   84  H  9  Y    0.000018  -0.000122   0.000211  -0.000014   0.002413
   85  H  9  Z   -0.000003   0.000009   0.000000   0.000003  -0.000101

                      6          7          8          9         10
                   -1.2031    -0.9954    -0.7896    -0.7136    -0.6674
                     A          A          A          A          A   
    1  C  1  S   -0.020808  -0.179632   0.054477  -0.035917  -0.018460
    2  C  1  S    0.040635   0.335532  -0.097405   0.065691   0.030568
    3  C  1  X   -0.023580  -0.037985  -0.123625   0.134163   0.099663
    4  C  1  Y   -0.007403   0.010258   0.010050  -0.009554  -0.171763
    5  C  1  Z   -0.000023   0.001172  -0.001053   0.003844  -0.002354
    6  C  1  S    0.016596   0.318848  -0.152656   0.089994   0.070478
    7  C  1  X    0.001012  -0.009607  -0.016108   0.053703   0.018898
    8  C  1  Y   -0.008869   0.003365   0.005078   0.000800  -0.084958
    9  C  1  Z   -0.000501   0.000782  -0.002767   0.000379  -0.000478
   10  C  1 XX    0.003927   0.005250   0.012129  -0.009552  -0.011777
   11  C  1 YY   -0.001750  -0.001240  -0.004721   0.004215  -0.001084
   12  C  1 ZZ   -0.000417  -0.001651  -0.003325   0.004254   0.009523
   13  C  1 XY    0.000310  -0.002690  -0.005115   0.005543   0.005423
   14  C  1 XZ    0.000066   0.000002   0.000289  -0.000302   0.000842
   15  C  1 YZ    0.000194  -0.000039   0.000414  -0.000805   0.003383
   16  C  2  S   -0.046732  -0.058194  -0.117053   0.011817   0.054986
   17  C  2  S    0.096534   0.122913   0.258747  -0.023320  -0.124865
   18  C  2  X   -0.061769   0.171463  -0.106688  -0.149133  -0.183385
   19  C  2  Y   -0.191365  -0.068053  -0.126220   0.062950  -0.248364
   20  C  2  Z   -0.000308  -0.000028  -0.003091   0.001006  -0.005330
   21  C  2  S    0.020895   0.083722   0.184488  -0.043214  -0.092915
   22  C  2  X    0.025021   0.022638   0.024034  -0.033793  -0.079762
   23  C  2  Y    0.003792  -0.033679  -0.061714   0.002586   0.008367
   24  C  2  Z    0.000331   0.000400   0.000523   0.000661  -0.001063
   25  C  2 XX    0.013368   0.015185   0.003252   0.013193   0.005649
   26  C  2 YY   -0.002674  -0.006370   0.000779  -0.014793  -0.001685
   27  C  2 ZZ   -0.004399  -0.004268  -0.011473  -0.000123   0.005169
   28  C  2 XY    0.022790  -0.007787   0.009539  -0.000776   0.006694
   29  C  2 XZ    0.000024   0.000148   0.000402  -0.000073   0.000332
   30  C  2 YZ   -0.000200  -0.000015   0.000337  -0.000020   0.000222
   31  H  3  S    0.012023   0.117756  -0.060141   0.051640   0.069295
   32  H  3  S    0.001827   0.028241  -0.028643   0.027080   0.043478
   33  H  3  X   -0.000931  -0.003138  -0.000647   0.001380   0.000008
   34  H  3  Y    0.000541   0.004819  -0.002119   0.001673  -0.000040
   35  H  3  Z   -0.001009  -0.010181   0.004814  -0.003630  -0.004731
   36  H  4  S    0.013514   0.116900  -0.057535   0.043547   0.096275
   37  H  4  S    0.001590   0.028440  -0.029223   0.021026   0.060815
   38  H  4  X   -0.001018  -0.002321  -0.000873   0.001829  -0.000407
   39  H  4  Y    0.000970   0.007964  -0.003441   0.002517   0.002870
   40  H  4  Z    0.000886   0.008134  -0.003715   0.002672   0.005004
   41  H  5  S    0.005527   0.116256  -0.078870   0.070903  -0.027254
   42  H  5  S   -0.001465   0.028248  -0.048322   0.034477  -0.009174
   43  H  5  X    0.000043  -0.007339   0.002823  -0.001045   0.003496
   44  H  5  Y   -0.000695  -0.008951   0.005365  -0.004589  -0.001595
   45  H  5  Z    0.000113   0.001756  -0.001118   0.000881  -0.000185
   46  O  6  S    0.075866   0.035602   0.059611   0.022492  -0.067855
   47  O  6  S   -0.164447  -0.081202  -0.136222  -0.049195   0.154622
   48  O  6  X   -0.024320   0.046362  -0.020021  -0.090917  -0.268131
   49  O  6  Y    0.017326  -0.004002  -0.154323  -0.100160   0.278924
   50  O  6  Z    0.000289   0.000173  -0.002240   0.000168  -0.000512
   51  O  6  S   -0.171864  -0.082579  -0.179730  -0.082819   0.254407
   52  O  6  X   -0.014246   0.023292  -0.013666  -0.055714  -0.166065
   53  O  6  Y    0.002135  -0.006945  -0.094208  -0.056547   0.171204
   54  O  6  Z   -0.000007  -0.000279  -0.001815   0.000131  -0.000406
   55  O  6 XX   -0.001328   0.000652  -0.006108  -0.002987  -0.000617
   56  O  6 YY   -0.001426  -0.002395   0.011600   0.008609  -0.015970
   57  O  6 ZZ    0.001611  -0.000359  -0.002474  -0.001145   0.005448
   58  O  6 XY    0.003592  -0.004504   0.000525   0.003643   0.020285
   59  O  6 XZ    0.000034  -0.000037  -0.000046   0.000002   0.000019
   60  O  6 YZ   -0.000042   0.000002   0.000311   0.000036   0.000125
   61  N  7  S   -0.187897   0.047178   0.038143   0.000155  -0.000033
   62  N  7  S    0.383121  -0.095856  -0.076887   0.001996   0.001616
   63  N  7  X    0.032520   0.071109   0.238004  -0.283242   0.183227
   64  N  7  Y    0.021092   0.010663   0.272414   0.311356   0.107073
   65  N  7  Z    0.006314  -0.002807  -0.010828   0.001209  -0.009160
   66  N  7  S    0.412069  -0.134508  -0.122711  -0.005731  -0.002400
   67  N  7  X    0.022314   0.017138   0.103067  -0.172665   0.119707
   68  N  7  Y    0.019320   0.000550   0.140287   0.180804   0.046961
   69  N  7  Z    0.002728  -0.001560  -0.006003   0.000679  -0.006394
   70  N  7 XX    0.004636   0.002090   0.001307   0.009499  -0.002010
   71  N  7 YY    0.003120  -0.001611   0.000823  -0.009325   0.000084
   72  N  7 ZZ   -0.010241   0.002830   0.002529   0.000657   0.000512
   73  N  7 XY    0.004659   0.003028   0.019369   0.001225   0.007828
   74  N  7 XZ   -0.000114   0.000369   0.000964  -0.002084   0.000829
   75  N  7 YZ   -0.000150   0.000070   0.001157   0.002149   0.000164
   76  H  8  S    0.113671  -0.066357  -0.123477   0.199522  -0.086801
   77  H  8  S    0.006674  -0.014659  -0.046274   0.071030  -0.023748
   78  H  8  X    0.015755  -0.007338  -0.008595   0.015716  -0.004238
   79  H  8  Y   -0.004036   0.002276   0.008862   0.000677   0.005470
   80  H  8  Z   -0.000679   0.000452   0.000594  -0.001124   0.000244
   81  H  9  S    0.121243  -0.031224  -0.143748  -0.211244  -0.033039
   82  H  9  S    0.007843  -0.005110  -0.044106  -0.076499  -0.018136
   83  H  9  X   -0.003896   0.002484   0.008190   0.000303   0.004690
   84  H  9  Y    0.016861  -0.003686  -0.010346  -0.016076  -0.000555
   85  H  9  Z   -0.000698   0.000156   0.000577   0.001151  -0.000011

                     11         12         13         14         15
                   -0.6113    -0.5886    -0.5508    -0.5232    -0.4259
                     A          A          A          A          A   
    1  C  1  S    0.000760   0.005529  -0.000044   0.000538   0.025902
    2  C  1  S   -0.002063  -0.006570   0.001224  -0.000993  -0.049942
    3  C  1  X   -0.008355  -0.197634   0.222918  -0.005327   0.214449
    4  C  1  Y   -0.005567   0.151268   0.354152  -0.007240  -0.123106
    5  C  1  Z    0.297695  -0.001246   0.011562   0.317547   0.007609
    6  C  1  S   -0.001571  -0.021520   0.003602  -0.004118  -0.157466
    7  C  1  X   -0.003351  -0.094325   0.112679  -0.003574   0.124783
    8  C  1  Y   -0.002066   0.063164   0.191047  -0.006261  -0.080866
    9  C  1  Z    0.149508   0.000153   0.004998   0.179438   0.014152
   10  C  1 XX   -0.000795   0.018218   0.002010  -0.001369  -0.014294
   11  C  1 YY   -0.006931  -0.006055   0.010369  -0.008010   0.005688
   12  C  1 ZZ    0.007535  -0.011214  -0.012951   0.009333   0.007415
   13  C  1 XY   -0.002294  -0.002544   0.022283  -0.002832   0.003746
   14  C  1 XZ   -0.001782  -0.000338  -0.002831   0.009402   0.000446
   15  C  1 YZ   -0.013896  -0.002435  -0.011295  -0.020670   0.001571
   16  C  2  S   -0.000430  -0.003010   0.012018   0.000511   0.015607
   17  C  2  S   -0.000179   0.001245  -0.023051  -0.002339  -0.030286
   18  C  2  X    0.000167   0.239149  -0.128041   0.002109  -0.163680
   19  C  2  Y   -0.007365  -0.237410  -0.044873   0.006186   0.015977
   20  C  2  Z    0.255395  -0.004001  -0.000250  -0.190263   0.005184
   21  C  2  S    0.009164   0.080943  -0.055260   0.010329  -0.106136
   22  C  2  X   -0.001760   0.076382  -0.049394  -0.001263   0.022472
   23  C  2  Y   -0.004841  -0.013963   0.014004  -0.001568   0.051453
   24  C  2  Z    0.115186  -0.001430  -0.000106  -0.114762   0.002809
   25  C  2 XX    0.000040   0.021902   0.003051  -0.000584  -0.027016
   26  C  2 YY   -0.000554  -0.015165  -0.000778   0.000058   0.025689
   27  C  2 ZZ    0.000433   0.004299  -0.000274   0.000247  -0.001500
   28  C  2 XY   -0.000320   0.016358   0.018787  -0.000771   0.048388
   29  C  2 XZ   -0.003841   0.000163   0.000184   0.021482   0.001307
   30  C  2 YZ    0.006047  -0.000331  -0.000850  -0.017118   0.003934
   31  H  3  S    0.166615  -0.076131  -0.056716   0.200124   0.051010
   32  H  3  S    0.122075  -0.059893  -0.042039   0.168078   0.059448
   33  H  3  X   -0.003964  -0.001574   0.004093  -0.002963   0.003084
   34  H  3  Y    0.004853   0.000659   0.004052   0.005184  -0.000855
   35  H  3  Z   -0.005873   0.004790   0.003482  -0.006375  -0.003426
   36  H  4  S   -0.133045  -0.096369  -0.146209  -0.156905   0.060403
   37  H  4  S   -0.097808  -0.076401  -0.116472  -0.133481   0.078340
   38  H  4  X    0.002388  -0.001511   0.004889   0.001697   0.002748
   39  H  4  Y   -0.006600  -0.001671  -0.001222  -0.007055   0.000811
   40  H  4  Z   -0.002136  -0.004916  -0.006756  -0.002169   0.003392
   41  H  5  S   -0.036253  -0.002159   0.278130  -0.041426   0.001721
   42  H  5  S   -0.026911   0.014228   0.220290  -0.031259   0.048210
   43  H  5  X    0.001611  -0.003402  -0.007181   0.001249   0.001102
   44  H  5  Y    0.001790   0.002771  -0.009410   0.001971  -0.001007
   45  H  5  Z    0.004068  -0.000001   0.003047   0.004295   0.000334
   46  O  6  S   -0.000949  -0.034544  -0.000717   0.000008  -0.001542
   47  O  6  S    0.002855   0.076920   0.001984   0.001181   0.007665
   48  O  6  X   -0.006550   0.101205  -0.071317   0.001565   0.536096
   49  O  6  Y    0.002757   0.387129   0.029327  -0.000617   0.104532
   50  O  6  Z    0.262530  -0.000842  -0.001591  -0.312662   0.029254
   51  O  6  S    0.002516   0.157392   0.001997  -0.003612  -0.005571
   52  O  6  X   -0.004567   0.070835  -0.046375   0.000354   0.427744
   53  O  6  Y    0.002766   0.253169   0.019464   0.001534   0.087305
   54  O  6  Z    0.179498  -0.000658  -0.001553  -0.230842   0.025116
   55  O  6 XX    0.000284   0.010087  -0.001374   0.000417   0.008449
   56  O  6 YY    0.000144  -0.028174   0.000557   0.000210  -0.004918
   57  O  6 ZZ    0.000193   0.004798   0.000267   0.000770   0.000900
   58  O  6 XY    0.000329  -0.003262   0.006453  -0.000015  -0.018502
   59  O  6 XZ    0.006074  -0.000094  -0.000006  -0.005556   0.000492
   60  O  6 YZ   -0.022221  -0.000032   0.000032   0.022837  -0.001884
   61  N  7  S    0.002503  -0.005269  -0.014639  -0.001746  -0.031848
   62  N  7  S   -0.004580   0.009929   0.031310   0.005477   0.064334
   63  N  7  X    0.004761  -0.116660   0.161336  -0.005547   0.116037
   64  N  7  Y    0.001901   0.162944   0.012078  -0.007418   0.141255
   65  N  7  Z    0.192682  -0.002221  -0.002007  -0.199405  -0.038430
   66  N  7  S   -0.014409   0.027938   0.066422   0.000615   0.220283
   67  N  7  X   -0.000528  -0.068310   0.115261  -0.010208   0.093312
   68  N  7  Y   -0.000103   0.096734   0.003004  -0.006875   0.114288
   69  N  7  Z    0.135256  -0.001437  -0.000117  -0.146964  -0.032425
   70  N  7 XX    0.000020   0.013026  -0.008314   0.000611  -0.006015
   71  N  7 YY   -0.000211  -0.015543   0.004773   0.000760  -0.000118
   72  N  7 ZZ    0.001085  -0.000194  -0.000346  -0.000153  -0.000743
   73  N  7 XY    0.000010   0.000948   0.005167  -0.000334   0.005707
   74  N  7 XZ    0.007876  -0.001078   0.001108  -0.005018  -0.000045
   75  N  7 YZ    0.007631   0.001002  -0.000343  -0.007402   0.000275
   76  H  8  S    0.000675   0.105651  -0.087038  -0.001998  -0.032075
   77  H  8  S   -0.000856   0.059626  -0.047046  -0.003189  -0.066349
   78  H  8  X    0.000391   0.006808  -0.003837  -0.000705  -0.000509
   79  H  8  Y    0.000126  -0.000226   0.002611  -0.000022   0.000781
   80  H  8  Z    0.005462  -0.000609   0.000311  -0.006119  -0.001014
   81  H  9  S    0.002437  -0.122819   0.029980   0.000575  -0.046405
   82  H  9  S    0.000313  -0.071365   0.010975   0.000912  -0.035580
   83  H  9  X    0.000159  -0.000018   0.001430   0.000110   0.003919
   84  H  9  Y    0.000590  -0.007213   0.003555  -0.000331  -0.001629
   85  H  9  Z    0.005628   0.000530  -0.000218  -0.005685  -0.000921

                     16         17         18         19         20
                   -0.4092     0.2090     0.2419     0.2873     0.3167
                     A          A          A          A          A   
    1  C  1  S    0.002210  -0.000897  -0.093312  -0.078475   0.075593
    2  C  1  S   -0.003763   0.002961   0.067267   0.033382  -0.059539
    3  C  1  X    0.016634  -0.007394   0.063714   0.090521  -0.088204
    4  C  1  Y   -0.012688   0.004054  -0.041610  -0.132784  -0.161154
    5  C  1  Z   -0.019211   0.054459  -0.004772   0.028979  -0.056597
    6  C  1  S   -0.015639   0.003746   1.602253   1.642898  -1.357604
    7  C  1  X    0.006343  -0.026251   0.362760   0.177700  -0.277563
    8  C  1  Y   -0.028306   0.007916  -0.041649  -0.668204  -0.699215
    9  C  1  Z   -0.028982   0.377391  -0.015667   0.152502  -0.289569
   10  C  1 XX   -0.001024   0.001165  -0.005643   0.003551   0.010910
   11  C  1 YY    0.000777   0.004518  -0.007284  -0.004055  -0.001578
   12  C  1 ZZ    0.000252  -0.004814  -0.003742  -0.013563   0.001825
   13  C  1 XY    0.000427   0.001060  -0.009535   0.010477   0.004041
   14  C  1 XZ   -0.001477  -0.031330   0.000057   0.000558  -0.003240
   15  C  1 YZ   -0.000679   0.018802   0.001399  -0.002900  -0.000378
   16  C  2  S    0.000026   0.002099   0.012552   0.002952  -0.005655
   17  C  2  S    0.001295   0.000486   0.020994   0.061515  -0.016322
   18  C  2  X   -0.017043   0.002232   0.041635  -0.029810   0.082305
   19  C  2  Y   -0.003688  -0.000658   0.021607  -0.061752  -0.026455
   20  C  2  Z   -0.016151   0.462703   0.006965  -0.013583   0.042848
   21  C  2  S   -0.010704  -0.046546  -0.254985  -0.343698   0.348269
   22  C  2  X    0.009533  -0.002379  -0.005936  -0.063284   0.123145
   23  C  2  Y    0.015400  -0.011514  -0.191544   0.095221   0.068326
   24  C  2  Z   -0.021312   0.647492   0.003167  -0.043720   0.121613
   25  C  2 XX   -0.002075   0.001382   0.009705  -0.006874  -0.019953
   26  C  2 YY    0.002630   0.000744   0.000593   0.020637   0.026519
   27  C  2 ZZ   -0.000702  -0.001053  -0.001402  -0.001460  -0.003454
   28  C  2 XY    0.003876  -0.000025   0.006171  -0.010104  -0.015664
   29  C  2 XZ   -0.011991   0.018497  -0.000206   0.000560  -0.002237
   30  C  2 YZ   -0.045554  -0.016630  -0.000311   0.000268  -0.001521
   31  H  3  S   -0.006212  -0.104018   0.014924  -0.027139  -0.003092
   32  H  3  S    0.014471  -0.623612  -0.710616  -1.165363   0.562511
   33  H  3  X   -0.000756  -0.005165   0.003724   0.003015  -0.001298
   34  H  3  Y   -0.000009   0.001049  -0.000393  -0.004199  -0.000438
   35  H  3  Z   -0.000018   0.003839   0.001414   0.001229  -0.000556
   36  H  4  S    0.013146   0.086376   0.018405  -0.034864  -0.016551
   37  H  4  S   -0.018410   0.509814  -0.733385  -1.115425  -0.273062
   38  H  4  X    0.001631   0.003681   0.004829   0.000375   0.002042
   39  H  4  Y    0.000062   0.000295   0.000470  -0.004454  -0.000857
   40  H  4  Z    0.000187   0.002250  -0.001701   0.000275  -0.002269
   41  H  5  S    0.001926   0.019875  -0.030324   0.049578   0.013567
   42  H  5  S    0.017962   0.124514  -0.809970  -0.012304   1.457504
   43  H  5  X   -0.000407   0.000265   0.001872   0.002509  -0.000375
   44  H  5  Y   -0.000133  -0.000861   0.000583  -0.002393  -0.002969
   45  H  5  Z   -0.000415  -0.000101  -0.000765   0.000782  -0.001292
   46  O  6  S    0.000056  -0.000467  -0.019670  -0.008198  -0.004127
   47  O  6  S    0.001282  -0.002468   0.024754   0.016645   0.030489
   48  O  6  X    0.041254  -0.006038  -0.021599   0.082492  -0.033843
   49  O  6  Y    0.012001  -0.001415  -0.017875  -0.027533  -0.075616
   50  O  6  Z   -0.355169  -0.301483  -0.003811   0.010202  -0.016160
   51  O  6  S   -0.006586   0.019766   0.289141   0.066671  -0.092494
   52  O  6  X    0.031247  -0.003436   0.011177   0.091754  -0.060677
   53  O  6  Y    0.010767  -0.006388  -0.124409  -0.059365  -0.033572
   54  O  6  Z   -0.300494  -0.440998  -0.006474   0.017007  -0.045478
   55  O  6 XX    0.000810  -0.000492  -0.009498   0.000972   0.006831
   56  O  6 YY   -0.000228  -0.000774   0.006313  -0.000971  -0.001905
   57  O  6 ZZ    0.000697  -0.001781  -0.009091  -0.003305   0.007494
   58  O  6 XY   -0.001014   0.000170  -0.007629  -0.000329   0.001484
   59  O  6 XZ   -0.006362   0.005301   0.000165  -0.000165  -0.002318
   60  O  6 YZ    0.020085  -0.007044   0.000051   0.000112  -0.001253
   61  N  7  S    0.002202  -0.002644  -0.087879   0.063875  -0.027030
   62  N  7  S   -0.007022   0.004227   0.123175  -0.078113   0.016210
   63  N  7  X    0.018114  -0.006748  -0.041446   0.151868   0.065990
   64  N  7  Y    0.019173   0.001868  -0.100255  -0.009879  -0.197075
   65  N  7  Z    0.492978  -0.190232   0.008977  -0.009718  -0.028688
   66  N  7  S    0.007756   0.027453   1.241308  -0.900751   0.526487
   67  N  7  X    0.017670  -0.016760  -0.243993   0.576140   0.373056
   68  N  7  Y    0.021507   0.012807  -0.338747  -0.058482  -0.694687
   69  N  7  Z    0.448499  -0.351251   0.036251  -0.022717  -0.031123
   70  N  7 XX   -0.001025   0.000471  -0.015610   0.023115   0.003191
   71  N  7 YY   -0.000896  -0.000991  -0.011749   0.017939  -0.021886
   72  N  7 ZZ    0.001202  -0.001220  -0.023111   0.011779  -0.010793
   73  N  7 XY    0.000562  -0.000425  -0.002058   0.002140  -0.002482
   74  N  7 XZ    0.007488   0.020563   0.000026   0.001349   0.003997
   75  N  7 YZ    0.005016   0.019041  -0.000635  -0.001718   0.001177
   76  H  8  S    0.003605  -0.005125  -0.042097   0.051445   0.043305
   77  H  8  S   -0.003990  -0.027764  -0.809527   1.316411   0.600397
   78  H  8  X    0.001065  -0.000557  -0.002044   0.001255   0.003012
   79  H  8  Y   -0.000058   0.000209   0.000170  -0.000845  -0.003780
   80  H  8  Z    0.014516  -0.009070   0.000031  -0.000386  -0.001953
   81  H  9  S    0.002596  -0.007113  -0.023804   0.018927  -0.070499
   82  H  9  S    0.002322   0.006791  -1.059981   0.162223  -1.448940
   83  H  9  X    0.000356   0.000857  -0.001853   0.001213   0.004243
   84  H  9  Y    0.001133  -0.000024  -0.003073  -0.005607  -0.003010
   85  H  9  Z    0.015044  -0.010379   0.000311   0.000864  -0.001028

                     21         22         23         24         25
                    0.3257     0.3493     0.4132     0.4779     0.5651
                     A          A          A          A          A   
    1  C  1  S   -0.019695   0.019419   0.076166   0.008180   0.021869
    2  C  1  S    0.027216  -0.019532   0.025165   0.049669  -0.007764
    3  C  1  X   -0.153521  -0.030577   0.103481  -0.067681  -0.032350
    4  C  1  Y   -0.187237   0.011574  -0.074561   0.161531   0.115677
    5  C  1  Z    0.024858   0.330163   0.025483  -0.031578  -0.060379
    6  C  1  S    0.140801  -0.355484  -1.901952  -0.965435  -0.566533
    7  C  1  X   -0.691608  -0.071075   1.920104   0.509036   0.522647
    8  C  1  Y   -1.065879   0.073878  -0.610839   0.617270  -1.276375
    9  C  1  Z    0.140622   1.493074   0.092378  -0.057386  -0.026834
   10  C  1 XX   -0.003642   0.002366   0.032268   0.014800   0.010275
   11  C  1 YY    0.008230   0.001572  -0.010944   0.009185   0.020635
   12  C  1 ZZ   -0.003048  -0.000427  -0.007926  -0.007656  -0.019267
   13  C  1 XY    0.008409  -0.000968  -0.012637   0.022509  -0.044230
   14  C  1 XZ    0.000387   0.014231  -0.000526  -0.000469   0.002029
   15  C  1 YZ   -0.004303   0.000351  -0.001271  -0.006005   0.002120
   16  C  2  S    0.029804   0.005742  -0.127484   0.049559   0.053288
   17  C  2  S    0.003348   0.004635   0.147369   0.075676   0.065930
   18  C  2  X   -0.077851   0.039531   0.211340   0.058045   0.423864
   19  C  2  Y    0.007784   0.005347  -0.161948  -0.100530   0.177370
   20  C  2  Z   -0.021951  -0.191672  -0.003120   0.001701  -0.003211
   21  C  2  S   -0.835885  -0.166772   2.852764  -2.323250  -1.709656
   22  C  2  X    0.151832   0.079218   1.288561   1.351888   2.348683
   23  C  2  Y    0.121786   0.007068  -1.154813  -2.463411   2.371398
   24  C  2  Z   -0.070812  -0.616489  -0.025506   0.010665   0.036983
   25  C  2 XX    0.006545  -0.000091   0.009904   0.010364   0.025943
   26  C  2 YY   -0.003025   0.005527   0.000258  -0.017573   0.013348
   27  C  2 ZZ   -0.003121  -0.002459   0.008732  -0.009686  -0.016906
   28  C  2 XY   -0.016135  -0.001142  -0.004169   0.009325   0.007177
   29  C  2 XZ   -0.000057   0.008353   0.001541  -0.001047  -0.000997
   30  C  2 YZ   -0.000700   0.004303  -0.000536   0.000588   0.000926
   31  H  3  S   -0.014212  -0.007807  -0.064039  -0.018490  -0.084907
   32  H  3  S   -0.606805  -1.479326  -0.287320   0.394404  -0.115436
   33  H  3  X   -0.002344   0.006970   0.004124  -0.005348   0.017056
   34  H  3  Y   -0.005655  -0.000595  -0.002326  -0.002391  -0.009614
   35  H  3  Z    0.000800   0.004960   0.000234   0.003054   0.001885
   36  H  4  S   -0.028905   0.013610  -0.068365  -0.046815  -0.039078
   37  H  4  S   -0.784937   1.586227  -0.152699   0.396936  -0.488686
   38  H  4  X   -0.003188  -0.004723   0.006095  -0.012771   0.018679
   39  H  4  Y   -0.005789   0.000493  -0.001753   0.000483  -0.013788
   40  H  4  Z    0.000597   0.005246   0.000331  -0.003198   0.002504
   41  H  5  S    0.069031  -0.006589  -0.049840   0.090613  -0.055668
   42  H  5  S    1.538884   0.425111   0.098347  -0.446498   0.285820
   43  H  5  X   -0.007549  -0.000519   0.010456   0.010174  -0.023565
   44  H  5  Y   -0.003093   0.001493  -0.005016  -0.002284   0.002832
   45  H  5  Z    0.000538   0.008080  -0.000067  -0.000368   0.000440
   46  O  6  S   -0.013587  -0.003520  -0.002391  -0.123976   0.017975
   47  O  6  S    0.006757  -0.003416  -0.032397   0.057197  -0.005941
   48  O  6  X    0.001787  -0.029317  -0.051545   0.010571  -0.125494
   49  O  6  Y   -0.030482  -0.025154   0.069589  -0.088085  -0.051663
   50  O  6  Z    0.026671   0.097585   0.004744  -0.007909   0.000123
   51  O  6  S    0.240139   0.078540   0.294495   2.900289  -0.639857
   52  O  6  X    0.028908  -0.033972  -0.195815   0.164175  -0.639856
   53  O  6  Y   -0.126850  -0.054218   0.016425  -1.159696  -0.041580
   54  O  6  Z    0.034766   0.236921   0.007480  -0.017484  -0.006265
   55  O  6 XX   -0.009707  -0.001102  -0.020784  -0.067507   0.020192
   56  O  6 YY    0.004460  -0.003711  -0.008843   0.022117  -0.005036
   57  O  6 ZZ   -0.012827  -0.005512  -0.001727  -0.085798  -0.005752
   58  O  6 XY    0.006552  -0.000371  -0.000095  -0.022090   0.003835
   59  O  6 XZ   -0.000977   0.004624   0.000286   0.000332  -0.000790
   60  O  6 YZ    0.000153   0.003470  -0.000048   0.000860   0.000167
   61  N  7  S   -0.016226  -0.015984   0.039354  -0.011979  -0.085862
   62  N  7  S   -0.010518   0.015755  -0.041840   0.042545   0.072279
   63  N  7  X   -0.173275   0.023880  -0.121892   0.056963   0.135076
   64  N  7  Y    0.115213  -0.040846  -0.018477   0.082569   0.135728
   65  N  7  Z   -0.000582   0.127141   0.000917  -0.002001  -0.030479
   66  N  7  S    0.545650   0.301514  -0.773165  -0.075010   2.504407
   67  N  7  X   -0.496864   0.140817  -0.918981  -0.243904   1.398424
   68  N  7  Y    0.631699  -0.120365   0.036378   0.750980   1.628156
   69  N  7  Z    0.030342   0.223996   0.007440  -0.010749  -0.008975
   70  N  7 XX    0.007171   0.001751   0.016262   0.047753   0.007444
   71  N  7 YY   -0.004397  -0.006370  -0.009308  -0.012975  -0.011569
   72  N  7 ZZ   -0.017916  -0.005815   0.010850  -0.010559  -0.033209
   73  N  7 XY   -0.000709  -0.002734   0.014661   0.000480  -0.021644
   74  N  7 XZ   -0.000527  -0.013573  -0.001676  -0.003012   0.002545
   75  N  7 YZ   -0.000822  -0.010134   0.000126   0.003422   0.000056
   76  H  8  S   -0.007304   0.019040  -0.011836   0.094338   0.065240
   77  H  8  S   -1.140396   0.112305  -0.518153  -0.032400   0.381332
   78  H  8  X   -0.009648   0.000623  -0.010067  -0.018373   0.002457
   79  H  8  Y   -0.000119  -0.000857  -0.009457  -0.010706   0.010146
   80  H  8  Z   -0.000630   0.006938   0.000423   0.000635  -0.002337
   81  H  9  S    0.018507  -0.015553  -0.015755  -0.065991   0.072676
   82  H  9  S    0.772096  -0.432826   0.557199   0.457292   0.552162
   83  H  9  X    0.002312   0.003263  -0.009605   0.012834   0.009551
   84  H  9  Y    0.003878  -0.000199   0.004587   0.014270   0.008624
   85  H  9  Z    0.000819   0.004344   0.000133  -0.000898  -0.000968

                     26         27         28         29         30
                    0.7479     0.7502     0.8112     0.8283     0.8465
                     A          A          A          A          A   
    1  C  1  S   -0.007213   0.005691   0.020912  -0.001836   0.000002
    2  C  1  S    0.200064  -0.120660  -0.216518   0.067743  -0.024091
    3  C  1  X   -0.478208   0.299022   0.679584  -0.040443  -0.027676
    4  C  1  Y   -0.182383   0.079565  -0.322104   0.596687  -0.106454
    5  C  1  Z   -0.246785  -0.398541   0.002013  -0.078420  -0.550577
    6  C  1  S   -0.593240   0.385345  -0.405592  -0.162462   0.196507
    7  C  1  X    0.633738  -0.443094  -0.614585  -0.292265   0.008232
    8  C  1  Y    0.474791  -0.167758   0.237796  -1.732287   0.394479
    9  C  1  Z    0.484765   0.856262   0.005926   0.217923   1.542974
   10  C  1 XX   -0.018839   0.018203  -0.057469  -0.002232   0.014611
   11  C  1 YY    0.016873   0.019409  -0.012615   0.056384   0.011139
   12  C  1 ZZ    0.043946  -0.057470   0.007269  -0.033898  -0.023104
   13  C  1 XY   -0.027152   0.030655  -0.013718   0.027860   0.008149
   14  C  1 XZ    0.009610   0.001030   0.003701  -0.005745   0.017741
   15  C  1 YZ    0.048424   0.039900   0.012069  -0.022905   0.056901
   16  C  2  S    0.026768  -0.023840  -0.036268  -0.009951   0.000104
   17  C  2  S    0.364571  -0.159317   0.246720   0.527279  -0.061529
   18  C  2  X   -0.343037   0.159773  -0.225524  -0.512606   0.097731
   19  C  2  Y   -0.200467   0.067076  -0.221228  -0.307155  -0.000540
   20  C  2  Z   -0.364348  -0.636356   0.057135   0.134723   0.644407
   21  C  2  S   -0.552937   0.262079  -0.757179  -0.621025  -0.049993
   22  C  2  X    0.747070  -0.536743   1.364940   1.026284  -0.391158
   23  C  2  Y   -0.151900   0.043970   0.455461   1.884157  -0.322690
   24  C  2  Z    0.273112   0.463048  -0.071040  -0.243329  -1.302823
   25  C  2 XX    0.119950  -0.074630  -0.104798   0.045810  -0.005778
   26  C  2 YY    0.010821  -0.006050   0.019708   0.023693  -0.002234
   27  C  2 ZZ   -0.015399   0.016256   0.052123   0.023113  -0.003103
   28  C  2 XY    0.000505  -0.010051   0.040624  -0.071832  -0.001700
   29  C  2 XZ    0.014931   0.024908  -0.002078  -0.002669  -0.003437
   30  C  2 YZ    0.006457   0.006649   0.000820  -0.001073   0.001160
   31  H  3  S   -0.078184  -0.368493   0.141937  -0.138378  -0.278112
   32  H  3  S   -0.021280  -0.184829   0.015746  -0.177663  -0.275160
   33  H  3  X   -0.001437  -0.005279   0.009431   0.011415   0.038455
   34  H  3  Y    0.010994  -0.003798   0.008732  -0.036733  -0.006033
   35  H  3  Z    0.023313   0.015327  -0.010677   0.012039   0.030552
   36  H  4  S    0.321215   0.173530   0.187717  -0.162411   0.259998
   37  H  4  S    0.163002   0.127189  -0.026077  -0.244554   0.357933
   38  H  4  X    0.003563   0.001810   0.009246   0.010852  -0.033537
   39  H  4  Y    0.009180  -0.004668   0.010265  -0.040752   0.017797
   40  H  4  Z    0.003630   0.025460   0.009640  -0.001215   0.028987
   41  H  5  S   -0.255258   0.233251  -0.043570   0.324886   0.004729
   42  H  5  S    0.017582  -0.002018   0.073820   0.392567  -0.066303
   43  H  5  X   -0.003362   0.005136  -0.018161  -0.051571   0.006551
   44  H  5  Y    0.025249  -0.013278   0.000884  -0.004713   0.004694
   45  H  5  Z    0.009019   0.022354   0.002216   0.001298   0.029155
   46  O  6  S   -0.014455   0.007315  -0.000113   0.019373  -0.005988
   47  O  6  S   -0.008720  -0.013646  -0.031494  -0.022585  -0.016177
   48  O  6  X   -0.035778   0.009652  -0.265528   0.035918   0.003117
   49  O  6  Y    0.034928  -0.017050  -0.051157  -0.009334   0.001457
   50  O  6  Z   -0.031104  -0.045074   0.005861   0.030180   0.093539
   51  O  6  S    0.458557  -0.205662   0.170516  -0.764462   0.198597
   52  O  6  X   -0.036231   0.061486  -0.250343  -0.220763   0.099739
   53  O  6  Y   -0.210506   0.110684  -0.153042   0.213926  -0.060837
   54  O  6  Z    0.000632   0.004664   0.004074   0.025710   0.169779
   55  O  6 XX   -0.011197  -0.001843  -0.005289  -0.040913  -0.000156
   56  O  6 YY    0.013575  -0.014744  -0.004747   0.012390  -0.013236
   57  O  6 ZZ   -0.032487   0.013271  -0.004328   0.001727  -0.009694
   58  O  6 XY    0.027998  -0.014074  -0.008631   0.059698  -0.006925
   59  O  6 XZ    0.001068   0.000764   0.000964   0.003646   0.037881
   60  O  6 YZ    0.029062   0.050099  -0.004525  -0.010520  -0.042731
   61  N  7  S    0.012976  -0.003241   0.010495   0.024959  -0.001838
   62  N  7  S    0.113580  -0.087833   0.011575  -0.076104  -0.026654
   63  N  7  X    0.178488  -0.143602   0.057069  -0.143615  -0.013402
   64  N  7  Y    0.068666  -0.075282   0.074600  -0.160565  -0.007390
   65  N  7  Z   -0.055856  -0.105379   0.012237  -0.009698   0.318832
   66  N  7  S   -0.031107   0.005366   0.662527   1.204586  -0.200298
   67  N  7  X   -0.293045   0.156822  -0.034892   0.467886  -0.026844
   68  N  7  Y    0.052378  -0.119507   0.201753   0.143223  -0.069293
   69  N  7  Z    0.002106   0.024469   0.001122   0.059221  -0.040752
   70  N  7 XX    0.002483   0.002516   0.124048   0.079821  -0.021890
   71  N  7 YY    0.121471  -0.070712  -0.023292   0.082423  -0.020098
   72  N  7 ZZ   -0.008838  -0.001377  -0.022514  -0.084805   0.003417
   73  N  7 XY    0.043695  -0.011199   0.061050   0.075519  -0.007710
   74  N  7 XZ   -0.009416  -0.017563  -0.002597   0.005874   0.034865
   75  N  7 YZ   -0.023786  -0.036144   0.004997   0.001049   0.006886
   76  H  8  S   -0.164786   0.101548   0.177349   0.123207  -0.012088
   77  H  8  S    0.217596  -0.141952  -0.115955   0.153253  -0.012640
   78  H  8  X   -0.016768   0.009047  -0.049054  -0.028317   0.010339
   79  H  8  Y   -0.012233   0.001172  -0.031771  -0.033082   0.003240
   80  H  8  Z    0.000109  -0.000923   0.001033  -0.003250   0.003785
   81  H  9  S    0.130926  -0.096944  -0.177640   0.064114  -0.000675
   82  H  9  S    0.095566  -0.129345   0.300522  -0.293205  -0.018412
   83  H  9  X   -0.027601   0.011735  -0.003131  -0.011481  -0.001770
   84  H  9  Y   -0.036037   0.020575   0.002374  -0.019814   0.006038
   85  H  9  Z    0.003994   0.003961  -0.000475  -0.001296   0.017314

                     31         32         33         34         35
                    0.9410     0.9737     1.0000     1.0039     1.0849
                     A          A          A          A          A   
    1  C  1  S   -0.017269  -0.011384  -0.024764  -0.048960   0.001540
    2  C  1  S    0.190861  -0.014397  -0.051234  -0.044849   0.164466
    3  C  1  X   -0.141133  -0.066567  -0.119499  -0.246599  -0.111346
    4  C  1  Y    0.224277  -0.008684  -0.067639  -0.116450  -0.245497
    5  C  1  Z   -0.018016   0.020923  -0.012061  -0.000325  -0.182134
    6  C  1  S   -0.960774   0.622854  -0.159501  -0.434900   0.118919
    7  C  1  X    0.650827  -0.092392   0.701172   1.361856  -0.084426
    8  C  1  Y   -0.891638  -0.014698   0.186580  -0.003236   0.845686
    9  C  1  Z    0.117363  -0.089434   0.408112  -0.198678   0.310237
   10  C  1 XX   -0.083584   0.049818  -0.036684  -0.061799   0.079182
   11  C  1 YY    0.059880  -0.025838  -0.022251  -0.059626  -0.052088
   12  C  1 ZZ    0.003190  -0.027911  -0.004559   0.002119   0.009812
   13  C  1 XY    0.011267   0.029188   0.026687   0.060477   0.074021
   14  C  1 XZ   -0.005997   0.001868  -0.004181   0.005523   0.027889
   15  C  1 YZ   -0.004352  -0.009096   0.035486  -0.008724  -0.055371
   16  C  2  S    0.037970   0.063398  -0.014853  -0.018611   0.063878
   17  C  2  S   -0.511664  -0.632983  -0.466157  -0.756229   0.488802
   18  C  2  X   -0.267245   0.230125  -0.245589  -0.540421   0.069283
   19  C  2  Y    0.375798  -0.886343   0.050613   0.137500   0.142559
   20  C  2  Z    0.013053  -0.025049   0.293963  -0.144152   0.024975
   21  C  2  S    2.438846   0.228748   0.853649   1.624022  -0.118765
   22  C  2  X    0.857756  -0.612401   0.703840   1.650712  -0.832148
   23  C  2  Y   -0.013332   1.145166  -0.336103  -0.192001   0.022672
   24  C  2  Z   -0.076247   0.057969  -0.850954   0.442027  -0.103055
   25  C  2 XX    0.026857  -0.084917  -0.043906  -0.071867  -0.020550
   26  C  2 YY    0.056511   0.146589  -0.060959  -0.066105   0.314018
   27  C  2 ZZ   -0.062322  -0.094186  -0.005100  -0.023244  -0.072534
   28  C  2 XY    0.066502  -0.082002  -0.047144  -0.103827  -0.105248
   29  C  2 XZ   -0.000252  -0.004954   0.042911  -0.018341  -0.017165
   30  C  2 YZ   -0.004275  -0.000277   0.051123  -0.022692   0.016907
   31  H  3  S   -0.115410  -0.060465  -0.204028  -0.162769   0.134808
   32  H  3  S   -0.238838   0.062827  -0.166410  -0.154378  -0.014819
   33  H  3  X   -0.023693   0.012180  -0.000709  -0.023330   0.014849
   34  H  3  Y   -0.011598   0.001100   0.022071   0.025780   0.003795
   35  H  3  Z   -0.004960  -0.010418  -0.010871  -0.013136   0.015916
   36  H  4  S   -0.062452  -0.112269   0.020407  -0.279592  -0.188689
   37  H  4  S   -0.289588   0.054312   0.049731  -0.157754   0.781077
   38  H  4  X   -0.018585   0.016641  -0.014559  -0.020501  -0.013416
   39  H  4  Y   -0.015323   0.003157   0.011971   0.038063   0.048008
   40  H  4  Z    0.007915   0.008585   0.001811   0.014692   0.014355
   41  H  5  S    0.043909  -0.025695  -0.150661  -0.227476   0.095339
   42  H  5  S    0.218421  -0.211721  -0.319129  -0.561744  -0.436300
   43  H  5  X   -0.035077  -0.011466  -0.007738  -0.009834   0.043227
   44  H  5  Y   -0.001423   0.007456   0.005587   0.002101   0.006453
   45  H  5  Z    0.002289  -0.002424   0.018510  -0.005800  -0.011357
   46  O  6  S    0.019489  -0.042888  -0.002286   0.002549  -0.003252
   47  O  6  S    0.038286   0.202172   0.008944  -0.055015  -0.403512
   48  O  6  X   -0.087371   0.078649  -0.057977  -0.097063   0.200392
   49  O  6  Y   -0.139690  -0.289305  -0.006571  -0.090641  -0.571714
   50  O  6  Z    0.019406  -0.010778   0.093938  -0.076918  -0.044506
   51  O  6  S   -0.670473  -0.545712   0.088492   0.008087   0.370474
   52  O  6  X   -0.229956   0.155510   0.006973  -0.123032  -0.214754
   53  O  6  Y    0.486185  -0.346744  -0.050530   0.128044   1.083020
   54  O  6  Z    0.009708  -0.004289   0.060248  -0.011324   0.049534
   55  O  6 XX   -0.000769   0.075789  -0.007617  -0.046561  -0.162223
   56  O  6 YY   -0.005146  -0.170843   0.016834  -0.007084  -0.283134
   57  O  6 ZZ    0.033400   0.105804   0.014926   0.006729  -0.154868
   58  O  6 XY   -0.001865   0.079207   0.021249   0.047361   0.019878
   59  O  6 XZ   -0.000448  -0.000824  -0.004251   0.005953   0.003631
   60  O  6 YZ    0.000303  -0.001052  -0.032623   0.015751  -0.007859
   61  N  7  S   -0.058377  -0.010202   0.004658   0.013729   0.008768
   62  N  7  S    0.096850   0.012725  -0.079773  -0.146371   0.173177
   63  N  7  X    0.254906  -0.009938  -0.081485  -0.128361   0.035102
   64  N  7  Y    0.254670   0.019096  -0.091878  -0.117064   0.035283
   65  N  7  Z    0.015270   0.010309  -0.826259   0.410842  -0.103692
   66  N  7  S    0.159158   0.222467   0.021457   0.240793  -0.600397
   67  N  7  X   -0.615282   0.023383   0.154494   0.450906   0.025319
   68  N  7  Y   -0.686509  -0.255790   0.258476   0.533364  -0.248659
   69  N  7  Z    0.034468  -0.013896   1.137209  -0.594756   0.140392
   70  N  7 XX   -0.096134   0.051921   0.013200   0.043675   0.114271
   71  N  7 YY   -0.161242  -0.074907  -0.007599  -0.007493  -0.030186
   72  N  7 ZZ    0.121605   0.006361  -0.013956  -0.056416   0.002002
   73  N  7 XY    0.057866   0.048020  -0.017952  -0.043002  -0.023484
   74  N  7 XZ    0.005745  -0.000098  -0.027139   0.004416  -0.015523
   75  N  7 YZ    0.004633   0.004180  -0.034849   0.019959   0.005413
   76  H  8  S   -0.413244  -0.085193   0.156904   0.408715   0.229526
   77  H  8  S    0.058339  -0.152153  -0.029983   0.010600  -0.177651
   78  H  8  X    0.025122   0.011549  -0.014745  -0.022480  -0.024254
   79  H  8  Y   -0.052588   0.003582   0.001054   0.004590   0.001690
   80  H  8  Z    0.002324   0.000996  -0.007936   0.005260   0.003838
   81  H  9  S   -0.661668  -0.185794   0.034578   0.112029  -0.088716
   82  H  9  S    0.070011   0.127412   0.076509   0.179395   0.163003
   83  H  9  X   -0.019516  -0.034380   0.017816   0.044268  -0.004199
   84  H  9  Y    0.058889   0.014973   0.002145   0.006953   0.002763
   85  H  9  Z    0.003024  -0.002121  -0.002547  -0.000507  -0.005916

                     36         37         38         39         40
                    1.1200     1.1290     1.1573     1.1764     1.2063
                     A          A          A          A          A   
    1  C  1  S    0.001671  -0.002686  -0.010400  -0.021312   0.017946
    2  C  1  S    0.073037  -0.030106   0.435104   0.424356  -1.298616
    3  C  1  X   -0.035025  -0.048981   0.050638   0.329685  -0.341034
    4  C  1  Y   -0.047837  -0.571188  -0.203081   0.359658   0.150630
    5  C  1  Z    0.757265   0.036658   0.117248   0.040243   0.068639
    6  C  1  S   -0.108612  -0.010393  -1.011673  -0.561998   2.969526
    7  C  1  X    0.014896   0.202149  -0.034965  -0.565062   0.705066
    8  C  1  Y    0.140448   0.845080   0.355548  -0.259278  -0.077905
    9  C  1  Z   -1.317580  -0.080773  -0.267938  -0.114340  -0.183290
   10  C  1 XX    0.026353   0.074953   0.059467   0.053368  -0.123611
   11  C  1 YY    0.075260   0.061922   0.021544  -0.126188  -0.035577
   12  C  1 ZZ   -0.091403  -0.147498  -0.038326   0.089824   0.067245
   13  C  1 XY    0.047806   0.121413  -0.015074  -0.111718   0.043571
   14  C  1 XZ   -0.118645  -0.014355  -0.013314   0.030613   0.007225
   15  C  1 YZ    0.214466  -0.071937   0.010614   0.094091   0.052363
   16  C  2  S    0.020583  -0.005168  -0.017903   0.016469  -0.013984
   17  C  2  S    0.063931   0.199341   0.320250   0.250850   0.048916
   18  C  2  X    0.015570  -0.076847  -0.043074  -0.006968  -0.071200
   19  C  2  Y    0.021212  -0.024098  -0.008693  -0.044944  -0.029619
   20  C  2  Z    0.015447   0.017186  -0.004098  -0.009376  -0.004197
   21  C  2  S    0.230350  -1.177085  -1.626353  -1.097595  -0.868111
   22  C  2  X   -0.178851   0.655585   0.872180  -0.252012   0.367869
   23  C  2  Y    0.033202   0.526593   0.065124  -0.004225   0.149638
   24  C  2  Z    0.136313  -0.032430   0.061214   0.047258   0.047091
   25  C  2 XX   -0.006201   0.014492  -0.015414   0.042936  -0.071400
   26  C  2 YY    0.090223  -0.063623  -0.049784  -0.005305  -0.000183
   27  C  2 ZZ   -0.029798   0.020415   0.039732  -0.012311   0.036386
   28  C  2 XY   -0.014544  -0.029617  -0.063695  -0.067735  -0.035187
   29  C  2 XZ    0.089618  -0.003726   0.002720  -0.006294  -0.000865
   30  C  2 YZ   -0.019953  -0.002956  -0.007018   0.000882  -0.005488
   31  H  3  S   -0.665452  -0.258091  -0.208810  -0.082605   0.394372
   32  H  3  S    1.561905   0.494750   0.607331   0.218563  -0.931578
   33  H  3  X   -0.043075  -0.011897  -0.001004   0.032614   0.008176
   34  H  3  Y    0.070883  -0.024373   0.012589   0.063361   0.004925
   35  H  3  Z   -0.088770  -0.057543  -0.050999  -0.000941   0.085835
   36  H  4  S    0.520863  -0.391040  -0.101200   0.095045   0.514026
   37  H  4  S   -1.073596   0.696450   0.244530  -0.183366  -1.279793
   38  H  4  X    0.022622  -0.024179   0.006681   0.020019  -0.008530
[...]
   66  N  7  S    0.944162   0.543965   1.197043  -0.106149   1.964061
   67  N  7  X    0.052455   0.156430  -0.249037  -0.329815   0.090302
   68  N  7  Y    0.002482  -0.170411   0.035640   0.002478   0.024349
   69  N  7  Z    0.026442   0.001545   0.001243   0.025312   0.045952
   70  N  7 XX    0.096104   0.022253   0.219612   0.278623  -0.043712
   71  N  7 YY    0.132690   0.166262  -0.234753  -0.237367   0.004175
   72  N  7 ZZ   -0.432385  -0.281480  -0.467148  -0.036072  -0.605581
   73  N  7 XY    0.588662  -0.026572  -0.584465  -0.211376  -0.711989
   74  N  7 XZ   -0.028485  -0.003446  -0.056681  -0.023357   0.004909
   75  N  7 YZ   -0.022505  -0.026602  -0.033576   0.047305   0.010673
   76  H  8  S   -0.120741  -0.098368  -0.638531  -0.341353  -0.507630
   77  H  8  S   -0.197776  -0.030529  -0.374517  -0.185639  -0.285817
   78  H  8  X   -0.210689  -0.183994  -0.742436  -0.359486  -0.625651
   79  H  8  Y    0.379778   0.076627   0.039434   0.068993  -0.074939
   80  H  8  Z   -0.003868   0.014431   0.045994   0.011305   0.044184
   81  H  9  S   -0.140317  -0.349803  -0.231501   0.128965  -0.560308
   82  H  9  S   -0.237475  -0.199245  -0.194459  -0.004138  -0.321948
   83  H  9  X    0.405208   0.118960  -0.115866  -0.118170  -0.051296
   84  H  9  Y   -0.242236  -0.436259  -0.367415   0.051456  -0.651620
   85  H  9  Z    0.005138   0.019510   0.013900   0.011286   0.051026

                     81         82         83         84         85
                    4.0424     4.3763     4.5491     4.7472     5.0235
                     A          A          A          A          A   
    1  C  1  S    0.010019  -0.062283   0.069503  -0.314768  -0.374224
    2  C  1  S   -0.155434   0.524957  -0.183886   1.754450   2.038158
    3  C  1  X    0.218958  -0.089314   0.054580  -0.123969  -0.009298
    4  C  1  Y    0.165377   0.036122  -0.083467   0.041484  -0.005576
    5  C  1  Z   -0.042004   0.004150   0.019742  -0.008772   0.001909
    6  C  1  S    0.227837  -0.324980  -1.115274   0.991953   2.788350
    7  C  1  X   -0.020423   0.208068   0.526198   0.193085  -0.577900
    8  C  1  Y    0.079135  -0.365235   0.329815   0.361846  -0.040082
    9  C  1  Z   -0.022484  -0.009885  -0.038645   0.035698   0.003504
   10  C  1 XX    0.046700  -0.126213   0.047162  -1.126701  -1.601086
   11  C  1 YY    0.168548  -0.316085   0.212907  -1.312597  -1.600281
   12  C  1 ZZ   -0.068550  -0.328500   0.399018  -1.338186  -1.567726
   13  C  1 XY    0.445011   0.011214  -0.073399  -0.146818   0.025362
   14  C  1 XZ   -0.041098   0.002002   0.015143   0.003538   0.005061
   15  C  1 YZ   -0.057205  -0.024579   0.027242   0.018545  -0.006646
   16  C  2  S    0.025454  -0.251292   0.032741  -0.285929   0.306224
   17  C  2  S   -0.244545   1.826873  -0.828456   1.284584  -1.523363
   18  C  2  X   -0.014376  -0.061397  -0.131079   0.140565  -0.058519
   19  C  2  Y   -0.107129  -0.155768  -0.080186  -0.114893   0.114528
   20  C  2  Z   -0.002061  -0.003854  -0.001467  -0.001262   0.000852
   21  C  2  S    0.162480   0.040949  -2.070497  -0.196741  -0.682964
   22  C  2  X   -0.199155   1.151182   1.165557   0.063329  -1.049678
   23  C  2  Y   -0.005170   1.439479  -2.452083  -2.517997   1.403884
   24  C  2  Z    0.004062   0.015156  -0.009251  -0.015434   0.007399
   25  C  2 XX    0.688609  -0.964975   0.459623  -0.925091   1.408563
   26  C  2 YY   -0.555556  -1.143227   0.499239  -1.328759   1.431133
   27  C  2 ZZ    0.131039  -0.984991   0.258221  -0.895031   0.960398
   28  C  2 XY   -0.079438   0.142535   0.062546  -0.102673  -0.054904
   29  C  2 XZ    0.012053   0.010369   0.008657  -0.005587   0.003005
   30  C  2 YZ   -0.008301   0.007315  -0.001279  -0.008640   0.006088
   31  H  3  S    0.050122   0.088569  -0.062554   0.181348   0.135846
   32  H  3  S    0.019990  -0.103503   0.148240  -0.265659  -0.305191
   33  H  3  X    0.007650  -0.018357   0.012450   0.022670  -0.056678
   34  H  3  Y    0.028082   0.037164  -0.088009   0.033679   0.110027
   35  H  3  Z   -0.088297  -0.014200   0.063608  -0.194048  -0.205648
   36  H  4  S    0.048404   0.096584  -0.041254   0.180019   0.141857
   37  H  4  S    0.017175  -0.131715   0.111486  -0.196652  -0.314578
   38  H  4  X    0.032632  -0.024764   0.036203   0.047420  -0.049011
   39  H  4  Y    0.062706   0.057986  -0.123811   0.085566   0.183007
   40  H  4  Z    0.073291   0.014009  -0.019375   0.161788   0.165508
   41  H  5  S   -0.301015   0.057376   0.048051   0.188911   0.167726
   42  H  5  S   -0.102342  -0.036112  -0.107222  -0.315552  -0.241902
   43  H  5  X    0.171924   0.055817  -0.069391  -0.167663  -0.121817
   44  H  5  Y    0.306549  -0.024263   0.005947  -0.157528  -0.208994
   45  H  5  Z   -0.067077   0.010348   0.001130   0.018542   0.045278
   46  O  6  S    0.058594   0.183170  -0.475657  -0.277077   0.145410
   47  O  6  S    0.177257   0.282081  -0.561751  -0.391097   0.291777
   48  O  6  X    0.090370   0.104165  -0.069810   0.019086  -0.028376
   49  O  6  Y   -0.211354  -0.236483   0.279666  -0.056190   0.117289
   50  O  6  Z   -0.000589  -0.002392   0.003007   0.001731   0.001226
   51  O  6  S   -0.605212  -2.315775   6.599937   4.528566  -2.710032
   52  O  6  X    0.152041  -0.410858   0.327266   0.441985  -0.135923
   53  O  6  Y    0.148636   0.319384  -1.444997  -1.191017   0.926012
   54  O  6  Z    0.001594   0.000820  -0.010818  -0.012370   0.004592
   55  O  6 XX    0.254760   0.557357  -1.640160  -0.911458   0.476684
   56  O  6 YY    0.212383   0.651829  -1.390631  -0.559657   0.089749
   57  O  6 ZZ    0.211190   0.660657  -1.589824  -0.981668   0.592989
   58  O  6 XY   -0.298221   0.046181  -0.098368  -0.182478   0.090715
   59  O  6 XZ   -0.003541  -0.001765  -0.001181  -0.002758  -0.001527
   60  O  6 YZ   -0.004043   0.002038  -0.001138   0.002649  -0.003307
   61  N  7  S    0.023354  -0.383383  -0.209805   0.197186  -0.095553
   62  N  7  S   -0.045184   0.500570   0.470703  -0.070102   0.164416
   63  N  7  X   -0.492340   0.118267   0.093660   0.054767  -0.022035
   64  N  7  Y    0.578631   0.136539   0.143588   0.078745  -0.038283
   65  N  7  Z   -0.001055  -0.022493  -0.029283   0.014678  -0.012748
   66  N  7  S   -0.369795   3.660372   0.851195  -2.465602   0.779458
   67  N  7  X   -0.544763   0.684959  -0.519998  -0.979158   0.283764
   68  N  7  Y    0.512494   0.789424   0.584001   0.025763  -0.321703
   69  N  7  Z   -0.003880   0.009779   0.004549  -0.004479  -0.000300
   70  N  7 XX    1.227784  -1.269197  -0.976769   0.880722  -0.576984
   71  N  7 YY   -1.147951  -1.345591  -1.168913   0.674703  -0.565875
   72  N  7 ZZ    0.089297  -1.169197  -0.467579   0.586940  -0.191883
   73  N  7 XY    0.113003   0.208719   0.233888   0.040130  -0.041670
   74  N  7 XZ   -0.062031   0.015822   0.007115  -0.020136   0.007398
   75  N  7 YZ    0.065326   0.021765   0.020218   0.000297   0.002213
   76  H  8  S   -0.844110   0.289432   0.281341  -0.353204   0.265248
   77  H  8  S   -0.303266  -0.225176  -0.296420  -0.095030  -0.021633
   78  H  8  X   -0.686358   0.284097   0.376694  -0.262769   0.206759
   79  H  8  Y    0.398509  -0.174270   0.000212   0.134918  -0.049178
   80  H  8  Z    0.044833  -0.019554  -0.022080   0.021600  -0.018692
   81  H  9  S    0.972936   0.374319   0.665963   0.034370   0.118556
   82  H  9  S    0.416807  -0.180675   0.039984   0.251346  -0.213430
   83  H  9  X   -0.351494  -0.194932  -0.101560   0.048253  -0.022573
   84  H  9  Y    0.840545   0.324929   0.488558  -0.150677   0.181013
   85  H  9  Z   -0.048347  -0.020491  -0.042901   0.000830  -0.009169
 ...... END OF RHF CALCULATION ......
 STEP CPU TIME =   558.19 TOTAL CPU TIME =      558.6 (    9.3 MIN)
 TOTAL WALL CLOCK TIME=      560.5 SECONDS, CPU UTILIZATION IS  99.66%

     ---------------------------------------------------------------------
     PROPERTIES FOR THE HFX      DFT FUNCTIONAL (RHF  TYPE) DENSITY MATRIX
     ---------------------------------------------------------------------

          ---------------------------------------
          MULLIKEN AND LOWDIN POPULATION ANALYSES
          ---------------------------------------

     ATOMIC MULLIKEN POPULATION IN EACH MOLECULAR ORBITAL

                      1          2          3          4          5

                  2.000000   2.000000   2.000000   2.000000   2.000000

    1            -0.000007   0.000004   0.001091   1.997521   0.010205
    2            -0.000337   0.000470   2.000266   0.000985   0.491782
    3            -0.000000  -0.000000   0.000012   0.000499   0.000417
    4            -0.000000   0.000000   0.000005   0.000475   0.000371
    5            -0.000001  -0.000000   0.000007   0.000483   0.000401
    6             2.000342   0.000001  -0.001374  -0.000000   1.368211
    7             0.000002   1.999453  -0.000000   0.000034   0.120041
    8            -0.000001   0.000038   0.000018   0.000000   0.005227
    9             0.000000   0.000034  -0.000025   0.000002   0.003346

                      6          7          8          9         10

                  2.000000   2.000000   2.000000   2.000000   2.000000

    1             0.020292   1.108464   0.182226   0.152771   0.252902
    2             0.254101   0.328171   0.422809   0.127987   0.405805
    3             0.001469   0.123704   0.032250   0.021202   0.039836
    4             0.001788   0.122420   0.030408   0.014398   0.076288
    5             0.000089   0.121657   0.060084   0.039166   0.005275
    6             0.181219   0.053862   0.266712   0.118787   0.947509
    7             1.328045   0.103140   0.768834   1.012497   0.222710
    8             0.099718   0.031831   0.102556   0.242821   0.042441
    9             0.113280   0.006751   0.134121   0.270370   0.007233

                     11         12         13         14         15

                  2.000000   2.000000   2.000000   2.000000   2.000000

    1             0.558591   0.338459   0.977323   0.548655   0.282559
    2             0.426475   0.386419   0.071590   0.205669   0.139840
    3             0.223945   0.048861   0.024230   0.295264   0.022647
    4             0.143514   0.077904   0.159253   0.182975   0.032125
    5             0.011531   0.000712   0.587114   0.013096   0.005991
    6             0.395391   0.800621   0.024247   0.527596   1.352099
    7             0.238837   0.190713   0.107886   0.224896   0.132119
    8             0.000822   0.065051   0.044917   0.001012   0.019073
    9             0.000895   0.091260   0.003441   0.000837   0.013546

                     16

                  2.000000

    1             0.004802
    2             0.029384
    3             0.000363
    4             0.000681
    5             0.000383
    6             0.641349
    7             1.310883
    8             0.005945
    9             0.006210

               ----- POPULATIONS IN EACH AO -----
                             MULLIKEN      LOWDIN
              1  C  1  S      1.99672     1.98029
              2  C  1  S      0.63645     0.34450
              3  C  1  X      0.66987     0.60012
              4  C  1  Y      0.70986     0.62137
              5  C  1  Z      0.70056     0.61259
              6  C  1  S      0.64714     0.32570
              7  C  1  X      0.25453     0.38797
              8  C  1  Y      0.38387     0.47258
              9  C  1  Z      0.39713     0.49181
             10  C  1 XX      0.01053     0.15273
             11  C  1 YY      0.00272     0.14475
             12  C  1 ZZ      0.00528     0.14889
             13  C  1 XY      0.00934     0.01624
             14  C  1 XZ      0.00196     0.00401
             15  C  1 YZ      0.00990     0.01557
             16  C  2  S      1.99687     1.97243
             17  C  2  S      0.69777     0.34877
             18  C  2  X      0.72616     0.63320
             19  C  2  Y      0.72499     0.63582
             20  C  2  Z      0.39201     0.34362
             21  C  2  S      0.29386     0.25402
             22  C  2  X      0.09319     0.30258
             23  C  2  Y      0.00964     0.26051
             24  C  2  Z      0.22645     0.32065
             25  C  2 XX      0.02044     0.17308
             26  C  2 YY      0.04144     0.21923
             27  C  2 ZZ     -0.02662     0.08911
             28  C  2 XY      0.05337     0.10695
             29  C  2 XZ      0.00911     0.01733
             30  C  2 YZ      0.03273     0.06496
             31  H  3  S      0.52213     0.48595
             32  H  3  S      0.29923     0.34821
             33  H  3  X      0.00229     0.00763
             34  H  3  Y      0.00321     0.00945
             35  H  3  Z      0.00783     0.01787
             36  H  4  S      0.52464     0.48785
             37  H  4  S      0.30474     0.35048
             38  H  4  X      0.00199     0.00700
             39  H  4  Y      0.00547     0.01346
             40  H  4  Z      0.00577     0.01398
             41  H  5  S      0.52879     0.49208
             42  H  5  S      0.30422     0.34970
             43  H  5  X      0.00433     0.01149
             44  H  5  Y      0.00663     0.01527
             45  H  5  Z      0.00203     0.00737
             46  O  6  S      1.99547     1.97739
             47  O  6  S      0.88906     0.69718
             48  O  6  X      1.10031     1.06554
             49  O  6  Y      0.91008     0.85236
             50  O  6  Z      0.86879     0.82959
             51  O  6  S      0.96117     0.46819
             52  O  6  X      0.73052     0.72958
             53  O  6  Y      0.50677     0.56311
             54  O  6  Z      0.68008     0.68579
             55  O  6 XX      0.00185     0.17187
             56  O  6 YY      0.01418     0.19531
             57  O  6 ZZ     -0.00019     0.16983
             58  O  6 XY      0.00677     0.01472
             59  O  6 XZ      0.00085     0.00086
             60  O  6 YZ      0.01087     0.01221
             61  N  7  S      1.99541     1.97687
             62  N  7  S      0.73805     0.47791
             63  N  7  X      0.78285     0.69405
             64  N  7  Y      0.78799     0.69621
             65  N  7  Z      0.96512     0.92755
             66  N  7  S      0.81372     0.34674
             67  N  7  X      0.42019     0.46222
             68  N  7  Y      0.42561     0.45151
             69  N  7  Z      0.81173     0.77014
             70  N  7 XX      0.00989     0.18021
             71  N  7 YY      0.01163     0.18524
             72  N  7 ZZ     -0.01439     0.12728
             73  N  7 XY      0.00916     0.01699
             74  N  7 XZ      0.00141     0.00229
             75  N  7 YZ      0.00173     0.00312
             76  H  8  S      0.50120     0.45807
             77  H  8  S      0.13143     0.25037
             78  H  8  X      0.01717     0.04032
             79  H  8  Y      0.00396     0.01241
             80  H  8  Z      0.00771     0.02547
             81  H  9  S      0.50211     0.45787
             82  H  9  S      0.11997     0.24510
             83  H  9  X      0.00386     0.01258
             84  H  9  Y      0.01742     0.04071
             85  H  9  Z      0.00794     0.02608

          ----- MULLIKEN ATOMIC OVERLAP POPULATIONS -----
          (OFF-DIAGONAL ELEMENTS NEED TO BE MULTIPLIED BY 2)

             1           2           3           4           5

    1    5.0908648
    2    0.3676193   4.1243123
    3    0.3869895  -0.0273847   0.5162451
    4    0.3867722  -0.0295111  -0.0229041   0.5259220
    5    0.3950127  -0.0366572  -0.0199815  -0.0214646   0.5211398
    6   -0.0782750   0.6121194   0.0010481   0.0019488   0.0035827
    7   -0.1182785   0.3172411   0.0008100   0.0021379   0.0045122
    8    0.0049481  -0.0175210  -0.0001864  -0.0001223  -0.0001272
    9    0.0002052  -0.0188025   0.0000619  -0.0001736  -0.0000282

             6           7           8           9

    6    8.2300190
    7   -0.1018698   6.9501410
    8    0.0054801   0.3486472   0.3345813
    9    0.0025181   0.3567489  -0.0142296   0.3250028

          TOTAL MULLIKEN AND LOWDIN ATOMIC POPULATIONS
       ATOM         MULL.POP.    CHARGE          LOW.POP.     CHARGE
    1 C             6.435858   -0.435858         6.319108   -0.319108
    2 C             5.291416    0.708584         5.742251    0.257749
    3 H             0.834698    0.165302         0.869103    0.130897
    4 H             0.842605    0.157395         0.872769    0.127231
    5 H             0.845989    0.154011         0.875918    0.124082
    6 O             8.676571   -0.676571         8.433527   -0.433527
    7 N             7.760090   -0.760090         7.318330   -0.318330
    8 H             0.661470    0.338530         0.786649    0.213351
    9 H             0.651303    0.348697         0.782346    0.217654

          -------------------------------
          BOND ORDER AND VALENCE ANALYSIS     BOND ORDER THRESHOLD=0.050
          -------------------------------

                   BOND                       BOND                       BOND
  ATOM PAIR DIST  ORDER      ATOM PAIR DIST  ORDER      ATOM PAIR DIST  ORDER
    1   2  1.513  0.954        1   3  1.086  0.954        1   4  1.085  0.957
    1   5  1.080  0.969        2   6  1.198  1.739        2   7  1.356  1.111
    7   8  0.993  0.872        7   9  0.991  0.868

                       TOTAL       BONDED        FREE
      ATOM            VALENCE     VALENCE     VALENCE
    1 C                 3.797       3.797       0.000
    2 C                 3.777       3.777       0.000
    3 H                 0.943       0.943       0.000
    4 H                 0.946       0.946      -0.000
    5 H                 0.953       0.953       0.000
    6 O                 1.807       1.807       0.000
    7 N                 2.852       2.852       0.000
    8 H                 0.885       0.885       0.000
    9 H                 0.872       0.872       0.000

    **** A SOLVENT MODEL IS IN USE IN THIS RUN ****
 ELECTRICAL PROPERTIES (MOMENTS, DENSITY, FIELD/GRADIENT, AND/OR POTENTIAL)
 ARE COMPUTED USING THE SOLVATED SYSTEM'S DENSITY MATRIX, BUT
 ONLY WITH AO INTEGRAL CONTRIBUTIONS FROM THE QUANTUM SOLUTE.
 THE ONE EXCEPTION IS THE DIPOLE, WHICH IS ALSO PRINTED FOR THE TOTAL SYSTEM.

          ---------------------
          ELECTROSTATIC MOMENTS
          ---------------------

 POINT   1           X           Y           Z (BOHR)    CHARGE
                -0.077122    0.115734   -0.003202        0.00 (A.U.)
         DX          DY          DZ         /D/  (DEBYE)
     0.426524   -5.138167    0.224582    5.160728
 ...... END OF PROPERTY EVALUATION ......
 STEP CPU TIME =     0.01 TOTAL CPU TIME =      558.6 (    9.3 MIN)
 TOTAL WALL CLOCK TIME=      560.5 SECONDS, CPU UTILIZATION IS  99.66%
              4132056  WORDS OF DYNAMIC MEMORY USED
 EXECUTION OF GAMESS TERMINATED NORMALLY Wed Aug  9 20:02:47 2017
 DDI: 263640 bytes (0.3 MB / 0 MWords) used by master data server.

 ----------------------------------------
 CPU timing information for all processes
 ========================================
 0: 558.478 + 0.172 = 558.651
 ----------------------------------------
 ddikick.x: exited gracefully.
unset echo
----- accounting info -----
Files used on the master node compute-1-7.local were:
-rw-rw-r-- 1 sarom sarom 117K Aug  9 19:53 /scratch/cmirs-ch3conh2.F05
-rw-rw-r-- 1 sarom sarom  67M Aug  9 19:53 /scratch/cmirs-ch3conh2.F08
-rw-rw-r-- 1 sarom sarom 1.6M Aug  9 20:02 /scratch/cmirs-ch3conh2.F10
-rw-rw-r-- 1 sarom sarom    0 Aug  9 19:53 /scratch/cmirs-ch3conh2.F26
-rw-rw-r-- 1 sarom sarom    0 Aug  9 19:53 /scratch/cmirs-ch3conh2.F27
rm: cannot remove `/scratch/tmp': Is a directory
ls: No match.
ls: No match.
ls: No match.
Wed Aug  9 20:02:50 CDT 2017
0.265u 0.178s 9:24.13 0.0%	0+0k 240+600io 0pf+0w
/opt/gridengine/default/spool/compute-1-7/active_jobs/35708.1/pe_hostfile compute-1-7.local
