-catch_rsh /opt/gridengine/default/spool/compute-0-1/active_jobs/24067.1/pe_hostfile
compute-0-1
The primary node assigned by SGE to this run is compute-0-1
Warning: no access to tty (Bad file descriptor).
Thus no job control in this shell.
source /home/sarom/gamess.github.2017-05-31.14.06/install.info
setenv GMS_PATH /home/sarom/gamess.github.2017-05-31.14.06
setenv GMS_BUILD_DIR /home/sarom/gamess.github.2017-05-31.14.06
setenv GMS_TARGET linux64
setenv GMS_FORTRAN gfortran
setenv GMS_GFORTRAN_VERNO 4.4
setenv GMS_MATHLIB mkl-so
setenv GMS_MATHLIB_PATH /share/apps/intel/compilers_and_libraries_2017.1.132/linux/mkl/lib/intel64
setenv GMS_MKL_VERNO 12
setenv GMS_DDI_COMM sockets
setenv GMS_LIBCCHEM false
setenv GMS_EIGEN_PATH
setenv GMS_PHI false
setenv GMS_SHMTYPE sysv
setenv GMS_OPENMP false
unset echo
ssvpe-acetone-gs
tests/solvent/svpe
----- GAMESS execution script 'rungms' -----
This job is running on host compute-0-1.local
under operating system Linux at Fri Jun 2 05:21:42 CDT 2017
Available scratch disk space (Kbyte units) at beginning of the job is
Filesystem           1K-blocks      Used Available Use% Mounted on
/dev/sda1             16126920   3867344  11440376  26% /
GAMESS temporary binary files will be written to /scratch
GAMESS supplementary output files will be written to /home/sarom/restart
Copying input file ssvpe-acetone-gs.inp to your run's scratch directory...
cp tests/solvent/svpe/ssvpe-acetone-gs.inp /scratch/ssvpe-acetone-gs.F05
unset echo
The generated host list is
compute-0-1.local
/home/sarom/gamess.github.2017-05-31.14.06/ddikick.x /home/sarom/gamess.github.2017-05-31.14.06/gamess.00.x ssvpe-acetone-gs -ddi 1 1 compute-0-1.local -scr /scratch

 Distributed Data Interface kickoff program.
 Initiating 1 compute processes on 1 nodes to run the following command:
 /home/sarom/gamess.github.2017-05-31.14.06/gamess.00.x ssvpe-acetone-gs 

          ******************************************************
          *         GAMESS VERSION = 20 APR 2017 (R1)          *
          *             FROM IOWA STATE UNIVERSITY             *
          * M.W.SCHMIDT, K.K.BALDRIDGE, J.A.BOATZ, S.T.ELBERT, *
          *   M.S.GORDON, J.H.JENSEN, S.KOSEKI, N.MATSUNAGA,   *
          *          K.A.NGUYEN, S.J.SU, T.L.WINDUS,           *
          *       TOGETHER WITH M.DUPUIS, J.A.MONTGOMERY       *
          *         J.COMPUT.CHEM.  14, 1347-1363(1993)        *
          **************** 64 BIT LINUX VERSION ****************

  SINCE 1993, STUDENTS AND POSTDOCS WORKING AT IOWA STATE UNIVERSITY
  AND ALSO IN THEIR VARIOUS JOBS AFTER LEAVING ISU HAVE MADE IMPORTANT
  CONTRIBUTIONS TO THE CODE:
     IVANA ADAMOVIC, CHRISTINE AIKENS, YURI ALEXEEV, POOJA ARORA,
     ANDREY ASADCHEV, ROB BELL, PRADIPTA BANDYOPADHYAY, JONATHAN BENTZ,
     BRETT BODE, KURT BRORSEN, CALEB CARLIN, GALINA CHABAN, WEI CHEN,
     CHEOL HO CHOI, PAUL DAY, ALBERT DEFUSCO, NUWAN DESILVA, TIM DUDLEY,
     DMITRI FEDOROV, GRAHAM FLETCHER, MARK FREITAG, KURT GLAESEMANN,
     DAN KEMP, GRANT MERRILL, NORIYUKI MINEZAWA, JONATHAN MULLIN,
     TAKESHI NAGATA, SEAN NEDD, HEATHER NETZLOFF, BOSILJKA NJEGIC, RYAN OLSON,
     MIKE PAK, SPENCER PRUITT, LUKE ROSKOP, JIM SHOEMAKER, LYUDMILA SLIPCHENKO,
     TONY SMITH, SAROM SOK LEANG, JIE SONG, TETSUYA TAKETSUGU, SIMON WEBB,
     PENG XU, SOOHAENG YOO, FEDERICO ZAHARIEV

  ADDITIONAL CODE HAS BEEN PROVIDED BY COLLABORATORS IN OTHER GROUPS:
     IOWA STATE UNIVERSITY:
          JOE IVANIC, AARON WEST, LAIMUTIS BYTAUTAS, KLAUS RUEDENBERG
     UNIVERSITY OF TOKYO: KIMIHIKO HIRAO, TAKAHITO NAKAJIMA,
          TAKAO TSUNEDA, MUNEAKI KAMIYA, SUSUMU YANAGISAWA,
          KIYOSHI YAGI, MAHITO CHIBA, SEIKEN TOKURA, NAOAKI KAWAKAMI
     UNIVERSITY OF AARHUS: FRANK JENSEN
     UNIVERSITY OF IOWA: VISVALDAS KAIRYS, HUI LI
     NATIONAL INST. OF STANDARDS AND TECHNOLOGY: WALT STEVENS, DAVID GARMER
     UNIVERSITY OF PISA: BENEDETTA MENNUCCI, JACOPO TOMASI
     UNIVERSITY OF MEMPHIS: HENRY KURTZ, PRAKASHAN KORAMBATH
     UNIVERSITY OF ALBERTA: TOBY ZENG, MARIUSZ KLOBUKOWSKI
     UNIVERSITY OF NEW ENGLAND: MARK SPACKMAN
     MIE UNIVERSITY: HIROAKI UMEDA
     NAT. INST. OF ADVANCED INDUSTRIAL SCIENCE AND TECHNOLOGY: KAZUO KITAURA
     MICHIGAN STATE UNIVERSITY:
          KAROL KOWALSKI, MARTA WLOCH, JEFFREY GOUR, JESSE LUTZ,
          WEI LI, PIOTR PIECUCH
     UNIVERSITY OF SILESIA: MONIKA MUSIAL, STANISLAW KUCHARSKI
     FACULTES UNIVERSITAIRES NOTRE-DAME DE LA PAIX:
          OLIVIER QUINET, BENOIT CHAMPAGNE
     UNIVERSITY OF CALIFORNIA - SANTA BARBARA: BERNARD KIRTMAN
     INSTITUTE FOR MOLECULAR SCIENCE:
          KAZUYA ISHIMURA, MICHIO KATOUDA, AND SHIGERU NAGASE
     UNIVERSITY OF NOTRE DAME: ANNA POMOGAEVA, DAN CHIPMAN
     KYUSHU UNIVERSITY:
          HARUYUKI NAKANO,
          FENG LONG GU, JACEK KORCHOWIEC, MARCIN MAKOWSKI, AND YURIKO AOKI,
          HIROTOSHI MORI AND EISAKU MIYOSHI
     PENNSYLVANIA STATE UNIVERSITY:
          TZVETELIN IORDANOV, CHET SWALINA, JONATHAN SKONE,
          SHARON HAMMES-SCHIFFER
     WASEDA UNIVERSITY:
          MASATO KOBAYASHI, TOMOKO AKAMA, TSUGUKI TOUMA,
          TAKESHI YOSHIKAWA, YASUHIRO IKABATA, JUNJI SEINO,
          YUYA NAKAJIMA, HIROMI NAKAI
     NANJING UNIVERSITY: SHUHUA LI
     UNIVERSITY OF NEBRASKA:
          PEIFENG SU, DEJUN SI, NANDUN THELLAMUREGE, YALI WANG, HUI LI
     UNIVERSITY OF ZURICH: ROBERTO PEVERATI, KIM BALDRIDGE
     N. COPERNICUS UNIVERSITY AND JACKSON STATE UNIVERSITY:
          MARIA BARYSZ
     UNIVERSITY OF COPENHAGEN: Jimmy Kromann, CASPER STEINMANN
     TOKYO INSTITUTE OF TECHNOLOGY: HIROYA NAKATA
     NAGOYA UNIVERSITY: YOSHIO NISHIMOTO, STEPHAN IRLE
     MOSCOW STATE UNIVERSITY: VLADIMIR MIRONOV

 EXECUTION OF GAMESS BEGUN Fri Jun  2 05:21:42 2017

            ECHO OF THE FIRST FEW INPUT CARDS -
 INPUT CARD>!    acetone ground state using SS(V)PE                                         
 INPUT CARD>!    test case from Dan Chipman, May 2009                                       
 INPUT CARD>!                                                                               
 INPUT CARD>!    SS(V)PE FINAL E= -191.9193116909, in 13 iters,                             
 INPUT CARD>!        ERXNFIELD/2 = -0.01081035   cavity volume= 597.15405                   
 INPUT CARD>!        SURFACE  POLARIZATION CHARGE = -0.01203552                             
 INPUT CARD>!                                                                               
 INPUT CARD>!    This run requires 58 seconds on 2.66 GHz Cloverton ( 3 Oct 2015)           
 INPUT CARD>!    results have not changed except last digits since May 2009.                
 INPUT CARD>!                                                                               
 INPUT CARD> $contrl scftyp=mcscf mult=1 runtyp=energy coord=zmt units=angs $end            
 INPUT CARD> $system mwords=5 $end                                                          
 INPUT CARD> $basis  gbasis=n31 ngauss=6 $end                                               
 INPUT CARD> $guess  guess=moread  norb=48  $end                                            
 INPUT CARD> $svp    rhoiso=0.001  dielst=78.39 nptleb=1202                                 
 INPUT CARD>         ipnrf=1 egas=-191.9103911087 $end                                      
 INPUT CARD> $data                                                                          
 INPUT CARD>   acetone at hilderbrand 1970 exptl geom                                       
 INPUT CARD>Cnv      2                                                                      
 INPUT CARD>                                                                                
 INPUT CARD> C                                                                              
 INPUT CARD> O  1 1.210                                                                     
 INPUT CARD> C  1 1.507  2 121.7                                                            
 INPUT CARD> H  3 1.076  1 111.7  2    0.0                                                  
 INPUT CARD> H  3 1.076  1 111.7  2  120.0                                                  
 INPUT CARD> H  3 1.076  1 111.7  2 -120.0                                                  
 INPUT CARD> C  1 1.507  2 121.7  3  180.0                                                  
 INPUT CARD> H  7 1.076  1 111.7  2    0.0                                                  
 INPUT CARD> H  7 1.076  1 111.7  2 -120.0                                                  
 INPUT CARD> H  7 1.076  1 111.7  2  120.0                                                  
 INPUT CARD> $end                                                                           
 INPUT CARD>- do cas(4e,3o) singlet gnd state -                                             
 INPUT CARD> $mcscf fullnr=.t. cistep=ormas $end                                            
 INPUT CARD> $det ncore=14 nact=3 nels=4 istsym=1 sz=0.0                                    
 INPUT CARD>      nstate=1 wstate(1)=1.0 nflgdm(1)=1 iroot=1 $end                           
 INPUT CARD>- mc4e3o_gnd_gas vecs -                                                         
 INPUT CARD>--- OPTIMIZED MCSCF MO-S --- GENERATED AT Mon May  4 16:31:18 2009              
 INPUT CARD>   acetone at hilderbrand 1970 exptl geom                                       
 INPUT CARD>E(MCSCF)=     -191.9103911087, E(NUC)=      119.9519221934                      
 INPUT CARD> $VEC                                                                           
 INPUT CARD> 1  1 1.65479320E-04 3.00415740E-04 0.00000000E+00 0.00000000E+00-8.82487377E-05
 INPUT CARD> 1  2 6.00211849E-03 0.00000000E+00 0.00000000E+00 7.11728821E-03 9.95864219E-01
 INPUT CARD> 1  3 2.33039504E-02 0.00000000E+00 0.00000000E+00-2.33421362E-03-1.45069811E-02
 INPUT CARD> 1  4 0.00000000E+00 0.00000000E+00 4.70717820E-03-3.51302406E-06-1.78153031E-04
 INPUT CARD> 1  5-5.97337644E-05 0.00000000E+00-8.47276386E-05 1.05549507E-03 1.16609446E-03
 INPUT CARD> 1  6 0.00000000E+00-1.11060336E-03-3.51302406E-06-1.78153031E-04 5.97337644E-05
 INPUT CARD> 1  7 0.00000000E+00-8.47276386E-05 1.05549507E-03-1.16609446E-03 0.00000000E+00
 INPUT CARD> 1  8-1.11060336E-03 7.62305708E-05 5.69836055E-04 7.62305708E-05 5.69836055E-04
 INPUT CARD> 1  9-4.53484171E-05-3.39335846E-04-4.53484171E-05-3.39335846E-04-4.53484171E-05
 INPUT CARD> 1 10-3.39335846E-04-4.53484171E-05-3.39335846E-04                              
    5000000 WORDS OF MEMORY AVAILABLE

     BASIS OPTIONS
     -------------
     GBASIS=N31          IGAUSS=       6      POLAR=NONE    
     NDFUNC=       0     NFFUNC=       0     DIFFSP=       F
     NPFUNC=       0      DIFFS=       F     BASNAM=        


     RUN TITLE
     ---------
    acetone at hilderbrand 1970 exptl geom                                       

 THE POINT GROUP OF THE MOLECULE IS CNV     
 THE ORDER OF THE PRINCIPAL AXIS IS     2

 YOUR FULLY SUBSTITUTED Z-MATRIX IS
 C   
 O      1   1.2100000
 C      1   1.5070000  2  121.7000
 H      3   1.0760000  1  111.7000  2    0.0000  0
 H      3   1.0760000  1  111.7000  2  120.0000  0
 H      3   1.0760000  1  111.7000  2 -120.0000  0
 C      1   1.5070000  2  121.7000  3  180.0000  0
 H      7   1.0760000  1  111.7000  2    0.0000  0
 H      7   1.0760000  1  111.7000  2 -120.0000  0
 H      7   1.0760000  1  111.7000  2  120.0000  0

 THE MOMENTS OF INERTIA ARE (AMU-ANGSTROM**2)
 IXX=    49.175   IYY=   102.326   IZZ=    59.194

 ATOM      ATOMIC                      COORDINATES (BOHR)
           CHARGE         X                   Y                   Z
 C           6.0     0.0000000000        0.0000000000        0.1857130909
 O           8.0     0.0000000000        0.0000000000        2.4722815360
 C           6.0    -2.4229543952        0.0000000000       -1.3107340435
 C           6.0     2.4229543952        0.0000000000       -1.3107340435
 H           1.0    -4.0553594250        0.0000000000       -0.0984030780
 H           1.0     4.0553594250        0.0000000000       -0.0984030780
 H           1.0    -2.5662406411        1.6361360865       -2.5094918627
 H           1.0     2.5662406411        1.6361360865       -2.5094918627
 H           1.0    -2.5662406411       -1.6361360865       -2.5094918627
 H           1.0     2.5662406411       -1.6361360865       -2.5094918627

          INTERNUCLEAR DISTANCES (ANGS.)
          ------------------------------

                1 C          2 O          3 C          4 C          5 H     

   1 C       0.0000000    1.2100000 *  1.5070000 *  1.5070000 *  2.1512641 *
   2 O       1.2100000 *  0.0000000    2.3772910 *  2.3772910 *  2.5408422 *
   3 C       1.5070000 *  2.3772910 *  0.0000000    2.5643447 *  1.0760000 *
   4 C       1.5070000 *  2.3772910 *  2.5643447 *  0.0000000    3.4876874  
   5 H       2.1512641 *  2.5408422 *  1.0760000 *  3.4876874    0.0000000  
   6 H       2.1512641 *  2.5408422 *  3.4876874    1.0760000 *  4.2920079  
   7 H       2.1512641 *  3.0892622    1.0760000 *  2.8500029 *  1.7316120 *
   8 H       2.1512641 *  3.0892622    2.8500029 *  1.0760000 *  3.8282556  
   9 H       2.1512641 *  3.0892622    1.0760000 *  2.8500029 *  1.7316120 *
  10 H       2.1512641 *  3.0892622    2.8500029 *  1.0760000 *  3.8282556  

                6 H          7 H          8 H          9 H         10 H     

   1 C       2.1512641 *  2.1512641 *  2.1512641 *  2.1512641 *  2.1512641 *
   2 O       2.5408422 *  3.0892622    3.0892622    3.0892622    3.0892622  
   3 C       3.4876874    1.0760000 *  2.8500029 *  1.0760000 *  2.8500029 *
   4 C       1.0760000 *  2.8500029 *  1.0760000 *  2.8500029 *  1.0760000 *
   5 H       4.2920079    1.7316120 *  3.8282556    1.7316120 *  3.8282556  
   6 H       0.0000000    3.8282556    1.7316120 *  3.8282556    1.7316120 *
   7 H       3.8282556    0.0000000    2.7159923 *  1.7316120 *  3.2210393  
   8 H       1.7316120 *  2.7159923 *  0.0000000    3.2210393    1.7316120 *
   9 H       3.8282556    1.7316120 *  3.2210393    0.0000000    2.7159923 *
  10 H       1.7316120 *  3.2210393    1.7316120 *  2.7159923 *  0.0000000  

  * ... LESS THAN  3.000


     ATOMIC BASIS SET
     ----------------
 THE CONTRACTED PRIMITIVE FUNCTIONS HAVE BEEN UNNORMALIZED
 THE CONTRACTED BASIS FUNCTIONS ARE NOW NORMALIZED TO UNITY

  SHELL TYPE  PRIMITIVE        EXPONENT          CONTRACTION COEFFICIENT(S)

 C         

      1   S       1          3047.5248800    0.001834737132
      1   S       2           457.3695180    0.014037322813
      1   S       3           103.9486850    0.068842622264
      1   S       4            29.2101553    0.232184443216
      1   S       5             9.2866630    0.467941348435
      1   S       6             3.1639270    0.362311985337

      2   L       7             7.8682723   -0.119332419775    0.068999066591
      2   L       8             1.8812885   -0.160854151696    0.316423960957
      2   L       9             0.5442493    1.143456437840    0.744308290898

      3   L      10             0.1687145    1.000000000000    1.000000000000

 O         

      4   S      11          5484.6716600    0.001831074430
      4   S      12           825.2349460    0.013950172200
      4   S      13           188.0469580    0.068445078098
      4   S      14            52.9645000    0.232714335992
      4   S      15            16.8975704    0.470192897984
      4   S      16             5.7996353    0.358520852987

      5   L      17            15.5396162   -0.110777549525    0.070874268231
      5   L      18             3.5999336   -0.148026262701    0.339752839147
      5   L      19             1.0137618    1.130767015354    0.727158577316

      6   L      20             0.2700058    1.000000000000    1.000000000000

 C         

     10   S      21          3047.5248800    0.001834737132
     10   S      22           457.3695180    0.014037322813
     10   S      23           103.9486850    0.068842622264
     10   S      24            29.2101553    0.232184443216
     10   S      25             9.2866630    0.467941348435
     10   S      26             3.1639270    0.362311985337

     11   L      27             7.8682723   -0.119332419775    0.068999066591
     11   L      28             1.8812885   -0.160854151696    0.316423960957
     11   L      29             0.5442493    1.143456437840    0.744308290898

     12   L      30             0.1687145    1.000000000000    1.000000000000

 H         

     15   S      31            18.7311370    0.033494604338
     15   S      32             2.8253944    0.234726953484
     15   S      33             0.6401217    0.813757326146

     16   S      34             0.1612778    1.000000000000

 H         

     23   S      35            18.7311370    0.033494604338
     23   S      36             2.8253944    0.234726953484
     23   S      37             0.6401217    0.813757326146

     24   S      38             0.1612778    1.000000000000

 TOTAL NUMBER OF BASIS SET SHELLS             =   24
 NUMBER OF CARTESIAN GAUSSIAN BASIS FUNCTIONS =   48
 NUMBER OF ELECTRONS                          =   32
 CHARGE OF MOLECULE                           =    0
 SPIN MULTIPLICITY                            =    1
 NUMBER OF OCCUPIED ORBITALS (ALPHA)          =   16
 NUMBER OF OCCUPIED ORBITALS (BETA )          =   16
 TOTAL NUMBER OF ATOMS                        =   10
 THE NUCLEAR REPULSION ENERGY IS      119.9519221934

     $CONTRL OPTIONS
     ---------------
 SCFTYP=MCSCF        RUNTYP=ENERGY       EXETYP=RUN     
 MPLEVL=       0     CITYP =NONE         CCTYP =NONE         VBTYP =NONE    
 DFTTYP=NONE         TDDFT =NONE    
 MULT  =       1     ICHARG=       0     NZVAR =       0     COORD =ZMT     
 PP    =NONE         RELWFN=NONE         LOCAL =NONE         NUMGRD=       F
 ISPHER=      -1     NOSYM =       0     MAXIT =      30     UNITS =ANGS    
 PLTORB=       F     MOLPLT=       F     AIMPAC=       F     FRIEND=        
 NPRINT=       7     IREST =       0     GEOM  =INPUT   
 NORMF =       0     NORMP =       0     ITOL  =      20     ICUT  =       9
 INTTYP=BEST         GRDTYP=BEST         QMTTOL= 1.0E-06

     $SYSTEM OPTIONS
     ---------------
  REPLICATED MEMORY=     5000000 WORDS (ON EVERY NODE).
 DISTRIBUTED MEMDDI=           0 MILLION WORDS IN AGGREGATE,
 MEMDDI DISTRIBUTED OVER   1 PROCESSORS IS           0 WORDS/PROCESSOR.
 TOTAL MEMORY REQUESTED ON EACH PROCESSOR=     5000000 WORDS.
 TIMLIM=      525600.00 MINUTES, OR     365.0 DAYS.
 PARALL= F  BALTYP=  DLB     KDIAG=    0  COREFL= F
 MXSEQ2=     300 MXSEQ3=     150  mem10=         0

          -------------
          -SVP- SOLVENT
          -------------

 ----- INPUT GROUP $SVP -----
 NVLPL =   0 ISHAPE=   0 ITRCAV=  99 NDRCAV=   0
 INTCAV=   0 NPTLEB=1202 NPTTHE=   8 NPTPHI=  16
 ITRNGR=   2 IROTGR=   2 IOPPRD=   0 IDEF  =   0
 LINEQ =   1 IRDRF =   0 IPNRF =   1 IVERT =   0
 RHOISO=    0.001000 TOLCAV=  0.1000D-09 RADSPH=    2.645617 TOLCHG=  0.1000D-05
 DIELST=   78.390000 DIELOP=    1.776000 CVGLIN=  0.1000D-06 CSDIAG=    1.104000
 ROTTHE=    0.000000 ROTPHI=    0.000000 ROTCHI=    0.000000
 TRANX =    0.000000 TRANY =    0.000000 TRANZ =    0.000000
 EGAS  = -191.910391

          ----------------
          PROPERTIES INPUT
          ----------------

     MOMENTS            FIELD           POTENTIAL          DENSITY
 IEMOM =       1   IEFLD =       0   IEPOT =       0   IEDEN =       0
 WHERE =COMASS     WHERE =NUCLEI     WHERE =NUCLEI     WHERE =NUCLEI  
 OUTPUT=BOTH       OUTPUT=BOTH       OUTPUT=BOTH       OUTPUT=BOTH    
 IEMINT=       0   IEFINT=       0                     IEDINT=       0
                                                       MORB  =       0

     -------------------------------
     INTEGRAL TRANSFORMATION OPTIONS
     -------------------------------
     NWORD  =            0
     CUTOFF = 1.0E-09     MPTRAN =       0
     DIRTRF =       F     AOINTS =DUP     

          ----------------------
          MCSCF INPUT PARAMETERS
          ----------------------
 CONVERGER SELECTION: FOCAS = F  SOSCF = F  FULLNR = T  QUD = F  JACOBI = F
 SECULAR EQUATION METHOD CISTEP = ORMAS   
 --- GENERAL INPUT OPTIONS:
 MAXIT =      30  MICIT =       1  ACURCY= 1.000E-05
 DAMP  =   0.000  CANONC=       T  ENGTOL= 1.000E-10
 EKT   =       F  NPUNCH=       2  NWORD =         0
 REGENERATE CI AFTER CONVERGENCE = NONE    
 DIABATIZATION AFTER CONVERGENCE =        F
 --- INPUT FOR FULLNR CONVERGER:
 METHOD=DM2       FORS  =       F  DROPC =       T
 LINSER=       F  FCORE =       F  NORB  =      48

          ----------------------
          INTEGRAL INPUT OPTIONS
          ----------------------
 NOPK  =       1 NORDER=       0 SCHWRZ=       T

   --- ENCODED Z MATRIX ---
 COORD  TYPE   I   J   K   L   M   N
    1      1    2   1
    2      1    4   1
    3      2    4   1   2
    4      1    6   4
    5      2    6   4   1
    6      3    6   4   1   2
    7      1   10   4
    8      2   10   4   1
    9      3   10   4   1   2
   10      1    8   4
   11      2    8   4   1
   12      3    8   4   1   2
   13      1    3   1
   14      2    3   1   2
   15      3    3   1   2   4
   16      1    5   3
   17      2    5   3   1
   18      3    5   3   1   2
   19      1    9   3
   20      2    9   3   1
   21      3    9   3   1   2
   22      1    7   3
   23      2    7   3   1
   24      3    7   3   1   2

 THE DETERMINANT OF THE G MATRIX IS 10**(   -13)

     ------------------------------------------
     THE POINT GROUP IS CNV, NAXIS= 2, ORDER= 4
     ------------------------------------------

     DIMENSIONS OF THE SYMMETRY SUBSPACES ARE
 A1  =   21     A2  =    4     B1  =   15     B2  =    8

 ..... DONE SETTING UP THE RUN .....
 STEP CPU TIME =     0.04 TOTAL CPU TIME =        0.0 (    0.0 MIN)
 TOTAL WALL CLOCK TIME=        0.1 SECONDS, CPU UTILIZATION IS  80.00%

          ********************
          1 ELECTRON INTEGRALS
          ********************
 TIME TO DO   DIPOLE INTEGRALS=      0.00
 ...... END OF ONE-ELECTRON INTEGRALS ......
 STEP CPU TIME =     0.00 TOTAL CPU TIME =        0.0 (    0.0 MIN)
 TOTAL WALL CLOCK TIME=        0.1 SECONDS, CPU UTILIZATION IS  80.00%

          -------------
          GUESS OPTIONS
          -------------
          GUESS =MOREAD            NORB  =      48          NORDER=       0
          MIX   =       F          PRTMO =       F          PUNMO =       F
          TOLZ  = 1.0E-08          TOLE  = 1.0E-05
          SYMDEN=       F          PURIFY=       F

 INITIAL GUESS ORBITALS GENERATED BY MOREAD   ROUTINE.

 SYMMETRIES FOR INITIAL GUESS ORBITALS FOLLOW.   BOTH SET(S).
    16 ORBITALS ARE OCCUPIED (    4 CORE ORBITALS).
     1=A1       2=A1       3=B1       4=A1       5=A1       6=A1       7=B1  
     8=A1       9=B1      10=A1      11=B2      12=A2      13=A1      14=B1  
    15=B2      16=B1      17=B2      18=A1      19=A1      20=B1      21=B2  
    22=A2      23=B1      24=A1      25=B1      26=A1      27=A1      28=B2  
    29=A2      30=B1      31=A1      32=B2      33=B1      34=A1      35=B1  
    36=A1      37=B2      38=A1      39=B1      40=A2      41=A1      42=B1  
    43=B2      44=A1      45=B1      46=A1      47=B1      48=A1  
 ...... END OF INITIAL ORBITAL SELECTION ......
 STEP CPU TIME =     0.01 TOTAL CPU TIME =        0.0 (    0.0 MIN)
 TOTAL WALL CLOCK TIME=        0.1 SECONDS, CPU UTILIZATION IS 100.00%

                    ----------------------
                    AO INTEGRAL TECHNOLOGY
                    ----------------------
     S,P,L SHELL ROTATED AXIS INTEGRALS, REPROGRAMMED BY
        KAZUYA ISHIMURA (IMS) AND JOSE SIERRA (SYNSTAR).
     S,P,D,L SHELL ROTATED AXIS INTEGRALS PROGRAMMED BY
        KAZUYA ISHIMURA (INSTITUTE FOR MOLECULAR SCIENCE).
     S,P,D,F,G SHELL TO TOTAL QUARTET ANGULAR MOMENTUM SUM 5,
        ERIC PROGRAM BY GRAHAM FLETCHER (ELORET AND NASA ADVANCED
        SUPERCOMPUTING DIVISION, AMES RESEARCH CENTER).
     S,P,D,F,G,L SHELL GENERAL RYS QUADRATURE PROGRAMMED BY
        MICHEL DUPUIS (PACIFIC NORTHWEST NATIONAL LABORATORY).

          --------------------
          2 ELECTRON INTEGRALS
          --------------------

 THE -PK- OPTION IS OFF, THE INTEGRALS ARE NOT IN SUPERMATRIX FORM.
 STORING   15000 INTEGRALS/RECORD ON DISK, USING 12 BYTES/INTEGRAL.
 TWO ELECTRON INTEGRAL EVALUATION REQUIRES   89656 WORDS OF MEMORY.
 SCHWARZ INEQUALITY OVERHEAD:      1173 INTEGRALS, T=        0.01
 II,JST,KST,LST =  1  1  1  1 NREC =         1 INTLOC =    1
 II,JST,KST,LST =  2  1  1  1 NREC =         1 INTLOC =    2
 II,JST,KST,LST =  3  1  1  1 NREC =         1 INTLOC =   34
 II,JST,KST,LST =  4  1  1  1 NREC =         1 INTLOC =  214
 II,JST,KST,LST =  5  1  1  1 NREC =         1 INTLOC =  406
 II,JST,KST,LST =  6  1  1  1 NREC =         1 INTLOC = 1667
 II,JST,KST,LST =  7  1  1  1 NREC =         1 INTLOC = 4350
 II,JST,KST,LST =  8  1  1  1 NREC =         1 INTLOC = 4350
 II,JST,KST,LST =  9  1  1  1 NREC =         1 INTLOC = 4350
 II,JST,KST,LST = 10  1  1  1 NREC =         1 INTLOC = 4350
 II,JST,KST,LST = 11  1  1  1 NREC =         1 INTLOC = 6279
 II,JST,KST,LST = 12  1  1  1 NREC =         2 INTLOC = 8183
 II,JST,KST,LST = 13  1  1  1 NREC =         5 INTLOC =  180
 II,JST,KST,LST = 14  1  1  1 NREC =         5 INTLOC =  180
 II,JST,KST,LST = 15  1  1  1 NREC =         5 INTLOC =  180
 II,JST,KST,LST = 16  1  1  1 NREC =         5 INTLOC =14757
 II,JST,KST,LST = 17  1  1  1 NREC =         7 INTLOC = 3303
 II,JST,KST,LST = 18  1  1  1 NREC =         7 INTLOC = 3303
 II,JST,KST,LST = 19  1  1  1 NREC =         7 INTLOC = 3303
 II,JST,KST,LST = 20  1  1  1 NREC =         7 INTLOC = 3303
 II,JST,KST,LST = 21  1  1  1 NREC =         7 INTLOC = 3303
 II,JST,KST,LST = 22  1  1  1 NREC =         7 INTLOC = 3303
 II,JST,KST,LST = 23  1  1  1 NREC =         7 INTLOC = 3303
 II,JST,KST,LST = 24  1  1  1 NREC =         9 INTLOC = 9029
 SCHWARZ INEQUALITY TEST SKIPPED        1203 INTEGRAL BLOCKS.
 TOTAL NUMBER OF NONZERO TWO-ELECTRON INTEGRALS =              178903
         12 INTEGRAL RECORDS WERE STORED ON DISK FILE  8.
  ...... END OF TWO-ELECTRON INTEGRALS .....
 STEP CPU TIME =     0.04 TOTAL CPU TIME =        0.1 (    0.0 MIN)
 TOTAL WALL CLOCK TIME=        0.1 SECONDS, CPU UTILIZATION IS  90.00%

          -----------------
          MCSCF CALCULATION
          -----------------

 ----- NUCLEAR ENERGY ----- =       119.9519221934

     ------------------------------------------------------------
       DIRECT DETERMINANT ORMAS-CI INPUT SORTER
       PROGRAM WRITTEN BY JOE IVANIC AND MIKE SCHMIDT
       ORMAS = OCCUPATION RESTRICTED MULTIPLE ACTIVE SPACE
     ------------------------------------------------------------

 THE POINT GROUP                  =   C2V     
 THE STATE SYMMETRY               =   A1      
 NUMBER OF CORE ORBITALS          =   14
 NUMBER OF ACTIVE ORBITALS        =    3
 NUMBER OF ALPHA ELECTRONS        =   16 (   2 ACTIVE)
 NUMBER OF BETA ELECTRONS         =   16 (   2 ACTIVE)
 NUMBER OF OCCUPIED ORBITALS      =   17

 NUMBER OF CI STATES REQUESTED    =    1
 NUMBER OF CI STARTING VECTORS    =    1
 MAX. NO. OF CI EXPANSION VECTORS =   10
 SIZE OF INITIAL CI GUESS MATRIX  =  300

 MAX. NO. OF CI ITERS/STATE       =  100
 CI DIAGONALIZATION CRITERION     = 1.00E-05
 PURE SPIN STATE AVERAGED 1E- AND 2E- DENSITY MATRIX OPTION=.T.
 STATE=   1 DM2 WEIGHT=   1.00000

 CORRELATION ENERGY ANALYSIS      =    F

 FULLY DIRECT OPTION              =    F

 CALC. OF DAVIDSON Q CORRECTION   =    F

 BLOCK SPACE MIXING IN NO DIAG    =    F

 SYMMETRIES FOR THE  14 CORE,   3 ACTIVE ARE

     CORE= A1    A1    B1    A1    A1    A1    B1    A1    B1    A1  
           B2    A2    A1    B1  

   ACTIVE= B2    B1    B2  

 THE NUMBER OF SPACES             =   1
 EACH SPACE STARTS AT ORBITAL     =  15
 NO OF ORBITALS IN EACH SPACE     =   3
 MIN NO OF ELECS IN EACH SPACE    =   4
 MAX NO OF ELECS IN EACH SPACE    =   4

 SPACE SPECIFICATIONS HAVE PASSED PRELIMINARY CHECKS

 ALL VALID DETERMINANTS WILL BE EXPRESSED AS PAIRS OF ALPHA AND BETA STRINGS.

 MIN NO OF ALPHA ELECS =    2
 MAX NO OF ALPHA ELECS =    2

 MIN NO OF BETA  ELECS =    2
 MAX NO OF BETA  ELECS =    2
 SOLVATION MODEL FOR MCSCF REQUIRES   2907460 ADDITIONAL WORDS OF MEMORY

     --------------------------------------------
     PARTIAL TWO ELECTRON INTEGRAL TRANSFORMATION
     --------------------------------------------

 NUMBER OF CORE MOLECULAR ORBITALS     =   14
 NUMBER OF OCCUPIED MOLECULAR ORBITALS =   17
 TOTAL NUMBER OF MOLECULAR ORBITALS    =   48
 TOTAL NUMBER OF ATOMIC ORBITALS       =   48
 THRESHOLD FOR KEEPING TRANSFORMED 2E- INTEGRALS = 1.000E-09
 AO INTEGRALS WILL BE READ IN FROM DISK...

 PLAN A: REQUIREMENTS FOR FULLY IN-MEMORY TRANSFORMATION:
 # OF WORDS AVAILABLE =              2092540
 # OF WORDS NEEDED    =              1031234

 CHOOSING IN MEMORY PARTIAL TRANSFORMATION...
 TOTAL NUMBER OF TRANSFORMED 2E- INTEGRALS KEPT =        66926
 ----- FROZEN CORE ENERGY =      -306.7066197665
 ... END OF INTEGRAL TRANSFORMATION ...
 STEP CPU TIME =     0.08 TOTAL CPU TIME =        0.2 (    0.0 MIN)
 TOTAL WALL CLOCK TIME=        0.2 SECONDS, CPU UTILIZATION IS 100.00%

     --------------------------------------------------
                 DIRECT DETERMINANT ORMAS-CI 
                PROGRAM WRITTEN BY JOE IVANIC
     --------------------------------------------------

 STORAGE OF BINOMIAL COEFFICIENTS REQUIRES          12 WORDS

 TOTAL NUMBER OF ALPHA GROUPS  =            1
 TOTAL NUMBER OF BETA  GROUPS  =            1

 TOTAL NUMBER OF ALPHA STRINGS =            3
 TOTAL NUMBER OF BETA  STRINGS =            3

 STORAGE OF TABLES REQUIRES                       169 WORDS

 TOTAL NUMBER OF ALPHA-BETA GROUP COMBINATIONS =            1
 OF THESE THE ALLOWED NUMBER OF COMBINATIONS   =            1

 TOTAL NUMBER OF (B -> B`) WHERE  (B` > B)  =            3

 TIME FOR SETTING UP TABLE SET 1 :          0.0

 THE NUMBER OF DETERMINANTS HAVING SPACE SYMMETRY A1 
 IN POINT GROUP C2V  WITH SZ=  0.0 IS              5

 INTEGRAL STORAGE REQUIRES                   30034 WORDS
 EXTRA ORMAS STORAGE REQUIRES               180352 WORDS
 (EXTRA ORMAS STORAGE INCLUDES THAT FOR MXXPAN = 10)
 TOTAL ORMAS CALCULATION REQUIRES           210567 WORDS

 FULLY DIRECT WOULD REQUIRE                 210533 WORDS
 SMALL CI MATRIX, JUST USING INCORE DIAGONALIZATION...

 INITIAL ORMAS VECTOR GUESS TIME :          0.0

 CI EIGENVECTORS WILL BE LABELED IN GROUP=C2V     
 PRINTING ALL NON-ZERO CI COEFFICIENTS

 STATE   1  ENERGY=      -191.9103911087  S=  0.00  SZ=  0.00  SPACE SYM=A1  

ALPHA  | BETA  | CI COEFFICIENT
 1     | 1     |
-------|-------|---------------
  1  2 |  1  2 |   0.9780762791
  2  3 |  2  3 |  -0.2048044701
  1  2 |  2  3 |   0.0231107544
  2  3 |  1  2 |   0.0231107544
  1  3 |  1  3 |  -0.0188071086

 ..... DONE WITH ORMAS-CI COMPUTATION .....
 STEP CPU TIME =     0.00 TOTAL CPU TIME =        0.2 (    0.0 MIN)
 TOTAL WALL CLOCK TIME=        0.2 SECONDS, CPU UTILIZATION IS 100.00%

     -------------------------------------------------------
      ONE AND TWO PARTICLE ORMAS DENSITY MATRIX COMPUTATION
                  PROGRAM WRITTEN BY JOE IVANIC
     -------------------------------------------------------

 THE DENSITIES ARE STATE AVERAGED OVER   1 ROOT(S)
 STATE=   1   ENERGY=     -191.9103911087   WEIGHT= 1.00000   S=  0.00
 SIEVING THE A1   SYMMETRY NONZERO DENSITY ELEMENTS IN GROUP C2V     
         13 NONZERO DM2 ELEMENTS WRITTEN IN       1 RECORDS TO FILE 70 LABELED AS DEN2P1 
         13 NONZERO DM2 ELEMENTS WRITTEN IN       1 RECORDS TO FILE 71 LABELED AS DEN2P2 
         13 NONZERO DM2 ELEMENTS WRITTEN IN       1 RECORDS TO FILE 72 LABELED AS DEN2P3 
         13 NONZERO DM2 ELEMENTS WRITTEN IN       1 RECORDS TO FILE 73 LABELED AS DEN2P4 
         13 NONZERO DM2 ELEMENTS WRITTEN IN       1 RECORDS TO FILE 15
 ..... DONE WITH 1 AND 2 PARTICLE DENSITY MATRIX .....
 STEP CPU TIME =     0.00 TOTAL CPU TIME =        0.2 (    0.0 MIN)
 TOTAL WALL CLOCK TIME=        0.2 SECONDS, CPU UTILIZATION IS  94.44%

     --------------------------------     -----------------------------
     MCHF NEWTON-RAPHSON OPTIMIZATION     CODE WRITTEN BY MICHEL DUPUIS
     --------------------------------     -----------------------------
 FORMING FOCK OPERATOR OVER ACTIVE ORBITAL DENSITY, MEMORY=     54492
 STEP CPU TIME =     0.00 TOTAL CPU TIME =        0.2 (    0.0 MIN)
 TOTAL WALL CLOCK TIME=        0.2 SECONDS, CPU UTILIZATION IS  94.44%
 MEMORY DEMAND FOR 2 ELECTRON NTN-RPH CONTRIBUTIONS
      METHOD=DM2     NEEDS    188868 WORDS
      METHOD=TEI     NEEDS     61515 WORDS
 TOTAL AVAILABLE MEMORY IS   2092540 WORDS
 CHOOSING DM2 DRIVEN METHOD...
 FORMING -LGR- + -COU- + -EXC- FROM (IJ//KL) INTEGRALS
 STEP CPU TIME =     0.00 TOTAL CPU TIME =        0.2 (    0.0 MIN)
 TOTAL WALL CLOCK TIME=        0.2 SECONDS, CPU UTILIZATION IS  94.44%
 FORMING -LGR- + -COU- + -EXC- FROM (AJ//KL) INTEGRALS
 STEP CPU TIME =     0.00 TOTAL CPU TIME =        0.2 (    0.0 MIN)
 TOTAL WALL CLOCK TIME=        0.2 SECONDS, CPU UTILIZATION IS  94.44%
 FORMING         -COU-         FROM (AB//KL) INTEGRALS
 STEP CPU TIME =     0.01 TOTAL CPU TIME =        0.2 (    0.0 MIN)
 TOTAL WALL CLOCK TIME=        0.2 SECONDS, CPU UTILIZATION IS 100.00%
 FORMING                 -EXC- FROM (AJ//BL) INTEGRALS
 ..... DONE WITH 2 ELECTRON CONTRIBUTIONS .....
 STEP CPU TIME =     0.00 TOTAL CPU TIME =        0.2 (    0.0 MIN)
 TOTAL WALL CLOCK TIME=        0.2 SECONDS, CPU UTILIZATION IS 100.00%
 ..... DONE WITH 1 ELECTRON CONTRIBUTIONS .....
 STEP CPU TIME =     0.00 TOTAL CPU TIME =        0.2 (    0.0 MIN)
 TOTAL WALL CLOCK TIME=        0.2 SECONDS, CPU UTILIZATION IS 100.00%
 NUMBER OF INDEPENDENT ORBITAL ROTATION PARAMETERS =   167
 ..... DONE SOLVING NEWTON-RAPHSON EQUATIONS .....
 STEP CPU TIME =     0.00 TOTAL CPU TIME =        0.2 (    0.0 MIN)
 TOTAL WALL CLOCK TIME=        0.2 SECONDS, CPU UTILIZATION IS 100.00%
 ..... DONE WITH NTN-RPH ORBITAL ROTATIONS ..... 
 STEP CPU TIME =     0.00 TOTAL CPU TIME =        0.2 (    0.0 MIN)
 TOTAL WALL CLOCK TIME=        0.2 SECONDS, CPU UTILIZATION IS 100.00%
 MAXIMUM MEMORY USED BY NTN-RPH CODE WAS    188868 WORDS.

 ITER     TOTAL ENERGY      DEL(E)  LAGRANGIAN ASYMMETRY   SQCDF  MICIT   DAMP
   1     -191.910391109 -0.910391109  0.000004   45   16 1.371E-10  1   0.0000
   2     -191.918207261 -0.007816152  0.015347   43   15 9.630E-04  1   0.0000
   3     -191.919221184 -0.001013923  0.004615   43   15 8.447E-04  1   0.0000
   4     -191.919296915 -0.000075731  0.001929   43   15 2.634E-05  1   0.0000
   5     -191.919308730 -0.000011815  0.000884   43   15 3.034E-06  1   0.0000
   6     -191.919311077 -0.000002347  0.000415   43   15 6.317E-07  1   0.0000
   7     -191.919311562 -0.000000486  0.000196   43   15 1.471E-07  1   0.0000
   8     -191.919311671 -0.000000109  0.000093   43   15 3.065E-08  1   0.0000
   9     -191.919311687 -0.000000016  0.000044   43   15 1.000E-08  1   0.0000
  10     -191.919311683  0.000000004  0.000020   43   15 1.461E-09  1   0.0000
  11     -191.919311690 -0.000000007  0.000009   43   15 2.630E-10  1   0.0000

          --------------------
          LAGRANGIAN CONVERGED
          --------------------

 FINAL MCSCF ENERGY IS     -191.9193116900 AFTER  11 ITERATIONS

 SS(V)PE  (LONG-RANGE DIELECTRIC) SOLVATION ENERGY          (G = FREE ENERGY)
 --------------------------------------------------------------------------------
                                                           AU           KCAL/MOL
 EGAS = INTERNAL ENERGY OF SOLUTE IN GAS PHASE       -191.91039111
 EINT = INTERNAL ENERGY OF SOLUTE IN SOLUTION        -191.90850134
 DINT = EINT-EGAS PORTION OF G OF SOLVATION             0.00188977       1.18585
        DUE TO POLARIZATION OF SOLUTE BY SS(V)PE 

 SS(V)PE  PORTION OF G OF SOLVATION=ERXNFIELD/2        -0.01081035      -6.78359

 EINT  +  SS(V)PE   G  IN  SOLUTION                  -191.91931169
 DINT  +  SS(V)PE   G  OF  SOLVATION                   -0.00892058      -5.59775

 (N.B.- THESE SOLVATION RESULTS ONLY TREAT             ELECTRONIC ENERGIES, AND SO DO NOT
  INCLUDE ANY             POSSIBLE CHANGES IN VIBRATIONAL OR ROTATIONAL/                   LIBRATIONAL  FREE
  ENERGIES UPON SOLVATION,                  EXCEPT TO THE EXTENT THAT THESE MAY BE INHERENTLY
  INCLUDED IN SOME  OVERALL AVERAGE MANNER THROUGH            THE EMPIRICAL OPTIMIZATION
  OF VARIOUS FITTED               PARAMETERS THAT ARE USED)

 SS(V)PE  SOLVATION METHOD PROPERTIES
 ------------------------------------
 CONVERGENCE ON SURFACE CHARGES     =      0.152389D-06
 CAVITY SURFACE AREA                =     376.93737 (    105.55323 ANG**2 )
 CAVITY VOLUME                      =     597.15408 (     88.48912 ANG**3 )
 TOTAL SURFACE  POLARIZATION CHARGE =   -0.01203551
 CHARGE PENETRATION FROM GAUSS LAW  =   -0.17680246
 
 CAVITY TRANSLATED TO XYZ (AU)      =      0.000000    0.000000   -0.158470
                      XYZ (ANG)     =      0.000000    0.000000   -0.083859
 CAVITY   ROTATED  BY TPC (RAD)     =      0.000000    0.000000    0.000000
                      TPC (DEG)     =       0.00000     0.00000     0.00000
 
 SOLUTE/CAVITY PROXIMITY
 -----------------------
 IAT =     1 ICAV =     355 DIST =   3.4682 (   1.8353  ANG ) 
 IAT =     2 ICAV =       3 DIST =   3.2268 (   1.7076  ANG ) 
 IAT =     3 ICAV =     726 DIST =   3.6022 (   1.9062  ANG ) 
 IAT =     4 ICAV =     725 DIST =   3.6022 (   1.9062  ANG ) 
 IAT =     5 ICAV =     368 DIST =   2.5160 (   1.3314  ANG ) 
 IAT =     6 ICAV =     367 DIST =   2.5160 (   1.3314  ANG ) 
 IAT =     7 ICAV =     266 DIST =   2.5095 (   1.3280  ANG ) 
 IAT =     8 ICAV =     265 DIST =   2.5095 (   1.3280  ANG ) 
 IAT =     9 ICAV =     262 DIST =   2.5095 (   1.3280  ANG ) 
 IAT =    10 ICAV =     261 DIST =   2.5095 (   1.3280  ANG ) 

 -MCCI- BASED ON OPTIMIZED ORBITALS
 ----------------------------------

 PLEASE NOTE: ORMAS IS NOT INVARIANT TO ORBITAL ROTATIONS BETWEEN THE
 DIFFERENT ACTIVE SPACES.  THE CI EXPANSION JUST BELOW IS FOR THE
 OPTIMIZED ORBITALS USED IN THE LAST ITERATION.  THE NATURAL ORBITALS
 ARE GENERATED BELOW, BUT THE NO'S ROTATE BETWEEN THE ACTIVE SPACES,
 SO THE NATURAL ORBITALS DO NOT REPRODUCE THE ORMAS WAVEFUNCTION.

 CI EIGENVECTORS WILL BE LABELED IN GROUP=C2V     
 PRINTING ALL NON-ZERO CI COEFFICIENTS

 STATE   1  ENERGY=      -191.9193116900  S=  0.00  SZ=  0.00  SPACE SYM=A1  

ALPHA  | BETA  | CI COEFFICIENT
 1     | 1     |
-------|-------|---------------
  1  2 |  1  2 |   0.9809868092
  2  3 |  2  3 |  -0.1930653472
  1  3 |  1  3 |  -0.0172784527
  2  3 |  1  2 |  -0.0067862694
  1  2 |  2  3 |  -0.0067862694

 DENSITY MATRIX OVER ACTIVE MO-S

             1           2           3

    1    1.9253594
    2    0.0000000   1.9994029
    3    0.0106941   0.0000000   0.0752377

 FORMING THE "STANDARD FOCK OPERATOR" USING INTEGRALS FROM DISK...
    14 FILLED,    3 ACTIVE, AND   31 VIRTUAL ORBITALS  WILL BE CANONICALIZED

          ----------------------
          MCSCF NATURAL ORBITALS
          ----------------------

                      1          2          3          4          5
                  -20.5773   -11.3304   -11.2175   -11.2174    -1.4242
                     A1         A1         B1         A1         A1  
    1  C  1  S    0.000164   0.996176  -0.000000  -0.004084  -0.112640
    2  C  1  S    0.000295   0.024662  -0.000000  -0.000673   0.225370
    3  C  1  X   -0.000000  -0.000000   0.000226  -0.000000  -0.000000
    4  C  1  Y   -0.000000  -0.000000  -0.000000  -0.000000  -0.000000
    5  C  1  Z   -0.000087   0.001214  -0.000000   0.000044   0.178147
    6  C  1  S    0.005978  -0.012997  -0.000000   0.005390   0.031223
    7  C  1  X   -0.000000  -0.000000  -0.004453  -0.000000  -0.000000
    8  C  1  Y   -0.000000  -0.000000  -0.000000  -0.000000  -0.000000
    9  C  1  Z    0.007098   0.003200  -0.000000  -0.000834  -0.079835
   10  O  2  S    0.995856  -0.000374  -0.000000   0.000005  -0.196926
   11  O  2  S    0.023319   0.000363  -0.000000  -0.000151   0.429593
   12  O  2  X   -0.000000  -0.000000  -0.000033  -0.000000  -0.000000
   13  O  2  Y   -0.000000  -0.000000  -0.000000  -0.000000  -0.000000
   14  O  2  Z   -0.002256  -0.000332  -0.000000   0.000080  -0.157009
   15  O  2  S   -0.014466  -0.000886  -0.000000  -0.000322   0.457320
   16  O  2  X   -0.000000  -0.000000   0.000462  -0.000000  -0.000000
   17  O  2  Y   -0.000000  -0.000000  -0.000000  -0.000000  -0.000000
   18  O  2  Z    0.004665   0.001280  -0.000000  -0.000004  -0.068611
   19  C  3  S   -0.000003   0.002732   0.704444   0.704365  -0.016051
   20  C  3  S   -0.000175  -0.000341   0.019017   0.018253   0.031663
   21  C  3  X   -0.000059  -0.000062   0.000190  -0.000012   0.016925
   22  C  3  Y   -0.000000  -0.000000  -0.000000  -0.000000  -0.000000
   23  C  3  Z   -0.000084  -0.000160  -0.000119  -0.000005   0.016865
   24  C  3  S    0.001049   0.003627  -0.015158  -0.012434   0.002782
   25  C  3  X    0.001165   0.002196  -0.001311   0.000095  -0.013452
   26  C  3  Y   -0.000000  -0.000000  -0.000000  -0.000000  -0.000000
   27  C  3  Z   -0.001112   0.000924  -0.000261  -0.000438   0.011265
   28  C  4  S   -0.000003   0.002732  -0.704444   0.704365  -0.016051
   29  C  4  S   -0.000175  -0.000341  -0.019017   0.018253   0.031663
   30  C  4  X    0.000059   0.000062   0.000190   0.000012  -0.016925
   31  C  4  Y   -0.000000  -0.000000  -0.000000  -0.000000  -0.000000
   32  C  4  Z   -0.000084  -0.000160   0.000119  -0.000005   0.016865
   33  C  4  S    0.001049   0.003627   0.015158  -0.012434   0.002782
   34  C  4  X   -0.001165  -0.002196  -0.001311  -0.000095   0.013452
   35  C  4  Y   -0.000000  -0.000000  -0.000000  -0.000000  -0.000000
   36  C  4  Z   -0.001112   0.000924   0.000261  -0.000438   0.011265
   37  H  5  S    0.000077  -0.000077   0.000074   0.000036   0.005524
   38  H  5  S    0.000572   0.000288   0.001952   0.002606  -0.003410
   39  H  6  S    0.000077  -0.000077  -0.000074   0.000036   0.005524
   40  H  6  S    0.000572   0.000288  -0.001952   0.002606  -0.003410
   41  H  7  S   -0.000045  -0.000168   0.000135  -0.000067   0.004585
   42  H  7  S   -0.000339   0.000308   0.002627   0.002155   0.000085
   43  H  8  S   -0.000045  -0.000168  -0.000135  -0.000067   0.004585
   44  H  8  S   -0.000339   0.000308  -0.002627   0.002155   0.000085
   45  H  9  S   -0.000045  -0.000168   0.000135  -0.000067   0.004585
   46  H  9  S   -0.000339   0.000308   0.002627   0.002155   0.000085
   47  H 10  S   -0.000045  -0.000168  -0.000135  -0.000067   0.004585
   48  H 10  S   -0.000339   0.000308  -0.002627   0.002155   0.000085

                      6          7          8          9         10
                   -1.0381    -0.9662    -0.7491    -0.6427    -0.6403
                     A1         B1         A1         B1         A1  
    1  C  1  S   -0.091035   0.000000  -0.132153   0.000000  -0.018871
    2  C  1  S    0.195643   0.000000   0.299632   0.000000   0.012630
    3  C  1  X   -0.000000  -0.183920  -0.000000   0.355720  -0.000000
    4  C  1  Y   -0.000000   0.000000  -0.000000   0.000000  -0.000000
    5  C  1  Z   -0.161264   0.000000   0.020561   0.000000  -0.340648
    6  C  1  S    0.123494   0.000000   0.280113   0.000000   0.146958
    7  C  1  X   -0.000000  -0.022388  -0.000000   0.186131  -0.000000
    8  C  1  Y   -0.000000   0.000000  -0.000000   0.000000  -0.000000
    9  C  1  Z   -0.025073   0.000000  -0.080758   0.000000  -0.047001
   10  O  2  S    0.063105   0.000000   0.083793   0.000000  -0.050064
   11  O  2  S   -0.142476   0.000000  -0.191110   0.000000   0.111900
   12  O  2  X   -0.000000  -0.085384  -0.000000   0.238420  -0.000000
   13  O  2  Y   -0.000000   0.000000  -0.000000   0.000000  -0.000000
   14  O  2  Z   -0.019239   0.000000  -0.296579   0.000000   0.362317
   15  O  2  S   -0.173453   0.000000  -0.288894   0.000000   0.200859
   16  O  2  X   -0.000000  -0.043234  -0.000000   0.114261  -0.000000
   17  O  2  Y   -0.000000   0.000000  -0.000000   0.000000  -0.000000
   18  O  2  Z   -0.008603   0.000000  -0.160691   0.000000   0.214254
   19  C  3  S   -0.124704  -0.138535   0.049642  -0.015060   0.014680
   20  C  3  S    0.236710   0.260747  -0.089014   0.017978  -0.025189
   21  C  3  X    0.046404  -0.015055   0.158435  -0.131496   0.218043
   22  C  3  Y   -0.000000   0.000000  -0.000000   0.000000  -0.000000
   23  C  3  Z    0.008562   0.006017   0.095323  -0.235001  -0.049857
   24  C  3  S    0.226410   0.279898  -0.154811   0.088747  -0.057660
   25  C  3  X    0.005390  -0.000329   0.027455  -0.041391   0.101012
   26  C  3  Y   -0.000000   0.000000  -0.000000   0.000000  -0.000000
   27  C  3  Z    0.000717  -0.000818   0.034919  -0.092389  -0.038335
   28  C  4  S   -0.124704   0.138535   0.049642   0.015060   0.014680
   29  C  4  S    0.236710  -0.260747  -0.089014  -0.017978  -0.025189
   30  C  4  X   -0.046404  -0.015055  -0.158435  -0.131496  -0.218043
   31  C  4  Y   -0.000000   0.000000  -0.000000   0.000000  -0.000000
   32  C  4  Z    0.008562  -0.006017   0.095323   0.235001  -0.049857
   33  C  4  S    0.226410  -0.279898  -0.154811  -0.088747  -0.057660
   34  C  4  X   -0.005390  -0.000329  -0.027455  -0.041391  -0.101012
   35  C  4  Y   -0.000000   0.000000  -0.000000   0.000000  -0.000000
   36  C  4  Z    0.000717   0.000818   0.034919   0.092389  -0.038335
   37  H  5  S    0.065897   0.099854  -0.080031  -0.010856  -0.134558
   38  H  5  S    0.003235   0.024380  -0.049127  -0.007357  -0.072021
   39  H  6  S    0.065897  -0.099854  -0.080031   0.010856  -0.134558
   40  H  6  S    0.003235  -0.024380  -0.049127   0.007357  -0.072021
   41  H  7  S    0.076657   0.092529  -0.076427   0.102176  -0.004116
   42  H  7  S    0.010748   0.016955  -0.035429   0.065407  -0.001510
   43  H  8  S    0.076657  -0.092529  -0.076427  -0.102176  -0.004116
   44  H  8  S    0.010748  -0.016955  -0.035429  -0.065407  -0.001510
   45  H  9  S    0.076657   0.092529  -0.076427   0.102176  -0.004116
   46  H  9  S    0.010748   0.016955  -0.035429   0.065407  -0.001510
   47  H 10  S    0.076657  -0.092529  -0.076427  -0.102176  -0.004116
   48  H 10  S    0.010748  -0.016955  -0.035429  -0.065407  -0.001510

                     11         12         13         14         15
                   -0.5887    -0.5514    -0.5503    -0.5238     1.9994
                     B2         A1         A2         B1         B1  
    1  C  1  S    0.000000  -0.016483  -0.000000   0.000000   0.000000
    2  C  1  S    0.000000   0.025761  -0.000000   0.000000   0.000000
    3  C  1  X    0.000000   0.000000  -0.000000  -0.177980  -0.162691
    4  C  1  Y    0.083712   0.000000  -0.000000   0.000000   0.000000
    5  C  1  Z    0.000000  -0.198952  -0.000000   0.000000   0.000000
    6  C  1  S    0.000000   0.103624  -0.000000   0.000000   0.000000
    7  C  1  X    0.000000   0.000000  -0.000000  -0.110377   0.033283
    8  C  1  Y    0.009338   0.000000  -0.000000   0.000000   0.000000
    9  C  1  Z    0.000000  -0.008107  -0.000000   0.000000   0.000000
   10  O  2  S    0.000000  -0.007190  -0.000000   0.000000   0.000000
   11  O  2  S    0.000000   0.012211  -0.000000   0.000000   0.000000
   12  O  2  X    0.000000   0.000000  -0.000000  -0.093750   0.594965
   13  O  2  Y   -0.020765   0.000000  -0.000000   0.000000   0.000000
   14  O  2  Z    0.000000   0.241569  -0.000000   0.000000   0.000000
   15  O  2  S    0.000000   0.023442  -0.000000   0.000000   0.000000
   16  O  2  X    0.000000   0.000000  -0.000000  -0.040582   0.461954
   17  O  2  Y   -0.032719   0.000000  -0.000000   0.000000   0.000000
   18  O  2  Z    0.000000   0.159360  -0.000000   0.000000   0.000000
   19  C  3  S    0.000000  -0.005408  -0.000000  -0.008700  -0.038520
   20  C  3  S    0.000000   0.011023  -0.000000   0.018649   0.066290
   21  C  3  X    0.000000  -0.046164  -0.000000   0.266916   0.149294
   22  C  3  Y    0.306207   0.000000   0.320708   0.000000   0.000000
   23  C  3  Z    0.000000   0.289213  -0.000000  -0.176892   0.131389
   24  C  3  S    0.000000   0.022592  -0.000000   0.012890   0.229097
   25  C  3  X    0.000000  -0.025833  -0.000000   0.144233   0.113077
   26  C  3  Y    0.161712   0.000000   0.178619   0.000000   0.000000
   27  C  3  Z    0.000000   0.148094  -0.000000  -0.115397   0.096879
   28  C  4  S    0.000000  -0.005408  -0.000000   0.008700   0.038520
   29  C  4  S    0.000000   0.011023  -0.000000  -0.018649  -0.066290
   30  C  4  X    0.000000   0.046164  -0.000000   0.266916   0.149294
   31  C  4  Y    0.306207   0.000000  -0.320708   0.000000   0.000000
   32  C  4  Z    0.000000   0.289213  -0.000000   0.176892  -0.131389
   33  C  4  S    0.000000   0.022592  -0.000000  -0.012890  -0.229097
   34  C  4  X    0.000000   0.025833  -0.000000   0.144233   0.113077
   35  C  4  Y    0.161712   0.000000  -0.178619   0.000000   0.000000
   36  C  4  Z    0.000000   0.148094  -0.000000   0.115397  -0.096879
   37  H  5  S    0.000000   0.150979  -0.000000  -0.217019  -0.003172
   38  H  5  S    0.000000   0.116614  -0.000000  -0.168006  -0.052523
   39  H  6  S    0.000000   0.150979  -0.000000   0.217019   0.003172
   40  H  6  S    0.000000   0.116614  -0.000000   0.168006   0.052523
   41  H  7  S    0.166287  -0.111172   0.175600   0.070238  -0.029640
   42  H  7  S    0.123882  -0.088151   0.125867   0.046426  -0.048445
   43  H  8  S    0.166287  -0.111172  -0.175600  -0.070238   0.029640
   44  H  8  S    0.123882  -0.088151  -0.125867  -0.046426   0.048445
   45  H  9  S   -0.166287  -0.111172  -0.175600   0.070238  -0.029640
   46  H  9  S   -0.123882  -0.088151  -0.125867   0.046426  -0.048445
   47  H 10  S   -0.166287  -0.111172   0.175600  -0.070238   0.029640
   48  H 10  S   -0.123882  -0.088151   0.125867  -0.046426   0.048445

                     16         17
                    1.9254     0.0752
                     B2         B2  
    1  C  1  S   -0.000000  -0.000000
    2  C  1  S   -0.000000  -0.000000
    3  C  1  X   -0.000000  -0.000000
    4  C  1  Y    0.346947  -0.573545
    5  C  1  Z   -0.000000  -0.000000
    6  C  1  S   -0.000000  -0.000000
    7  C  1  X   -0.000000  -0.000000
    8  C  1  Y    0.224719  -0.442207
    9  C  1  Z   -0.000000  -0.000000
   10  O  2  S   -0.000000  -0.000000
   11  O  2  S   -0.000000  -0.000000
   12  O  2  X   -0.000000  -0.000000
   13  O  2  Y    0.504660   0.647587
   14  O  2  Z   -0.000000  -0.000000
   15  O  2  S   -0.000000  -0.000000
   16  O  2  X   -0.000000  -0.000000
   17  O  2  Y    0.348028   0.153117
   18  O  2  Z   -0.000000  -0.000000
   19  C  3  S   -0.000000  -0.000000
   20  C  3  S   -0.000000  -0.000000
   21  C  3  X   -0.000000  -0.000000
   22  C  3  Y   -0.023974   0.046260
   23  C  3  Z   -0.000000  -0.000000
   24  C  3  S   -0.000000  -0.000000
   25  C  3  X   -0.000000  -0.000000
   26  C  3  Y   -0.037053   0.082183
   27  C  3  Z   -0.000000  -0.000000
   28  C  4  S   -0.000000  -0.000000
   29  C  4  S   -0.000000  -0.000000
   30  C  4  X   -0.000000  -0.000000
   31  C  4  Y   -0.023974   0.046260
   32  C  4  Z   -0.000000  -0.000000
   33  C  4  S   -0.000000  -0.000000
   34  C  4  X   -0.000000  -0.000000
   35  C  4  Y   -0.037053   0.082183
   36  C  4  Z   -0.000000  -0.000000
   37  H  5  S   -0.000000  -0.000000
   38  H  5  S   -0.000000  -0.000000
   39  H  6  S   -0.000000  -0.000000
   40  H  6  S   -0.000000  -0.000000
   41  H  7  S   -0.031638   0.052495
   42  H  7  S   -0.042032   0.066539
   43  H  8  S   -0.031638   0.052495
   44  H  8  S   -0.042032   0.066539
   45  H  9  S    0.031638  -0.052495
   46  H  9  S    0.042032  -0.066539
   47  H 10  S    0.031638  -0.052495
   48  H 10  S    0.042032  -0.066539

          ------------------------
          MCSCF OPTIMIZED ORBITALS
          ------------------------

                      1          2          3          4          5
                  -20.5773   -11.3304   -11.2175   -11.2174    -1.4242
                     A1         A1         B1         A1         A1  
    1  C  1  S    0.000164   0.996176  -0.000000  -0.004084  -0.112640
    2  C  1  S    0.000295   0.024662  -0.000000  -0.000673   0.225370
    3  C  1  X   -0.000000  -0.000000   0.000226  -0.000000  -0.000000
    4  C  1  Y   -0.000000  -0.000000  -0.000000  -0.000000  -0.000000
    5  C  1  Z   -0.000087   0.001214  -0.000000   0.000044   0.178147
    6  C  1  S    0.005978  -0.012997  -0.000000   0.005390   0.031223
    7  C  1  X   -0.000000  -0.000000  -0.004453  -0.000000  -0.000000
    8  C  1  Y   -0.000000  -0.000000  -0.000000  -0.000000  -0.000000
    9  C  1  Z    0.007098   0.003200  -0.000000  -0.000834  -0.079835
   10  O  2  S    0.995856  -0.000374  -0.000000   0.000005  -0.196926
   11  O  2  S    0.023319   0.000363  -0.000000  -0.000151   0.429593
   12  O  2  X   -0.000000  -0.000000  -0.000033  -0.000000  -0.000000
   13  O  2  Y   -0.000000  -0.000000  -0.000000  -0.000000  -0.000000
   14  O  2  Z   -0.002256  -0.000332  -0.000000   0.000080  -0.157009
   15  O  2  S   -0.014466  -0.000886  -0.000000  -0.000322   0.457320
   16  O  2  X   -0.000000  -0.000000   0.000462  -0.000000  -0.000000
   17  O  2  Y   -0.000000  -0.000000  -0.000000  -0.000000  -0.000000
   18  O  2  Z    0.004665   0.001280  -0.000000  -0.000004  -0.068611
   19  C  3  S   -0.000003   0.002732   0.704444   0.704365  -0.016051
   20  C  3  S   -0.000175  -0.000341   0.019017   0.018253   0.031663
   21  C  3  X   -0.000059  -0.000062   0.000190  -0.000012   0.016925
   22  C  3  Y   -0.000000  -0.000000  -0.000000  -0.000000  -0.000000
   23  C  3  Z   -0.000084  -0.000160  -0.000119  -0.000005   0.016865
   24  C  3  S    0.001049   0.003627  -0.015158  -0.012434   0.002782
   25  C  3  X    0.001165   0.002196  -0.001311   0.000095  -0.013452
   26  C  3  Y   -0.000000  -0.000000  -0.000000  -0.000000  -0.000000
   27  C  3  Z   -0.001112   0.000924  -0.000261  -0.000438   0.011265
   28  C  4  S   -0.000003   0.002732  -0.704444   0.704365  -0.016051
   29  C  4  S   -0.000175  -0.000341  -0.019017   0.018253   0.031663
   30  C  4  X    0.000059   0.000062   0.000190   0.000012  -0.016925
   31  C  4  Y   -0.000000  -0.000000  -0.000000  -0.000000  -0.000000
   32  C  4  Z   -0.000084  -0.000160   0.000119  -0.000005   0.016865
   33  C  4  S    0.001049   0.003627   0.015158  -0.012434   0.002782
   34  C  4  X   -0.001165  -0.002196  -0.001311  -0.000095   0.013452
   35  C  4  Y   -0.000000  -0.000000  -0.000000  -0.000000  -0.000000
   36  C  4  Z   -0.001112   0.000924   0.000261  -0.000438   0.011265
   37  H  5  S    0.000077  -0.000077   0.000074   0.000036   0.005524
   38  H  5  S    0.000572   0.000288   0.001952   0.002606  -0.003410
   39  H  6  S    0.000077  -0.000077  -0.000074   0.000036   0.005524
   40  H  6  S    0.000572   0.000288  -0.001952   0.002606  -0.003410
   41  H  7  S   -0.000045  -0.000168   0.000135  -0.000067   0.004585
   42  H  7  S   -0.000339   0.000308   0.002627   0.002155   0.000085
   43  H  8  S   -0.000045  -0.000168  -0.000135  -0.000067   0.004585
   44  H  8  S   -0.000339   0.000308  -0.002627   0.002155   0.000085
   45  H  9  S   -0.000045  -0.000168   0.000135  -0.000067   0.004585
   46  H  9  S   -0.000339   0.000308   0.002627   0.002155   0.000085
   47  H 10  S   -0.000045  -0.000168  -0.000135  -0.000067   0.004585
   48  H 10  S   -0.000339   0.000308  -0.002627   0.002155   0.000085

                      6          7          8          9         10
                   -1.0381    -0.9662    -0.7491    -0.6427    -0.6403
                     A1         B1         A1         B1         A1  
    1  C  1  S   -0.091035   0.000000  -0.132153   0.000000  -0.018871
    2  C  1  S    0.195643   0.000000   0.299632   0.000000   0.012630
    3  C  1  X   -0.000000  -0.183920  -0.000000   0.355720  -0.000000
    4  C  1  Y   -0.000000   0.000000  -0.000000   0.000000  -0.000000
    5  C  1  Z   -0.161264   0.000000   0.020561   0.000000  -0.340648
    6  C  1  S    0.123494   0.000000   0.280113   0.000000   0.146958
    7  C  1  X   -0.000000  -0.022388  -0.000000   0.186131  -0.000000
    8  C  1  Y   -0.000000   0.000000  -0.000000   0.000000  -0.000000
    9  C  1  Z   -0.025073   0.000000  -0.080758   0.000000  -0.047001
   10  O  2  S    0.063105   0.000000   0.083793   0.000000  -0.050064
   11  O  2  S   -0.142476   0.000000  -0.191110   0.000000   0.111900
   12  O  2  X   -0.000000  -0.085384  -0.000000   0.238420  -0.000000
   13  O  2  Y   -0.000000   0.000000  -0.000000   0.000000  -0.000000
   14  O  2  Z   -0.019239   0.000000  -0.296579   0.000000   0.362317
   15  O  2  S   -0.173453   0.000000  -0.288894   0.000000   0.200859
   16  O  2  X   -0.000000  -0.043234  -0.000000   0.114261  -0.000000
   17  O  2  Y   -0.000000   0.000000  -0.000000   0.000000  -0.000000
   18  O  2  Z   -0.008603   0.000000  -0.160691   0.000000   0.214254
   19  C  3  S   -0.124704  -0.138535   0.049642  -0.015060   0.014680
   20  C  3  S    0.236710   0.260747  -0.089014   0.017978  -0.025189
   21  C  3  X    0.046404  -0.015055   0.158435  -0.131496   0.218043
   22  C  3  Y   -0.000000   0.000000  -0.000000   0.000000  -0.000000
   23  C  3  Z    0.008562   0.006017   0.095323  -0.235001  -0.049857
   24  C  3  S    0.226410   0.279898  -0.154811   0.088747  -0.057660
   25  C  3  X    0.005390  -0.000329   0.027455  -0.041391   0.101012
   26  C  3  Y   -0.000000   0.000000  -0.000000   0.000000  -0.000000
   27  C  3  Z    0.000717  -0.000818   0.034919  -0.092389  -0.038335
   28  C  4  S   -0.124704   0.138535   0.049642   0.015060   0.014680
   29  C  4  S    0.236710  -0.260747  -0.089014  -0.017978  -0.025189
   30  C  4  X   -0.046404  -0.015055  -0.158435  -0.131496  -0.218043
   31  C  4  Y   -0.000000   0.000000  -0.000000   0.000000  -0.000000
   32  C  4  Z    0.008562  -0.006017   0.095323   0.235001  -0.049857
   33  C  4  S    0.226410  -0.279898  -0.154811  -0.088747  -0.057660
   34  C  4  X   -0.005390  -0.000329  -0.027455  -0.041391  -0.101012
   35  C  4  Y   -0.000000   0.000000  -0.000000   0.000000  -0.000000
   36  C  4  Z    0.000717   0.000818   0.034919   0.092389  -0.038335
   37  H  5  S    0.065897   0.099854  -0.080031  -0.010856  -0.134558
   38  H  5  S    0.003235   0.024380  -0.049127  -0.007357  -0.072021
   39  H  6  S    0.065897  -0.099854  -0.080031   0.010856  -0.134558
   40  H  6  S    0.003235  -0.024380  -0.049127   0.007357  -0.072021
   41  H  7  S    0.076657   0.092529  -0.076427   0.102176  -0.004116
   42  H  7  S    0.010748   0.016955  -0.035429   0.065407  -0.001510
   43  H  8  S    0.076657  -0.092529  -0.076427  -0.102176  -0.004116
   44  H  8  S    0.010748  -0.016955  -0.035429  -0.065407  -0.001510
   45  H  9  S    0.076657   0.092529  -0.076427   0.102176  -0.004116
   46  H  9  S    0.010748   0.016955  -0.035429   0.065407  -0.001510
   47  H 10  S    0.076657  -0.092529  -0.076427  -0.102176  -0.004116
   48  H 10  S    0.010748  -0.016955  -0.035429  -0.065407  -0.001510

                     11         12         13         14         15
                   -0.5887    -0.5514    -0.5503    -0.5238    -0.5095
                     B2         A1         A2         B1         B2  
    1  C  1  S    0.000000  -0.016483  -0.000000   0.000000   0.000000
    2  C  1  S    0.000000   0.025761  -0.000000   0.000000   0.000000
    3  C  1  X    0.000000   0.000000  -0.000000  -0.177980   0.000000
    4  C  1  Y    0.083712   0.000000  -0.000000   0.000000   0.334935
    5  C  1  Z    0.000000  -0.198952  -0.000000   0.000000   0.000000
    6  C  1  S    0.000000   0.103624  -0.000000   0.000000   0.000000
    7  C  1  X    0.000000   0.000000  -0.000000  -0.110377   0.000000
    8  C  1  Y    0.009338   0.000000  -0.000000   0.000000   0.215467
    9  C  1  Z    0.000000  -0.008107  -0.000000   0.000000   0.000000
   10  O  2  S    0.000000  -0.007190  -0.000000   0.000000   0.000000
   11  O  2  S    0.000000   0.012211  -0.000000   0.000000   0.000000
   12  O  2  X    0.000000   0.000000  -0.000000  -0.093750   0.000000
   13  O  2  Y   -0.020765   0.000000  -0.000000   0.000000   0.518028
   14  O  2  Z    0.000000   0.241569  -0.000000   0.000000   0.000000
   15  O  2  S    0.000000   0.023442  -0.000000   0.000000   0.000000
   16  O  2  X    0.000000   0.000000  -0.000000  -0.040582   0.000000
   17  O  2  Y   -0.032719   0.000000  -0.000000   0.000000   0.351140
   18  O  2  Z    0.000000   0.159360  -0.000000   0.000000   0.000000
   19  C  3  S    0.000000  -0.005408  -0.000000  -0.008700   0.000000
   20  C  3  S    0.000000   0.011023  -0.000000   0.018649   0.000000
   21  C  3  X    0.000000  -0.046164  -0.000000   0.266916   0.000000
   22  C  3  Y    0.306207   0.000000   0.320708   0.000000  -0.023007
   23  C  3  Z    0.000000   0.289213  -0.000000  -0.176892   0.000000
   24  C  3  S    0.000000   0.022592  -0.000000   0.012890   0.000000
   25  C  3  X    0.000000  -0.025833  -0.000000   0.144233   0.000000
   26  C  3  Y    0.161712   0.000000   0.178619   0.000000  -0.035334
   27  C  3  Z    0.000000   0.148094  -0.000000  -0.115397   0.000000
   28  C  4  S    0.000000  -0.005408  -0.000000   0.008700   0.000000
   29  C  4  S    0.000000   0.011023  -0.000000  -0.018649   0.000000
   30  C  4  X    0.000000   0.046164  -0.000000   0.266916   0.000000
   31  C  4  Y    0.306207   0.000000  -0.320708   0.000000  -0.023007
   32  C  4  Z    0.000000   0.289213  -0.000000   0.176892   0.000000
   33  C  4  S    0.000000   0.022592  -0.000000  -0.012890   0.000000
   34  C  4  X    0.000000   0.025833  -0.000000   0.144233   0.000000
   35  C  4  Y    0.161712   0.000000  -0.178619   0.000000  -0.035334
   36  C  4  Z    0.000000   0.148094  -0.000000   0.115397   0.000000
   37  H  5  S    0.000000   0.150979  -0.000000  -0.217019   0.000000
   38  H  5  S    0.000000   0.116614  -0.000000  -0.168006   0.000000
   39  H  6  S    0.000000   0.150979  -0.000000   0.217019   0.000000
   40  H  6  S    0.000000   0.116614  -0.000000   0.168006   0.000000
   41  H  7  S    0.166287  -0.111172   0.175600   0.070238  -0.030539
   42  H  7  S    0.123882  -0.088151   0.125867   0.046426  -0.040638
   43  H  8  S    0.166287  -0.111172  -0.175600  -0.070238  -0.030539
   44  H  8  S    0.123882  -0.088151  -0.125867  -0.046426  -0.040638
   45  H  9  S   -0.166287  -0.111172  -0.175600   0.070238   0.030539
   46  H  9  S   -0.123882  -0.088151  -0.125867   0.046426   0.040638
   47  H 10  S   -0.166287  -0.111172   0.175600  -0.070238   0.030539
   48  H 10  S   -0.123882  -0.088151   0.125867  -0.046426   0.040638

                     16         17         18         19         20
                   -0.4399     0.2495     0.2428     0.2933     0.3072
                     B1         B2         A1         A1         B1  
    1  C  1  S   -0.000000   0.000000   0.005805   0.010332   0.000000
    2  C  1  S   -0.000000   0.000000   0.066992   0.026463   0.000000
    3  C  1  X   -0.162691   0.000000  -0.000000  -0.000000   0.056199
    4  C  1  Y   -0.000000  -0.580641  -0.000000  -0.000000   0.000000
    5  C  1  Z   -0.000000   0.000000  -0.017670  -0.070488   0.000000
    6  C  1  S   -0.000000   0.000000  -0.284727  -0.322159   0.000000
    7  C  1  X    0.033283   0.000000  -0.000000  -0.000000   0.399110
    8  C  1  Y   -0.000000  -0.446788  -0.000000  -0.000000   0.000000
    9  C  1  Z   -0.000000   0.000000  -0.250675   0.007701   0.000000
   10  O  2  S   -0.000000   0.000000  -0.020579  -0.017268   0.000000
   11  O  2  S   -0.000000   0.000000   0.031780   0.034725   0.000000
   12  O  2  X    0.594965   0.000000  -0.000000  -0.000000  -0.082766
   13  O  2  Y   -0.000000   0.636943  -0.000000  -0.000000   0.000000
   14  O  2  Z   -0.000000   0.000000  -0.022543  -0.101991   0.000000
   15  O  2  S   -0.000000   0.000000   0.330873   0.189406   0.000000
   16  O  2  X    0.461954   0.000000  -0.000000  -0.000000  -0.134942
   17  O  2  Y   -0.000000   0.145841  -0.000000  -0.000000   0.000000
   18  O  2  Z   -0.000000   0.000000  -0.145229  -0.165577   0.000000
   19  C  3  S   -0.038520   0.000000  -0.094170   0.023169  -0.099620
   20  C  3  S    0.066290   0.000000   0.066626  -0.035887   0.041096
   21  C  3  X    0.149294   0.000000  -0.039942   0.098984  -0.126141
   22  C  3  Y   -0.000000   0.046749  -0.000000  -0.000000   0.000000
   23  C  3  Z    0.131389   0.000000  -0.083274  -0.152630  -0.061101
   24  C  3  S    0.229097   0.000000   1.673777  -0.265119   2.078552
   25  C  3  X    0.113077   0.000000  -0.372402   0.574240  -0.269539
   26  C  3  Y   -0.000000   0.082937  -0.000000  -0.000000   0.000000
   27  C  3  Z    0.096879   0.000000  -0.321374  -0.777295  -0.185777
   28  C  4  S    0.038520   0.000000  -0.094170   0.023169   0.099620
   29  C  4  S   -0.066290   0.000000   0.066626  -0.035887  -0.041096
   30  C  4  X    0.149294   0.000000   0.039942  -0.098984  -0.126141
   31  C  4  Y   -0.000000   0.046749  -0.000000  -0.000000   0.000000
   32  C  4  Z   -0.131389   0.000000  -0.083274  -0.152630   0.061101
   33  C  4  S   -0.229097   0.000000   1.673777  -0.265119  -2.078552
   34  C  4  X    0.113077   0.000000   0.372402  -0.574240  -0.269539
   35  C  4  Y   -0.000000   0.082937  -0.000000  -0.000000   0.000000
   36  C  4  Z   -0.096879   0.000000  -0.321374  -0.777295   0.185777
   37  H  5  S   -0.003172   0.000000  -0.006896   0.081109   0.028135
   38  H  5  S   -0.052523   0.000000  -0.661314   1.407982  -0.859251
   39  H  6  S    0.003172   0.000000  -0.006896   0.081109  -0.028135
   40  H  6  S    0.052523   0.000000  -0.661314   1.407982   0.859251
   41  H  7  S   -0.029640   0.053142   0.005567  -0.044675  -0.014624
   42  H  7  S   -0.048445   0.067399  -0.911637  -0.476178  -0.944395
   43  H  8  S    0.029640   0.053142   0.005567  -0.044675   0.014624
   44  H  8  S    0.048445   0.067399  -0.911637  -0.476178   0.944395
   45  H  9  S   -0.029640  -0.053142   0.005567  -0.044675  -0.014624
   46  H  9  S   -0.048445  -0.067399  -0.911637  -0.476178  -0.944395
   47  H 10  S    0.029640  -0.053142   0.005567  -0.044675   0.014624
   48  H 10  S    0.048445  -0.067399  -0.911637  -0.476178   0.944395

                     21         22         23         24         25
                    0.3231     0.3423     0.3451     0.3770     0.4733
                     B2         A2         B1         A1         B1  
    1  C  1  S    0.000000  -0.000000  -0.000000  -0.149741  -0.000000
    2  C  1  S    0.000000  -0.000000  -0.000000   0.123233  -0.000000
    3  C  1  X    0.000000  -0.000000   0.079373  -0.000000   0.512584
    4  C  1  Y    0.055804  -0.000000  -0.000000  -0.000000  -0.000000
    5  C  1  Z    0.000000  -0.000000  -0.000000  -0.212823  -0.000000
    6  C  1  S    0.000000  -0.000000  -0.000000   3.270988  -0.000000
    7  C  1  X    0.000000  -0.000000   0.070046  -0.000000   2.755252
    8  C  1  Y    0.541039  -0.000000  -0.000000  -0.000000  -0.000000
    9  C  1  Z    0.000000  -0.000000  -0.000000  -1.370592  -0.000000
   10  O  2  S    0.000000  -0.000000  -0.000000   0.004515  -0.000000
   11  O  2  S    0.000000  -0.000000  -0.000000  -0.026178  -0.000000
   12  O  2  X    0.000000  -0.000000  -0.000018  -0.000000  -0.095596
   13  O  2  Y   -0.008013  -0.000000  -0.000000  -0.000000  -0.000000
   14  O  2  Z    0.000000  -0.000000  -0.000000   0.085133  -0.000000
   15  O  2  S    0.000000  -0.000000  -0.000000   0.120730  -0.000000
   16  O  2  X    0.000000  -0.000000  -0.055287  -0.000000  -0.542197
   17  O  2  Y   -0.105209  -0.000000  -0.000000  -0.000000  -0.000000
   18  O  2  Z    0.000000  -0.000000  -0.000000   0.121967  -0.000000
   19  C  3  S    0.000000  -0.000000  -0.011693   0.070140  -0.051698
   20  C  3  S    0.000000  -0.000000   0.028830  -0.008781  -0.041620
   21  C  3  X    0.000000  -0.000000   0.183928  -0.095508   0.040818
   22  C  3  Y   -0.253171  -0.215036  -0.000000  -0.000000  -0.000000
   23  C  3  Z    0.000000  -0.000000  -0.185467  -0.092806   0.029706
   24  C  3  S    0.000000  -0.000000   0.006748  -1.517003   1.553267
   25  C  3  X    0.000000  -0.000000   0.781930  -1.373818   1.247937
   26  C  3  Y   -1.163840  -1.113570  -0.000000  -0.000000  -0.000000
   27  C  3  Z    0.000000  -0.000000  -0.826287  -0.502191   1.494747
   28  C  4  S    0.000000  -0.000000   0.011693   0.070140   0.051698
   29  C  4  S    0.000000  -0.000000  -0.028830  -0.008781   0.041620
   30  C  4  X    0.000000  -0.000000   0.183928   0.095508   0.040818
   31  C  4  Y   -0.253171   0.215036  -0.000000  -0.000000  -0.000000
   32  C  4  Z    0.000000  -0.000000   0.185467  -0.092806  -0.029706
   33  C  4  S    0.000000  -0.000000  -0.006748  -1.517003  -1.553267
   34  C  4  X    0.000000  -0.000000   0.781930   1.373818   1.247937
   35  C  4  Y   -1.163840   1.113570  -0.000000  -0.000000  -0.000000
   36  C  4  Z    0.000000  -0.000000   0.826287  -0.502191  -1.494747
   37  H  5  S    0.000000  -0.000000   0.037643  -0.041497   0.044373
   38  H  5  S    0.000000  -0.000000   1.499789  -0.080558  -0.180751
   39  H  6  S    0.000000  -0.000000  -0.037643  -0.041497  -0.044373
   40  H  6  S    0.000000  -0.000000  -1.499789  -0.080558   0.180751
   41  H  7  S    0.002001   0.071004  -0.009798  -0.026892   0.070772
   42  H  7  S    1.205100   1.225720  -0.639263   0.042546   0.418847
   43  H  8  S    0.002001  -0.071004   0.009798  -0.026892  -0.070772
   44  H  8  S    1.205100  -1.225720   0.639263   0.042546  -0.418847
   45  H  9  S   -0.002001  -0.071004  -0.009798  -0.026892   0.070772
   46  H  9  S   -1.205100  -1.225720  -0.639263   0.042546   0.418847
   47  H 10  S   -0.002001   0.071004   0.009798  -0.026892  -0.070772
   48  H 10  S   -1.205100   1.225720   0.639263   0.042546  -0.418847

                     26         27         28         29         30
                    0.4860     0.7265     0.7602     0.7916     0.8354
                     A1         A1         B2         A2         B1  
    1  C  1  S   -0.052455  -0.033998  -0.000000  -0.000000  -0.000000
    2  C  1  S   -0.052871   0.114046  -0.000000  -0.000000  -0.000000
    3  C  1  X   -0.000000  -0.000000  -0.000000  -0.000000   0.007273
    4  C  1  Y   -0.000000  -0.000000   0.820418  -0.000000  -0.000000
    5  C  1  Z    0.110013  -0.027354  -0.000000  -0.000000  -0.000000
    6  C  1  S    1.747937   0.064137  -0.000000  -0.000000  -0.000000
    7  C  1  X   -0.000000  -0.000000  -0.000000  -0.000000   0.675374
    8  C  1  Y   -0.000000  -0.000000  -0.650287  -0.000000  -0.000000
    9  C  1  Z    2.799158   1.130021  -0.000000  -0.000000  -0.000000
   10  O  2  S    0.111058   0.018652  -0.000000  -0.000000  -0.000000
   11  O  2  S   -0.143577   0.007617  -0.000000  -0.000000  -0.000000
   12  O  2  X   -0.000000  -0.000000  -0.000000  -0.000000  -0.338497
   13  O  2  Y   -0.000000  -0.000000   0.073485  -0.000000  -0.000000
   14  O  2  Z    0.107084   0.000933  -0.000000  -0.000000  -0.000000
   15  O  2  S   -2.528990  -0.748252  -0.000000  -0.000000  -0.000000
   16  O  2  X   -0.000000  -0.000000  -0.000000  -0.000000  -0.083679
   17  O  2  Y   -0.000000  -0.000000   0.061310  -0.000000  -0.000000
   18  O  2  Z    1.058562   0.264771  -0.000000  -0.000000  -0.000000
   19  C  3  S   -0.000064   0.008801  -0.000000  -0.000000  -0.019805
   20  C  3  S   -0.059785  -0.182352  -0.000000  -0.000000   0.209067
   21  C  3  X   -0.040181  -0.495452  -0.000000  -0.000000   0.369690
   22  C  3  Y   -0.000000  -0.000000   0.301572  -0.578948  -0.000000
   23  C  3  Z   -0.145292   0.276037  -0.000000  -0.000000   0.518555
   24  C  3  S    0.721026   0.652949  -0.000000  -0.000000   0.215955
   25  C  3  X    0.518861   0.772807  -0.000000  -0.000000  -0.118469
   26  C  3  Y   -0.000000  -0.000000  -0.657523   1.150900  -0.000000
   27  C  3  Z   -0.683996  -0.851256  -0.000000  -0.000000  -0.623137
   28  C  4  S   -0.000064   0.008801  -0.000000  -0.000000   0.019805
   29  C  4  S   -0.059785  -0.182352  -0.000000  -0.000000  -0.209067
   30  C  4  X    0.040181   0.495452  -0.000000  -0.000000   0.369690
   31  C  4  Y   -0.000000  -0.000000   0.301572   0.578948  -0.000000
   32  C  4  Z   -0.145292   0.276037  -0.000000  -0.000000  -0.518555
   33  C  4  S    0.721026   0.652949  -0.000000  -0.000000  -0.215955
   34  C  4  X   -0.518861  -0.772807  -0.000000  -0.000000  -0.118469
   35  C  4  Y   -0.000000  -0.000000  -0.657523  -1.150900  -0.000000
   36  C  4  Z   -0.683996  -0.851256  -0.000000  -0.000000   0.623137
   37  H  5  S   -0.095033   0.339357  -0.000000  -0.000000   0.225168
   38  H  5  S    0.436916   0.025839  -0.000000  -0.000000   0.007691
   39  H  6  S   -0.095033   0.339357  -0.000000  -0.000000  -0.225168
   40  H  6  S    0.436916   0.025839  -0.000000  -0.000000  -0.007691
   41  H  7  S    0.025617  -0.198266   0.227490  -0.311868  -0.166764
   42  H  7  S   -0.424597  -0.203682   0.222291  -0.129155  -0.008186
   43  H  8  S    0.025617  -0.198266   0.227490   0.311868   0.166764
   44  H  8  S   -0.424597  -0.203682   0.222291   0.129155   0.008186
   45  H  9  S    0.025617  -0.198266  -0.227490   0.311868  -0.166764
   46  H  9  S   -0.424597  -0.203682  -0.222291   0.129155  -0.008186
   47  H 10  S    0.025617  -0.198266  -0.227490  -0.311868   0.166764
   48  H 10  S   -0.424597  -0.203682  -0.222291  -0.129155   0.008186

                     31         32         33         34         35
                    0.8436     0.9396     0.9780     0.9849     1.0494
                     A1         B2         B1         A1         B1  
    1  C  1  S    0.064669  -0.000000  -0.000000  -0.040209  -0.000000
    2  C  1  S    0.190438  -0.000000  -0.000000   0.781503  -0.000000
    3  C  1  X   -0.000000  -0.000000  -0.928933  -0.000000  -0.520083
    4  C  1  Y   -0.000000  -0.655658  -0.000000  -0.000000  -0.000000
    5  C  1  Z    0.073478  -0.000000  -0.000000   1.159031  -0.000000
    6  C  1  S    0.493626  -0.000000  -0.000000   0.335444  -0.000000
    7  C  1  X   -0.000000  -0.000000   2.125169  -0.000000   2.859455
    8  C  1  Y   -0.000000   1.783945  -0.000000  -0.000000  -0.000000
    9  C  1  Z    1.274266  -0.000000  -0.000000  -1.108738  -0.000000
   10  O  2  S    0.010595  -0.000000  -0.000000   0.058530  -0.000000
   11  O  2  S    0.059508  -0.000000  -0.000000  -0.170072  -0.000000
   12  O  2  X   -0.000000  -0.000000  -0.141519  -0.000000  -0.211114
   13  O  2  Y   -0.000000  -0.130492  -0.000000  -0.000000  -0.000000
   14  O  2  Z   -0.069069  -0.000000  -0.000000   0.189837  -0.000000
   15  O  2  S   -0.883855  -0.000000  -0.000000   0.032675  -0.000000
   16  O  2  X   -0.000000  -0.000000  -0.151027  -0.000000  -0.229869
   17  O  2  Y   -0.000000  -0.212222  -0.000000  -0.000000  -0.000000
   18  O  2  Z    0.310444  -0.000000  -0.000000   0.844829  -0.000000
   19  C  3  S   -0.031722  -0.000000   0.042320   0.003336  -0.010580
   20  C  3  S    0.177043  -0.000000  -0.059311   0.149574  -0.134272
   21  C  3  X    0.479404  -0.000000  -0.426554   0.043308   0.512115
   22  C  3  Y   -0.000000   0.514101  -0.000000  -0.000000  -0.000000
   23  C  3  Z    0.603366  -0.000000  -0.061120  -0.027829  -0.460349
   24  C  3  S    0.472342  -0.000000   0.413328  -0.718669   1.824452
   25  C  3  X   -0.169088  -0.000000   1.283291  -0.135855  -0.781713
   26  C  3  Y   -0.000000  -1.711412  -0.000000  -0.000000  -0.000000
   27  C  3  Z   -1.127748  -0.000000   0.390913   0.160339   1.949331
   28  C  4  S   -0.031722  -0.000000  -0.042320   0.003336   0.010580
   29  C  4  S    0.177043  -0.000000   0.059311   0.149574   0.134272
   30  C  4  X   -0.479404  -0.000000  -0.426554  -0.043308   0.512115
   31  C  4  Y   -0.000000   0.514101  -0.000000  -0.000000  -0.000000
   32  C  4  Z    0.603366  -0.000000   0.061120  -0.027829   0.460349
   33  C  4  S    0.472342  -0.000000  -0.413328  -0.718669  -1.824452
   34  C  4  X    0.169088  -0.000000   1.283291   0.135855  -0.781713
   35  C  4  Y   -0.000000  -1.711412  -0.000000  -0.000000  -0.000000
   36  C  4  Z   -1.127748  -0.000000  -0.390913   0.160339  -1.949331
   37  H  5  S   -0.064283  -0.000000   0.313823   0.074488  -0.153240
   38  H  5  S    0.249986  -0.000000   0.445538   0.096096  -1.091337
   39  H  6  S   -0.064283  -0.000000  -0.313823   0.074488   0.153240
   40  H  6  S    0.249986  -0.000000  -0.445538   0.096096   1.091337
   41  H  7  S   -0.111769   0.215407   0.100001   0.059879  -0.016210
   42  H  7  S   -0.294307   0.514235   0.225478   0.075973   0.369829
   43  H  8  S   -0.111769   0.215407  -0.100001   0.059879   0.016210
   44  H  8  S   -0.294307   0.514235  -0.225478   0.075973  -0.369829
   45  H  9  S   -0.111769  -0.215407   0.100001   0.059879  -0.016210
   46  H  9  S   -0.294307  -0.514235   0.225478   0.075973   0.369829
   47  H 10  S   -0.111769  -0.215407  -0.100001   0.059879   0.016210
   48  H 10  S   -0.294307  -0.514235  -0.225478   0.075973  -0.369829

                     36         37         38         39         40
                    1.0731     1.1401     1.2055     1.2401     1.2482
                     A1         B2         A1         B1         A2  
    1  C  1  S    0.009046  -0.000000  -0.052918   0.000000   0.000000
    2  C  1  S   -1.673620  -0.000000  -0.264836   0.000000   0.000000
    3  C  1  X   -0.000000  -0.000000  -0.000000  -0.207859   0.000000
    4  C  1  Y   -0.000000  -0.065958  -0.000000   0.000000   0.000000
    5  C  1  Z    0.494186  -0.000000   0.294011   0.000000   0.000000
    6  C  1  S    3.651616  -0.000000  -0.489667   0.000000   0.000000
    7  C  1  X   -0.000000  -0.000000  -0.000000   1.222983   0.000000
    8  C  1  Y   -0.000000  -0.595366  -0.000000   0.000000   0.000000
    9  C  1  Z   -1.456908  -0.000000  -0.251481   0.000000   0.000000
   10  O  2  S   -0.001523  -0.000000  -0.023665   0.000000   0.000000
   11  O  2  S    0.002651  -0.000000   0.175889   0.000000   0.000000
   12  O  2  X   -0.000000  -0.000000  -0.000000  -0.105320   0.000000
   13  O  2  Y   -0.000000  -0.604067  -0.000000   0.000000   0.000000
   14  O  2  Z   -0.094790  -0.000000   0.842669   0.000000   0.000000
   15  O  2  S   -0.036037  -0.000000   0.120921   0.000000   0.000000
   16  O  2  X   -0.000000  -0.000000  -0.000000  -0.133003   0.000000
   17  O  2  Y   -0.000000   0.966247  -0.000000   0.000000   0.000000
   18  O  2  Z    0.195672  -0.000000  -0.988233   0.000000   0.000000
   19  C  3  S   -0.038313  -0.000000  -0.000293  -0.003520   0.000000
   20  C  3  S   -0.075002  -0.000000  -0.683439   0.022867   0.000000
   21  C  3  X    0.114390  -0.000000   0.013125  -0.088218   0.000000
   22  C  3  Y   -0.000000  -0.436282  -0.000000   0.000000   0.615280
   23  C  3  Z   -0.131060  -0.000000   0.198988   0.466344   0.000000
   24  C  3  S   -0.566554  -0.000000   1.407511   0.689827   0.000000
   25  C  3  X   -1.021005  -0.000000  -0.043902   0.162407   0.000000
   26  C  3  Y   -0.000000   0.645231  -0.000000   0.000000  -0.792387
   27  C  3  Z   -0.143929  -0.000000  -0.288818  -0.006147   0.000000
   28  C  4  S   -0.038313  -0.000000  -0.000293   0.003520   0.000000
   29  C  4  S   -0.075002  -0.000000  -0.683439  -0.022867   0.000000
   30  C  4  X   -0.114390  -0.000000  -0.013125  -0.088218   0.000000
   31  C  4  Y   -0.000000  -0.436282  -0.000000   0.000000  -0.615280
   32  C  4  Z   -0.131060  -0.000000   0.198988  -0.466344   0.000000
   33  C  4  S   -0.566554  -0.000000   1.407511  -0.689827   0.000000
   34  C  4  X    1.021005  -0.000000   0.043902   0.162407   0.000000
   35  C  4  Y   -0.000000   0.645231  -0.000000   0.000000   0.792387
   36  C  4  Z   -0.143929  -0.000000  -0.288818   0.006147   0.000000
   37  H  5  S   -0.014938  -0.000000  -0.142027  -0.713923   0.000000
   38  H  5  S   -0.452546  -0.000000  -0.037561   0.744867   0.000000
   39  H  6  S   -0.014938  -0.000000  -0.142027   0.713923   0.000000
   40  H  6  S   -0.452546  -0.000000  -0.037561  -0.744867   0.000000
   41  H  7  S   -0.297243   0.400515   0.131248   0.408399  -0.612656
   42  H  7  S   -0.017591  -0.579129  -0.537721  -0.464991   1.028803
   43  H  8  S   -0.297243   0.400515   0.131248  -0.408399   0.612656
   44  H  8  S   -0.017591  -0.579129  -0.537721   0.464991  -1.028803
   45  H  9  S   -0.297243  -0.400515   0.131248   0.408399   0.612656
   46  H  9  S   -0.017591   0.579129  -0.537721  -0.464991  -1.028803
   47  H 10  S   -0.297243  -0.400515   0.131248  -0.408399  -0.612656
   48  H 10  S   -0.017591   0.579129  -0.537721   0.464991   1.028803

                     41         42         43         44         45
                    1.2572     1.2644     1.2841     1.2846     1.4053
                     A1         B2         B1         A1         B1  
    1  C  1  S    0.007863   0.000000   0.000000  -0.017974  -0.000000
    2  C  1  S   -0.106793   0.000000   0.000000   0.393261  -0.000000
    3  C  1  X    0.000000   0.000000   0.121377  -0.000000  -0.380826
    4  C  1  Y    0.000000   0.088784   0.000000  -0.000000  -0.000000
    5  C  1  Z   -0.057145   0.000000   0.000000  -0.083412  -0.000000
    6  C  1  S   -0.015442   0.000000   0.000000  -0.722242  -0.000000
    7  C  1  X    0.000000   0.000000  -0.188733  -0.000000   2.561500
    8  C  1  Y    0.000000  -0.885878   0.000000  -0.000000  -0.000000
    9  C  1  Z    0.243011   0.000000   0.000000   0.913008  -0.000000
   10  O  2  S    0.013065   0.000000   0.000000  -0.000679  -0.000000
   11  O  2  S   -0.132853   0.000000   0.000000   0.085023  -0.000000
   12  O  2  X    0.000000   0.000000   0.119054  -0.000000   0.863159
   13  O  2  Y    0.000000  -0.565259   0.000000  -0.000000  -0.000000
   14  O  2  Z   -0.209127   0.000000   0.000000   0.485487  -0.000000
   15  O  2  S   -0.008075   0.000000   0.000000  -0.450395  -0.000000
   16  O  2  X    0.000000   0.000000  -0.117194  -0.000000  -1.672728
   17  O  2  Y    0.000000   1.045724   0.000000  -0.000000  -0.000000
   18  O  2  Z    0.250656   0.000000   0.000000  -0.469568  -0.000000
   19  C  3  S    0.033535   0.000000   0.035631  -0.005008   0.002242
   20  C  3  S   -0.921384   0.000000  -1.122844   0.609244   0.381466
   21  C  3  X    0.411053   0.000000   0.310056   0.270307   0.172530
   22  C  3  Y    0.000000   0.416196   0.000000  -0.000000  -0.000000
   23  C  3  Z   -0.080242   0.000000   0.148059  -0.378163   0.095867
   24  C  3  S    1.765390   0.000000   2.104151  -0.711474   0.633102
   25  C  3  X   -0.415913   0.000000  -0.463163   0.175361   0.113120
   26  C  3  Y    0.000000  -0.099333   0.000000  -0.000000  -0.000000
   27  C  3  Z    0.096812   0.000000  -0.300717   0.271690   0.611943
   28  C  4  S    0.033535   0.000000  -0.035631  -0.005008  -0.002242
   29  C  4  S   -0.921384   0.000000   1.122844   0.609244  -0.381466
   30  C  4  X   -0.411053   0.000000   0.310056  -0.270307   0.172530
   31  C  4  Y    0.000000   0.416196   0.000000  -0.000000  -0.000000
   32  C  4  Z   -0.080242   0.000000  -0.148059  -0.378163  -0.095867
   33  C  4  S    1.765390   0.000000  -2.104151  -0.711474  -0.633102
   34  C  4  X    0.415913   0.000000  -0.463163  -0.175361   0.113120
   35  C  4  Y    0.000000  -0.099333   0.000000  -0.000000  -0.000000
   36  C  4  Z    0.096812   0.000000   0.300717   0.271690  -0.611943
   37  H  5  S    0.669453   0.000000   0.411353   0.507558   0.035761
   38  H  5  S   -1.131187   0.000000  -0.820787  -0.318825  -0.187123
   39  H  6  S    0.669453   0.000000  -0.411353   0.507558  -0.035761
   40  H  6  S   -1.131187   0.000000   0.820787  -0.318825   0.187123
   41  H  7  S    0.177058  -0.460980   0.368216  -0.325716   0.009958
   42  H  7  S   -0.345367   0.542576  -0.818011   0.616051   0.247524
   43  H  8  S    0.177058  -0.460980  -0.368216  -0.325716  -0.009958
   44  H  8  S   -0.345367   0.542576   0.818011   0.616051  -0.247524
   45  H  9  S    0.177058   0.460980   0.368216  -0.325716   0.009958
   46  H  9  S   -0.345367  -0.542576  -0.818011   0.616051   0.247524
   47  H 10  S    0.177058   0.460980  -0.368216  -0.325716  -0.009958
   48  H 10  S   -0.345367  -0.542576   0.818011   0.616051  -0.247524

                     46         47         48
                    1.4887     1.7250     2.0803
                     A1         B1         A1  
    1  C  1  S   -0.066965  -0.000000  -0.038351
    2  C  1  S   -1.246299  -0.000000  -0.390568
    3  C  1  X   -0.000000  -0.225532   0.000000
    4  C  1  Y   -0.000000  -0.000000   0.000000
    5  C  1  Z    0.082464  -0.000000  -0.174794
    6  C  1  S    5.160616  -0.000000  -1.800034
    7  C  1  X   -0.000000   3.934844   0.000000
    8  C  1  Y   -0.000000  -0.000000   0.000000
    9  C  1  Z   -0.913001  -0.000000  -2.777217
   10  O  2  S   -0.008654  -0.000000   0.028654
   11  O  2  S    0.213573  -0.000000  -1.992220
   12  O  2  X   -0.000000   0.154125   0.000000
   13  O  2  Y   -0.000000  -0.000000   0.000000
   14  O  2  Z    0.057432  -0.000000   0.256884
   15  O  2  S   -0.820027  -0.000000   4.866874
   16  O  2  X   -0.000000  -0.901839   0.000000
   17  O  2  Y   -0.000000  -0.000000   0.000000
   18  O  2  Z    0.151898  -0.000000  -1.766880
   19  C  3  S    0.087362  -0.108340   0.003659
   20  C  3  S    1.134710  -1.516980   0.172444
   21  C  3  X   -0.057451  -0.213264   0.000700
   22  C  3  Y   -0.000000  -0.000000   0.000000
   23  C  3  Z    0.207876   0.100839   0.074430
   24  C  3  S   -4.088857   5.455563  -0.757895
   25  C  3  X   -0.486317   1.235112  -0.483136
   26  C  3  Y   -0.000000  -0.000000   0.000000
   27  C  3  Z   -0.754649   0.594361   0.361587
   28  C  4  S    0.087362   0.108340   0.003659
   29  C  4  S    1.134710   1.516980   0.172444
   30  C  4  X    0.057451  -0.213264  -0.000700
   31  C  4  Y   -0.000000  -0.000000   0.000000
   32  C  4  Z    0.207876  -0.100839   0.074430
   33  C  4  S   -4.088857  -5.455563  -0.757895
   34  C  4  X    0.486317   1.235112   0.483136
   35  C  4  Y   -0.000000  -0.000000   0.000000
   36  C  4  Z   -0.754649  -0.594361   0.361587
   37  H  5  S    0.363433  -0.461147  -0.048368
   38  H  5  S    0.751268  -0.180708  -0.114781
   39  H  6  S    0.363433   0.461147  -0.048368
   40  H  6  S    0.751268   0.180708  -0.114781
   41  H  7  S    0.471111  -0.464229   0.047285
   42  H  7  S    0.156857  -0.494941   0.149195
   43  H  8  S    0.471111   0.464229   0.047285
   44  H  8  S    0.156857   0.494941   0.149195
   45  H  9  S    0.471111  -0.464229   0.047285
   46  H  9  S    0.156857  -0.494941   0.149195
   47  H 10  S    0.471111   0.464229   0.047285
   48  H 10  S    0.156857   0.494941   0.149195
 .....DONE WITH MCSCF ITERATIONS.....
 STEP CPU TIME =    31.03 TOTAL CPU TIME =       31.2 (    0.5 MIN)
 TOTAL WALL CLOCK TIME=       31.2 SECONDS, CPU UTILIZATION IS  99.90%

     ----------------------------------------------------------------
     PROPERTY VALUES FOR THE MCSCF SELF-CONSISTENT FIELD WAVEFUNCTION
     ----------------------------------------------------------------

          ---------------------------------------
          MULLIKEN AND LOWDIN POPULATION ANALYSES
          ---------------------------------------

     ATOMIC MULLIKEN POPULATION IN EACH MOLECULAR ORBITAL

                      1          2          3          4          5

                  2.000000   2.000000   2.000000   2.000000   2.000000

    1             0.002065   1.998560   0.001260   0.000965   0.371879
    2             1.997930  -0.000513  -0.000005  -0.000001   1.607293
    3            -0.000000   0.000949   0.998343   0.998523   0.010511
    4            -0.000000   0.000949   0.998343   0.998523   0.010511
    5             0.000004   0.000009   0.000282   0.000374  -0.000467
    6             0.000004   0.000009   0.000282   0.000374  -0.000467
    7            -0.000000   0.000009   0.000374   0.000310   0.000185
    8            -0.000000   0.000009   0.000374   0.000310   0.000185
    9            -0.000000   0.000009   0.000374   0.000310   0.000185
   10            -0.000000   0.000009   0.000374   0.000310   0.000185

                      6          7          8          9         10

                  2.000000   2.000000   2.000000   2.000000   2.000000

    1             0.460194   0.189809   0.451806   0.605767   0.420691
    2             0.118349   0.045440   0.710914   0.284472   0.692270
    3             0.582459   0.660053   0.266996   0.393377   0.312893
    4             0.582459   0.660053   0.266996   0.393377   0.312893
    5             0.031385   0.086255   0.057377   0.000656   0.130375
    6             0.031385   0.086255   0.057377   0.000656   0.130375
    7             0.048442   0.068033   0.047133   0.080423   0.000126
    8             0.048442   0.068033   0.047133   0.080423   0.000126
    9             0.048442   0.068033   0.047133   0.080423   0.000126
   10             0.048442   0.068033   0.047133   0.080423   0.000126

                     11         12         13         14         15

                  2.000000   2.000000   2.000000   2.000000   1.999403

    1             0.043757   0.126415   0.000000   0.108520   0.061779
    2            -0.002006   0.221947   0.000000   0.032769   1.528406
    3             0.559400   0.474094   0.573618   0.534548   0.188999
    4             0.559400   0.474094   0.573618   0.534548   0.188999
    5             0.000000   0.165198   0.000000   0.335035   0.003699
    6             0.000000   0.165198   0.000000   0.335035   0.003699
    7             0.209862   0.093264   0.213191   0.029886   0.005955
    8             0.209862   0.093264   0.213191   0.029886   0.005955
    9             0.209862   0.093264   0.213191   0.029886   0.005955
   10             0.209862   0.093264   0.213191   0.029886   0.005955

                     16         17

                  1.925421   0.075176

    1             0.658206   0.043013
    2             1.264921   0.030702
    3            -0.006862  -0.000318
    4            -0.006862  -0.000318
    5             0.000000   0.000000
    6             0.000000   0.000000
    7             0.004005   0.000524
    8             0.004005   0.000524
    9             0.004005   0.000524
   10             0.004005   0.000524
 WARNING! MCSCF POPULATIONS SHOWN ABOVE ARE FOR THE NATURAL ORBITALS.
 IGNORE THE ABOVE DATA FOR MCSCF FUNCTIONS WHICH ARE NOT OF -FORS- TYPE.
 THE FOLLOWING POPULATIONS ARE CORRECT FOR ANY MCSCF WAVEFUNCTION.

               ----- POPULATIONS IN EACH AO -----
                             MULLIKEN      LOWDIN
              1  C  1  S      1.99770     1.98699
              2  C  1  S      0.72400     0.56168
              3  C  1  X      0.75351     0.68886
              4  C  1  Y      0.46051     0.42013
              5  C  1  Z      0.73561     0.68642
              6  C  1  S      0.38603     0.38345
              7  C  1  X      0.21362     0.39245
              8  C  1  Y      0.28447     0.33843
              9  C  1  Z     -0.01076     0.32521
             10  O  2  S      1.99803     1.99498
             11  O  2  S      0.91250     0.88358
             12  O  2  X      1.17282     1.14829
             13  O  2  Y      0.75348     0.71473
             14  O  2  Z      0.92929     0.89356
             15  O  2  S      1.04588     0.74027
             16  O  2  X      0.71826     0.76165
             17  O  2  Y      0.54013     0.58115
             18  O  2  Z      0.46248     0.59263
             19  C  3  S      1.99774     1.98923
             20  C  3  S      0.65013     0.55859
             21  C  3  X      0.68865     0.63874
             22  C  3  Y      0.71694     0.64893
             23  C  3  Z      0.71958     0.65820
             24  C  3  S      0.72579     0.44072
             25  C  3  X      0.27345     0.43989
             26  C  3  Y      0.40890     0.50504
             27  C  3  Z      0.36641     0.47747
             28  C  4  S      1.99774     1.98923
             29  C  4  S      0.65013     0.55859
             30  C  4  X      0.68865     0.63874
             31  C  4  Y      0.71694     0.64893
             32  C  4  Z      0.71958     0.65820
             33  C  4  S      0.72579     0.44072
             34  C  4  X      0.27345     0.43989
             35  C  4  Y      0.40890     0.50504
             36  C  4  Z      0.36641     0.47747
             37  H  5  S      0.53444     0.51324
             38  H  5  S      0.27574     0.35856
             39  H  6  S      0.53444     0.51324
             40  H  6  S      0.27574     0.35856
             41  H  7  S      0.53180     0.50891
             42  H  7  S      0.26992     0.35316
             43  H  8  S      0.53180     0.50891
             44  H  8  S      0.26992     0.35316
             45  H  9  S      0.53180     0.50891
             46  H  9  S      0.26992     0.35316
             47  H 10  S      0.53180     0.50891
             48  H 10  S      0.26992     0.35316

          ----- MULLIKEN ATOMIC OVERLAP POPULATIONS -----
          (OFF-DIAGONAL ELEMENTS NEED TO BE MULTIPLIED BY 2)

             1           2           3           4           5

    1    4.7393714
    2    0.4639341   8.2531025
    3    0.2749628  -0.0996622   5.3527404
    4    0.2749628  -0.0996622  -0.1154993   5.3527404
    5   -0.0392547   0.0034906   0.3797351   0.0046257   0.5092877
    6   -0.0392547   0.0034906   0.0046257   0.3797351  -0.0001073
    7   -0.0325088   0.0020485   0.3736997   0.0016406  -0.0237070
    8   -0.0325088   0.0020485   0.0016406   0.3736997  -0.0000911
    9   -0.0325088   0.0020485   0.3736997   0.0016406  -0.0237070
   10   -0.0325088   0.0020485   0.0016406   0.3736997  -0.0000911

             6           7           8           9          10

    6    0.5092877
    7   -0.0000911   0.5048982
    8   -0.0237070   0.0003699   0.5048982
    9   -0.0000911  -0.0245051  -0.0001207   0.5048982
   10   -0.0237070  -0.0001207  -0.0245051   0.0003699   0.5048982

          TOTAL MULLIKEN AND LOWDIN ATOMIC POPULATIONS
       ATOM         MULL.POP.    CHARGE          LOW.POP.     CHARGE
    1 C             5.544686    0.455314         5.783632    0.216368
    2 O             8.532888   -0.532888         8.310845   -0.310845
    3 C             6.547583   -0.547583         6.356820   -0.356820
    4 C             6.547583   -0.547583         6.356820   -0.356820
    5 H             0.810181    0.189819         0.871804    0.128196
    6 H             0.810181    0.189819         0.871804    0.128196
    7 H             0.801724    0.198276         0.862069    0.137931
    8 H             0.801724    0.198276         0.862069    0.137931
    9 H             0.801724    0.198276         0.862069    0.137931
   10 H             0.801724    0.198276         0.862069    0.137931

    **** A SOLVENT MODEL IS IN USE IN THIS RUN ****
 ELECTRICAL PROPERTIES (MOMENTS, DENSITY, FIELD/GRADIENT, AND/OR POTENTIAL)
 ARE COMPUTED USING THE SOLVATED SYSTEM'S DENSITY MATRIX, BUT
 ONLY WITH AO INTEGRAL CONTRIBUTIONS FROM THE QUANTUM SOLUTE.
 THE ONE EXCEPTION IS THE DIPOLE, WHICH IS ALSO PRINTED FOR THE TOTAL SYSTEM.

          ---------------------
          ELECTROSTATIC MOMENTS
          ---------------------

 POINT   1           X           Y           Z (BOHR)    CHARGE
                 0.000000    0.000000    0.000000       -0.00 (A.U.)
         DX          DY          DZ         /D/  (DEBYE)
    -0.000000    0.000000   -3.888888    3.888888
 ...... END OF PROPERTY EVALUATION ......
 STEP CPU TIME =     0.01 TOTAL CPU TIME =       31.2 (    0.5 MIN)
 TOTAL WALL CLOCK TIME=       31.2 SECONDS, CPU UTILIZATION IS  99.94%
              3938694  WORDS OF DYNAMIC MEMORY USED
 EXECUTION OF GAMESS TERMINATED NORMALLY Fri Jun  2 05:22:14 2017
 DDI: 263640 bytes (0.3 MB / 0 MWords) used by master data server.

 ----------------------------------------
 CPU timing information for all processes
 ========================================
 0: 31.183 + 0.48 = 31.232
 ----------------------------------------
 ddikick.x: exited gracefully.
unset echo
----- accounting info -----
Files used on the master node compute-0-1.local were:
-rw-rw-r-- 1 sarom sarom   38825 Jun  2 05:21 /scratch/ssvpe-acetone-gs.F05
-rw-rw-r-- 1 sarom sarom 2160192 Jun  2 05:21 /scratch/ssvpe-acetone-gs.F08
-rw-rw-r-- 1 sarom sarom  909496 Jun  2 05:22 /scratch/ssvpe-acetone-gs.F09
-rw-rw-r-- 1 sarom sarom 2159520 Jun  2 05:22 /scratch/ssvpe-acetone-gs.F10
-rw-rw-r-- 1 sarom sarom      72 Jun  2 05:22 /scratch/ssvpe-acetone-gs.F12
-rw-rw-r-- 1 sarom sarom  181248 Jun  2 05:22 /scratch/ssvpe-acetone-gs.F15
-rw-rw-r-- 1 sarom sarom  130312 Jun  2 05:22 /scratch/ssvpe-acetone-gs.F16
-rw-rw-r-- 1 sarom sarom       0 Jun  2 05:21 /scratch/ssvpe-acetone-gs.F26
-rw-rw-r-- 1 sarom sarom       0 Jun  2 05:21 /scratch/ssvpe-acetone-gs.F27
-rw-rw-r-- 1 sarom sarom  180016 Jun  2 05:22 /scratch/ssvpe-acetone-gs.F70
-rw-rw-r-- 1 sarom sarom  180016 Jun  2 05:22 /scratch/ssvpe-acetone-gs.F71
-rw-rw-r-- 1 sarom sarom  180016 Jun  2 05:22 /scratch/ssvpe-acetone-gs.F72
-rw-rw-r-- 1 sarom sarom  180016 Jun  2 05:22 /scratch/ssvpe-acetone-gs.F73
rm: cannot remove `/scratch/sarom': Is a directory
rm: cannot remove `/scratch/tmp': Is a directory
ls: No match.
ls: No match.
ls: No match.
Fri Jun  2 05:22:17 CDT 2017
0.238u 0.176s 0:34.78 1.1%	0+0k 80+424io 0pf+0w
/opt/gridengine/default/spool/compute-0-1/active_jobs/24067.1/pe_hostfile compute-0-1.local
