----- GAMESS execution script 'rungms' -----
This job is running on host compute-3-0
under operating system Linux at Tue Nov 29 00:29:12 CST 2016
Available scratch disk space (Kbyte units) at beginning of the job is
Filesystem            1K-blocks       Used  Available Use% Mounted on
bolt.local:/export/home/sarom
                     9590469632 1553430528 7549871104  18% /home/sarom
Copying input file svp-mcscf.inp to your run's scratch directory...
cp svp-mcscf.inp .//svp-mcscf.F05
unset echo
/home/sarom/gamessGH/ddikick.x /home/sarom/gamessGH/gamess.00.x svp-mcscf -ddi 1 1 localhost -scr ./

 Distributed Data Interface kickoff program.
 Initiating 1 compute processes on 1 nodes to run the following command:
 /home/sarom/gamessGH/gamess.00.x svp-mcscf 

          ******************************************************
          *         GAMESS VERSION = 18 AUG 2016 (R1)          *
          *             FROM IOWA STATE UNIVERSITY             *
          * M.W.SCHMIDT, K.K.BALDRIDGE, J.A.BOATZ, S.T.ELBERT, *
          *   M.S.GORDON, J.H.JENSEN, S.KOSEKI, N.MATSUNAGA,   *
          *          K.A.NGUYEN, S.J.SU, T.L.WINDUS,           *
          *       TOGETHER WITH M.DUPUIS, J.A.MONTGOMERY       *
          *         J.COMPUT.CHEM.  14, 1347-1363(1993)        *
          **************** 64 BIT LINUX VERSION ****************

  SINCE 1993, STUDENTS AND POSTDOCS WORKING AT IOWA STATE UNIVERSITY
  AND ALSO IN THEIR VARIOUS JOBS AFTER LEAVING ISU HAVE MADE IMPORTANT
  CONTRIBUTIONS TO THE CODE:
     IVANA ADAMOVIC, CHRISTINE AIKENS, YURI ALEXEEV, POOJA ARORA,
     ANDREY ASADCHEV, ROB BELL, PRADIPTA BANDYOPADHYAY, JONATHAN BENTZ,
     BRETT BODE, KURT BRORSEN, CALEB CARLIN, GALINA CHABAN, WEI CHEN,
     CHEOL HO CHOI, PAUL DAY, ALBERT DEFUSCO, NUWAN DESILVA, TIM DUDLEY,
     DMITRI FEDOROV, GRAHAM FLETCHER, MARK FREITAG, KURT GLAESEMANN,
     DAN KEMP, GRANT MERRILL, NORIYUKI MINEZAWA, JONATHAN MULLIN,
     TAKESHI NAGATA, SEAN NEDD, HEATHER NETZLOFF, BOSILJKA NJEGIC, RYAN OLSON,
     MIKE PAK, SPENCER PRUITT, LUKE ROSKOP, JIM SHOEMAKER, LYUDMILA SLIPCHENKO,
     TONY SMITH, SAROM SOK LEANG, JIE SONG, TETSUYA TAKETSUGU, SIMON WEBB,
     PENG XU, SOOHAENG YOO, FEDERICO ZAHARIEV

  ADDITIONAL CODE HAS BEEN PROVIDED BY COLLABORATORS IN OTHER GROUPS:
     IOWA STATE UNIVERSITY:
          JOE IVANIC, AARON WEST, LAIMUTIS BYTAUTAS, KLAUS RUEDENBERG
     UNIVERSITY OF TOKYO: KIMIHIKO HIRAO, TAKAHITO NAKAJIMA,
          TAKAO TSUNEDA, MUNEAKI KAMIYA, SUSUMU YANAGISAWA,
          KIYOSHI YAGI, MAHITO CHIBA, SEIKEN TOKURA, NAOAKI KAWAKAMI
     UNIVERSITY OF AARHUS: FRANK JENSEN
     UNIVERSITY OF IOWA: VISVALDAS KAIRYS, HUI LI
     NATIONAL INST. OF STANDARDS AND TECHNOLOGY: WALT STEVENS, DAVID GARMER
     UNIVERSITY OF PISA: BENEDETTA MENNUCCI, JACOPO TOMASI
     UNIVERSITY OF MEMPHIS: HENRY KURTZ, PRAKASHAN KORAMBATH
     UNIVERSITY OF ALBERTA: TOBY ZENG, MARIUSZ KLOBUKOWSKI
     UNIVERSITY OF NEW ENGLAND: MARK SPACKMAN
     MIE UNIVERSITY: HIROAKI UMEDA
     NAT. INST. OF ADVANCED INDUSTRIAL SCIENCE AND TECHNOLOGY: KAZUO KITAURA
     MICHIGAN STATE UNIVERSITY:
          KAROL KOWALSKI, MARTA WLOCH, JEFFREY GOUR, JESSE LUTZ,
          WEI LI, PIOTR PIECUCH
     UNIVERSITY OF SILESIA: MONIKA MUSIAL, STANISLAW KUCHARSKI
     FACULTES UNIVERSITAIRES NOTRE-DAME DE LA PAIX:
          OLIVIER QUINET, BENOIT CHAMPAGNE
     UNIVERSITY OF CALIFORNIA - SANTA BARBARA: BERNARD KIRTMAN
     INSTITUTE FOR MOLECULAR SCIENCE:
          KAZUYA ISHIMURA, MICHIO KATOUDA, AND SHIGERU NAGASE
     UNIVERSITY OF NOTRE DAME: ANNA POMOGAEVA, DAN CHIPMAN
     KYUSHU UNIVERSITY:
          HARUYUKI NAKANO,
          FENG LONG GU, JACEK KORCHOWIEC, MARCIN MAKOWSKI, AND YURIKO AOKI,
          HIROTOSHI MORI AND EISAKU MIYOSHI
     PENNSYLVANIA STATE UNIVERSITY:
          TZVETELIN IORDANOV, CHET SWALINA, JONATHAN SKONE,
          SHARON HAMMES-SCHIFFER
     WASEDA UNIVERSITY:
          MASATO KOBAYASHI, TOMOKO AKAMA, TSUGUKI TOUMA,
          TAKESHI YOSHIKAWA, YASUHIRO IKABATA, JUNJI SEINO,
          YUYA NAKAJIMA, HIROMI NAKAI
     NANJING UNIVERSITY: SHUHUA LI
     UNIVERSITY OF NEBRASKA:
          PEIFENG SU, DEJUN SI, NANDUN THELLAMUREGE, YALI WANG, HUI LI
     UNIVERSITY OF ZURICH: ROBERTO PEVERATI, KIM BALDRIDGE
     N. COPERNICUS UNIVERSITY AND JACKSON STATE UNIVERSITY:
          MARIA BARYSZ
     UNIVERSITY OF COPENHAGEN: Jimmy Kromann, CASPER STEINMANN
     TOKYO INSTITUTE OF TECHNOLOGY: HIROYA NAKATA
     NAGOYA UNIVERSITY: YOSHIO NISHIMOTO, STEPHAN IRLE
     MOSCOW STATE UNIVERSITY: VLADIMIR MIRONOV

 EXECUTION OF GAMESS BEGUN Tue Nov 29 00:29:12 2016

            ECHO OF THE FIRST FEW INPUT CARDS -
 INPUT CARD>!    surface/volume polarization for water in water                             
 INPUT CARD>!    The MCSCF computation is a nonsense wavefunction, who cares about          
 INPUT CARD>!    the HOMO to LUMO active space.  The results should be close to             
 INPUT CARD>!    RHF since the LUMO isn't a good correlating orbital, and essentially       
 INPUT CARD>!    identical to the same TCSCF job run as GVB.                                
 INPUT CARD>!                                                                               
 INPUT CARD>!    FINAL E= -76.0299137706, rxn fld E= -.01555558                             
 INPUT CARD>!                                                                               
 INPUT CARD>!    This run takes 2 second on 1.2 GHz Power4+ (18 Jul 2006)                   
 INPUT CARD>!    very small change in energy May 2009                                       
 INPUT CARD>!                                                                               
 INPUT CARD> $contrl scftyp=mcscf mult=1 runtyp=energy $end                                 
 INPUT CARD> $system mwords=5 $end                                                          
 INPUT CARD> $guess  guess=moread norb=19 $end                                              
 INPUT CARD> $basis  gbasis=n31 ngauss=6 ndfunc=1 $end                                      
 INPUT CARD> $svp    rhoiso=0.001 dielst=78.39 nptleb=110 itrngr=2 irotgr=2                 
 INPUT CARD>         iprdn=2 $end                                                           
 INPUT CARD>                                                                                
 INPUT CARD>!    input for triplet state as mcscf, to match against ROHF                    
 INPUT CARD>--- $contrl mult=3 $end                                                         
 INPUT CARD>--- $det    ncore=4 nact=2 nels=2 istsym=4 $end                                 
 INPUT CARD>                                                                                
 INPUT CARD>!    input for TCSCF singlet state as mcscf                                     
 INPUT CARD> $det    ncore=4 nact=2 nels=2 $end                                             
 INPUT CARD>                                                                                
 INPUT CARD> $data                                                                          
 INPUT CARD>water...SVP model                                                               
 INPUT CARD>Cnv 2                                                                           
 INPUT CARD>                                                                                
 INPUT CARD>O   8.0  0.0          0.0 -0.0486020332                                         
 INPUT CARD>H   1.0  0.7545655371 0.0  0.5243010666                                         
 INPUT CARD> $end                                                                           
 INPUT CARD>                                                                                
 INPUT CARD>--- CLOSED SHELL ORBITALS --- GENERATED AT Thu Feb 10 22:26:07 2005             
 INPUT CARD>water...SVP model                                                               
 INPUT CARD>E(RHF)=      -76.0107462712, E(NUC)=    9.2874668413,   10 ITERS                
 INPUT CARD> $VEC                                                                           
 INPUT CARD> 1  1 9.94622636E-01 2.11722689E-02 0.00000000E+00 0.00000000E+00 1.33669829E-03
 INPUT CARD> 1  2 4.14843561E-03 0.00000000E+00 0.00000000E+00-4.60030890E-04-4.21099993E-03
 INPUT CARD> 1  3-3.94328021E-03-4.08838072E-03 0.00000000E+00 0.00000000E+00 0.00000000E+00
 INPUT CARD> 1  4 3.24363380E-04-2.05633231E-04 3.24363380E-04-2.05633231E-04               
 INPUT CARD> 2  1-2.09544962E-01 4.75777094E-01 0.00000000E+00 0.00000000E+00 9.46363052E-02
 INPUT CARD> 2  2 4.35404157E-01 0.00000000E+00 0.00000000E+00 4.97721417E-02 2.69699509E-02
 INPUT CARD> 2  3-1.03352387E-03 2.12684770E-02 0.00000000E+00 0.00000000E+00 0.00000000E+00
 INPUT CARD> 2  4 1.32988047E-01 1.73088822E-03 1.32988047E-01 1.73088822E-03               
 INPUT CARD> 3  1 0.00000000E+00 0.00000000E+00 5.08859755E-01 0.00000000E+00 0.00000000E+00
 INPUT CARD> 3  2 0.00000000E+00 3.03823727E-01 0.00000000E+00 0.00000000E+00 0.00000000E+00
 INPUT CARD> 3  3 0.00000000E+00 0.00000000E+00 0.00000000E+00 5.08466700E-02 0.00000000E+00
 INPUT CARD> 3  4-2.32478469E-01-1.07175390E-01 2.32478469E-01 1.07175390E-01               
 INPUT CARD> 4  1 7.30299514E-02-1.63505673E-01 0.00000000E+00 0.00000000E+00 5.57865364E-01
    5000000 WORDS OF MEMORY AVAILABLE

     BASIS OPTIONS
     -------------
     GBASIS=N31          IGAUSS=       6      POLAR=POPN31  
     NDFUNC=       1     NFFUNC=       0     DIFFSP=       F
     NPFUNC=       0      DIFFS=       F     BASNAM=        


     RUN TITLE
     ---------
 water...SVP model                                                               

 THE POINT GROUP OF THE MOLECULE IS CNV     
 THE ORDER OF THE PRINCIPAL AXIS IS     2

 ATOM      ATOMIC                      COORDINATES (BOHR)
           CHARGE         X                   Y                   Z
 O           8.0     0.0000000000        0.0000000000       -0.0918445252
 H           1.0    -1.4259221049        0.0000000000        0.9907853509
 H           1.0     1.4259221049        0.0000000000        0.9907853509

          INTERNUCLEAR DISTANCES (ANGS.)
          ------------------------------

                1 O          2 H          3 H     

   1 O       0.0000000    0.9474107 *  0.9474107 *
   2 H       0.9474107 *  0.0000000    1.5091311 *
   3 H       0.9474107 *  1.5091311 *  0.0000000  

  * ... LESS THAN  3.000


     ATOMIC BASIS SET
     ----------------
 THE CONTRACTED PRIMITIVE FUNCTIONS HAVE BEEN UNNORMALIZED
 THE CONTRACTED BASIS FUNCTIONS ARE NOW NORMALIZED TO UNITY

  SHELL TYPE  PRIMITIVE        EXPONENT          CONTRACTION COEFFICIENT(S)

 O         

      1   S       1          5484.6716600    0.001831074430
      1   S       2           825.2349460    0.013950172200
      1   S       3           188.0469580    0.068445078098
      1   S       4            52.9645000    0.232714335992
      1   S       5            16.8975704    0.470192897984
      1   S       6             5.7996353    0.358520852987

      2   L       7            15.5396162   -0.110777549525    0.070874268231
      2   L       8             3.5999336   -0.148026262701    0.339752839147
      2   L       9             1.0137618    1.130767015354    0.727158577316

      3   L      10             0.2700058    1.000000000000    1.000000000000

      4   D      11             0.8000000    1.000000000000

 H         

      7   S      12            18.7311370    0.033494604338
      7   S      13             2.8253944    0.234726953484
      7   S      14             0.6401217    0.813757326146

      8   S      15             0.1612778    1.000000000000

 TOTAL NUMBER OF BASIS SET SHELLS             =    8
 NUMBER OF CARTESIAN GAUSSIAN BASIS FUNCTIONS =   19
 NUMBER OF ELECTRONS                          =   10
 CHARGE OF MOLECULE                           =    0
 SPIN MULTIPLICITY                            =    1
 NUMBER OF OCCUPIED ORBITALS (ALPHA)          =    5
 NUMBER OF OCCUPIED ORBITALS (BETA )          =    5
 TOTAL NUMBER OF ATOMS                        =    3
 THE NUCLEAR REPULSION ENERGY IS        9.2874668413

     $CONTRL OPTIONS
     ---------------
 SCFTYP=MCSCF        RUNTYP=ENERGY       EXETYP=RUN     
 MPLEVL=       0     CITYP =NONE         CCTYP =NONE         VBTYP =NONE    
 DFTTYP=NONE         TDDFT =NONE    
 MULT  =       1     ICHARG=       0     NZVAR =       0     COORD =UNIQUE  
 PP    =NONE         RELWFN=NONE         LOCAL =NONE         NUMGRD=       F
 ISPHER=      -1     NOSYM =       0     MAXIT =      30     UNITS =ANGS    
 PLTORB=       F     MOLPLT=       F     AIMPAC=       F     FRIEND=        
 NPRINT=       7     IREST =       0     GEOM  =INPUT   
 NORMF =       0     NORMP =       0     ITOL  =      20     ICUT  =       9
 INTTYP=BEST         GRDTYP=BEST         QMTTOL= 1.0E-06

     $SYSTEM OPTIONS
     ---------------
  REPLICATED MEMORY=     5000000 WORDS (ON EVERY NODE).
 DISTRIBUTED MEMDDI=           0 MILLION WORDS IN AGGREGATE,
 MEMDDI DISTRIBUTED OVER   1 PROCESSORS IS           0 WORDS/PROCESSOR.
 TOTAL MEMORY REQUESTED ON EACH PROCESSOR=     5000000 WORDS.
 TIMLIM=      525600.00 MINUTES, OR     365.0 DAYS.
 PARALL= F  BALTYP=  DLB     KDIAG=    0  COREFL= F
 MXSEQ2=     300 MXSEQ3=     150  mem10=         0

          -------------
          -SVP- SOLVENT
          -------------

 ----- INPUT GROUP $SVP -----
 NVLPL =   0 ISHAPE=   0 ITRCAV=  99 NDRCAV=   0
 INTCAV=   0 NPTLEB= 110 NPTTHE=   8 NPTPHI=  16
 ITRNGR=   2 IROTGR=   2 IOPPRD=   0 IDEF  =   0
 LINEQ =   1 IRDRF =   0 IPNRF =   0 IVERT =   0
 RHOISO=    0.001000 TOLCAV=  0.1000D-09 RADSPH=    2.645617 TOLCHG=  0.1000D-05
 DIELST=   78.390000 DIELOP=    1.776000 CVGLIN=  0.1000D-06 CSDIAG=    1.104000
 ROTTHE=    0.000000 ROTPHI=    0.000000 ROTCHI=    0.000000
 TRANX =    0.000000 TRANY =    0.000000 TRANZ =    0.000000
 EGAS  =    0.000000

          ----------------
          PROPERTIES INPUT
          ----------------

     MOMENTS            FIELD           POTENTIAL          DENSITY
 IEMOM =       1   IEFLD =       0   IEPOT =       0   IEDEN =       0
 WHERE =COMASS     WHERE =NUCLEI     WHERE =NUCLEI     WHERE =NUCLEI  
 OUTPUT=BOTH       OUTPUT=BOTH       OUTPUT=BOTH       OUTPUT=BOTH    
 IEMINT=       0   IEFINT=       0                     IEDINT=       0
                                                       MORB  =       0

     -------------------------------
     INTEGRAL TRANSFORMATION OPTIONS
     -------------------------------
     NWORD  =            0
     CUTOFF = 1.0E-09     MPTRAN =       0
     DIRTRF =       F     AOINTS =DUP     

          ----------------------
          MCSCF INPUT PARAMETERS
          ----------------------
 CONVERGER SELECTION: FOCAS = F  SOSCF = T  FULLNR = F  QUD = F  JACOBI = F
 SECULAR EQUATION METHOD CISTEP = ALDET   
 --- GENERAL INPUT OPTIONS:
 MAXIT =      60  MICIT =       5  ACURCY= 1.000E-05
 DAMP  =   0.000  CANONC=       T  ENGTOL= 1.000E-10
 EKT   =       F  NPUNCH=       2  NWORD =         0
 REGENERATE CI AFTER CONVERGENCE = NONE    
 DIABATIZATION AFTER CONVERGENCE =        F
 --- INPUT FOR SOSCF CONVERGER:
 FORS  =       T  NOFO  =       1

          ----------------------
          INTEGRAL INPUT OPTIONS
          ----------------------
 NOPK  =       1 NORDER=       0 SCHWRZ=       F

     ------------------------------------------
     THE POINT GROUP IS CNV, NAXIS= 2, ORDER= 4
     ------------------------------------------

     DIMENSIONS OF THE SYMMETRY SUBSPACES ARE
 A1  =   10     A2  =    1     B1  =    5     B2  =    3

 ..... DONE SETTING UP THE RUN .....
 STEP CPU TIME =     0.04 TOTAL CPU TIME =        0.0 (    0.0 MIN)
 TOTAL WALL CLOCK TIME=        0.0 SECONDS, CPU UTILIZATION IS  80.00%

          ********************
          1 ELECTRON INTEGRALS
          ********************
 TIME TO DO   DIPOLE INTEGRALS=      0.00
 ...... END OF ONE-ELECTRON INTEGRALS ......
 STEP CPU TIME =     0.00 TOTAL CPU TIME =        0.0 (    0.0 MIN)
 TOTAL WALL CLOCK TIME=        0.0 SECONDS, CPU UTILIZATION IS  80.00%

          -------------
          GUESS OPTIONS
          -------------
          GUESS =MOREAD            NORB  =      19          NORDER=       0
          MIX   =       F          PRTMO =       F          PUNMO =       F
          TOLZ  = 1.0E-08          TOLE  = 1.0E-05
          SYMDEN=       F          PURIFY=       F

 INITIAL GUESS ORBITALS GENERATED BY MOREAD   ROUTINE.

 SYMMETRIES FOR INITIAL GUESS ORBITALS FOLLOW.   BOTH SET(S).
     5 ORBITALS ARE OCCUPIED (    1 CORE ORBITALS).
     1=A1       2=A1       3=B1       4=A1       5=B2       6=A1       7=B1  
     8=B1       9=A1      10=B2      11=A1      12=B1      13=A1      14=A1  
    15=A2      16=B2      17=A1      18=B1      19=A1  
 ...... END OF INITIAL ORBITAL SELECTION ......
 STEP CPU TIME =     0.00 TOTAL CPU TIME =        0.0 (    0.0 MIN)
 TOTAL WALL CLOCK TIME=        0.0 SECONDS, CPU UTILIZATION IS  80.00%

                    ----------------------
                    AO INTEGRAL TECHNOLOGY
                    ----------------------
     S,P,L SHELL ROTATED AXIS INTEGRALS, REPROGRAMMED BY
        KAZUYA ISHIMURA (IMS) AND JOSE SIERRA (SYNSTAR).
     S,P,D,L SHELL ROTATED AXIS INTEGRALS PROGRAMMED BY
        KAZUYA ISHIMURA (INSTITUTE FOR MOLECULAR SCIENCE).
     S,P,D,F,G SHELL TO TOTAL QUARTET ANGULAR MOMENTUM SUM 5,
        ERIC PROGRAM BY GRAHAM FLETCHER (ELORET AND NASA ADVANCED
        SUPERCOMPUTING DIVISION, AMES RESEARCH CENTER).
     S,P,D,F,G,L SHELL GENERAL RYS QUADRATURE PROGRAMMED BY
        MICHEL DUPUIS (PACIFIC NORTHWEST NATIONAL LABORATORY).

          --------------------
          2 ELECTRON INTEGRALS
          --------------------

 THE -PK- OPTION IS OFF, THE INTEGRALS ARE NOT IN SUPERMATRIX FORM.
 STORING   15000 INTEGRALS/RECORD ON DISK, USING 12 BYTES/INTEGRAL.
 TWO ELECTRON INTEGRAL EVALUATION REQUIRES   90432 WORDS OF MEMORY.
 II,JST,KST,LST =  1  1  1  1 NREC =         1 INTLOC =    1
 II,JST,KST,LST =  2  1  1  1 NREC =         1 INTLOC =    2
 II,JST,KST,LST =  3  1  1  1 NREC =         1 INTLOC =   34
 II,JST,KST,LST =  4  1  1  1 NREC =         1 INTLOC =  214
 II,JST,KST,LST =  5  1  1  1 NREC =         1 INTLOC = 1189
 II,JST,KST,LST =  6  1  1  1 NREC =         1 INTLOC = 1189
 II,JST,KST,LST =  7  1  1  1 NREC =         1 INTLOC = 1189
 II,JST,KST,LST =  8  1  1  1 NREC =         1 INTLOC = 2528
 TOTAL NUMBER OF NONZERO TWO-ELECTRON INTEGRALS =                4469
          1 INTEGRAL RECORDS WERE STORED ON DISK FILE  8.
  ...... END OF TWO-ELECTRON INTEGRALS .....
 STEP CPU TIME =     0.01 TOTAL CPU TIME =        0.0 (    0.0 MIN)
 TOTAL WALL CLOCK TIME=        0.1 SECONDS, CPU UTILIZATION IS  41.67%

          -----------------
          MCSCF CALCULATION
          -----------------

 ----- NUCLEAR ENERGY ----- =         9.2874668413

     --------------------------------------------------
          AMES LABORATORY DETERMINANTAL FULL CI
     PROGRAM WRITTEN BY JOE IVANIC AND KLAUS RUEDENBERG
     --------------------------------------------------

 THE POINT GROUP                  =   C2V     
 THE STATE SYMMETRY               =   A1      
 NUMBER OF CORE ORBITALS          =    4
 NUMBER OF ACTIVE ORBITALS        =    2
 NUMBER OF ALPHA ELECTRONS        =    5 (   1 ACTIVE)
 NUMBER OF BETA ELECTRONS         =    5 (   1 ACTIVE)
 NUMBER OF OCCUPIED ORBITALS      =    6
 NUMBER OF CI STATES REQUESTED    =    1
 NUMBER OF CI STARTING VECTORS    =    1
 MAX. NO. OF CI EXPANSION VECTORS =   10
 SIZE OF INITIAL CI GUESS MATRIX  =  300
 MAX. NO. OF CI ITERS/STATE       =  100
 CI DIAGONALIZATION CRITERION     = 1.00E-05
 PURE SPIN STATE AVERAGED 1E- AND 2E- DENSITY MATRIX OPTION=.T.
 STATE=   1 DM2 WEIGHT=   1.00000

 CORRELATION ENERGY ANALYSIS      =    F

 SYMMETRIES FOR THE   4 CORE,   2 ACTIVE ARE

     CORE= A1    A1    B1    A1  

   ACTIVE= B2    A1  
 OPENING FILE DAFL30 WITH      81 LOGICAL RECORDS OF     361 WORDS
 WITH A MAXIMUM OF          81 PHYSICAL RECORDS OF    2048 WORDS
 SOLVATION MODEL FOR MCSCF REQUIRES     26231 ADDITIONAL WORDS OF MEMORY

          ------------------------------
          CASSCF INTEGRAL TRANSFORMATION
          ------------------------------
 AO INTEGRALS WILL BE READ IN FROM DISK...

 NUMBER OF CORE MOLECULAR ORBITALS     =     4
 NUMBER OF OCCUPIED MOLECULAR ORBITALS =     6
 TOTAL NUMBER OF MOLECULAR ORBITALS    =    19
 TOTAL NUMBER OF ATOMIC ORBITALS       =    19

 ----- CHOOSING THREE STEPS TRANSFORMATION -----
 NUMBER OF WORDS USED      =      68741
 NUMBER OF WORDS AVAILABLE =    4973769
 NUMBER OF PASSES          =          1

 ----- NUCLEAR REPULSION ENERGY =      9.28746684
 ----- FROZEN CORE ENERGY       =    -83.53954402

 ... SYMMETRY ...           CPU =    0.01
 ... (PQ|RS) -> (PQ|KL) ... CPU =    0.00
 ... (PQ|KL) -> (IJ|KL) ... CPU =    0.00

 NUMBER OF (PQ|KL) INTEGRALS WRITTEN        267
 NUMBER OF (IJ|KL) INTEGRALS WRITTEN          4
 ..... END OF CAS INTEGRAL TRANSFORMATION .....
 STEP CPU TIME =     0.01 TOTAL CPU TIME =        0.1 (    0.0 MIN)
 TOTAL WALL CLOCK TIME=        0.1 SECONDS, CPU UTILIZATION IS  46.15%

     --------------------------------------------------
          AMES LABORATORY DETERMINANTAL FULL CI
     PROGRAM WRITTEN BY JOE IVANIC AND KLAUS RUEDENBERG
     --------------------------------------------------

 THE NUMBER OF DETERMINANTS HAVING SPACE SYMMETRY A1 
 IN POINT GROUP C2V  WITH SZ=  0.0 IS              2
 THE DETERMINANT FULL CI REQUIRES          169912 WORDS
 SMALL CI MATRIX, JUST USING INCORE DIAGONALIZATION...

 CI EIGENVECTORS WILL BE LABELED IN GROUP=C2V     
 PRINTING ALL NON-ZERO CI COEFFICIENTS

 STATE   1  ENERGY=       -76.0108830427  S=  0.00  SZ=  0.00  SPACE SYM=A1  

 ALP| BET| CI COEFFICIENT
----|----|---------------
 10 | 10 |                                                                                                       0.9999371138
 01 | 01 |                                                                                                      -0.0112146563
 ..... DONE WITH DETERMINANT CI COMPUTATION .....
 STEP CPU TIME =     0.01 TOTAL CPU TIME =        0.1 (    0.0 MIN)
 TOTAL WALL CLOCK TIME=        0.1 SECONDS, CPU UTILIZATION IS  50.00%

     --------------------------------------------------
      ONE AND TWO PARTICLE DENSITY MATRIX COMPUTATION
     PROGRAM WRITTEN BY JOE IVANIC AND KLAUS RUEDENBERG
     --------------------------------------------------

      30125 WORDS WILL BE USED TO FORM THE DENSITIES
 THE DENSITIES ARE STATE AVERAGED OVER   1 ROOT(S)
 STATE=   1   ENERGY=      -76.0108830427   WEIGHT= 1.00000   S=  0.00
 SIEVING THE A1   SYMMETRY NONZERO DENSITY ELEMENTS IN GROUP C2V     
          3 NONZERO DM2 ELEMENTS WRITTEN IN       1 RECORDS TO FILE 15
 ..... DONE WITH 1 AND 2 PARTICLE DENSITY MATRIX .....
 STEP CPU TIME =     0.00 TOTAL CPU TIME =        0.1 (    0.0 MIN)
 TOTAL WALL CLOCK TIME=        0.1 SECONDS, CPU UTILIZATION IS  50.00%

          --------------------------------------
          APPROXIMATE SECOND-ORDER MCSCF PROGRAM
          --------------------------------------
          PROGRAM WRITTEN BY G.CHABAN, A.MARQUEZ, AND M.DUPUIS

  NUMBER OF WORDS NEEDED     =      33121
  NUMBER AVAILABLE           =    4973769

 ----- GAMMA(IJKL)*(PQ|KL) PRODUCTS ----- CPU TIME =      0.000
 ----- ORBITAL SYMMETRY             ----- CPU TIME =      0.000
 ----- FOCK OPERATORS CONSTRUCTION  ----- CPU TIME =      0.000
 ----- WARNING : CORE-ACTIVE GAP    =    0.10244
     MICIT =   1 ASYMM =    0.000583 ROTMAX =    0.007115
 ----- EFFECTIVE FOCK + ROTATE ORBS ----- CPU TIME =      0.000
     MICIT =   2 ASYMM =    0.000373 ROTMAX =    0.001548
     MICIT =   3 ASYMM =    0.000372 ROTMAX =    0.004093
     MICIT =   4 ASYMM =    0.000370 ROTMAX =    0.020937
     MICIT =   5 ASYMM =    0.000360 ROTMAX =    0.028997
 ..... DONE WITH CASSCF ORBITAL UPDATE .....
 STEP CPU TIME =     0.00 TOTAL CPU TIME =        0.1 (    0.0 MIN)
 TOTAL WALL CLOCK TIME=        0.1 SECONDS, CPU UTILIZATION IS  50.00%

 ITER     TOTAL ENERGY      DEL(E)  LAGRANGIAN ASYMMETRY   SQCDF  MICIT   DAMP
   1      -76.010883043 -0.010883043  0.000583   17    6 7.115E-03  5   0.0000
       ----------START APPROXIMATE SECOND ORDER MCSCF----------
   2      -76.023295844 -0.012412801  0.023866    7    3 4.426E-02  1   0.0000
 SOSCF IS SCALING ROTATION ANGLE MATRIX, SQCDF=    0.212055
   3      -76.025443369 -0.002147525  0.010343   10    5 6.488E-01  1   0.0000
   4      -76.023710662  0.001732707  0.069382    6    4 3.415E-01  1   0.0000
   5      -76.026514844 -0.002804182  0.054017   17    4 1.474E-01  1   0.0000
   6      -76.029267354 -0.002752510  0.015500   17    4 1.476E-01  1   0.0000
   7      -76.029662891 -0.000395537  0.014314    6    4 2.175E-02  1   0.0000
   8      -76.029817180 -0.000154289  0.008321   19    4 1.311E-02  1   0.0000
   9      -76.029889850 -0.000072670  0.002326   19    4 3.260E-03  1   0.0000
  10      -76.029916297 -0.000026446  0.002316    6    4 5.448E-04  1   0.0000
  11      -76.029918994 -0.000002697  0.000817   17    4 8.679E-05  1   0.0000
  12      -76.029916647  0.000002347  0.000504   14    4 1.232E-05  1   0.0000
  13      -76.029915973  0.000000674  0.000261   14    4 1.817E-06  1   0.0000
  14      -76.029914997  0.000000976  0.000140   17    2 1.371E-06  1   0.0000
  15      -76.029914174  0.000000823  0.000121   17    2 1.902E-07  1   0.0000
  16      -76.029913888  0.000000285  0.000032   17    2 4.631E-08  1   0.0000
  17      -76.029913811  0.000000077  0.000012    6    2 2.026E-09  1   0.0000
  18      -76.029913776  0.000000035  0.000005    6    2 2.662E-10  1   0.0000
  19      -76.029913770  0.000000006  0.000001   10    5 8.700E-12  1   0.0000

          --------------------
          LAGRANGIAN CONVERGED
          --------------------

 FINAL MCSCF ENERGY IS      -76.0299137695 AFTER  19 ITERATIONS

 SS(V)PE  (LONG-RANGE DIELECTRIC) SOLVATION ENERGY          (G = FREE ENERGY)
 --------------------------------------------------------------------------------
                                                           AU           KCAL/MOL
 EINT = INTERNAL ENERGY OF SOLUTE IN SOLUTION         -76.01435819

 SS(V)PE  PORTION OF G OF SOLVATION=ERXNFIELD/2        -0.01555557      -9.76127

 EINT  +  SS(V)PE   G  IN  SOLUTION                   -76.02991377

 * THE TOTAL FREE ENERGY OF SOLVATION IS NOT           COMPLETELY DETERMINED HERE BECAUSE
 EGAS HAS NOT            BEEN DEFINED - THE TOTAL G OF SOLVATION REQUIRES                  KNOWLEDGE OF THE
 CONTRIBUTION FROM  EINT - EGAS,           WHICH IS THE CHANGE IN SOLUTE INTERNAL  ENERGY
 UPON SOLVATION ARISING FROM BACK - POLARIZATION OF            THE SOLUTE BY THE SOLVENT * 

 (N.B.- THESE SOLVATION RESULTS ONLY TREAT             ELECTRONIC ENERGIES, AND SO DO NOT
  INCLUDE ANY             POSSIBLE CHANGES IN VIBRATIONAL OR ROTATIONAL/                   LIBRATIONAL  FREE
  ENERGIES UPON SOLVATION,                  EXCEPT TO THE EXTENT THAT THESE MAY BE INHERENTLY
  INCLUDED IN SOME  OVERALL AVERAGE MANNER THROUGH            THE EMPIRICAL OPTIMIZATION
  OF VARIOUS FITTED               PARAMETERS THAT ARE USED)

 SS(V)PE  SOLVATION METHOD PROPERTIES
 ------------------------------------
 CONVERGENCE ON SURFACE CHARGES     =      0.165814D-07
 CAVITY SURFACE AREA                =     149.74475 (     41.93281 ANG**2 )
 CAVITY VOLUME                      =     170.99971 (     25.33955 ANG**3 )
 TOTAL SURFACE  POLARIZATION CHARGE =   -0.00467482
 CHARGE PENETRATION FROM GAUSS LAW  =   -0.05542755
 
 CAVITY TRANSLATED TO XYZ (AU)      =      0.000000    0.000000    0.124681
                      XYZ (ANG)     =      0.000000    0.000000    0.065979
 CAVITY   ROTATED  BY TPC (RAD)     =      0.000000    0.000000    0.000000
                      TPC (DEG)     =       0.00000     0.00000     0.00000
 
 SOLUTE/CAVITY PROXIMITY
 -----------------------
 IAT =     1 ICAV =      94 DIST =   3.2683 (   1.7295  ANG ) 
 IAT =     2 ICAV =      92 DIST =   2.1041 (   1.1134  ANG ) 
 IAT =     3 ICAV =      91 DIST =   2.1041 (   1.1134  ANG ) 

 --- ADDITIONAL SOLUTE DENSITY-RELATED PROPERTIES ON CAVITY SURFACE ---
          POT         FLD         RHO         DRN         ZET/100     WGT/100     DRG         CHGPEN      DDN         DDL
 TOT    0.1083967   0.6965231   0.1497447  -0.4585260   4.5852604   1.4974475   0.4585260  -0.0527522   1.3011577   1.0333927
 MIN   -0.0758191  -0.0383022   0.0010000  -0.0032447   0.0279147   0.0049690   0.0027915  -0.0052733   0.0073047   0.0061728
 AVG    0.0007239   0.0046514   0.0010000  -0.0030621   0.0306205   0.0140151   0.0030621  -0.0041979   0.0086892   0.0069010
 MAX    0.0855771   0.0745071   0.0010000  -0.0027915   0.0324465   0.0173101   0.0032447  -0.0036904   0.0107117   0.0080207

 -MCCI- BASED ON OPTIMIZED ORBITALS
 ----------------------------------

 PLEASE NOTE: IF THE ACTIVE ORBITALS ARE CANONICALIZED BELOW,
 THE FOLLOWING CI EXPANSION COEFFICIENTS AND THE DENSITY DO NOT
 CORRESPOND TO THE PRINTED ORBITALS.  THE PRINTED EXPANSIONS MATCH
 THE ORBITALS USED DURING THE LAST ITERATION.  IF YOU WISH TO SEE
 CI EXPANSIONS BASED ON THE CANONICAL (OR NATURAL) ORBITALS, YOU
 MUST RUN A CI CALCULATION WITH THAT ORBITAL CHOICE READ IN $VEC.

 CI EIGENVECTORS WILL BE LABELED IN GROUP=C2V     
 PRINTING ALL NON-ZERO CI COEFFICIENTS

 STATE   1  ENERGY=       -76.0299137695  S=  0.00  SZ=  0.00  SPACE SYM=A1  

 ALP| BET| CI COEFFICIENT
----|----|---------------
 10 | 10 |                                                                                                       0.9992281241
 01 | 01 |                                                                                                      -0.0392830242

 DENSITY MATRIX OVER ACTIVE MO-S

             1           2

    1    1.9969137
    2    0.0000000   0.0030863

 FORMING THE "STANDARD FOCK OPERATOR" USING INTEGRALS FROM DISK...
     4 FILLED,    2 ACTIVE, AND   13 VIRTUAL ORBITALS  WILL BE CANONICALIZED

          ----------------------
          MCSCF NATURAL ORBITALS
          ----------------------

                      1          2          3          4          5
                  -20.5506    -1.3382    -0.7054    -0.5710     1.9969
                     A1         A1         B1         A1         B2  
    1  O  1  S    0.994608  -0.210445  -0.000000   0.068189   0.000000
    2  O  1  S    0.021188   0.475202  -0.000000  -0.147285   0.000000
    3  O  1  X    0.000000  -0.000000   0.514974  -0.000000   0.000000
    4  O  1  Y    0.000000  -0.000000  -0.000000  -0.000000   0.634492
    5  O  1  Z    0.001217   0.090872  -0.000000   0.561640   0.000000
    6  O  1  S    0.004239   0.444488  -0.000000  -0.303610   0.000000
    7  O  1  X    0.000000  -0.000000   0.322312  -0.000000   0.000000
    8  O  1  Y    0.000000  -0.000000  -0.000000  -0.000000   0.517107
    9  O  1  Z   -0.000417   0.043007  -0.000000   0.420122   0.000000
   10  O  1 XX   -0.004207   0.027619  -0.000000   0.003296   0.000000
   11  O  1 YY   -0.004017  -0.002225  -0.000000  -0.009265   0.000000
   12  O  1 ZZ   -0.004092   0.020850  -0.000000   0.043314   0.000000
   13  O  1 XY    0.000000  -0.000000  -0.000000  -0.000000   0.000000
   14  O  1 XZ    0.000000  -0.000000   0.049814  -0.000000   0.000000
   15  O  1 YZ    0.000000  -0.000000  -0.000000  -0.000000   0.030357
   16  H  2  S    0.000330   0.130463  -0.224934   0.136929   0.000000
   17  H  2  S   -0.000227  -0.000568  -0.088358   0.063393   0.000000
   18  H  3  S    0.000330   0.130463   0.224934   0.136929   0.000000
   19  H  3  S   -0.000227  -0.000568   0.088358   0.063393   0.000000

                      6
                    0.0031
                     A1  
    1  O  1  S   -0.036229
    2  O  1  S    0.214976
    3  O  1  X    0.000000
    4  O  1  Y    0.000000
    5  O  1  Z    0.160886
    6  O  1  S    0.031291
    7  O  1  X    0.000000
    8  O  1  Y    0.000000
    9  O  1  Z    0.172110
   10  O  1 XX   -0.402833
   11  O  1 YY    0.908353
   12  O  1 ZZ   -0.369898
   13  O  1 XY    0.000000
   14  O  1 XZ    0.000000
   15  O  1 YZ    0.000000
   16  H  2  S   -0.186382
   17  H  2  S   -0.093022
   18  H  3  S   -0.186382
   19  H  3  S   -0.093022

          ------------------------
          MCSCF OPTIMIZED ORBITALS
          ------------------------

                      1          2          3          4          5
                  -20.5506    -1.3382    -0.7054    -0.5710    -0.4953
                     A1         A1         B1         A1         B2  
    1  O  1  S    0.994608  -0.210445  -0.000000   0.068189   0.000000
    2  O  1  S    0.021188   0.475202  -0.000000  -0.147285   0.000000
    3  O  1  X    0.000000  -0.000000   0.514974  -0.000000   0.000000
    4  O  1  Y    0.000000  -0.000000  -0.000000  -0.000000   0.634492
    5  O  1  Z    0.001217   0.090872  -0.000000   0.561640   0.000000
    6  O  1  S    0.004239   0.444488  -0.000000  -0.303610   0.000000
    7  O  1  X    0.000000  -0.000000   0.322312  -0.000000   0.000000
    8  O  1  Y    0.000000  -0.000000  -0.000000  -0.000000   0.517107
    9  O  1  Z   -0.000417   0.043007  -0.000000   0.420122   0.000000
   10  O  1 XX   -0.004207   0.027619  -0.000000   0.003296   0.000000
   11  O  1 YY   -0.004017  -0.002225  -0.000000  -0.009265   0.000000
   12  O  1 ZZ   -0.004092   0.020850  -0.000000   0.043314   0.000000
   13  O  1 XY    0.000000  -0.000000  -0.000000  -0.000000   0.000000
   14  O  1 XZ    0.000000  -0.000000   0.049814  -0.000000   0.000000
   15  O  1 YZ    0.000000  -0.000000  -0.000000  -0.000000   0.030357
   16  H  2  S    0.000330   0.130463  -0.224934   0.136929   0.000000
   17  H  2  S   -0.000227  -0.000568  -0.088358   0.063393   0.000000
   18  H  3  S    0.000330   0.130463   0.224934   0.136929   0.000000
   19  H  3  S   -0.000227  -0.000568   0.088358   0.063393   0.000000

                      6          7          8          9         10
                    1.6652     0.3380     0.3743     1.0386     1.1339
                     A1         B1         A1         B1         A1  
    1  O  1  S   -0.036229   0.000000  -0.081396   0.000000  -0.028768
    2  O  1  S    0.214976   0.000000   0.010157   0.000000  -0.815948
    3  O  1  X   -0.000000   0.325190  -0.000000   0.049358   0.000000
    4  O  1  Y   -0.000000   0.000000  -0.000000   0.000000   0.000000
    5  O  1  Z    0.160886   0.000000   0.133770   0.000000   0.789726
    6  O  1  S    0.031291   0.000000   1.328285   0.000000   1.647649
    7  O  1  X   -0.000000   0.827336  -0.000000   0.747438   0.000000
    8  O  1  Y   -0.000000   0.000000  -0.000000   0.000000   0.000000
    9  O  1  Z    0.172110   0.000000   0.361667   0.000000  -0.767522
   10  O  1 XX   -0.402833   0.000000   0.057446   0.000000  -0.322115
   11  O  1 YY    0.908353   0.000000  -0.271209   0.000000  -0.259526
   12  O  1 ZZ   -0.369898   0.000000   0.044741   0.000000  -0.322595
   13  O  1 XY   -0.000000   0.000000  -0.000000   0.000000   0.000000
   14  O  1 XZ   -0.000000   0.017613  -0.000000  -0.202090   0.000000
   15  O  1 YZ   -0.000000   0.000000  -0.000000   0.000000   0.000000
   16  H  2  S   -0.186382   0.053492   0.159787   0.834741   0.035510
   17  H  2  S   -0.093022   1.405498  -1.091152  -0.398339  -0.180007
   18  H  3  S   -0.186382  -0.053492   0.159787  -0.834741   0.035510
   19  H  3  S   -0.093022  -1.405498  -1.091152   0.398339  -0.180007

                     11         12         13         14         15
                    1.1660     1.3905     1.4051     1.7699     2.0313
                     B2         B1         A1         A1         A2  
    1  O  1  S    0.000000   0.000000  -0.048279  -0.078127   0.000000
    2  O  1  S    0.000000   0.000000  -1.441647  -0.353934   0.000000
    3  O  1  X    0.000000  -1.040047   0.000000  -0.000000   0.000000
    4  O  1  Y   -0.966105   0.000000   0.000000  -0.000000   0.000000
    5  O  1  Z    0.000000   0.000000  -0.621171   0.005675   0.000000
    6  O  1  S    0.000000   0.000000   3.287113   1.483050   0.000000
    7  O  1  X    0.000000   1.526025   0.000000  -0.000000   0.000000
    8  O  1  Y    1.033445   0.000000   0.000000  -0.000000   0.000000
    9  O  1  Z    0.000000   0.000000   0.929277   0.679911   0.000000
   10  O  1 XX    0.000000   0.000000  -0.513545  -0.463211   0.000000
   11  O  1 YY    0.000000   0.000000  -0.253938  -0.594069   0.000000
   12  O  1 ZZ    0.000000   0.000000  -0.495764   0.634572   0.000000
   13  O  1 XY    0.000000   0.000000   0.000000  -0.000000   1.000000
   14  O  1 XZ    0.000000   0.035274   0.000000  -0.000000   0.000000
   15  O  1 YZ    0.009229   0.000000   0.000000  -0.000000   0.000000
   16  H  2  S    0.000000  -0.132529   0.161667  -0.757469   0.000000
   17  H  2  S    0.000000   0.957065  -0.914994  -0.131929   0.000000
   18  H  3  S    0.000000   0.132529   0.161667  -0.757469   0.000000
   19  H  3  S    0.000000  -0.957065  -0.914994  -0.131929   0.000000

                     16         17         18         19
                    2.0660     2.3141     2.9705     3.9780
                     B2         A1         B1         A1  
    1  O  1  S   -0.000000  -0.082012  -0.000000  -0.467161
    2  O  1  S   -0.000000  -0.469130  -0.000000   0.329912
    3  O  1  X   -0.000000   0.000000  -0.003833   0.000000
    4  O  1  Y   -0.010351   0.000000  -0.000000   0.000000
    5  O  1  Z   -0.000000   0.004473  -0.000000  -0.116274
    6  O  1  S   -0.000000   1.796871  -0.000000   3.632588
    7  O  1  X   -0.000000   0.000000   0.901516   0.000000
    8  O  1  Y   -0.025248   0.000000  -0.000000   0.000000
    9  O  1  Z   -0.000000   0.862429  -0.000000   0.310804
   10  O  1 XX   -0.000000   0.794451  -0.000000  -1.552382
   11  O  1 YY   -0.000000  -0.625898  -0.000000  -1.526991
   12  O  1 ZZ   -0.000000  -0.605290  -0.000000  -1.560659
   13  O  1 XY   -0.000000   0.000000  -0.000000   0.000000
   14  O  1 XZ   -0.000000   0.000000   1.294725   0.000000
   15  O  1 YZ    0.999497   0.000000  -0.000000   0.000000
   16  H  2  S   -0.000000  -0.961681   0.979044   0.144762
   17  H  2  S   -0.000000  -0.174038  -0.023724  -0.556552
   18  H  3  S   -0.000000  -0.961681  -0.979044   0.144762
   19  H  3  S   -0.000000  -0.174038   0.023724  -0.556552
 .....DONE WITH MCSCF ITERATIONS.....
 STEP CPU TIME =     0.46 TOTAL CPU TIME =        0.5 (    0.0 MIN)
 TOTAL WALL CLOCK TIME=        2.8 SECONDS, CPU UTILIZATION IS  19.13%

     ----------------------------------------------------------------
     PROPERTY VALUES FOR THE MCSCF SELF-CONSISTENT FIELD WAVEFUNCTION
     ----------------------------------------------------------------

          ---------------------------------------
          MULLIKEN AND LOWDIN POPULATION ANALYSES
          ---------------------------------------

     ATOMIC MULLIKEN POPULATION IN EACH MOLECULAR ORBITAL

                      1          2          3          4          5

                  2.000000   2.000000   2.000000   2.000000   1.996914

    1             2.000015   1.744324   1.400356   1.801492   1.996914
    2            -0.000008   0.127838   0.299822   0.099254   0.000000
    3            -0.000008   0.127838   0.299822   0.099254   0.000000

                      6

                  0.003086

    1             0.002732
    2             0.000177
    3             0.000177
 WARNING! MCSCF POPULATIONS SHOWN ABOVE ARE FOR THE NATURAL ORBITALS.
 IGNORE THE ABOVE DATA FOR MCSCF FUNCTIONS WHICH ARE NOT OF -FORS- TYPE.
 THE FOLLOWING POPULATIONS ARE CORRECT FOR ANY MCSCF WAVEFUNCTION.

               ----- POPULATIONS IN EACH AO -----
                             MULLIKEN      LOWDIN
              1  O  1  S      1.99525     1.97757
              2  O  1  S      0.89128     0.70244
              3  O  1  X      0.82671     0.76913
              4  O  1  Y      1.13251     1.11431
              5  O  1  Z      0.96385     0.92253
              6  O  1  S      0.92130     0.48084
              7  O  1  X      0.55299     0.59355
              8  O  1  Y      0.86256     0.88077
              9  O  1  Z      0.71761     0.75589
             10  O  1 XX      0.03840     0.20464
             11  O  1 YY      0.00217     0.16678
             12  O  1 ZZ      0.01869     0.18015
             13  O  1 XY      0.00000     0.00000
             14  O  1 XZ      0.02065     0.02519
             15  O  1 YZ      0.00184     0.00184
             16  H  2  S      0.45182     0.42136
             17  H  2  S      0.07527     0.19082
             18  H  3  S      0.45182     0.42136
             19  H  3  S      0.07527     0.19082

          ----- MULLIKEN ATOMIC OVERLAP POPULATIONS -----
          (OFF-DIAGONAL ELEMENTS NEED TO BE MULTIPLIED BY 2)

             1           2           3

    1    8.4035197
    2    0.2711564   0.2715829
    3    0.2711564  -0.0156556   0.2715829

          TOTAL MULLIKEN AND LOWDIN ATOMIC POPULATIONS
       ATOM         MULL.POP.    CHARGE          LOW.POP.     CHARGE
    1 O             8.945833   -0.945833         8.775626   -0.775626
    2 H             0.527084    0.472916         0.612187    0.387813
    3 H             0.527084    0.472916         0.612187    0.387813

    **** A SOLVENT MODEL IS IN USE IN THIS RUN ****
 ELECTRICAL PROPERTIES (MOMENTS, DENSITY, FIELD/GRADIENT, AND/OR POTENTIAL)
 ARE COMPUTED USING THE SOLVATED SYSTEM'S DENSITY MATRIX, BUT
 ONLY WITH AO INTEGRAL CONTRIBUTIONS FROM THE QUANTUM SOLUTE.
 THE ONE EXCEPTION IS THE DIPOLE, WHICH IS ALSO PRINTED FOR THE TOTAL SYSTEM.

          ---------------------
          ELECTROSTATIC MOMENTS
          ---------------------

 POINT   1           X           Y           Z (BOHR)    CHARGE
                 0.000000    0.000000    0.029318       -0.00 (A.U.)
         DX          DY          DZ         /D/  (DEBYE)
    -0.000000    0.000000    2.497840    2.497840
 ...... END OF PROPERTY EVALUATION ......
 STEP CPU TIME =     0.01 TOTAL CPU TIME =        0.5 (    0.0 MIN)
 TOTAL WALL CLOCK TIME=        2.8 SECONDS, CPU UTILIZATION IS  19.42%
               580000  WORDS OF DYNAMIC MEMORY USED
 EXECUTION OF GAMESS TERMINATED NORMALLY Tue Nov 29 00:29:15 2016
 DDI: 263640 bytes (0.3 MB / 0 MWords) used by master data server.

 ----------------------------------------
 CPU timing information for all processes
 ========================================
 0: 0.504 + 0.49 = 0.554
 ----------------------------------------
 ddikick.x: exited gracefully.
unset echo
----- accounting info -----
Files used on the master node compute-3-0 were:
-rw-rw-r-- 1 sarom sarom    8813 Nov 29  2016 .//svp-mcscf.dat
-rw-rw-r-- 1 sarom sarom   13015 Nov 29  2016 .//svp-mcscf.F05
-rw-rw-r-- 1 sarom sarom  180016 Nov 29  2016 .//svp-mcscf.F08
-rw-rw-r-- 1 sarom sarom  181544 Nov 29  2016 .//svp-mcscf.F09
-rw-rw-r-- 1 sarom sarom 1865040 Nov 29  2016 .//svp-mcscf.F10
-rw-rw-r-- 1 sarom sarom      48 Nov 29  2016 .//svp-mcscf.F12
-rw-rw-r-- 1 sarom sarom    2776 Nov 29  2016 .//svp-mcscf.F13
-rw-rw-r-- 1 sarom sarom  180192 Nov 29  2016 .//svp-mcscf.F15
-rw-rw-r-- 1 sarom sarom   35496 Nov 29  2016 .//svp-mcscf.F23
-rw-rw-r-- 1 sarom sarom       0 Nov 29  2016 .//svp-mcscf.F26
-rw-rw-r-- 1 sarom sarom       0 Nov 29  2016 .//svp-mcscf.F27
-rw-rw-r-- 1 sarom sarom   13015 Nov 27 05:47 .//svp-mcscf.inp
-rw-rw-r-- 1 sarom sarom   42718 Nov 29  2016 .//svp-mcscf.log
Tue Nov 29 00:29:18 CST 2016
0.215u 0.286s 0:06.33 7.7%	0+0k 0+160io 0pf+0w
