-catch_rsh /opt/gridengine/default/spool/compute-1-2/active_jobs/35716.1/pe_hostfile
compute-1-2
The primary node assigned by SGE to this run is compute-1-2
Warning: no access to tty (Bad file descriptor).
Thus no job control in this shell.
source /home/sarom/dir.git.branch.saromleang-travis-ci/install.info
setenv GMS_PATH /home/sarom/dir.git.branch.saromleang-travis-ci
setenv GMS_BUILD_DIR /home/sarom/dir.git.branch.saromleang-travis-ci
setenv GMS_TARGET linux64
setenv GMS_FORTRAN gfortran
setenv GMS_GFORTRAN_VERNO 4.4
setenv GMS_MATHLIB mkl-so
setenv GMS_MATHLIB none
setenv GMS_MATHLIB_PATH /share/apps/intel/compilers_and_libraries_2017.1.132/linux/mkl/lib/intel64
setenv GMS_MKL_VERNO 12
setenv GMS_DDI_COMM sockets
setenv GMS_LIBCCHEM false
setenv GMS_EIGEN_PATH
setenv GMS_PHI false
setenv GMS_SHMTYPE sysv
setenv GMS_OPENMP false
unset echo
svp-uhf
/home/sarom/dir.git.branch.saromleang-travis-ci/tests/solvent/svpe
----- GAMESS execution script 'rungms' -----
This job is running on host compute-1-2.local
under operating system Linux at Wed Aug 9 19:55:11 CDT 2017
Available scratch disk space (Kbyte units) at beginning of the job is
Filesystem           1K-blocks      Used Available Use% Mounted on
/dev/sda1             16126920   9109424   6198296  60% /
GAMESS temporary binary files will be written to /scratch
GAMESS supplementary output files will be written to /home/sarom/restart
Copying input file svp-uhf.inp to your run's scratch directory...
cp /home/sarom/dir.git.branch.saromleang-travis-ci/tests/solvent/svpe/svp-uhf.inp /scratch/svp-uhf.F05
unset echo
The generated host list is
compute-1-2.local
/home/sarom/dir.git.branch.saromleang-travis-ci/ddikick.x /home/sarom/dir.git.branch.saromleang-travis-ci/gamess.00.x svp-uhf -ddi 1 1 compute-1-2.local -scr /scratch

 Distributed Data Interface kickoff program.
 Initiating 1 compute processes on 1 nodes to run the following command:
 /home/sarom/dir.git.branch.saromleang-travis-ci/gamess.00.x svp-uhf 

          ******************************************************
          *         GAMESS VERSION = 20 APR 2017 (R1)          *
          *             FROM IOWA STATE UNIVERSITY             *
          * M.W.SCHMIDT, K.K.BALDRIDGE, J.A.BOATZ, S.T.ELBERT, *
          *   M.S.GORDON, J.H.JENSEN, S.KOSEKI, N.MATSUNAGA,   *
          *          K.A.NGUYEN, S.J.SU, T.L.WINDUS,           *
          *       TOGETHER WITH M.DUPUIS, J.A.MONTGOMERY       *
          *         J.COMPUT.CHEM.  14, 1347-1363(1993)        *
          **************** 64 BIT LINUX VERSION ****************

  SINCE 1993, STUDENTS AND POSTDOCS WORKING AT IOWA STATE UNIVERSITY
  AND ALSO IN THEIR VARIOUS JOBS AFTER LEAVING ISU HAVE MADE IMPORTANT
  CONTRIBUTIONS TO THE CODE:
     IVANA ADAMOVIC, CHRISTINE AIKENS, YURI ALEXEEV, POOJA ARORA,
     ANDREY ASADCHEV, ROB BELL, PRADIPTA BANDYOPADHYAY, JONATHAN BENTZ,
     BRETT BODE, KURT BRORSEN, CALEB CARLIN, GALINA CHABAN, WEI CHEN,
     CHEOL HO CHOI, PAUL DAY, ALBERT DEFUSCO, NUWAN DESILVA, TIM DUDLEY,
     DMITRI FEDOROV, GRAHAM FLETCHER, MARK FREITAG, KURT GLAESEMANN,
     DAN KEMP, GRANT MERRILL, NORIYUKI MINEZAWA, JONATHAN MULLIN,
     TAKESHI NAGATA, SEAN NEDD, HEATHER NETZLOFF, BOSILJKA NJEGIC, RYAN OLSON,
     MIKE PAK, SPENCER PRUITT, LUKE ROSKOP, JIM SHOEMAKER, LYUDMILA SLIPCHENKO,
     TONY SMITH, SAROM SOK LEANG, JIE SONG, TETSUYA TAKETSUGU, SIMON WEBB,
     PENG XU, SOOHAENG YOO, FEDERICO ZAHARIEV

  ADDITIONAL CODE HAS BEEN PROVIDED BY COLLABORATORS IN OTHER GROUPS:
     IOWA STATE UNIVERSITY:
          JOE IVANIC, AARON WEST, LAIMUTIS BYTAUTAS, KLAUS RUEDENBERG
     UNIVERSITY OF TOKYO: KIMIHIKO HIRAO, TAKAHITO NAKAJIMA,
          TAKAO TSUNEDA, MUNEAKI KAMIYA, SUSUMU YANAGISAWA,
          KIYOSHI YAGI, MAHITO CHIBA, SEIKEN TOKURA, NAOAKI KAWAKAMI
     UNIVERSITY OF AARHUS: FRANK JENSEN
     UNIVERSITY OF IOWA: VISVALDAS KAIRYS, HUI LI
     NATIONAL INST. OF STANDARDS AND TECHNOLOGY: WALT STEVENS, DAVID GARMER
     UNIVERSITY OF PISA: BENEDETTA MENNUCCI, JACOPO TOMASI
     UNIVERSITY OF MEMPHIS: HENRY KURTZ, PRAKASHAN KORAMBATH
     UNIVERSITY OF ALBERTA: TOBY ZENG, MARIUSZ KLOBUKOWSKI
     UNIVERSITY OF NEW ENGLAND: MARK SPACKMAN
     MIE UNIVERSITY: HIROAKI UMEDA
     NAT. INST. OF ADVANCED INDUSTRIAL SCIENCE AND TECHNOLOGY: KAZUO KITAURA
     MICHIGAN STATE UNIVERSITY:
          KAROL KOWALSKI, MARTA WLOCH, JEFFREY GOUR, JESSE LUTZ,
          WEI LI, PIOTR PIECUCH
     UNIVERSITY OF SILESIA: MONIKA MUSIAL, STANISLAW KUCHARSKI
     FACULTES UNIVERSITAIRES NOTRE-DAME DE LA PAIX:
          OLIVIER QUINET, BENOIT CHAMPAGNE
     UNIVERSITY OF CALIFORNIA - SANTA BARBARA: BERNARD KIRTMAN
     INSTITUTE FOR MOLECULAR SCIENCE:
          KAZUYA ISHIMURA, MICHIO KATOUDA, AND SHIGERU NAGASE
     UNIVERSITY OF NOTRE DAME: ANNA POMOGAEVA, DAN CHIPMAN
     KYUSHU UNIVERSITY:
          HARUYUKI NAKANO,
          FENG LONG GU, JACEK KORCHOWIEC, MARCIN MAKOWSKI, AND YURIKO AOKI,
          HIROTOSHI MORI AND EISAKU MIYOSHI
     PENNSYLVANIA STATE UNIVERSITY:
          TZVETELIN IORDANOV, CHET SWALINA, JONATHAN SKONE,
          SHARON HAMMES-SCHIFFER
     WASEDA UNIVERSITY:
          MASATO KOBAYASHI, TOMOKO AKAMA, TSUGUKI TOUMA,
          TAKESHI YOSHIKAWA, YASUHIRO IKABATA, JUNJI SEINO,
          YUYA NAKAJIMA, HIROMI NAKAI
     NANJING UNIVERSITY: SHUHUA LI
     UNIVERSITY OF NEBRASKA:
          PEIFENG SU, DEJUN SI, NANDUN THELLAMUREGE, YALI WANG, HUI LI
     UNIVERSITY OF ZURICH: ROBERTO PEVERATI, KIM BALDRIDGE
     N. COPERNICUS UNIVERSITY AND JACKSON STATE UNIVERSITY:
          MARIA BARYSZ
     UNIVERSITY OF COPENHAGEN: Jimmy Kromann, CASPER STEINMANN
     TOKYO INSTITUTE OF TECHNOLOGY: HIROYA NAKATA
     NAGOYA UNIVERSITY: YOSHIO NISHIMOTO, STEPHAN IRLE
     MOSCOW STATE UNIVERSITY: VLADIMIR MIRONOV

 EXECUTION OF GAMESS BEGUN Wed Aug  9 19:55:11 2017

            ECHO OF THE FIRST FEW INPUT CARDS -
 INPUT CARD>!    surface/volume polarization for UHF triplet water in water                 
 INPUT CARD>!                                                                               
 INPUT CARD>!    FINAL E= -75.7460416219, 10 iters, rxn fld E= -.00149411, S**2=2.006       
 INPUT CARD>!                                                                               
 INPUT CARD>!    This run takes 1 second on 1.2 GHz Power4+ (18 Jul 2006)                   
 INPUT CARD>!    very small change in energy May 2009                                       
 INPUT CARD>!                                                                               
 INPUT CARD> $contrl scftyp=uhf mult=3 runtyp=energy $end                                   
 INPUT CARD> $system mwords=5 $end                                                          
 INPUT CARD> $guess  guess=moread norb=19 $end                                              
 INPUT CARD> $basis  gbasis=n31 ngauss=6 ndfunc=1 $end                                      
 INPUT CARD> $scf    dirscf=.t. $end                                                        
 INPUT CARD> $svp    rhoiso=0.001 dielst=78.39 nptleb=110 itrngr=2 irotgr=2                 
 INPUT CARD>         iprdn=2 $end                                                           
 INPUT CARD> $data                                                                          
 INPUT CARD>water...SVP model                                                               
 INPUT CARD>Cnv 2                                                                           
 INPUT CARD>                                                                                
 INPUT CARD>O   8.0  0.0          0.0 -0.0486020332                                         
 INPUT CARD>H   1.0  0.7545655371 0.0  0.5243010666                                         
 INPUT CARD> $end                                                                           
 INPUT CARD>                                                                                
 INPUT CARD>--- CLOSED SHELL ORBITALS --- GENERATED AT Thu Feb 10 22:26:07 2005             
 INPUT CARD>water...SVP model                                                               
 INPUT CARD>E(RHF)=      -76.0107462712, E(NUC)=    9.2874668413,   10 ITERS                
 INPUT CARD> $VEC                                                                           
 INPUT CARD> 1  1 9.94622636E-01 2.11722689E-02 0.00000000E+00 0.00000000E+00 1.33669829E-03
 INPUT CARD> 1  2 4.14843561E-03 0.00000000E+00 0.00000000E+00-4.60030890E-04-4.21099993E-03
 INPUT CARD> 1  3-3.94328021E-03-4.08838072E-03 0.00000000E+00 0.00000000E+00 0.00000000E+00
 INPUT CARD> 1  4 3.24363380E-04-2.05633231E-04 3.24363380E-04-2.05633231E-04               
 INPUT CARD> 2  1-2.09544962E-01 4.75777094E-01 0.00000000E+00 0.00000000E+00 9.46363052E-02
 INPUT CARD> 2  2 4.35404157E-01 0.00000000E+00 0.00000000E+00 4.97721417E-02 2.69699509E-02
 INPUT CARD> 2  3-1.03352387E-03 2.12684770E-02 0.00000000E+00 0.00000000E+00 0.00000000E+00
 INPUT CARD> 2  4 1.32988047E-01 1.73088822E-03 1.32988047E-01 1.73088822E-03               
 INPUT CARD> 3  1 0.00000000E+00 0.00000000E+00 5.08859755E-01 0.00000000E+00 0.00000000E+00
 INPUT CARD> 3  2 0.00000000E+00 3.03823727E-01 0.00000000E+00 0.00000000E+00 0.00000000E+00
 INPUT CARD> 3  3 0.00000000E+00 0.00000000E+00 0.00000000E+00 5.08466700E-02 0.00000000E+00
 INPUT CARD> 3  4-2.32478469E-01-1.07175390E-01 2.32478469E-01 1.07175390E-01               
 INPUT CARD> 4  1 7.30299514E-02-1.63505673E-01 0.00000000E+00 0.00000000E+00 5.57865364E-01
 INPUT CARD> 4  2-3.25228014E-01 0.00000000E+00 0.00000000E+00 4.05029926E-01-7.70122421E-04
 INPUT CARD> 4  3-1.18622118E-02 4.62560695E-02 0.00000000E+00 0.00000000E+00 0.00000000E+00
 INPUT CARD> 4  4 1.39984456E-01 8.27816802E-02 1.39984456E-01 8.27816802E-02               
 INPUT CARD> 5  1 0.00000000E+00 0.00000000E+00 0.00000000E+00 6.39255773E-01 0.00000000E+00
 INPUT CARD> 5  2 0.00000000E+00 0.00000000E+00 5.11848747E-01 0.00000000E+00 0.00000000E+00
 INPUT CARD> 5  3 0.00000000E+00 0.00000000E+00 0.00000000E+00 0.00000000E+00 3.41395263E-02
 INPUT CARD> 5  4 0.00000000E+00 0.00000000E+00 0.00000000E+00 0.00000000E+00               
 INPUT CARD> 6  1-1.01478989E-01 5.57950319E-02 0.00000000E+00 0.00000000E+00 2.11787803E-01
 INPUT CARD> 6  2 1.43988530E+00 0.00000000E+00 0.00000000E+00 5.02160512E-01-5.67594040E-02
 INPUT CARD> 6  3-7.27910559E-02-4.48127023E-02 0.00000000E+00 0.00000000E+00 0.00000000E+00
 INPUT CARD> 6  4-5.37885318E-02-1.05154256E+00-5.37885318E-02-1.05154256E+00               
    5000000 WORDS OF MEMORY AVAILABLE

     BASIS OPTIONS
     -------------
     GBASIS=N31          IGAUSS=       6      POLAR=POPN31  
     NDFUNC=       1     NFFUNC=       0     DIFFSP=       F
     NPFUNC=       0      DIFFS=       F     BASNAM=        


     RUN TITLE
     ---------
 water...SVP model                                                               

 THE POINT GROUP OF THE MOLECULE IS CNV     
 THE ORDER OF THE PRINCIPAL AXIS IS     2

 ATOM      ATOMIC                      COORDINATES (BOHR)
           CHARGE         X                   Y                   Z
 O           8.0     0.0000000000        0.0000000000       -0.0918445252
 H           1.0    -1.4259221049        0.0000000000        0.9907853509
 H           1.0     1.4259221049        0.0000000000        0.9907853509

          INTERNUCLEAR DISTANCES (ANGS.)
          ------------------------------

                1 O          2 H          3 H     

   1 O       0.0000000    0.9474107 *  0.9474107 *
   2 H       0.9474107 *  0.0000000    1.5091311 *
   3 H       0.9474107 *  1.5091311 *  0.0000000  

  * ... LESS THAN  3.000


     ATOMIC BASIS SET
     ----------------
 THE CONTRACTED PRIMITIVE FUNCTIONS HAVE BEEN UNNORMALIZED
 THE CONTRACTED BASIS FUNCTIONS ARE NOW NORMALIZED TO UNITY

  SHELL TYPE  PRIMITIVE        EXPONENT          CONTRACTION COEFFICIENT(S)

 O         

      1   S       1          5484.6716600    0.001831074430
      1   S       2           825.2349460    0.013950172200
      1   S       3           188.0469580    0.068445078098
      1   S       4            52.9645000    0.232714335992
      1   S       5            16.8975704    0.470192897984
      1   S       6             5.7996353    0.358520852987

      2   L       7            15.5396162   -0.110777549525    0.070874268231
      2   L       8             3.5999336   -0.148026262701    0.339752839147
      2   L       9             1.0137618    1.130767015354    0.727158577316

      3   L      10             0.2700058    1.000000000000    1.000000000000

      4   D      11             0.8000000    1.000000000000

 H         

      7   S      12            18.7311370    0.033494604338
      7   S      13             2.8253944    0.234726953484
      7   S      14             0.6401217    0.813757326146

      8   S      15             0.1612778    1.000000000000

 TOTAL NUMBER OF BASIS SET SHELLS             =    8
 NUMBER OF CARTESIAN GAUSSIAN BASIS FUNCTIONS =   19
 NUMBER OF ELECTRONS                          =   10
 CHARGE OF MOLECULE                           =    0
 SPIN MULTIPLICITY                            =    3
 NUMBER OF OCCUPIED ORBITALS (ALPHA)          =    6
 NUMBER OF OCCUPIED ORBITALS (BETA )          =    4
 TOTAL NUMBER OF ATOMS                        =    3
 THE NUCLEAR REPULSION ENERGY IS        9.2874668413

     $CONTRL OPTIONS
     ---------------
 SCFTYP=UHF          RUNTYP=ENERGY       EXETYP=RUN     
 MPLEVL=       0     CITYP =NONE         CCTYP =NONE         VBTYP =NONE    
 DFTTYP=NONE         TDDFT =NONE    
 MULT  =       3     ICHARG=       0     NZVAR =       0     COORD =UNIQUE  
 PP    =NONE         RELWFN=NONE         LOCAL =NONE         NUMGRD=       F
 ISPHER=      -1     NOSYM =       0     MAXIT =      30     UNITS =ANGS    
 PLTORB=       F     MOLPLT=       F     AIMPAC=       F     FRIEND=        
 NPRINT=       7     IREST =       0     GEOM  =INPUT   
 NORMF =       0     NORMP =       0     ITOL  =      20     ICUT  =       9
 INTTYP=BEST         GRDTYP=BEST         QMTTOL= 1.0E-06

     $SYSTEM OPTIONS
     ---------------
  REPLICATED MEMORY=     5000000 WORDS (ON EVERY NODE).
 DISTRIBUTED MEMDDI=           0 MILLION WORDS IN AGGREGATE,
 MEMDDI DISTRIBUTED OVER   1 PROCESSORS IS           0 WORDS/PROCESSOR.
 TOTAL MEMORY REQUESTED ON EACH PROCESSOR=     5000000 WORDS.
 TIMLIM=      525600.00 MINUTES, OR     365.0 DAYS.
 PARALL= F  BALTYP=  DLB     KDIAG=    0  COREFL= F
 MXSEQ2=     300 MXSEQ3=     150  mem10=         0

          -------------
          -SVP- SOLVENT
          -------------

 ----- INPUT GROUP $SVP -----
 NVLPL =   0 ISHAPE=   0 ITRCAV=  99 NDRCAV=   0
 INTCAV=   0 NPTLEB= 110 NPTTHE=   8 NPTPHI=  16
 ITRNGR=   2 IROTGR=   2 IOPPRD=   0 IDEF  =   0
 LINEQ =   1 IRDRF =   0 IPNRF =   0 IVERT =   0
 RHOISO=    0.001000 TOLCAV=  0.1000D-09 RADSPH=    2.645617 TOLCHG=  0.1000D-05
 DIELST=   78.390000 DIELOP=    1.776000 CVGLIN=  0.1000D-06 CSDIAG=    1.104000
 ROTTHE=    0.000000 ROTPHI=    0.000000 ROTCHI=    0.000000
 TRANX =    0.000000 TRANY =    0.000000 TRANZ =    0.000000
 EGAS  =    0.000000

          ----------------
          PROPERTIES INPUT
          ----------------

     MOMENTS            FIELD           POTENTIAL          DENSITY
 IEMOM =       1   IEFLD =       0   IEPOT =       0   IEDEN =       0
 WHERE =COMASS     WHERE =NUCLEI     WHERE =NUCLEI     WHERE =NUCLEI  
 OUTPUT=BOTH       OUTPUT=BOTH       OUTPUT=BOTH       OUTPUT=BOTH    
 IEMINT=       0   IEFINT=       0                     IEDINT=       0
                                                       MORB  =       0
          EXTRAPOLATION IN EFFECT
          SOSCF IN EFFECT
          DIIS or SOSCF will be reset if energy rises
 ORBITAL PRINTING OPTION: NPREO=     1    19     2     1

     -------------------------------
     INTEGRAL TRANSFORMATION OPTIONS
     -------------------------------
     NWORD  =            0
     CUTOFF = 1.0E-09     MPTRAN =       0
     DIRTRF =       T     AOINTS =DUP     

          ----------------------
          INTEGRAL INPUT OPTIONS
          ----------------------
 NOPK  =       1 NORDER=       0 SCHWRZ=       T

     ------------------------------------------
     THE POINT GROUP IS CNV, NAXIS= 2, ORDER= 4
     ------------------------------------------

     DIMENSIONS OF THE SYMMETRY SUBSPACES ARE
 A1  =   10     A2  =    1     B1  =    5     B2  =    3

 ..... DONE SETTING UP THE RUN .....
 STEP CPU TIME =     0.02 TOTAL CPU TIME =        0.0 (    0.0 MIN)
 TOTAL WALL CLOCK TIME=        0.0 SECONDS, CPU UTILIZATION IS  66.67%

          ********************
          1 ELECTRON INTEGRALS
          ********************
 ...... END OF ONE-ELECTRON INTEGRALS ......
 STEP CPU TIME =     0.00 TOTAL CPU TIME =        0.0 (    0.0 MIN)
 TOTAL WALL CLOCK TIME=        0.0 SECONDS, CPU UTILIZATION IS  66.67%

          -------------
          GUESS OPTIONS
          -------------
          GUESS =MOREAD            NORB  =      19          NORDER=       0
          MIX   =       F          PRTMO =       F          PUNMO =       F
          TOLZ  = 1.0E-08          TOLE  = 1.0E-05
          SYMDEN=       F          PURIFY=       F

 INITIAL GUESS ORBITALS GENERATED BY MOREAD   ROUTINE.

 SYMMETRIES FOR INITIAL GUESS ORBITALS FOLLOW.  ALPHA SET(S).
     6 ORBITALS ARE OCCUPIED (    1 CORE ORBITALS).
     2=A1       3=B1       4=A1       5=B2       6=A1       7=B1       8=B1  
     9=A1      10=B2      11=A1      12=B1      13=A1      14=A1      15=A2  
    16=B2  

 SYMMETRIES FOR INITIAL GUESS ORBITALS FOLLOW.   BETA SET(S).
     4 ORBITALS ARE OCCUPIED (    1 CORE ORBITALS).
     2=A1       3=B1       4=A1       5=B2       6=A1       7=B1       8=B1  
     9=A1      10=B2      11=A1      12=B1      13=A1      14=A1  
 ...... END OF INITIAL ORBITAL SELECTION ......
 STEP CPU TIME =     0.01 TOTAL CPU TIME =        0.0 (    0.0 MIN)
 TOTAL WALL CLOCK TIME=        0.0 SECONDS, CPU UTILIZATION IS 100.00%

                    ----------------------
                    AO INTEGRAL TECHNOLOGY
                    ----------------------
     S,P,L SHELL ROTATED AXIS INTEGRALS, REPROGRAMMED BY
        KAZUYA ISHIMURA (IMS) AND JOSE SIERRA (SYNSTAR).
     S,P,D,L SHELL ROTATED AXIS INTEGRALS PROGRAMMED BY
        KAZUYA ISHIMURA (INSTITUTE FOR MOLECULAR SCIENCE).
     S,P,D,F,G SHELL TO TOTAL QUARTET ANGULAR MOMENTUM SUM 5,
        ERIC PROGRAM BY GRAHAM FLETCHER (ELORET AND NASA ADVANCED
        SUPERCOMPUTING DIVISION, AMES RESEARCH CENTER).
     S,P,D,F,G,L SHELL GENERAL RYS QUADRATURE PROGRAMMED BY
        MICHEL DUPUIS (PACIFIC NORTHWEST NATIONAL LABORATORY).

          --------------------
          2 ELECTRON INTEGRALS
          --------------------

 DIRECT SCF METHOD SKIPS INTEGRAL STORAGE ON DISK.
 DIRECT TRANSFORMATION SKIPS AO INTEGRAL STORAGE ON DISK.
  ...... END OF TWO-ELECTRON INTEGRALS .....
 STEP CPU TIME =     0.01 TOTAL CPU TIME =        0.0 (    0.0 MIN)
 TOTAL WALL CLOCK TIME=        0.0 SECONDS, CPU UTILIZATION IS 100.00%

          ---------------------------
                  UHF SCF CALCULATION
          ---------------------------

     NUCLEAR ENERGY =         9.2874668413
     MAXIT = 30     NPUNCH=  2     MULT=  3
     EXTRAP=T  DAMP=F  SHIFT=F  RSTRCT=F  DIIS=F  SOSCF=T
     DENSITY MATRIX CONV=  2.00E-05
     SOSCF WILL OPTIMIZE      78 ALPHA AND      60 BETA ROTATION ANGLES.
     SOGTOL= 2.500E-01
     MEMORY REQUIRED FOR UHF/ROHF ITERS=     75648 WORDS.

 DIRECT SCF CALCULATION, SCHWRZ=T   FDIFF=F
 SCHWARZ INEQUALITY OVERHEAD:       190 INTEGRALS, T=        0.00

                                                                                NONZERO     BLOCKS
 ITER EX      TOTAL ENERGY        E CHANGE  DENSITY CHANGE    ORB. GRAD       INTEGRALS    SKIPPED
   1  0      -75.6669893987   -75.6669893987   0.815259801   0.000000000           4469          0
          ---------------START SECOND ORDER SCF---------------
   2  1      -75.7330418489    -0.0660524502   0.107393004   0.071579613           4469          0
   3  2      -75.7438972521    -0.0108554032   0.060461149   0.029640054           4469          0
   4  3      -75.7459648766    -0.0020676244   0.013121770   0.003305850           4469          0
   5  4      -75.7460297902    -0.0000649137   0.005642574   0.001575676           4469          0
   6  5      -75.7460411239    -0.0000113337   0.000439270   0.000257187           4469          0
   7  6      -75.7460415068    -0.0000003829   0.000338229   0.000125173           4469          0
   8  7      -75.7460416269    -0.0000001201   0.000037604   0.000032556           4469          0
   9  8      -75.7460416267     0.0000000002   0.000036341   0.000016630           4469          0
  10  9      -75.7460416219     0.0000000048   0.000004993   0.000003497           4469          0

          -----------------
          DENSITY CONVERGED
          -----------------
     TIME TO FORM FOCK OPERATORS=       0.2 SECONDS (       0.0 SEC/ITER)
     FOCK TIME ON FIRST ITERATION=       0.0, LAST ITERATION=       0.0
     TIME TO SOLVE SCF EQUATIONS=       0.0 SECONDS (       0.0 SEC/ITER)

 FINAL UHF ENERGY IS      -75.7460416219 AFTER  10 ITERATIONS

          --------------------
          SPIN SZ   =    1.000
          S-SQUARED =    2.006
          --------------------

 SS(V)PE  (LONG-RANGE DIELECTRIC) SOLVATION ENERGY          (G = FREE ENERGY)
 --------------------------------------------------------------------------------
                                                           AU           KCAL/MOL
 EINT = INTERNAL ENERGY OF SOLUTE IN SOLUTION         -75.74454751

 SS(V)PE  PORTION OF G OF SOLVATION=ERXNFIELD/2        -0.00149411      -0.93757

 EINT  +  SS(V)PE   G  IN  SOLUTION                   -75.74604162

 * THE TOTAL FREE ENERGY OF SOLVATION IS NOT           COMPLETELY DETERMINED HERE BECAUSE
 EGAS HAS NOT            BEEN DEFINED - THE TOTAL G OF SOLVATION REQUIRES                  KNOWLEDGE OF THE
 CONTRIBUTION FROM  EINT - EGAS,           WHICH IS THE CHANGE IN SOLUTE INTERNAL  ENERGY
 UPON SOLVATION ARISING FROM BACK - POLARIZATION OF            THE SOLUTE BY THE SOLVENT * 

 (N.B.- THESE SOLVATION RESULTS ONLY TREAT             ELECTRONIC ENERGIES, AND SO DO NOT
  INCLUDE ANY             POSSIBLE CHANGES IN VIBRATIONAL OR ROTATIONAL/                   LIBRATIONAL  FREE
  ENERGIES UPON SOLVATION,                  EXCEPT TO THE EXTENT THAT THESE MAY BE INHERENTLY
  INCLUDED IN SOME  OVERALL AVERAGE MANNER THROUGH            THE EMPIRICAL OPTIMIZATION
  OF VARIOUS FITTED               PARAMETERS THAT ARE USED)

 SS(V)PE  SOLVATION METHOD PROPERTIES
 ------------------------------------
 CONVERGENCE ON SURFACE CHARGES     =      0.133393D-06
 CAVITY SURFACE AREA                =     205.50151 (     57.54629 ANG**2 )
 CAVITY VOLUME                      =     269.96575 (     40.00481 ANG**3 )
 TOTAL SURFACE  POLARIZATION CHARGE =   -0.00936969
 CHARGE PENETRATION FROM GAUSS LAW  =   -0.10269168
 
 CAVITY TRANSLATED TO XYZ (AU)      =      0.000000    0.000000    0.124681
                      XYZ (ANG)     =      0.000000    0.000000    0.065979
 CAVITY   ROTATED  BY TPC (RAD)     =      0.000000    0.000000    0.000000
                      TPC (DEG)     =       0.00000     0.00000     0.00000
 
 SOLUTE/CAVITY PROXIMITY
 -----------------------
 IAT =     1 ICAV =     104 DIST =   3.2110 (   1.6992  ANG ) 
 IAT =     2 ICAV =     100 DIST =   3.2290 (   1.7087  ANG ) 
 IAT =     3 ICAV =      99 DIST =   3.2290 (   1.7087  ANG ) 

 --- ADDITIONAL SOLUTE DENSITY-RELATED PROPERTIES ON CAVITY SURFACE ---
          POT         FLD         RHO         DRN         ZET/100     WGT/100     DRG         CHGPEN      DDN         DDL
 TOT    0.6458357   1.2904617   0.2055015  -0.4465018   4.4650173   2.0550151   0.4465018  -0.0914574   0.8421313   0.6176746
 MIN   -0.0157924  -0.0049213   0.0010000  -0.0029821   0.0176822   0.0050819   0.0017682  -0.0111093   0.0023366   0.0018177
 AVG    0.0031427   0.0062796   0.0010000  -0.0021727   0.0217274   0.0203975   0.0021727  -0.0072780   0.0040979   0.0030057
 MAX    0.0365449   0.0344770   0.0010000  -0.0017682   0.0298207   0.0295119   0.0029821  -0.0042242   0.0077938   0.0059337

  ----- ALPHA SET ----- 

          ------------
          EIGENVECTORS
          ------------

                      1          2          3          4          5
                  -20.7665    -1.5825    -0.8690    -0.7849    -0.7709
                     A1         A1         B1         B2         A1  
    1  O  1  S    0.994217  -0.219475  -0.000000   0.000000   0.061268
    2  O  1  S    0.022381   0.549452  -0.000000   0.000000  -0.138094
    3  O  1  X    0.000000  -0.000000   0.564156   0.000000  -0.000000
    4  O  1  Y    0.000000  -0.000000  -0.000000   0.716448  -0.000000
    5  O  1  Z    0.000851   0.119235  -0.000000   0.000000   0.636070
    6  O  1  S    0.005281   0.408655  -0.000000   0.000000  -0.238376
    7  O  1  X    0.000000  -0.000000   0.309716   0.000000  -0.000000
    8  O  1  Y    0.000000  -0.000000  -0.000000   0.424902  -0.000000
    9  O  1  Z   -0.000194   0.042361  -0.000000   0.000000   0.379312
   10  O  1 XX   -0.004912   0.018241  -0.000000   0.000000   0.001050
   11  O  1 YY   -0.004309   0.022060  -0.000000   0.000000  -0.020296
   12  O  1 ZZ   -0.004625   0.015411  -0.000000   0.000000   0.038817
   13  O  1 XY    0.000000  -0.000000  -0.000000   0.000000  -0.000000
   14  O  1 XZ    0.000000  -0.000000   0.047445   0.000000  -0.000000
   15  O  1 YZ    0.000000  -0.000000  -0.000000   0.028535  -0.000000
   16  H  2  S    0.000400   0.107799  -0.202459   0.000000   0.115410
   17  H  2  S   -0.000464  -0.017176  -0.080076   0.000000   0.035360
   18  H  3  S    0.000400   0.107799   0.202459   0.000000   0.115410
   19  H  3  S   -0.000464  -0.017176   0.080076   0.000000   0.035360

                      6          7          8          9         10
                   -0.1406     0.2022     0.9561     0.9602     0.9895
                     A1         B1         B1         B2         A1  
    1  O  1  S   -0.093465   0.000000   0.000000   0.000000  -0.020750
    2  O  1  S    0.152575   0.000000   0.000000   0.000000  -0.702321
    3  O  1  X   -0.000000   0.358355   0.040367   0.000000   0.000000
    4  O  1  Y   -0.000000   0.000000   0.000000  -0.906982   0.000000
    5  O  1  Z    0.234420   0.000000   0.000000   0.000000   0.792575
    6  O  1  S    1.191340   0.000000   0.000000   0.000000   1.333922
    7  O  1  X   -0.000000   0.753330   0.705878   0.000000   0.000000
    8  O  1  Y   -0.000000   0.000000   0.000000   1.074702   0.000000
    9  O  1  Z    0.388086   0.000000   0.000000   0.000000  -0.881898
   10  O  1 XX   -0.047818   0.000000   0.000000   0.000000  -0.251064
   11  O  1 YY   -0.032047   0.000000   0.000000   0.000000  -0.245541
   12  O  1 ZZ   -0.025901   0.000000   0.000000   0.000000  -0.259846
   13  O  1 XY   -0.000000   0.000000   0.000000   0.000000   0.000000
   14  O  1 XZ   -0.000000   0.016828  -0.223952   0.000000   0.000000
   15  O  1 YZ   -0.000000   0.000000   0.000000   0.009924   0.000000
   16  H  2  S   -0.121793   0.086727   0.822207   0.000000   0.034347
   17  H  2  S   -0.955091   1.351107  -0.425028   0.000000  -0.087545
   18  H  3  S   -0.121793  -0.086727  -0.822207   0.000000   0.034347
   19  H  3  S   -0.955091  -1.351107   0.425028   0.000000  -0.087545

                     11         12         13         14         15
                    1.0437     1.2473     1.3034     1.8391     1.8678
                     A1         B1         A1         A2         A1  
    1  O  1  S    0.021031   0.000000  -0.087413   0.000000  -0.001827
    2  O  1  S   -0.585388   0.000000  -1.413155   0.000000   0.034290
    3  O  1  X    0.000000  -1.003344   0.000000   0.000000  -0.000000
    4  O  1  Y    0.000000   0.000000   0.000000   0.000000  -0.000000
    5  O  1  Z   -0.328407   0.000000  -0.404580   0.000000  -0.010686
    6  O  1  S    1.041375   0.000000   3.600655   0.000000  -0.060131
    7  O  1  X    0.000000   1.578636   0.000000   0.000000  -0.000000
    8  O  1  Y    0.000000   0.000000   0.000000   0.000000  -0.000000
    9  O  1  Z    0.007701   0.000000   1.139125   0.000000  -0.055487
   10  O  1 XX    0.077072   0.000000  -0.638428   0.000000  -0.556410
   11  O  1 YY   -0.342929   0.000000  -0.210815   0.000000  -0.443485
   12  O  1 ZZ   -0.138922   0.000000  -0.402462   0.000000   0.994841
   13  O  1 XY    0.000000   0.000000   0.000000   1.000000  -0.000000
   14  O  1 XZ    0.000000   0.032664   0.000000   0.000000  -0.000000
   15  O  1 YZ    0.000000   0.000000   0.000000   0.000000  -0.000000
   16  H  2  S    0.802426  -0.134965  -0.353325   0.000000   0.025814
   17  H  2  S   -0.713570   1.022129  -0.804087   0.000000   0.013996
   18  H  3  S    0.802426   0.134965  -0.353325   0.000000   0.025814
   19  H  3  S   -0.713570  -1.022129  -0.804087   0.000000   0.013996

                     16         17         18         19
                    1.8720     2.4677     2.8320     3.8029
                     B2         A1         B1         A1  
    1  O  1  S   -0.000000  -0.069808  -0.000000  -0.466724
    2  O  1  S   -0.000000  -0.484695  -0.000000   0.280705
    3  O  1  X   -0.000000   0.000000  -0.008694   0.000000
    4  O  1  Y   -0.011448   0.000000  -0.000000   0.000000
    5  O  1  Z   -0.000000  -0.040175  -0.000000  -0.123995
    6  O  1  S   -0.000000   1.698442  -0.000000   3.720059
    7  O  1  X   -0.000000   0.000000   0.913635   0.000000
    8  O  1  Y   -0.022800   0.000000  -0.000000   0.000000
    9  O  1  Z   -0.000000   0.784876  -0.000000   0.321378
   10  O  1 XX   -0.000000   0.767703  -0.000000  -1.552833
   11  O  1 YY   -0.000000  -1.119607  -0.000000  -1.559646
   12  O  1 ZZ   -0.000000  -0.042728  -0.000000  -1.566191
   13  O  1 XY   -0.000000   0.000000  -0.000000   0.000000
   14  O  1 XZ   -0.000000   0.000000   1.291291   0.000000
   15  O  1 YZ    0.999544   0.000000  -0.000000   0.000000
   16  H  2  S   -0.000000  -0.900943   0.991761   0.144701
   17  H  2  S   -0.000000  -0.154931  -0.033774  -0.573585
   18  H  3  S   -0.000000  -0.900943  -0.991761   0.144701
   19  H  3  S   -0.000000  -0.154931   0.033774  -0.573585

  ----- BETA SET ----- 

          ------------
          EIGENVECTORS
          ------------

                      1          2          3          4          5
                  -20.7096    -1.3839    -0.8216    -0.6945     0.0296
                     A1         A1         B1         A1         B2  
    1  O  1  S    0.995027  -0.209879  -0.000000   0.061537   0.000000
    2  O  1  S    0.019687   0.493567  -0.000000  -0.154130   0.000000
    3  O  1  X    0.000000  -0.000000   0.563847   0.000000   0.000000
    4  O  1  Y    0.000000  -0.000000  -0.000000   0.000000   0.514157
    5  O  1  Z    0.000647   0.082301  -0.000000   0.605640   0.000000
    6  O  1  S    0.003889   0.424866  -0.000000  -0.220957   0.000000
    7  O  1  X    0.000000  -0.000000   0.337750   0.000000   0.000000
    8  O  1  Y    0.000000  -0.000000  -0.000000   0.000000   0.637432
    9  O  1  Z   -0.000090   0.041423  -0.000000   0.405654   0.000000
   10  O  1 XX   -0.003421   0.047922  -0.000000  -0.002214   0.000000
   11  O  1 YY   -0.004562  -0.018901  -0.000000  -0.005345   0.000000
   12  O  1 ZZ   -0.003414   0.035288  -0.000000   0.028528   0.000000
   13  O  1 XY    0.000000  -0.000000  -0.000000   0.000000   0.000000
   14  O  1 XZ    0.000000  -0.000000   0.047977   0.000000   0.000000
   15  O  1 YZ    0.000000  -0.000000  -0.000000   0.000000   0.024217
   16  H  2  S    0.000153   0.130279  -0.209728   0.128132   0.000000
   17  H  2  S   -0.000260  -0.008620  -0.029878   0.030037   0.000000
   18  H  3  S    0.000153   0.130279   0.209728   0.128132   0.000000
   19  H  3  S   -0.000260  -0.008620   0.029878   0.030037   0.000000

                      6          7          8          9         10
                    0.2266     0.3073     0.9712     1.0338     1.1390
                     A1         B1         B1         A1         A1  
    1  O  1  S   -0.100230   0.000000   0.000000  -0.022188   0.048021
    2  O  1  S    0.109851   0.000000   0.000000  -0.788142  -0.406409
    3  O  1  X   -0.000000   0.330868   0.044088   0.000000  -0.000000
    4  O  1  Y   -0.000000   0.000000   0.000000   0.000000  -0.000000
    5  O  1  Z    0.183446   0.000000   0.000000   0.762773  -0.392426
    6  O  1  S    1.332420   0.000000   0.000000   1.539923   0.430206
    7  O  1  X   -0.000000   0.761252   0.695585   0.000000  -0.000000
    8  O  1  Y   -0.000000   0.000000   0.000000   0.000000  -0.000000
    9  O  1  Z    0.458632   0.000000   0.000000  -0.835404  -0.073599
   10  O  1 XX   -0.040005   0.000000   0.000000  -0.264770   0.143581
   11  O  1 YY   -0.055810   0.000000   0.000000  -0.270981  -0.255265
   12  O  1 ZZ   -0.031707   0.000000   0.000000  -0.295816  -0.108731
   13  O  1 XY   -0.000000   0.000000   0.000000   0.000000  -0.000000
   14  O  1 XZ   -0.000000   0.001012  -0.227805   0.000000  -0.000000
   15  O  1 YZ   -0.000000   0.000000   0.000000   0.000000  -0.000000
   16  H  2  S   -0.068631   0.088263   0.816777   0.110809   0.850395
   17  H  2  S   -1.024356   1.361542  -0.439819  -0.201556  -0.547811
   18  H  3  S   -0.068631  -0.088263  -0.816777   0.110809   0.850395
   19  H  3  S   -1.024356  -1.361542   0.439819  -0.201556  -0.547811

                     11         12         13         14         15
                    1.1821     1.2862     1.3726     1.9080     1.9383
                     B2         B1         A1         A1         A2  
    1  O  1  S    0.000000   0.000000  -0.086931   0.011456   0.000000
    2  O  1  S    0.000000   0.000000  -1.437801   0.093164   0.000000
    3  O  1  X    0.000000  -1.012795   0.000000   0.000000   0.000000
    4  O  1  Y    1.035224   0.000000   0.000000   0.000000   0.000000
    5  O  1  Z    0.000000   0.000000  -0.482416   0.013666   0.000000
    6  O  1  S    0.000000   0.000000   3.639265  -0.299988   0.000000
    7  O  1  X    0.000000   1.572824   0.000000   0.000000   0.000000
    8  O  1  Y   -0.963830   0.000000   0.000000   0.000000   0.000000
    9  O  1  Z    0.000000   0.000000   1.147627  -0.157413   0.000000
   10  O  1 XX    0.000000   0.000000  -0.654073  -0.574501   0.000000
   11  O  1 YY    0.000000   0.000000  -0.274292  -0.366597   0.000000
   12  O  1 ZZ    0.000000   0.000000  -0.384300   1.010100   0.000000
   13  O  1 XY    0.000000   0.000000   0.000000   0.000000   1.000000
   14  O  1 XZ    0.000000   0.038911   0.000000   0.000000   0.000000
   15  O  1 YZ   -0.012539   0.000000   0.000000   0.000000   0.000000
   16  H  2  S    0.000000  -0.126857  -0.284623   0.115002   0.000000
   17  H  2  S    0.000000   1.004769  -0.833026   0.042290   0.000000
   18  H  3  S    0.000000   0.126857  -0.284623   0.115002   0.000000
   19  H  3  S    0.000000  -1.004769  -0.833026   0.042290   0.000000

                     16         17         18         19
                    1.9767     2.5525     2.8629     3.8598
                     B2         A1         B1         A1  
    1  O  1  S    0.000000  -0.061538  -0.000000  -0.467027
    2  O  1  S    0.000000  -0.506417  -0.000000   0.306636
    3  O  1  X    0.000000   0.000000   0.001412   0.000000
    4  O  1  Y    0.000530   0.000000  -0.000000   0.000000
    5  O  1  Z    0.000000  -0.038661  -0.000000  -0.114531
    6  O  1  S    0.000000   1.668731  -0.000000   3.676789
    7  O  1  X    0.000000   0.000000   0.915052   0.000000
    8  O  1  Y   -0.027533   0.000000  -0.000000   0.000000
    9  O  1  Z    0.000000   0.758658  -0.000000   0.311070
   10  O  1 XX    0.000000   0.737818  -0.000000  -1.546800
   11  O  1 YY    0.000000  -1.155159  -0.000000  -1.555904
   12  O  1 ZZ    0.000000   0.018071  -0.000000  -1.557240
   13  O  1 XY    0.000000   0.000000  -0.000000   0.000000
   14  O  1 XZ    0.000000   0.000000   1.290533   0.000000
   15  O  1 YZ    0.999628   0.000000  -0.000000   0.000000
   16  H  2  S    0.000000  -0.868366   0.995663   0.145384
   17  H  2  S    0.000000  -0.160282  -0.027380  -0.563854
   18  H  3  S    0.000000  -0.868366  -0.995663   0.145384
   19  H  3  S    0.000000  -0.160282   0.027380  -0.563854
 ...... END OF UHF CALCULATION ......
 STEP CPU TIME =     0.20 TOTAL CPU TIME =        0.2 (    0.0 MIN)
 TOTAL WALL CLOCK TIME=        0.3 SECONDS, CPU UTILIZATION IS  96.00%

     ----------------------------------------------------------------
     PROPERTY VALUES FOR THE UHF   SELF-CONSISTENT FIELD WAVEFUNCTION
     ----------------------------------------------------------------

          ---------------------------------------
          MULLIKEN AND LOWDIN POPULATION ANALYSES
          ---------------------------------------

     ATOMIC MULLIKEN POPULATION IN EACH MOLECULAR ORBITAL
        ALPHA ORBITALS

                      1          2          3          4          5

                  1.000000   1.000000   1.000000   1.000000   1.000000

    1             1.000038   0.921066   0.739939   1.000000   0.928636
    2            -0.000019   0.039467   0.130031   0.000000   0.035682
    3            -0.000019   0.039467   0.130031   0.000000   0.035682

                      6

                  1.000000

    1            -0.209523
    2             0.604762
    3             0.604762

     ATOMIC MULLIKEN POPULATION IN EACH MOLECULAR ORBITAL
         BETA ORBITALS

                      1          2          3          4

                  1.000000   1.000000   1.000000   1.000000

    1             1.000027   0.883054   0.765155   0.918516
    2            -0.000013   0.058473   0.117423   0.040742
    3            -0.000013   0.058473   0.117423   0.040742

     ATOMIC SPIN POPULATION (ALPHA MINUS BETA)
       ATOM         MULL.POP.                    LOW.POP.
    1 O             0.813408                     1.222141
    2 H             0.593296                     0.388930
    3 H             0.593296                     0.388930


          ********* ALL ELECTRONS ********

               ----- POPULATIONS IN EACH AO -----
                             MULLIKEN      LOWDIN
              1  O  1  S      1.99581     1.97861
              2  O  1  S      1.01153     0.84368
              3  O  1  X      0.94272     0.87688
              4  O  1  Y      0.66597     0.64353
              5  O  1  Z      1.16010     1.12515
              6  O  1  S      0.59199     0.46212
              7  O  1  X      0.54434     0.57005
              8  O  1  Y      0.33321     0.35565
              9  O  1  Z      0.59742     0.68745
             10  O  1 XX      0.05191     0.20280
             11  O  1 YY      0.00531     0.17912
             12  O  1 ZZ      0.02774     0.18581
             13  O  1 XY      0.00000     0.00000
             14  O  1 XZ      0.01803     0.02047
             15  O  1 YZ      0.00081     0.00081
             16  H  2  S      0.42862     0.40010
             17  H  2  S      0.59792     0.53383
             18  H  3  S      0.42862     0.40010
             19  H  3  S      0.59792     0.53383

          ----- MULLIKEN ATOMIC OVERLAP POPULATIONS -----
          (OFF-DIAGONAL ELEMENTS NEED TO BE MULTIPLIED BY 2)

             1           2           3

    1    9.4627707
    2   -0.7579311   1.2694311
    3   -0.7579311   0.5150457   1.2694311

          TOTAL MULLIKEN AND LOWDIN ATOMIC POPULATIONS
       ATOM         MULL.POP.    CHARGE          LOW.POP.     CHARGE
    1 O             7.946909    0.053091         8.132135   -0.132135
    2 H             1.026546   -0.026546         0.933932    0.066068
    3 H             1.026546   -0.026546         0.933932    0.066068

          -------------------------------
          BOND ORDER AND VALENCE ANALYSIS     BOND ORDER THRESHOLD=0.050
          -------------------------------

                   BOND                       BOND                       BOND
  ATOM PAIR DIST  ORDER      ATOM PAIR DIST  ORDER      ATOM PAIR DIST  ORDER
    1   2  0.947  0.237        1   3  0.947  0.237        2   3  1.509  0.660

                       TOTAL       BONDED        FREE
      ATOM            VALENCE     VALENCE     VALENCE
    1 O                 1.605       0.474       1.130
    2 H                 1.267       0.897       0.370
    3 H                 1.267       0.897       0.370

          -----------------------------------------
          ATOMIC SPIN DENSITY AT THE NUCLEUS (A.U.)
          -----------------------------------------
                            SPIN DENS    ALPHA DENS     BETA DENS
    1  O            8.0     1.4301302     146.55144     145.12131
    2  H            1.0     0.0039367       0.18077       0.17684
    3  H            1.0     0.0039367       0.18077       0.17684

    **** A SOLVENT MODEL IS IN USE IN THIS RUN ****
 ELECTRICAL PROPERTIES (MOMENTS, DENSITY, FIELD/GRADIENT, AND/OR POTENTIAL)
 ARE COMPUTED USING THE SOLVATED SYSTEM'S DENSITY MATRIX, BUT
 ONLY WITH AO INTEGRAL CONTRIBUTIONS FROM THE QUANTUM SOLUTE.
 THE ONE EXCEPTION IS THE DIPOLE, WHICH IS ALSO PRINTED FOR THE TOTAL SYSTEM.

          ---------------------
          ELECTROSTATIC MOMENTS
          ---------------------

 POINT   1           X           Y           Z (BOHR)    CHARGE
                 0.000000    0.000000    0.029318        0.00 (A.U.)
         DX          DY          DZ         /D/  (DEBYE)
    -0.000000   -0.000000   -0.542885    0.542885
 ...... END OF PROPERTY EVALUATION ......
 STEP CPU TIME =     0.00 TOTAL CPU TIME =        0.2 (    0.0 MIN)
 TOTAL WALL CLOCK TIME=        0.3 SECONDS, CPU UTILIZATION IS  96.00%
               580000  WORDS OF DYNAMIC MEMORY USED
 EXECUTION OF GAMESS TERMINATED NORMALLY Wed Aug  9 19:55:12 2017
 DDI: 263640 bytes (0.3 MB / 0 MWords) used by master data server.

 ----------------------------------------
 CPU timing information for all processes
 ========================================
 0: 0.240 + 0.15 = 0.256
 ----------------------------------------
 ddikick.x: exited gracefully.
unset echo
----- accounting info -----
Files used on the master node compute-1-2.local were:
-rw-rw-r-- 1 sarom sarom  13K Aug  9 19:55 /scratch/svp-uhf.F05
-rw-rw-r-- 1 sarom sarom 2.0M Aug  9 19:55 /scratch/svp-uhf.F10
-rw-rw-r-- 1 sarom sarom    0 Aug  9 19:55 /scratch/svp-uhf.F26
-rw-rw-r-- 1 sarom sarom    0 Aug  9 19:55 /scratch/svp-uhf.F27
rm: cannot remove `/scratch/tmp': Is a directory
ls: No match.
ls: No match.
ls: No match.
Wed Aug  9 19:55:15 CDT 2017
0.251u 0.161s 0:03.74 10.9%	0+0k 0+384io 0pf+0w
/opt/gridengine/default/spool/compute-1-2/active_jobs/35716.1/pe_hostfile compute-1-2.local
