----- GAMESS execution script 'rungms' -----
This job is running on host compute-3-0
under operating system Linux at Tue Nov 29 00:29:12 CST 2016
Available scratch disk space (Kbyte units) at beginning of the job is
Filesystem            1K-blocks       Used  Available Use% Mounted on
bolt.local:/export/home/sarom
                     9590469632 1553430528 7549871104  18% /home/sarom
Copying input file svp-rohf.inp to your run's scratch directory...
cp svp-rohf.inp .//svp-rohf.F05
unset echo
/home/sarom/gamessGH/ddikick.x /home/sarom/gamessGH/gamess.00.x svp-rohf -ddi 1 1 localhost -scr ./

 Distributed Data Interface kickoff program.
 Initiating 1 compute processes on 1 nodes to run the following command:
 /home/sarom/gamessGH/gamess.00.x svp-rohf 

          ******************************************************
          *         GAMESS VERSION = 18 AUG 2016 (R1)          *
          *             FROM IOWA STATE UNIVERSITY             *
          * M.W.SCHMIDT, K.K.BALDRIDGE, J.A.BOATZ, S.T.ELBERT, *
          *   M.S.GORDON, J.H.JENSEN, S.KOSEKI, N.MATSUNAGA,   *
          *          K.A.NGUYEN, S.J.SU, T.L.WINDUS,           *
          *       TOGETHER WITH M.DUPUIS, J.A.MONTGOMERY       *
          *         J.COMPUT.CHEM.  14, 1347-1363(1993)        *
          **************** 64 BIT LINUX VERSION ****************

  SINCE 1993, STUDENTS AND POSTDOCS WORKING AT IOWA STATE UNIVERSITY
  AND ALSO IN THEIR VARIOUS JOBS AFTER LEAVING ISU HAVE MADE IMPORTANT
  CONTRIBUTIONS TO THE CODE:
     IVANA ADAMOVIC, CHRISTINE AIKENS, YURI ALEXEEV, POOJA ARORA,
     ANDREY ASADCHEV, ROB BELL, PRADIPTA BANDYOPADHYAY, JONATHAN BENTZ,
     BRETT BODE, KURT BRORSEN, CALEB CARLIN, GALINA CHABAN, WEI CHEN,
     CHEOL HO CHOI, PAUL DAY, ALBERT DEFUSCO, NUWAN DESILVA, TIM DUDLEY,
     DMITRI FEDOROV, GRAHAM FLETCHER, MARK FREITAG, KURT GLAESEMANN,
     DAN KEMP, GRANT MERRILL, NORIYUKI MINEZAWA, JONATHAN MULLIN,
     TAKESHI NAGATA, SEAN NEDD, HEATHER NETZLOFF, BOSILJKA NJEGIC, RYAN OLSON,
     MIKE PAK, SPENCER PRUITT, LUKE ROSKOP, JIM SHOEMAKER, LYUDMILA SLIPCHENKO,
     TONY SMITH, SAROM SOK LEANG, JIE SONG, TETSUYA TAKETSUGU, SIMON WEBB,
     PENG XU, SOOHAENG YOO, FEDERICO ZAHARIEV

  ADDITIONAL CODE HAS BEEN PROVIDED BY COLLABORATORS IN OTHER GROUPS:
     IOWA STATE UNIVERSITY:
          JOE IVANIC, AARON WEST, LAIMUTIS BYTAUTAS, KLAUS RUEDENBERG
     UNIVERSITY OF TOKYO: KIMIHIKO HIRAO, TAKAHITO NAKAJIMA,
          TAKAO TSUNEDA, MUNEAKI KAMIYA, SUSUMU YANAGISAWA,
          KIYOSHI YAGI, MAHITO CHIBA, SEIKEN TOKURA, NAOAKI KAWAKAMI
     UNIVERSITY OF AARHUS: FRANK JENSEN
     UNIVERSITY OF IOWA: VISVALDAS KAIRYS, HUI LI
     NATIONAL INST. OF STANDARDS AND TECHNOLOGY: WALT STEVENS, DAVID GARMER
     UNIVERSITY OF PISA: BENEDETTA MENNUCCI, JACOPO TOMASI
     UNIVERSITY OF MEMPHIS: HENRY KURTZ, PRAKASHAN KORAMBATH
     UNIVERSITY OF ALBERTA: TOBY ZENG, MARIUSZ KLOBUKOWSKI
     UNIVERSITY OF NEW ENGLAND: MARK SPACKMAN
     MIE UNIVERSITY: HIROAKI UMEDA
     NAT. INST. OF ADVANCED INDUSTRIAL SCIENCE AND TECHNOLOGY: KAZUO KITAURA
     MICHIGAN STATE UNIVERSITY:
          KAROL KOWALSKI, MARTA WLOCH, JEFFREY GOUR, JESSE LUTZ,
          WEI LI, PIOTR PIECUCH
     UNIVERSITY OF SILESIA: MONIKA MUSIAL, STANISLAW KUCHARSKI
     FACULTES UNIVERSITAIRES NOTRE-DAME DE LA PAIX:
          OLIVIER QUINET, BENOIT CHAMPAGNE
     UNIVERSITY OF CALIFORNIA - SANTA BARBARA: BERNARD KIRTMAN
     INSTITUTE FOR MOLECULAR SCIENCE:
          KAZUYA ISHIMURA, MICHIO KATOUDA, AND SHIGERU NAGASE
     UNIVERSITY OF NOTRE DAME: ANNA POMOGAEVA, DAN CHIPMAN
     KYUSHU UNIVERSITY:
          HARUYUKI NAKANO,
          FENG LONG GU, JACEK KORCHOWIEC, MARCIN MAKOWSKI, AND YURIKO AOKI,
          HIROTOSHI MORI AND EISAKU MIYOSHI
     PENNSYLVANIA STATE UNIVERSITY:
          TZVETELIN IORDANOV, CHET SWALINA, JONATHAN SKONE,
          SHARON HAMMES-SCHIFFER
     WASEDA UNIVERSITY:
          MASATO KOBAYASHI, TOMOKO AKAMA, TSUGUKI TOUMA,
          TAKESHI YOSHIKAWA, YASUHIRO IKABATA, JUNJI SEINO,
          YUYA NAKAJIMA, HIROMI NAKAI
     NANJING UNIVERSITY: SHUHUA LI
     UNIVERSITY OF NEBRASKA:
          PEIFENG SU, DEJUN SI, NANDUN THELLAMUREGE, YALI WANG, HUI LI
     UNIVERSITY OF ZURICH: ROBERTO PEVERATI, KIM BALDRIDGE
     N. COPERNICUS UNIVERSITY AND JACKSON STATE UNIVERSITY:
          MARIA BARYSZ
     UNIVERSITY OF COPENHAGEN: Jimmy Kromann, CASPER STEINMANN
     TOKYO INSTITUTE OF TECHNOLOGY: HIROYA NAKATA
     NAGOYA UNIVERSITY: YOSHIO NISHIMOTO, STEPHAN IRLE
     MOSCOW STATE UNIVERSITY: VLADIMIR MIRONOV

 EXECUTION OF GAMESS BEGUN Tue Nov 29 00:29:12 2016

            ECHO OF THE FIRST FEW INPUT CARDS -
 INPUT CARD>!    surface/volume polarization for ROHF triplet water in water                
 INPUT CARD>!                                                                               
 INPUT CARD>!    FINAL E= -75.7407152734, rxn fld E= -.00146116                             
 INPUT CARD>!                                                                               
 INPUT CARD>!    This run takes 1 second on 1.2 GHz Power4+ (18 Jul 2006)                   
 INPUT CARD>!                                                                               
 INPUT CARD> $contrl scftyp=rohf mult=3 runtyp=energy $end                                  
 INPUT CARD> $system mwords=5 $end                                                          
 INPUT CARD> $guess  guess=moread norb=19 $end                                              
 INPUT CARD> $basis  gbasis=n31 ngauss=6 ndfunc=1 $end                                      
 INPUT CARD> $svp    rhoiso=0.001 dielst=78.39 nptleb=110 itrngr=2 irotgr=2                 
 INPUT CARD>         iprdn=2 $end                                                           
 INPUT CARD> $data                                                                          
 INPUT CARD>water...SVP model                                                               
 INPUT CARD>Cnv 2                                                                           
 INPUT CARD>                                                                                
 INPUT CARD>O   8.0  0.0          0.0 -0.0486020332                                         
 INPUT CARD>H   1.0  0.7545655371 0.0  0.5243010666                                         
 INPUT CARD> $end                                                                           
 INPUT CARD>                                                                                
 INPUT CARD>--- CLOSED SHELL ORBITALS --- GENERATED AT Thu Feb 10 22:26:07 2005             
 INPUT CARD>water...SVP model                                                               
 INPUT CARD>E(RHF)=      -76.0107462712, E(NUC)=    9.2874668413,   10 ITERS                
 INPUT CARD> $VEC                                                                           
 INPUT CARD> 1  1 9.94622636E-01 2.11722689E-02 0.00000000E+00 0.00000000E+00 1.33669829E-03
 INPUT CARD> 1  2 4.14843561E-03 0.00000000E+00 0.00000000E+00-4.60030890E-04-4.21099993E-03
 INPUT CARD> 1  3-3.94328021E-03-4.08838072E-03 0.00000000E+00 0.00000000E+00 0.00000000E+00
 INPUT CARD> 1  4 3.24363380E-04-2.05633231E-04 3.24363380E-04-2.05633231E-04               
 INPUT CARD> 2  1-2.09544962E-01 4.75777094E-01 0.00000000E+00 0.00000000E+00 9.46363052E-02
 INPUT CARD> 2  2 4.35404157E-01 0.00000000E+00 0.00000000E+00 4.97721417E-02 2.69699509E-02
 INPUT CARD> 2  3-1.03352387E-03 2.12684770E-02 0.00000000E+00 0.00000000E+00 0.00000000E+00
 INPUT CARD> 2  4 1.32988047E-01 1.73088822E-03 1.32988047E-01 1.73088822E-03               
 INPUT CARD> 3  1 0.00000000E+00 0.00000000E+00 5.08859755E-01 0.00000000E+00 0.00000000E+00
 INPUT CARD> 3  2 0.00000000E+00 3.03823727E-01 0.00000000E+00 0.00000000E+00 0.00000000E+00
 INPUT CARD> 3  3 0.00000000E+00 0.00000000E+00 0.00000000E+00 5.08466700E-02 0.00000000E+00
 INPUT CARD> 3  4-2.32478469E-01-1.07175390E-01 2.32478469E-01 1.07175390E-01               
 INPUT CARD> 4  1 7.30299514E-02-1.63505673E-01 0.00000000E+00 0.00000000E+00 5.57865364E-01
 INPUT CARD> 4  2-3.25228014E-01 0.00000000E+00 0.00000000E+00 4.05029926E-01-7.70122421E-04
 INPUT CARD> 4  3-1.18622118E-02 4.62560695E-02 0.00000000E+00 0.00000000E+00 0.00000000E+00
 INPUT CARD> 4  4 1.39984456E-01 8.27816802E-02 1.39984456E-01 8.27816802E-02               
 INPUT CARD> 5  1 0.00000000E+00 0.00000000E+00 0.00000000E+00 6.39255773E-01 0.00000000E+00
 INPUT CARD> 5  2 0.00000000E+00 0.00000000E+00 5.11848747E-01 0.00000000E+00 0.00000000E+00
 INPUT CARD> 5  3 0.00000000E+00 0.00000000E+00 0.00000000E+00 0.00000000E+00 3.41395263E-02
 INPUT CARD> 5  4 0.00000000E+00 0.00000000E+00 0.00000000E+00 0.00000000E+00               
 INPUT CARD> 6  1-1.01478989E-01 5.57950319E-02 0.00000000E+00 0.00000000E+00 2.11787803E-01
 INPUT CARD> 6  2 1.43988530E+00 0.00000000E+00 0.00000000E+00 5.02160512E-01-5.67594040E-02
 INPUT CARD> 6  3-7.27910559E-02-4.48127023E-02 0.00000000E+00 0.00000000E+00 0.00000000E+00
 INPUT CARD> 6  4-5.37885318E-02-1.05154256E+00-5.37885318E-02-1.05154256E+00               
 INPUT CARD> 7  1 0.00000000E+00 0.00000000E+00 3.25656194E-01 0.00000000E+00 0.00000000E+00
 INPUT CARD> 7  2 0.00000000E+00 8.40954982E-01 0.00000000E+00 0.00000000E+00 0.00000000E+00
    5000000 WORDS OF MEMORY AVAILABLE

     BASIS OPTIONS
     -------------
     GBASIS=N31          IGAUSS=       6      POLAR=POPN31  
     NDFUNC=       1     NFFUNC=       0     DIFFSP=       F
     NPFUNC=       0      DIFFS=       F     BASNAM=        


     RUN TITLE
     ---------
 water...SVP model                                                               

 THE POINT GROUP OF THE MOLECULE IS CNV     
 THE ORDER OF THE PRINCIPAL AXIS IS     2

 ATOM      ATOMIC                      COORDINATES (BOHR)
           CHARGE         X                   Y                   Z
 O           8.0     0.0000000000        0.0000000000       -0.0918445252
 H           1.0    -1.4259221049        0.0000000000        0.9907853509
 H           1.0     1.4259221049        0.0000000000        0.9907853509

          INTERNUCLEAR DISTANCES (ANGS.)
          ------------------------------

                1 O          2 H          3 H     

   1 O       0.0000000    0.9474107 *  0.9474107 *
   2 H       0.9474107 *  0.0000000    1.5091311 *
   3 H       0.9474107 *  1.5091311 *  0.0000000  

  * ... LESS THAN  3.000


     ATOMIC BASIS SET
     ----------------
 THE CONTRACTED PRIMITIVE FUNCTIONS HAVE BEEN UNNORMALIZED
 THE CONTRACTED BASIS FUNCTIONS ARE NOW NORMALIZED TO UNITY

  SHELL TYPE  PRIMITIVE        EXPONENT          CONTRACTION COEFFICIENT(S)

 O         

      1   S       1          5484.6716600    0.001831074430
      1   S       2           825.2349460    0.013950172200
      1   S       3           188.0469580    0.068445078098
      1   S       4            52.9645000    0.232714335992
      1   S       5            16.8975704    0.470192897984
      1   S       6             5.7996353    0.358520852987

      2   L       7            15.5396162   -0.110777549525    0.070874268231
      2   L       8             3.5999336   -0.148026262701    0.339752839147
      2   L       9             1.0137618    1.130767015354    0.727158577316

      3   L      10             0.2700058    1.000000000000    1.000000000000

      4   D      11             0.8000000    1.000000000000

 H         

      7   S      12            18.7311370    0.033494604338
      7   S      13             2.8253944    0.234726953484
      7   S      14             0.6401217    0.813757326146

      8   S      15             0.1612778    1.000000000000

 TOTAL NUMBER OF BASIS SET SHELLS             =    8
 NUMBER OF CARTESIAN GAUSSIAN BASIS FUNCTIONS =   19
 NUMBER OF ELECTRONS                          =   10
 CHARGE OF MOLECULE                           =    0
 SPIN MULTIPLICITY                            =    3
 NUMBER OF OCCUPIED ORBITALS (ALPHA)          =    6
 NUMBER OF OCCUPIED ORBITALS (BETA )          =    4
 TOTAL NUMBER OF ATOMS                        =    3
 THE NUCLEAR REPULSION ENERGY IS        9.2874668413

     $CONTRL OPTIONS
     ---------------
 SCFTYP=ROHF         RUNTYP=ENERGY       EXETYP=RUN     
 MPLEVL=       0     CITYP =NONE         CCTYP =NONE         VBTYP =NONE    
 DFTTYP=NONE         TDDFT =NONE    
 MULT  =       3     ICHARG=       0     NZVAR =       0     COORD =UNIQUE  
 PP    =NONE         RELWFN=NONE         LOCAL =NONE         NUMGRD=       F
 ISPHER=      -1     NOSYM =       0     MAXIT =      30     UNITS =ANGS    
 PLTORB=       F     MOLPLT=       F     AIMPAC=       F     FRIEND=        
 NPRINT=       7     IREST =       0     GEOM  =INPUT   
 NORMF =       0     NORMP =       0     ITOL  =      20     ICUT  =       9
 INTTYP=BEST         GRDTYP=BEST         QMTTOL= 1.0E-06

     $SYSTEM OPTIONS
     ---------------
  REPLICATED MEMORY=     5000000 WORDS (ON EVERY NODE).
 DISTRIBUTED MEMDDI=           0 MILLION WORDS IN AGGREGATE,
 MEMDDI DISTRIBUTED OVER   1 PROCESSORS IS           0 WORDS/PROCESSOR.
 TOTAL MEMORY REQUESTED ON EACH PROCESSOR=     5000000 WORDS.
 TIMLIM=      525600.00 MINUTES, OR     365.0 DAYS.
 PARALL= F  BALTYP=  DLB     KDIAG=    0  COREFL= F
 MXSEQ2=     300 MXSEQ3=     150  mem10=         0

          -------------
          -SVP- SOLVENT
          -------------

 ----- INPUT GROUP $SVP -----
 NVLPL =   0 ISHAPE=   0 ITRCAV=  99 NDRCAV=   0
 INTCAV=   0 NPTLEB= 110 NPTTHE=   8 NPTPHI=  16
 ITRNGR=   2 IROTGR=   2 IOPPRD=   0 IDEF  =   0
 LINEQ =   1 IRDRF =   0 IPNRF =   0 IVERT =   0
 RHOISO=    0.001000 TOLCAV=  0.1000D-09 RADSPH=    2.645617 TOLCHG=  0.1000D-05
 DIELST=   78.390000 DIELOP=    1.776000 CVGLIN=  0.1000D-06 CSDIAG=    1.104000
 ROTTHE=    0.000000 ROTPHI=    0.000000 ROTCHI=    0.000000
 TRANX =    0.000000 TRANY =    0.000000 TRANZ =    0.000000
 EGAS  =    0.000000

          ----------------
          PROPERTIES INPUT
          ----------------

     MOMENTS            FIELD           POTENTIAL          DENSITY
 IEMOM =       1   IEFLD =       0   IEPOT =       0   IEDEN =       0
 WHERE =COMASS     WHERE =NUCLEI     WHERE =NUCLEI     WHERE =NUCLEI  
 OUTPUT=BOTH       OUTPUT=BOTH       OUTPUT=BOTH       OUTPUT=BOTH    
 IEMINT=       0   IEFINT=       0                     IEDINT=       0
                                                       MORB  =       0
          EXTRAPOLATION IN EFFECT
          SOSCF IN EFFECT
 ORBITAL PRINTING OPTION: NPREO=     1    19     2     1

     -------------------------------
     INTEGRAL TRANSFORMATION OPTIONS
     -------------------------------
     NWORD  =            0
     CUTOFF = 1.0E-09     MPTRAN =       0
     DIRTRF =       F     AOINTS =DUP     

          ----------------------
          INTEGRAL INPUT OPTIONS
          ----------------------
 NOPK  =       1 NORDER=       0 SCHWRZ=       F

     ------------------------------------------
     THE POINT GROUP IS CNV, NAXIS= 2, ORDER= 4
     ------------------------------------------

     DIMENSIONS OF THE SYMMETRY SUBSPACES ARE
 A1  =   10     A2  =    1     B1  =    5     B2  =    3

 ..... DONE SETTING UP THE RUN .....
 STEP CPU TIME =     0.04 TOTAL CPU TIME =        0.0 (    0.0 MIN)
 TOTAL WALL CLOCK TIME=        0.0 SECONDS, CPU UTILIZATION IS  80.00%

          ********************
          1 ELECTRON INTEGRALS
          ********************
 ...... END OF ONE-ELECTRON INTEGRALS ......
 STEP CPU TIME =     0.00 TOTAL CPU TIME =        0.0 (    0.0 MIN)
 TOTAL WALL CLOCK TIME=        0.0 SECONDS, CPU UTILIZATION IS  80.00%

          -------------
          GUESS OPTIONS
          -------------
          GUESS =MOREAD            NORB  =      19          NORDER=       0
          MIX   =       F          PRTMO =       F          PUNMO =       F
          TOLZ  = 1.0E-08          TOLE  = 1.0E-05
          SYMDEN=       F          PURIFY=       F

 INITIAL GUESS ORBITALS GENERATED BY MOREAD   ROUTINE.

 SYMMETRIES FOR INITIAL GUESS ORBITALS FOLLOW.  ALPHA SET(S).
     6 ORBITALS ARE OCCUPIED (    1 CORE ORBITALS).
     2=A1       3=B1       4=A1       5=B2       6=A1       7=B1       8=B1  
     9=A1      10=B2      11=A1      12=B1      13=A1      14=A1      15=A2  
    16=B2  

 SYMMETRIES FOR INITIAL GUESS ORBITALS FOLLOW.   BETA SET(S).
     4 ORBITALS ARE OCCUPIED (    1 CORE ORBITALS).
     2=A1       3=B1       4=A1       5=B2       6=A1       7=B1       8=B1  
     9=A1      10=B2      11=A1      12=B1      13=A1      14=A1  
 ...... END OF INITIAL ORBITAL SELECTION ......
 STEP CPU TIME =     0.00 TOTAL CPU TIME =        0.0 (    0.0 MIN)
 TOTAL WALL CLOCK TIME=        0.0 SECONDS, CPU UTILIZATION IS  80.00%

                    ----------------------
                    AO INTEGRAL TECHNOLOGY
                    ----------------------
     S,P,L SHELL ROTATED AXIS INTEGRALS, REPROGRAMMED BY
        KAZUYA ISHIMURA (IMS) AND JOSE SIERRA (SYNSTAR).
     S,P,D,L SHELL ROTATED AXIS INTEGRALS PROGRAMMED BY
        KAZUYA ISHIMURA (INSTITUTE FOR MOLECULAR SCIENCE).
     S,P,D,F,G SHELL TO TOTAL QUARTET ANGULAR MOMENTUM SUM 5,
        ERIC PROGRAM BY GRAHAM FLETCHER (ELORET AND NASA ADVANCED
        SUPERCOMPUTING DIVISION, AMES RESEARCH CENTER).
     S,P,D,F,G,L SHELL GENERAL RYS QUADRATURE PROGRAMMED BY
        MICHEL DUPUIS (PACIFIC NORTHWEST NATIONAL LABORATORY).

          --------------------
          2 ELECTRON INTEGRALS
          --------------------

 THE -PK- OPTION IS OFF, THE INTEGRALS ARE NOT IN SUPERMATRIX FORM.
 STORING   15000 INTEGRALS/RECORD ON DISK, USING 12 BYTES/INTEGRAL.
 TWO ELECTRON INTEGRAL EVALUATION REQUIRES   90432 WORDS OF MEMORY.
 II,JST,KST,LST =  1  1  1  1 NREC =         1 INTLOC =    1
 II,JST,KST,LST =  2  1  1  1 NREC =         1 INTLOC =    2
 II,JST,KST,LST =  3  1  1  1 NREC =         1 INTLOC =   34
 II,JST,KST,LST =  4  1  1  1 NREC =         1 INTLOC =  214
 II,JST,KST,LST =  5  1  1  1 NREC =         1 INTLOC = 1189
 II,JST,KST,LST =  6  1  1  1 NREC =         1 INTLOC = 1189
 II,JST,KST,LST =  7  1  1  1 NREC =         1 INTLOC = 1189
 II,JST,KST,LST =  8  1  1  1 NREC =         1 INTLOC = 2528
 TOTAL NUMBER OF NONZERO TWO-ELECTRON INTEGRALS =                4469
          1 INTEGRAL RECORDS WERE STORED ON DISK FILE  8.
  ...... END OF TWO-ELECTRON INTEGRALS .....
 STEP CPU TIME =     0.02 TOTAL CPU TIME =        0.1 (    0.0 MIN)
 TOTAL WALL CLOCK TIME=        0.1 SECONDS, CPU UTILIZATION IS  50.00%

          ---------------------------
                 ROHF SCF CALCULATION
          ---------------------------

     NUCLEAR ENERGY =         9.2874668413
     MAXIT = 30     NPUNCH=  2     MULT=  3
     EXTRAP=T  DAMP=F  SHIFT=F  RSTRCT=F  DIIS=F  SOSCF=T
     DENSITY MATRIX CONV=  1.00E-05
     ROHF CANONICALIZATION PARAMETERS
             C-C     O-O     V-V
     ALPHA -0.5000  0.5000  1.5000
     BETA   1.5000  0.5000 -0.5000
     SOSCF WILL OPTIMIZE      86 ORBITAL ROTATION ANGLES. SOGTOL= 2.500E-01
     MEMORY REQUIRED FOR UHF/ROHF ITERS=     59316 WORDS.

 ITER EX      TOTAL ENERGY        E CHANGE  DENSITY CHANGE    ORB. GRAD 
   1  0      -75.6669893987   -75.6669893987   0.977035644   0.000000000
          ---------------START SECOND ORDER SCF---------------
   2  1      -75.7129213868    -0.0459319881   0.349328648   0.107889149
   3  2      -75.7304869890    -0.0175656022   0.148955175   0.065553023
   4  3      -75.7407050334    -0.0102180444   0.004768829   0.001401257
   5  4      -75.7407149447    -0.0000099113   0.000586341   0.000264005
   6  5      -75.7407151957    -0.0000002511   0.000185219   0.000038031
   7  6      -75.7407152557    -0.0000000600   0.000046296   0.000010231
   8  7      -75.7407152730    -0.0000000173   0.000001676   0.000000726
   9  8      -75.7407152734    -0.0000000004   0.000000612   0.000000176

          -----------------
          DENSITY CONVERGED
          -----------------
     TIME TO FORM FOCK OPERATORS=       0.2 SECONDS (       0.0 SEC/ITER)
     TIME TO SOLVE SCF EQUATIONS=       0.0 SECONDS (       0.0 SEC/ITER)

 FINAL ROHF ENERGY IS      -75.7407152734 AFTER   9 ITERATIONS

          --------------------
          SPIN SZ   =    1.000
          S-SQUARED =    2.000
          --------------------

 SS(V)PE  (LONG-RANGE DIELECTRIC) SOLVATION ENERGY          (G = FREE ENERGY)
 --------------------------------------------------------------------------------
                                                           AU           KCAL/MOL
 EINT = INTERNAL ENERGY OF SOLUTE IN SOLUTION         -75.73925412

 SS(V)PE  PORTION OF G OF SOLVATION=ERXNFIELD/2        -0.00146116      -0.91689

 EINT  +  SS(V)PE   G  IN  SOLUTION                   -75.74071527

 * THE TOTAL FREE ENERGY OF SOLVATION IS NOT           COMPLETELY DETERMINED HERE BECAUSE
 EGAS HAS NOT            BEEN DEFINED - THE TOTAL G OF SOLVATION REQUIRES                  KNOWLEDGE OF THE
 CONTRIBUTION FROM  EINT - EGAS,           WHICH IS THE CHANGE IN SOLUTE INTERNAL  ENERGY
 UPON SOLVATION ARISING FROM BACK - POLARIZATION OF            THE SOLUTE BY THE SOLVENT * 

 (N.B.- THESE SOLVATION RESULTS ONLY TREAT             ELECTRONIC ENERGIES, AND SO DO NOT
  INCLUDE ANY             POSSIBLE CHANGES IN VIBRATIONAL OR ROTATIONAL/                   LIBRATIONAL  FREE
  ENERGIES UPON SOLVATION,                  EXCEPT TO THE EXTENT THAT THESE MAY BE INHERENTLY
  INCLUDED IN SOME  OVERALL AVERAGE MANNER THROUGH            THE EMPIRICAL OPTIMIZATION
  OF VARIOUS FITTED               PARAMETERS THAT ARE USED)

 SS(V)PE  SOLVATION METHOD PROPERTIES
 ------------------------------------
 CONVERGENCE ON SURFACE CHARGES     =      0.107359D-07
 CAVITY SURFACE AREA                =     205.59530 (     57.57256 ANG**2 )
 CAVITY VOLUME                      =     270.17380 (     40.03564 ANG**3 )
 TOTAL SURFACE  POLARIZATION CHARGE =   -0.00936739
 CHARGE PENETRATION FROM GAUSS LAW  =   -0.10271694
 
 CAVITY TRANSLATED TO XYZ (AU)      =      0.000000    0.000000    0.124681
                      XYZ (ANG)     =      0.000000    0.000000    0.065979
 CAVITY   ROTATED  BY TPC (RAD)     =      0.000000    0.000000    0.000000
                      TPC (DEG)     =       0.00000     0.00000     0.00000
 
 SOLUTE/CAVITY PROXIMITY
 -----------------------
 IAT =     1 ICAV =     104 DIST =   3.2145 (   1.7010  ANG ) 
 IAT =     2 ICAV =     100 DIST =   3.2294 (   1.7089  ANG ) 
 IAT =     3 ICAV =      99 DIST =   3.2294 (   1.7089  ANG ) 

 --- ADDITIONAL SOLUTE DENSITY-RELATED PROPERTIES ON CAVITY SURFACE ---
          POT         FLD         RHO         DRN         ZET/100     WGT/100     DRG         CHGPEN      DDN         DDL
 TOT    0.6444064   1.2907791   0.2055953  -0.4467359   4.4673584   2.0559530   0.4467359  -0.0914441   0.8424027   0.6178982
 MIN   -0.0154526  -0.0051212   0.0010000  -0.0029819   0.0176653   0.0050915   0.0017665  -0.0111084   0.0023301   0.0018141
 AVG    0.0031343   0.0062783   0.0010000  -0.0021729   0.0217289   0.0204024   0.0021729  -0.0072769   0.0040974   0.0030054
 MAX    0.0362175   0.0341875   0.0010000  -0.0017665   0.0298188   0.0295154   0.0029819  -0.0042281   0.0077919   0.0059341

          ------------
          EIGENVECTORS
          ------------

                      1          2          3          4          5
                  -20.6860    -1.2929    -0.7853    -0.6613    -0.3532
                     A1         A1         B1         A1         B2  
    1  O  1  S    0.995071  -0.210902   0.000000   0.061167  -0.000000
    2  O  1  S    0.019957   0.518625   0.000000  -0.146189  -0.000000
    3  O  1  X    0.000000  -0.000000   0.564364   0.000000  -0.000000
    4  O  1  Y    0.000000  -0.000000   0.000000   0.000000   0.714077
    5  O  1  Z    0.000737   0.094981   0.000000   0.620008  -0.000000
    6  O  1  S    0.003377   0.390847   0.000000  -0.234438  -0.000000
    7  O  1  X    0.000000  -0.000000   0.324048   0.000000  -0.000000
    8  O  1  Y    0.000000  -0.000000   0.000000   0.000000   0.427712
    9  O  1  Z   -0.000174   0.032899   0.000000   0.390963  -0.000000
   10  O  1 XX   -0.004206   0.034040   0.000000  -0.000358  -0.000000
   11  O  1 YY   -0.004437   0.002405   0.000000  -0.012467  -0.000000
   12  O  1 ZZ   -0.004039   0.025845   0.000000   0.033826  -0.000000
   13  O  1 XY    0.000000  -0.000000   0.000000   0.000000  -0.000000
   14  O  1 XZ    0.000000  -0.000000   0.047791   0.000000  -0.000000
   15  O  1 YZ    0.000000  -0.000000   0.000000   0.000000   0.028418
   16  H  2  S    0.000142   0.121199  -0.206017   0.122455  -0.000000
   17  H  2  S   -0.000047   0.008177  -0.054342   0.036835  -0.000000
   18  H  3  S    0.000142   0.121199   0.206017   0.122455  -0.000000
   19  H  3  S   -0.000047   0.008177   0.054342   0.036835  -0.000000

                      6          7          8          9         10
                    0.0449     0.1490     0.8776     0.9389     0.9724
                     A1         B1         B2         B1         A1  
    1  O  1  S   -0.102084   0.000000   0.000000   0.000000  -0.021592
    2  O  1  S    0.175090   0.000000   0.000000   0.000000  -0.663406
    3  O  1  X   -0.000000   0.355990   0.000000   0.052080   0.000000
    4  O  1  Y   -0.000000   0.000000  -0.908838   0.000000   0.000000
    5  O  1  Z    0.244624   0.000000   0.000000   0.000000   0.818728
    6  O  1  S    1.208436   0.000000   0.000000   0.000000   1.260624
    7  O  1  X   -0.000000   0.742841   0.000000   0.695259   0.000000
    8  O  1  Y   -0.000000   0.000000   1.073613   0.000000   0.000000
    9  O  1  Z    0.397910   0.000000   0.000000   0.000000  -0.879408
   10  O  1 XX   -0.045797   0.000000   0.000000   0.000000  -0.251502
   11  O  1 YY   -0.030773   0.000000   0.000000   0.000000  -0.227648
   12  O  1 ZZ   -0.024785   0.000000   0.000000   0.000000  -0.246137
   13  O  1 XY   -0.000000   0.000000   0.000000   0.000000   0.000000
   14  O  1 XZ   -0.000000   0.021979   0.000000  -0.222557   0.000000
   15  O  1 YZ   -0.000000   0.000000   0.008717   0.000000   0.000000
   16  H  2  S   -0.115048   0.093625   0.000000   0.823739  -0.009915
   17  H  2  S   -0.956016   1.346621   0.000000  -0.432561  -0.045705
   18  H  3  S   -0.115048  -0.093625   0.000000  -0.823739  -0.009915
   19  H  3  S   -0.956016  -1.346621   0.000000   0.432561  -0.045705

                     11         12         13         14         15
                    0.9946     1.2269     1.2712     1.7897     1.8218
                     A1         B1         A1         A2         B2  
    1  O  1  S    0.023888   0.000000  -0.085541   0.000000  -0.000000
    2  O  1  S   -0.659462   0.000000  -1.406430   0.000000  -0.000000
    3  O  1  X    0.000000  -1.003490   0.000000   0.000000  -0.000000
    4  O  1  Y    0.000000   0.000000   0.000000   0.000000  -0.012376
    5  O  1  Z   -0.294670   0.000000  -0.403617   0.000000  -0.000000
    6  O  1  S    1.158180   0.000000   3.566409   0.000000  -0.000000
    7  O  1  X    0.000000   1.585301   0.000000   0.000000  -0.000000
    8  O  1  Y    0.000000   0.000000   0.000000   0.000000  -0.021522
    9  O  1  Z   -0.023639   0.000000   1.125299   0.000000  -0.000000
   10  O  1 XX    0.061643   0.000000  -0.630254   0.000000  -0.000000
   11  O  1 YY   -0.376122   0.000000  -0.186358   0.000000  -0.000000
   12  O  1 ZZ   -0.142973   0.000000  -0.409800   0.000000  -0.000000
   13  O  1 XY    0.000000   0.000000   0.000000   1.000000  -0.000000
   14  O  1 XZ    0.000000   0.027275   0.000000   0.000000  -0.000000
   15  O  1 YZ    0.000000   0.000000   0.000000   0.000000   0.999558
   16  H  2  S    0.783261  -0.128758  -0.357606   0.000000  -0.000000
   17  H  2  S   -0.726236   1.026472  -0.792178   0.000000  -0.000000
   18  H  3  S    0.783261   0.128758  -0.357606   0.000000  -0.000000
   19  H  3  S   -0.726236  -1.026472  -0.792178   0.000000  -0.000000

                     16         17         18         19
                    1.8437     2.4275     2.8145     3.7785
                     A1         A1         B1         A1  
    1  O  1  S   -0.003824  -0.067499  -0.000000  -0.467562
    2  O  1  S    0.005026  -0.492780  -0.000000   0.274391
    3  O  1  X    0.000000  -0.000000  -0.012449   0.000000
    4  O  1  Y    0.000000  -0.000000  -0.000000   0.000000
    5  O  1  Z   -0.013680  -0.038742  -0.000000  -0.124724
    6  O  1  S    0.021998   1.696428  -0.000000   3.742004
    7  O  1  X    0.000000  -0.000000   0.913855   0.000000
    8  O  1  Y    0.000000  -0.000000  -0.000000   0.000000
    9  O  1  Z   -0.011342   0.796539  -0.000000   0.327110
   10  O  1 XX   -0.545543   0.779426  -0.000000  -1.554603
   11  O  1 YY   -0.473465  -1.101762  -0.000000  -1.561977
   12  O  1 ZZ    0.988791  -0.069762  -0.000000  -1.568993
   13  O  1 XY    0.000000  -0.000000  -0.000000   0.000000
   14  O  1 XZ    0.000000  -0.000000   1.291567   0.000000
   15  O  1 YZ    0.000000  -0.000000  -0.000000   0.000000
   16  H  2  S   -0.015633  -0.915114   0.989953   0.144596
   17  H  2  S    0.006420  -0.150190  -0.036676  -0.579055
   18  H  3  S   -0.015633  -0.915114  -0.989953   0.144596
   19  H  3  S    0.006420  -0.150190   0.036676  -0.579055
 ...... END OF ROHF CALCULATION ......
 STEP CPU TIME =     0.23 TOTAL CPU TIME =        0.3 (    0.0 MIN)
 TOTAL WALL CLOCK TIME=        0.4 SECONDS, CPU UTILIZATION IS  78.38%

     ----------------------------------------------------------------
     PROPERTY VALUES FOR THE ROHF  SELF-CONSISTENT FIELD WAVEFUNCTION
     ----------------------------------------------------------------

          ---------------------------------------
          MULLIKEN AND LOWDIN POPULATION ANALYSES
          ---------------------------------------

     ATOMIC MULLIKEN POPULATION IN EACH MOLECULAR ORBITAL

                      1          2          3          4          5

                  2.000000   2.000000   2.000000   2.000000   1.000000

    1             1.999992   1.746710   1.506649   1.843039   1.000000
    2             0.000004   0.126645   0.246676   0.078480   0.000000
    3             0.000004   0.126645   0.246676   0.078480   0.000000

                      6

                  1.000000

    1            -0.143525
    2             0.571763
    3             0.571763

     ATOMIC SPIN POPULATION (ALPHA MINUS BETA)
       ATOM         MULL.POP.                    LOW.POP.
    1 O             0.856475                     1.220969
    2 H             0.571763                     0.389515
    3 H             0.571763                     0.389515

               ----- POPULATIONS IN EACH AO -----
                             MULLIKEN      LOWDIN
              1  O  1  S      1.99581     1.97864
              2  O  1  S      1.01296     0.84490
              3  O  1  X      0.94371     0.87786
              4  O  1  Y      0.66308     0.64103
              5  O  1  Z      1.16061     1.12573
              6  O  1  S      0.59445     0.46262
              7  O  1  X      0.54489     0.57010
              8  O  1  Y      0.33611     0.35816
              9  O  1  Z      0.59887     0.68800
             10  O  1 XX      0.05127     0.20251
             11  O  1 YY      0.00471     0.17902
             12  O  1 ZZ      0.02754     0.18582
             13  O  1 XY      0.00000     0.00000
             14  O  1 XZ      0.01806     0.02047
             15  O  1 YZ      0.00081     0.00081
             16  H  2  S      0.42748     0.39916
             17  H  2  S      0.59609     0.53301
             18  H  3  S      0.42748     0.39916
             19  H  3  S      0.59609     0.53301

          ----- MULLIKEN ATOMIC OVERLAP POPULATIONS -----
          (OFF-DIAGONAL ELEMENTS NEED TO BE MULTIPLIED BY 2)

             1           2           3

    1    9.4771819
    2   -0.7621589   1.2689845
    3   -0.7621589   0.5167423   1.2689845

          TOTAL MULLIKEN AND LOWDIN ATOMIC POPULATIONS
       ATOM         MULL.POP.    CHARGE          LOW.POP.     CHARGE
    1 O             7.952864    0.047136         8.135659   -0.135659
    2 H             1.023568   -0.023568         0.932170    0.067830
    3 H             1.023568   -0.023568         0.932170    0.067830

          -------------------------------
          BOND ORDER AND VALENCE ANALYSIS     BOND ORDER THRESHOLD=0.050
          -------------------------------

                   BOND                       BOND                       BOND
  ATOM PAIR DIST  ORDER      ATOM PAIR DIST  ORDER      ATOM PAIR DIST  ORDER
    1   2  0.947  0.283        1   3  0.947  0.283        2   3  1.509  0.658

                       TOTAL       BONDED        FREE
      ATOM            VALENCE     VALENCE     VALENCE
    1 O                 1.586       0.565       1.021
    2 H                 1.267       0.940       0.327
    3 H                 1.267       0.940       0.327

          -----------------------------------------
          ATOMIC SPIN DENSITY AT THE NUCLEUS (A.U.)
          -----------------------------------------
                            SPIN DENS    ALPHA DENS     BETA DENS
    1  O            8.0     1.2532162     146.47238     145.21916
    2  H            1.0     0.0204015       0.18847       0.16806
    3  H            1.0     0.0204015       0.18847       0.16806

    **** A SOLVENT MODEL IS IN USE IN THIS RUN ****
 ELECTRICAL PROPERTIES (MOMENTS, DENSITY, FIELD/GRADIENT, AND/OR POTENTIAL)
 ARE COMPUTED USING THE SOLVATED SYSTEM'S DENSITY MATRIX, BUT
 ONLY WITH AO INTEGRAL CONTRIBUTIONS FROM THE QUANTUM SOLUTE.
 THE ONE EXCEPTION IS THE DIPOLE, WHICH IS ALSO PRINTED FOR THE TOTAL SYSTEM.

          ---------------------
          ELECTROSTATIC MOMENTS
          ---------------------

 POINT   1           X           Y           Z (BOHR)    CHARGE
                 0.000000    0.000000    0.029318       -0.00 (A.U.)
         DX          DY          DZ         /D/  (DEBYE)
     0.000000   -0.000000   -0.525951    0.525951
 ...... END OF PROPERTY EVALUATION ......
 STEP CPU TIME =     0.00 TOTAL CPU TIME =        0.3 (    0.0 MIN)
 TOTAL WALL CLOCK TIME=        0.4 SECONDS, CPU UTILIZATION IS  78.38%
               580000  WORDS OF DYNAMIC MEMORY USED
 EXECUTION OF GAMESS TERMINATED NORMALLY Tue Nov 29 00:29:12 2016
 DDI: 263640 bytes (0.3 MB / 0 MWords) used by master data server.

 ----------------------------------------
 CPU timing information for all processes
 ========================================
 0: 0.274 + 0.29 = 0.304
 ----------------------------------------
 ddikick.x: exited gracefully.
unset echo
----- accounting info -----
Files used on the master node compute-3-0 were:
-rw-rw-r-- 1 sarom sarom    6735 Nov 29  2016 .//svp-rohf.dat
-rw-rw-r-- 1 sarom sarom   12507 Nov 29  2016 .//svp-rohf.F05
-rw-rw-r-- 1 sarom sarom  180016 Nov 29  2016 .//svp-rohf.F08
-rw-rw-r-- 1 sarom sarom 1865040 Nov 29  2016 .//svp-rohf.F10
-rw-rw-r-- 1 sarom sarom       0 Nov 29  2016 .//svp-rohf.F26
-rw-rw-r-- 1 sarom sarom       0 Nov 29  2016 .//svp-rohf.F27
-rw-rw-r-- 1 sarom sarom   12507 Nov 27 05:47 .//svp-rohf.inp
-rw-rw-r-- 1 sarom sarom   34712 Nov 29  2016 .//svp-rohf.log
Tue Nov 29 00:29:16 CST 2016
0.198u 0.296s 0:03.95 12.1%	0+0k 0+160io 0pf+0w
