-catch_rsh /opt/gridengine/default/spool/compute-0-7/active_jobs/36137.1/pe_hostfile
compute-0-7
The primary node assigned by SGE to this run is compute-0-7
Warning: no access to tty (Bad file descriptor).
Thus no job control in this shell.
source /home/sarom/dir.git.branch.saromleang-travis-ci/install.info
setenv GMS_PATH /home/sarom/dir.git.branch.saromleang-travis-ci
setenv GMS_BUILD_DIR /home/sarom/dir.git.branch.saromleang-travis-ci
setenv GMS_TARGET linux64
setenv GMS_FORTRAN gfortran
setenv GMS_GFORTRAN_VERNO 4.4
setenv GMS_MATHLIB mkl-so
setenv GMS_MATHLIB none
setenv GMS_MATHLIB_PATH /share/apps/intel/compilers_and_libraries_2017.1.132/linux/mkl/lib/intel64
setenv GMS_MKL_VERNO 12
setenv GMS_DDI_COMM sockets
setenv GMS_LIBCCHEM false
setenv GMS_EIGEN_PATH
setenv GMS_PHI false
setenv GMS_SHMTYPE sysv
setenv GMS_OPENMP false
unset echo
ddi-rhf-mp2-n2
/home/sarom/dir.git.branch.saromleang-travis-ci/tests/mp2/parallel
----- GAMESS execution script 'rungms' -----
This job is running on host compute-0-7.local
under operating system Linux at Wed Aug 9 21:56:56 CDT 2017
Available scratch disk space (Kbyte units) at beginning of the job is
Filesystem           1K-blocks      Used Available Use% Mounted on
/dev/sda1             16126920   3962060  11345660  26% /
GAMESS temporary binary files will be written to /scratch
GAMESS supplementary output files will be written to /home/sarom/restart
Copying input file ddi-rhf-mp2-n2.inp to your run's scratch directory...
cp /home/sarom/dir.git.branch.saromleang-travis-ci/tests/mp2/parallel/ddi-rhf-mp2-n2.inp /scratch/ddi-rhf-mp2-n2.F05
unset echo
The generated host list is
compute-0-7.local
/home/sarom/dir.git.branch.saromleang-travis-ci/ddikick.x /home/sarom/dir.git.branch.saromleang-travis-ci/gamess.00.x ddi-rhf-mp2-n2 -ddi 1 1 compute-0-7.local -scr /scratch

 Distributed Data Interface kickoff program.
 Initiating 1 compute processes on 1 nodes to run the following command:
 /home/sarom/dir.git.branch.saromleang-travis-ci/gamess.00.x ddi-rhf-mp2-n2 

          ******************************************************
          *         GAMESS VERSION = 20 APR 2017 (R1)          *
          *             FROM IOWA STATE UNIVERSITY             *
          * M.W.SCHMIDT, K.K.BALDRIDGE, J.A.BOATZ, S.T.ELBERT, *
          *   M.S.GORDON, J.H.JENSEN, S.KOSEKI, N.MATSUNAGA,   *
          *          K.A.NGUYEN, S.J.SU, T.L.WINDUS,           *
          *       TOGETHER WITH M.DUPUIS, J.A.MONTGOMERY       *
          *         J.COMPUT.CHEM.  14, 1347-1363(1993)        *
          **************** 64 BIT LINUX VERSION ****************

  SINCE 1993, STUDENTS AND POSTDOCS WORKING AT IOWA STATE UNIVERSITY
  AND ALSO IN THEIR VARIOUS JOBS AFTER LEAVING ISU HAVE MADE IMPORTANT
  CONTRIBUTIONS TO THE CODE:
     IVANA ADAMOVIC, CHRISTINE AIKENS, YURI ALEXEEV, POOJA ARORA,
     ANDREY ASADCHEV, ROB BELL, PRADIPTA BANDYOPADHYAY, JONATHAN BENTZ,
     BRETT BODE, KURT BRORSEN, CALEB CARLIN, GALINA CHABAN, WEI CHEN,
     CHEOL HO CHOI, PAUL DAY, ALBERT DEFUSCO, NUWAN DESILVA, TIM DUDLEY,
     DMITRI FEDOROV, GRAHAM FLETCHER, MARK FREITAG, KURT GLAESEMANN,
     DAN KEMP, GRANT MERRILL, NORIYUKI MINEZAWA, JONATHAN MULLIN,
     TAKESHI NAGATA, SEAN NEDD, HEATHER NETZLOFF, BOSILJKA NJEGIC, RYAN OLSON,
     MIKE PAK, SPENCER PRUITT, LUKE ROSKOP, JIM SHOEMAKER, LYUDMILA SLIPCHENKO,
     TONY SMITH, SAROM SOK LEANG, JIE SONG, TETSUYA TAKETSUGU, SIMON WEBB,
     PENG XU, SOOHAENG YOO, FEDERICO ZAHARIEV

  ADDITIONAL CODE HAS BEEN PROVIDED BY COLLABORATORS IN OTHER GROUPS:
     IOWA STATE UNIVERSITY:
          JOE IVANIC, AARON WEST, LAIMUTIS BYTAUTAS, KLAUS RUEDENBERG
     UNIVERSITY OF TOKYO: KIMIHIKO HIRAO, TAKAHITO NAKAJIMA,
          TAKAO TSUNEDA, MUNEAKI KAMIYA, SUSUMU YANAGISAWA,
          KIYOSHI YAGI, MAHITO CHIBA, SEIKEN TOKURA, NAOAKI KAWAKAMI
     UNIVERSITY OF AARHUS: FRANK JENSEN
     UNIVERSITY OF IOWA: VISVALDAS KAIRYS, HUI LI
     NATIONAL INST. OF STANDARDS AND TECHNOLOGY: WALT STEVENS, DAVID GARMER
     UNIVERSITY OF PISA: BENEDETTA MENNUCCI, JACOPO TOMASI
     UNIVERSITY OF MEMPHIS: HENRY KURTZ, PRAKASHAN KORAMBATH
     UNIVERSITY OF ALBERTA: TOBY ZENG, MARIUSZ KLOBUKOWSKI
     UNIVERSITY OF NEW ENGLAND: MARK SPACKMAN
     MIE UNIVERSITY: HIROAKI UMEDA
     NAT. INST. OF ADVANCED INDUSTRIAL SCIENCE AND TECHNOLOGY: KAZUO KITAURA
     MICHIGAN STATE UNIVERSITY:
          KAROL KOWALSKI, MARTA WLOCH, JEFFREY GOUR, JESSE LUTZ,
          WEI LI, PIOTR PIECUCH
     UNIVERSITY OF SILESIA: MONIKA MUSIAL, STANISLAW KUCHARSKI
     FACULTES UNIVERSITAIRES NOTRE-DAME DE LA PAIX:
          OLIVIER QUINET, BENOIT CHAMPAGNE
     UNIVERSITY OF CALIFORNIA - SANTA BARBARA: BERNARD KIRTMAN
     INSTITUTE FOR MOLECULAR SCIENCE:
          KAZUYA ISHIMURA, MICHIO KATOUDA, AND SHIGERU NAGASE
     UNIVERSITY OF NOTRE DAME: ANNA POMOGAEVA, DAN CHIPMAN
     KYUSHU UNIVERSITY:
          HARUYUKI NAKANO,
          FENG LONG GU, JACEK KORCHOWIEC, MARCIN MAKOWSKI, AND YURIKO AOKI,
          HIROTOSHI MORI AND EISAKU MIYOSHI
     PENNSYLVANIA STATE UNIVERSITY:
          TZVETELIN IORDANOV, CHET SWALINA, JONATHAN SKONE,
          SHARON HAMMES-SCHIFFER
     WASEDA UNIVERSITY:
          MASATO KOBAYASHI, TOMOKO AKAMA, TSUGUKI TOUMA,
          TAKESHI YOSHIKAWA, YASUHIRO IKABATA, JUNJI SEINO,
          YUYA NAKAJIMA, HIROMI NAKAI
     NANJING UNIVERSITY: SHUHUA LI
     UNIVERSITY OF NEBRASKA:
          PEIFENG SU, DEJUN SI, NANDUN THELLAMUREGE, YALI WANG, HUI LI
     UNIVERSITY OF ZURICH: ROBERTO PEVERATI, KIM BALDRIDGE
     N. COPERNICUS UNIVERSITY AND JACKSON STATE UNIVERSITY:
          MARIA BARYSZ
     UNIVERSITY OF COPENHAGEN: Jimmy Kromann, CASPER STEINMANN
     TOKYO INSTITUTE OF TECHNOLOGY: HIROYA NAKATA
     NAGOYA UNIVERSITY: YOSHIO NISHIMOTO, STEPHAN IRLE
     MOSCOW STATE UNIVERSITY: VLADIMIR MIRONOV

 EXECUTION OF GAMESS BEGUN Wed Aug  9 21:56:56 2017

            ECHO OF THE FIRST FEW INPUT CARDS -
 INPUT CARD>!   This run demonstrates breakdown of MP2 at large N2 distance.                
 INPUT CARD>!   This is Kurt Glaeseman's example from the MP2 NOON paper,                   
 INPUT CARD>!   M.S.Gordon, M.W.Schmidt, G.M.Chaban, K.R.Glaesemann, W.J.Stevens,           
 INPUT CARD>!   C.Gonzalez     J.Chem.Phys.  110, 4199-4207(1999)                           
 INPUT CARD>!                                                                               
 INPUT CARD>!   FINAL E=-107.9489583821, 9 iters, E(MP2)= -110.1132514703                   
 INPUT CARD>!   property evaluation shows a negative density between the atoms:             
 INPUT CARD>!      POINT      X         Y         Z             DENSITY                     
 INPUT CARD>!        1      .00000    .00000    .00000         -.011465                     
 INPUT CARD>!        2      .00000    .00000    .09449         -.011378                     
 INPUT CARD>!        3      .00000    .00000    .18897         -.011110                     
 INPUT CARD>!   which is a fun way to make people think.                                    
 INPUT CARD>!                                                                               
 INPUT CARD>!   This run takes 0 seconds on a 2.66 GHz Cloverton MHz ( 1 Apr 2015)          
 INPUT CARD>!   results of this run don't ever vary much.                                   
 INPUT CARD>!                                                                               
 INPUT CARD> $CONTRL SCFTYP=RHF mplevl=2 RUNTYP=energy $END                                 
 INPUT CARD> $SYSTEM mwords=3 memddi=5 $END                                                 
 INPUT CARD> $BASIS  GBASIS=N31 NGAUSS=6 ndfunc=1 $END                                      
 INPUT CARD> $GUESS  GUESS=HUCKEL $END                                                      
 INPUT CARD> $mp2    code=ddi mp2prp=.t. $end                                               
 INPUT CARD> $eldens ieden=1 morb=0 where=points output=paper $end                          
 INPUT CARD> $points                                                                        
 INPUT CARD>angs 3                                                                          
 INPUT CARD>0.0 0.0 0.0                                                                     
 INPUT CARD>0.0 0.0 0.05                                                                    
 INPUT CARD>0.0 0.0 0.1                                                                     
 INPUT CARD> $end                                                                           
 INPUT CARD> $DATA                                                                          
 INPUT CARD>N2 molecule                                                                     
 INPUT CARD>Dnh 4                                                                           
 INPUT CARD>                                                                                
 INPUT CARD>N   7.0  0.0000  0.0000  1.6                                                    
 INPUT CARD> $END                                                                           
    3000000 WORDS OF MEMORY AVAILABLE

     BASIS OPTIONS
     -------------
     GBASIS=N31          IGAUSS=       6      POLAR=POPN31  
     NDFUNC=       1     NFFUNC=       0     DIFFSP=       F
     NPFUNC=       0      DIFFS=       F     BASNAM=        


     RUN TITLE
     ---------
 N2 molecule                                                                     

 THE POINT GROUP OF THE MOLECULE IS DNH     
 THE ORDER OF THE PRINCIPAL AXIS IS     4

 ATOM      ATOMIC                      COORDINATES (BOHR)
           CHARGE         X                   Y                   Z
 N           7.0     0.0000000000        0.0000000000       -3.0235615804
 N           7.0     0.0000000000        0.0000000000        3.0235615804

          INTERNUCLEAR DISTANCES (ANGS.)
          ------------------------------

                1 N          2 N     

   1 N       0.0000000    3.2000000  
   2 N       3.2000000    0.0000000  

  * ... LESS THAN  3.000


     ATOMIC BASIS SET
     ----------------
 THE CONTRACTED PRIMITIVE FUNCTIONS HAVE BEEN UNNORMALIZED
 THE CONTRACTED BASIS FUNCTIONS ARE NOW NORMALIZED TO UNITY

  SHELL TYPE  PRIMITIVE        EXPONENT          CONTRACTION COEFFICIENT(S)

 N         

      5   S       1          4173.5114600    0.001834772160
      5   S       2           627.4579110    0.013994627002
      5   S       3           142.9020930    0.068586551812
      5   S       4            40.2343293    0.232240873040
      5   S       5            12.8202129    0.469069948082
      5   S       6             4.3904370    0.360455199063

      6   L       7            11.6263619   -0.114961181702    0.067579743878
      6   L       8             2.7162798   -0.169117478561    0.323907295893
      6   L       9             0.7722184    1.145851947027    0.740895139755

      7   L      10             0.2120315    1.000000000000    1.000000000000

      8   D      11             0.8000000    1.000000000000

 TOTAL NUMBER OF BASIS SET SHELLS             =    8
 NUMBER OF CARTESIAN GAUSSIAN BASIS FUNCTIONS =   30
 NUMBER OF ELECTRONS                          =   14
 CHARGE OF MOLECULE                           =    0
 SPIN MULTIPLICITY                            =    1
 NUMBER OF OCCUPIED ORBITALS (ALPHA)          =    7
 NUMBER OF OCCUPIED ORBITALS (BETA )          =    7
 TOTAL NUMBER OF ATOMS                        =    2
 THE NUCLEAR REPULSION ENERGY IS        8.1030266290

 THIS MOLECULE IS RECOGNIZED AS BEING LINEAR,
 ORBITAL LZ DEGENERACY TOLERANCE ETOLLZ= 1.00E-06

     $CONTRL OPTIONS
     ---------------
 SCFTYP=RHF          RUNTYP=ENERGY       EXETYP=RUN     
 MPLEVL=       2     CITYP =NONE         CCTYP =NONE         VBTYP =NONE    
 DFTTYP=NONE         TDDFT =NONE    
 MULT  =       1     ICHARG=       0     NZVAR =       0     COORD =UNIQUE  
 PP    =NONE         RELWFN=NONE         LOCAL =NONE         NUMGRD=       F
 ISPHER=      -1     NOSYM =       0     MAXIT =      30     UNITS =ANGS    
 PLTORB=       F     MOLPLT=       F     AIMPAC=       F     FRIEND=        
 NPRINT=       7     IREST =       0     GEOM  =INPUT   
 NORMF =       0     NORMP =       0     ITOL  =      20     ICUT  =       9
 INTTYP=BEST         GRDTYP=BEST         QMTTOL= 1.0E-06

     $SYSTEM OPTIONS
     ---------------
  REPLICATED MEMORY=     3000000 WORDS (ON EVERY NODE).
 DISTRIBUTED MEMDDI=           5 MILLION WORDS IN AGGREGATE,
 MEMDDI DISTRIBUTED OVER   1 PROCESSORS IS     5000000 WORDS/PROCESSOR.
 TOTAL MEMORY REQUESTED ON EACH PROCESSOR=     8000000 WORDS.
 TIMLIM=      525600.00 MINUTES, OR     365.0 DAYS.
 PARALL= F  BALTYP=  DLB     KDIAG=    0  COREFL= F
 MXSEQ2=     300 MXSEQ3=     150  mem10=         0

          ----------------
          PROPERTIES INPUT
          ----------------

     MOMENTS            FIELD           POTENTIAL          DENSITY
 IEMOM =       1   IEFLD =       0   IEPOT =       0   IEDEN =       1
 WHERE =COMASS     WHERE =NUCLEI     WHERE =NUCLEI     WHERE =POINTS  
 OUTPUT=BOTH       OUTPUT=BOTH       OUTPUT=BOTH       OUTPUT=PAPER   
 IEMINT=       0   IEFINT=       0                     IEDINT=       0
                                                       MORB  =       0
          EXTRAPOLATION IN EFFECT
          DIIS IN EFFECT
 ORBITAL PRINTING OPTION: NPREO=     1    30     2     1

     -------------------------------
     INTEGRAL TRANSFORMATION OPTIONS
     -------------------------------
     NWORD  =            0
     CUTOFF = 1.0E-09     MPTRAN =       0
     DIRTRF =       F     AOINTS =DUP     

          ----------------------
          INTEGRAL INPUT OPTIONS
          ----------------------
 NOPK  =       1 NORDER=       0 SCHWRZ=       F

          -----------------------
          MP2 CONTROL INFORMATION
          -----------------------
          NACORE =        2  NBCORE =        2
          LMOMP2 =        F  AOINTS = DUP     
          METHOD =        2  NWORD  =               0
          MP2PRP =        T  OSPT   = NONE    
          CUTOFF = 1.00E-09  CPHFBS = BASISAO 
          CODE   = DDI     

          NUMBER OF CORE -A-  ORBITALS =     2
          NUMBER OF CORE -B-  ORBITALS =     2
          NUMBER OF OCC. -A-  ORBITALS =     7
          NUMBER OF OCC. -B-  ORBITALS =     7
          NUMBER OF MOLECULAR ORBITALS =    30
          NUMBER OF   BASIS  FUNCTIONS =    30


 **** EFFICIENCY NOTE ****
 THE MP2 TRANSFORMATION CANNOT USE SYMMETRY WHEN THE GROUP IS NON-ABELIAN.
 YOU MAY BE ABLE TO SPEED UP THIS RUN BY USING AN ABELIAN SUBGROUP IN $DATA.


     ------------------------------------------
     THE POINT GROUP IS DNH, NAXIS= 4, ORDER=16
     ------------------------------------------

     DIMENSIONS OF THE SYMMETRY SUBSPACES ARE
 A1G =    7     A1U =    0     B1G =    1     B1U =    1     A2G =    0
 A2U =    7     B2G =    1     B2U =    1     EG  =    3     EU  =    3

 ..... DONE SETTING UP THE RUN .....
 CPU     0: STEP CPU TIME=     0.01 TOTAL CPU TIME=        0.0 (    0.0 MIN)
 TOTAL WALL CLOCK TIME=        0.0 SECONDS, CPU UTILIZATION IS  33.33%

          ********************
          1 ELECTRON INTEGRALS
          ********************
 ...... END OF ONE-ELECTRON INTEGRALS ......
 CPU     0: STEP CPU TIME=     0.01 TOTAL CPU TIME=        0.0 (    0.0 MIN)
 TOTAL WALL CLOCK TIME=        0.0 SECONDS, CPU UTILIZATION IS  66.67%

          -------------
          GUESS OPTIONS
          -------------
          GUESS =HUCKEL            NORB  =       0          NORDER=       0
          MIX   =       F          PRTMO =       F          PUNMO =       F
          TOLZ  = 1.0E-08          TOLE  = 1.0E-05
          SYMDEN=       F          PURIFY=       F

 INITIAL GUESS ORBITALS GENERATED BY HUCKEL   ROUTINE.
 HUCKEL GUESS REQUIRES      8706 WORDS.

 SYMMETRIES FOR INITIAL GUESS ORBITALS FOLLOW.   BOTH SET(S).
     7 ORBITALS ARE OCCUPIED (    2 CORE ORBITALS).
     3=A1G      4=A2U      5=A1G      6=EU       7=EU       8=EG       9=EG  
    10=A2U     11=A1G     12=A1G     13=A1G     14=A1G     15=B1G     16=B1U 
    17=A2U 
 ...... END OF INITIAL ORBITAL SELECTION ......
 CPU     0: STEP CPU TIME=     0.00 TOTAL CPU TIME=        0.0 (    0.0 MIN)
 TOTAL WALL CLOCK TIME=        0.0 SECONDS, CPU UTILIZATION IS  66.67%

                    ----------------------
                    AO INTEGRAL TECHNOLOGY
                    ----------------------
     S,P,L SHELL ROTATED AXIS INTEGRALS, REPROGRAMMED BY
        KAZUYA ISHIMURA (IMS) AND JOSE SIERRA (SYNSTAR).
     S,P,D,L SHELL ROTATED AXIS INTEGRALS PROGRAMMED BY
        KAZUYA ISHIMURA (INSTITUTE FOR MOLECULAR SCIENCE).
     S,P,D,F,G SHELL TO TOTAL QUARTET ANGULAR MOMENTUM SUM 5,
        ERIC PROGRAM BY GRAHAM FLETCHER (ELORET AND NASA ADVANCED
        SUPERCOMPUTING DIVISION, AMES RESEARCH CENTER).
     S,P,D,F,G,L SHELL GENERAL RYS QUADRATURE PROGRAMMED BY
        MICHEL DUPUIS (PACIFIC NORTHWEST NATIONAL LABORATORY).

          --------------------
          2 ELECTRON INTEGRALS
          --------------------

 THE -PK- OPTION IS OFF, THE INTEGRALS ARE NOT IN SUPERMATRIX FORM.
 STORING   15000 INTEGRALS/RECORD ON DISK, USING 12 BYTES/INTEGRAL.
 TWO ELECTRON INTEGRAL EVALUATION REQUIRES   90432 WORDS OF MEMORY.
 II,JST,KST,LST =  1  1  1  1 NREC =         1 INTLOC =    1
 II,JST,KST,LST =  2  1  1  1 NREC =         1 INTLOC =    1
 II,JST,KST,LST =  3  1  1  1 NREC =         1 INTLOC =    1
 II,JST,KST,LST =  4  1  1  1 NREC =         1 INTLOC =    1
 II,JST,KST,LST =  5  1  1  1 NREC =         1 INTLOC =    1
 II,JST,KST,LST =  6  1  1  1 NREC =         1 INTLOC =    3
 II,JST,KST,LST =  7  1  1  1 NREC =         1 INTLOC =  168
 II,JST,KST,LST =  8  1  1  1 NREC =         1 INTLOC = 1977
 TOTAL NUMBER OF NONZERO TWO-ELECTRON INTEGRALS =               12045
          1 INTEGRAL RECORDS WERE STORED ON DISK FILE  8.
  ...... END OF TWO-ELECTRON INTEGRALS .....
 CPU     0: STEP CPU TIME=     0.01 TOTAL CPU TIME=        0.0 (    0.0 MIN)
 TOTAL WALL CLOCK TIME=        0.0 SECONDS, CPU UTILIZATION IS  75.00%

          --------------------------
                 RHF SCF CALCULATION
          --------------------------

     NUCLEAR ENERGY =         8.1030266290
     MAXIT =   30     NPUNCH=    2
     EXTRAP=T  DAMP=F  SHIFT=F  RSTRCT=F  DIIS=T  DEM=F  SOSCF=F
     DENSITY MATRIX CONV=  1.00E-06
     MEMORY REQUIRED FOR RHF ITERS=     37385 WORDS.

 ITER EX DEM     TOTAL ENERGY        E CHANGE  DENSITY CHANGE    DIIS ERROR
   1  0  0     -107.7511588517  -107.7511588517   0.208880680   0.846966211
          * * *   INITIATING DIIS PROCEDURE   * * *
   2  1  0     -107.9347300283    -0.1835711766   0.095389320   0.113257402
   3  2  0     -107.9476321970    -0.0129021687   0.014753352   0.036508852
   4  3  0     -107.9489418574    -0.0013096604   0.003268320   0.003487975
   5  4  0     -107.9489578670    -0.0000160096   0.000382504   0.000397179
   6  5  0     -107.9489583726    -0.0000005056   0.000053522   0.000062911
   7  6  0     -107.9489583820    -0.0000000095   0.000002449   0.000004049
   8  7  0     -107.9489583821    -0.0000000000   0.000000345   0.000000619
   9  8  0     -107.9489583821    -0.0000000000   0.000000086   0.000000109

          -----------------
          DENSITY CONVERGED
          -----------------
     TIME TO FORM FOCK OPERATORS=       0.0 SECONDS (       0.0 SEC/ITER)
     TIME TO SOLVE SCF EQUATIONS=       0.0 SECONDS (       0.0 SEC/ITER)

 FINAL RHF ENERGY IS     -107.9489583821 AFTER   9 ITERATIONS

 LZ VALUE ANALYSIS FOR THE MOS
 ----------------------------------------
 MO     1 (    1) HAS LZ(WEIGHT)= 0.00(100.0%) 
 MO     2 (    2) HAS LZ(WEIGHT)= 0.00(100.0%) 
 MO     3 (    3) HAS LZ(WEIGHT)= 0.00(100.0%) 
 MO     4 (    4) HAS LZ(WEIGHT)= 0.00(100.0%) 
 MO     5 (    5) HAS LZ(WEIGHT)= 0.00(100.0%) 
 MO     6 (    6) HAS LZ(WEIGHT)=-1.00( 50.0%)  1.00( 50.0%) 
 MO     7 (    6) HAS LZ(WEIGHT)=-1.00( 50.0%)  1.00( 50.0%) 
 MO     8 (    7) HAS LZ(WEIGHT)=-1.00( 50.0%)  1.00( 50.0%) 
 MO     9 (    7) HAS LZ(WEIGHT)=-1.00( 50.0%)  1.00( 50.0%) 
 MO    10 (    8) HAS LZ(WEIGHT)= 0.00(100.0%) 
 MO    11 (    9) HAS LZ(WEIGHT)= 0.00(100.0%) 
 MO    12 (   10) HAS LZ(WEIGHT)= 0.00(100.0%) 
 MO    13 (   11) HAS LZ(WEIGHT)= 0.00(100.0%) 
 MO    14 (   12) HAS LZ(WEIGHT)=-1.00( 50.0%)  1.00( 50.0%) 
 MO    15 (   12) HAS LZ(WEIGHT)=-1.00( 50.0%)  1.00( 50.0%) 
 MO    16 (   13) HAS LZ(WEIGHT)=-1.00( 50.0%)  1.00( 50.0%) 
 MO    17 (   13) HAS LZ(WEIGHT)=-1.00( 50.0%)  1.00( 50.0%) 
 MO    18 (   14) HAS LZ(WEIGHT)= 0.00(100.0%) 
 MO    19 (   15) HAS LZ(WEIGHT)=-2.00( 50.0%)  2.00( 50.0%) 
 MO    20 (   15) HAS LZ(WEIGHT)=-2.00( 50.0%)  2.00( 50.0%) 
 MO    21 (   16) HAS LZ(WEIGHT)=-1.00( 50.0%)  1.00( 50.0%) 
 MO    22 (   16) HAS LZ(WEIGHT)=-1.00( 50.0%)  1.00( 50.0%) 
 MO    23 (   17) HAS LZ(WEIGHT)= 0.00(100.0%) 
 MO    24 (   18) HAS LZ(WEIGHT)=-2.00( 50.0%)  2.00( 50.0%) 
 MO    25 (   18) HAS LZ(WEIGHT)=-2.00( 50.0%)  2.00( 50.0%) 
 MO    26 (   19) HAS LZ(WEIGHT)=-1.00( 50.0%)  1.00( 50.0%) 
 MO    27 (   19) HAS LZ(WEIGHT)=-1.00( 50.0%)  1.00( 50.0%) 
 MO    28 (   20) HAS LZ(WEIGHT)= 0.00(100.0%) 
 MO    29 (   21) HAS LZ(WEIGHT)= 0.00(100.0%) 
 MO    30 (   22) HAS LZ(WEIGHT)= 0.00(100.0%) 

          ------------
          EIGENVECTORS
          ------------

                      1          2          3          4          5
                  -15.8239   -15.8238    -1.0282    -1.0105    -0.3496
                     A1G        A2U        A1G        A2U        A1G 
    1  N  1  S    0.704007   0.704027  -0.160764  -0.161779   0.004578
    2  N  1  S    0.015072   0.015090   0.384815   0.392672  -0.032174
    3  N  1  X    0.000000   0.000000  -0.000000   0.000000  -0.000000
    4  N  1  Y    0.000000   0.000000  -0.000000   0.000000  -0.000000
    5  N  1  Z    0.000172   0.000167   0.001820  -0.016524   0.416046
    6  N  1  S   -0.000104  -0.000279   0.385880   0.381230   0.019242
    7  N  1  X    0.000000   0.000000  -0.000000   0.000000  -0.000000
    8  N  1  Y    0.000000   0.000000  -0.000000   0.000000  -0.000000
    9  N  1  Z   -0.000004  -0.000146   0.005850  -0.011998   0.374470
   10  N  1 XX   -0.002081  -0.002031  -0.003117  -0.001527  -0.008067
   11  N  1 YY   -0.002081  -0.002031  -0.003117  -0.001527  -0.008067
   12  N  1 ZZ   -0.002094  -0.002068  -0.002183  -0.003145   0.002277
   13  N  1 XY    0.000000   0.000000  -0.000000   0.000000  -0.000000
   14  N  1 XZ    0.000000   0.000000  -0.000000   0.000000  -0.000000
   15  N  1 YZ    0.000000   0.000000  -0.000000   0.000000  -0.000000
   16  N  2  S    0.704007  -0.704027  -0.160764   0.161779   0.004578
   17  N  2  S    0.015072  -0.015090   0.384815  -0.392672  -0.032174
   18  N  2  X    0.000000   0.000000  -0.000000   0.000000  -0.000000
   19  N  2  Y    0.000000   0.000000  -0.000000   0.000000  -0.000000
   20  N  2  Z   -0.000172   0.000167  -0.001820  -0.016524  -0.416046
   21  N  2  S   -0.000104   0.000279   0.385880  -0.381230   0.019242
   22  N  2  X    0.000000   0.000000  -0.000000   0.000000  -0.000000
   23  N  2  Y    0.000000   0.000000  -0.000000   0.000000  -0.000000
   24  N  2  Z    0.000004  -0.000146  -0.005850  -0.011998  -0.374470
   25  N  2 XX   -0.002081   0.002031  -0.003117   0.001527  -0.008067
   26  N  2 YY   -0.002081   0.002031  -0.003117   0.001527  -0.008067
   27  N  2 ZZ   -0.002094   0.002068  -0.002183   0.003145   0.002277
   28  N  2 XY    0.000000   0.000000  -0.000000   0.000000  -0.000000
   29  N  2 XZ    0.000000   0.000000  -0.000000   0.000000  -0.000000
   30  N  2 YZ    0.000000   0.000000  -0.000000   0.000000  -0.000000

                      6          7          8          9         10
                   -0.3294    -0.3294    -0.1615    -0.1615    -0.1303
                     EU         EU         EG         EG         A2U 
    1  N  1  S   -0.000000  -0.000000  -0.000000   0.000000  -0.008487
    2  N  1  S   -0.000000  -0.000000  -0.000000   0.000000   0.032920
    3  N  1  X    0.435996  -0.000000  -0.000000   0.442261   0.000000
    4  N  1  Y   -0.000000   0.435996   0.442261   0.000000   0.000000
    5  N  1  Z   -0.000000  -0.000000  -0.000000   0.000000   0.453083
    6  N  1  S   -0.000000  -0.000000  -0.000000   0.000000   0.001685
    7  N  1  X    0.371863  -0.000000  -0.000000   0.370618   0.000000
    8  N  1  Y   -0.000000   0.371863   0.370618   0.000000   0.000000
    9  N  1  Z   -0.000000  -0.000000  -0.000000   0.000000   0.375148
   10  N  1 XX   -0.000000  -0.000000  -0.000000   0.000000   0.005515
   11  N  1 YY   -0.000000  -0.000000  -0.000000   0.000000   0.005515
   12  N  1 ZZ   -0.000000  -0.000000  -0.000000   0.000000  -0.001549
   13  N  1 XY   -0.000000  -0.000000  -0.000000   0.000000   0.000000
   14  N  1 XZ    0.003682  -0.000000  -0.000000  -0.002695   0.000000
   15  N  1 YZ   -0.000000   0.003682  -0.002695   0.000000   0.000000
   16  N  2  S   -0.000000  -0.000000  -0.000000   0.000000   0.008487
   17  N  2  S   -0.000000  -0.000000  -0.000000   0.000000  -0.032920
   18  N  2  X    0.435996  -0.000000  -0.000000  -0.442261   0.000000
   19  N  2  Y   -0.000000   0.435996  -0.442261   0.000000   0.000000
   20  N  2  Z   -0.000000  -0.000000  -0.000000   0.000000   0.453083
   21  N  2  S   -0.000000  -0.000000  -0.000000   0.000000  -0.001685
   22  N  2  X    0.371863  -0.000000  -0.000000  -0.370618   0.000000
   23  N  2  Y   -0.000000   0.371863  -0.370618   0.000000   0.000000
   24  N  2  Z   -0.000000  -0.000000  -0.000000   0.000000   0.375148
   25  N  2 XX   -0.000000  -0.000000  -0.000000   0.000000  -0.005515
   26  N  2 YY   -0.000000  -0.000000  -0.000000   0.000000  -0.005515
   27  N  2 ZZ   -0.000000  -0.000000  -0.000000   0.000000   0.001549
   28  N  2 XY   -0.000000  -0.000000  -0.000000   0.000000   0.000000
   29  N  2 XZ   -0.003682  -0.000000  -0.000000  -0.002695   0.000000
   30  N  2 YZ   -0.000000  -0.003682  -0.002695   0.000000   0.000000

                     11         12         13         14         15
                    0.7312     0.8331     0.8545     0.8629     0.8629
                     A1G        A2U        A1G        EU         EU  
    1  N  1  S    0.005472   0.002646  -0.000527  -0.000000  -0.000000
    2  N  1  S   -0.677392  -0.753587  -0.493917  -0.000000  -0.000000
    3  N  1  X   -0.000000   0.000000   0.000000  -0.700322  -0.000000
    4  N  1  Y   -0.000000   0.000000   0.000000  -0.000000  -0.700322
    5  N  1  Z   -0.400553   0.340795   0.576127  -0.000000  -0.000000
    6  N  1  S    1.008787   1.131974   0.757687  -0.000000  -0.000000
    7  N  1  X   -0.000000   0.000000   0.000000   0.726904  -0.000000
    8  N  1  Y   -0.000000   0.000000   0.000000  -0.000000   0.726904
    9  N  1  Z    0.334834  -0.346951  -0.578677  -0.000000  -0.000000
   10  N  1 XX   -0.169452  -0.168864  -0.108972  -0.000000  -0.000000
   11  N  1 YY   -0.169452  -0.168864  -0.108972  -0.000000  -0.000000
   12  N  1 ZZ   -0.145664  -0.169834  -0.120807  -0.000000  -0.000000
   13  N  1 XY   -0.000000   0.000000   0.000000  -0.000000  -0.000000
   14  N  1 XZ   -0.000000   0.000000   0.000000   0.003612  -0.000000
   15  N  1 YZ   -0.000000   0.000000   0.000000  -0.000000   0.003612
   16  N  2  S    0.005472  -0.002646  -0.000527  -0.000000  -0.000000
   17  N  2  S   -0.677392   0.753587  -0.493917  -0.000000  -0.000000
   18  N  2  X   -0.000000   0.000000   0.000000  -0.700322  -0.000000
   19  N  2  Y   -0.000000   0.000000   0.000000  -0.000000  -0.700322
   20  N  2  Z    0.400553   0.340795  -0.576127  -0.000000  -0.000000
   21  N  2  S    1.008787  -1.131974   0.757687  -0.000000  -0.000000
   22  N  2  X   -0.000000   0.000000   0.000000   0.726904  -0.000000
   23  N  2  Y   -0.000000   0.000000   0.000000  -0.000000   0.726904
   24  N  2  Z   -0.334834  -0.346951   0.578677  -0.000000  -0.000000
   25  N  2 XX   -0.169452   0.168864  -0.108972  -0.000000  -0.000000
   26  N  2 YY   -0.169452   0.168864  -0.108972  -0.000000  -0.000000
   27  N  2 ZZ   -0.145664   0.169834  -0.120807  -0.000000  -0.000000
   28  N  2 XY   -0.000000   0.000000   0.000000  -0.000000  -0.000000
   29  N  2 XZ   -0.000000   0.000000   0.000000  -0.003612  -0.000000
   30  N  2 YZ   -0.000000   0.000000   0.000000  -0.000000  -0.003612

                     16         17         18         19         20
                    0.9074     0.9074     1.0737     1.9500     1.9500
                     EG         EG         A2U        B1G        B2G 
    1  N  1  S   -0.000000   0.000000   0.000856   0.000000   0.000000
    2  N  1  S   -0.000000   0.000000  -0.469563   0.000000   0.000000
    3  N  1  X   -0.000000  -0.702351  -0.000000   0.000000   0.000000
    4  N  1  Y   -0.702351   0.000000  -0.000000   0.000000   0.000000
    5  N  1  Z   -0.000000   0.000000  -0.625810   0.000000   0.000000
    6  N  1  S   -0.000000   0.000000   0.693967   0.000000   0.000000
    7  N  1  X   -0.000000   0.752356  -0.000000   0.000000   0.000000
    8  N  1  Y    0.752356   0.000000  -0.000000   0.000000   0.000000
    9  N  1  Z   -0.000000   0.000000   0.757530   0.000000   0.000000
   10  N  1 XX   -0.000000   0.000000  -0.065572   0.612372   0.000000
   11  N  1 YY   -0.000000   0.000000  -0.065572  -0.612372   0.000000
   12  N  1 ZZ   -0.000000   0.000000  -0.124407   0.000000   0.000000
   13  N  1 XY   -0.000000   0.000000  -0.000000   0.000000   0.707107
   14  N  1 XZ   -0.000000  -0.005541  -0.000000   0.000000   0.000000
   15  N  1 YZ   -0.005541   0.000000  -0.000000   0.000000   0.000000
   16  N  2  S   -0.000000   0.000000  -0.000856   0.000000   0.000000
   17  N  2  S   -0.000000   0.000000   0.469563   0.000000   0.000000
   18  N  2  X   -0.000000   0.702351  -0.000000   0.000000   0.000000
   19  N  2  Y    0.702351   0.000000  -0.000000   0.000000   0.000000
   20  N  2  Z   -0.000000   0.000000  -0.625810   0.000000   0.000000
   21  N  2  S   -0.000000   0.000000  -0.693967   0.000000   0.000000
   22  N  2  X   -0.000000  -0.752356  -0.000000   0.000000   0.000000
   23  N  2  Y   -0.752356   0.000000  -0.000000   0.000000   0.000000
   24  N  2  Z   -0.000000   0.000000   0.757530   0.000000   0.000000
   25  N  2 XX   -0.000000   0.000000   0.065572   0.612372   0.000000
   26  N  2 YY   -0.000000   0.000000   0.065572  -0.612372   0.000000
   27  N  2 ZZ   -0.000000   0.000000   0.124407   0.000000   0.000000
   28  N  2 XY   -0.000000   0.000000  -0.000000   0.000000   0.707107
   29  N  2 XZ   -0.000000  -0.005541  -0.000000   0.000000   0.000000
   30  N  2 YZ   -0.005541   0.000000  -0.000000   0.000000   0.000000

                     21         22         23         24         25
                    1.9500     1.9500     1.9510     1.9528     1.9528
                     EU         EU         A1G        B2U        B1U 
    1  N  1  S   -0.000000  -0.000000  -0.002707  -0.000000  -0.000000
    2  N  1  S   -0.000000  -0.000000   0.026573  -0.000000  -0.000000
    3  N  1  X    0.002753  -0.000000   0.000000  -0.000000  -0.000000
    4  N  1  Y   -0.000000   0.002753   0.000000  -0.000000  -0.000000
    5  N  1  Z   -0.000000  -0.000000   0.018982  -0.000000  -0.000000
    6  N  1  S   -0.000000  -0.000000  -0.013690  -0.000000  -0.000000
    7  N  1  X   -0.008431  -0.000000   0.000000  -0.000000  -0.000000
    8  N  1  Y   -0.000000  -0.008431   0.000000  -0.000000  -0.000000
    9  N  1  Z   -0.000000  -0.000000  -0.031959  -0.000000  -0.000000
   10  N  1 XX   -0.000000  -0.000000  -0.359514   0.612373  -0.000000
   11  N  1 YY   -0.000000  -0.000000  -0.359514  -0.612373  -0.000000
   12  N  1 ZZ   -0.000000  -0.000000   0.700793  -0.000000  -0.000000
   13  N  1 XY   -0.000000  -0.000000   0.000000  -0.000000   0.707107
   14  N  1 XZ    0.707088  -0.000000   0.000000  -0.000000  -0.000000
   15  N  1 YZ   -0.000000   0.707088   0.000000  -0.000000  -0.000000
   16  N  2  S   -0.000000  -0.000000  -0.002707  -0.000000  -0.000000
   17  N  2  S   -0.000000  -0.000000   0.026573  -0.000000  -0.000000
   18  N  2  X    0.002753  -0.000000   0.000000  -0.000000  -0.000000
   19  N  2  Y   -0.000000   0.002753   0.000000  -0.000000  -0.000000
   20  N  2  Z   -0.000000  -0.000000  -0.018982  -0.000000  -0.000000
   21  N  2  S   -0.000000  -0.000000  -0.013690  -0.000000  -0.000000
   22  N  2  X   -0.008431  -0.000000   0.000000  -0.000000  -0.000000
   23  N  2  Y   -0.000000  -0.008431   0.000000  -0.000000  -0.000000
   24  N  2  Z   -0.000000  -0.000000   0.031959  -0.000000  -0.000000
   25  N  2 XX   -0.000000  -0.000000  -0.359514  -0.612373  -0.000000
   26  N  2 YY   -0.000000  -0.000000  -0.359514   0.612373  -0.000000
   27  N  2 ZZ   -0.000000  -0.000000   0.700793  -0.000000  -0.000000
   28  N  2 XY   -0.000000  -0.000000   0.000000  -0.000000  -0.707107
   29  N  2 XZ   -0.707088  -0.000000   0.000000  -0.000000  -0.000000
   30  N  2 YZ   -0.000000  -0.707088   0.000000  -0.000000  -0.000000

                     26         27         28         29         30
                    1.9552     1.9552     1.9626     3.4782     3.5865
                     EG         EG         A2U        A1G        A2U 
    1  N  1  S   -0.000000   0.000000   0.003885  -0.271992  -0.280400
    2  N  1  S   -0.000000   0.000000  -0.052058   1.094100   1.049466
    3  N  1  X   -0.000000  -0.005337   0.000000   0.000000   0.000000
    4  N  1  Y   -0.005337   0.000000   0.000000   0.000000   0.000000
    5  N  1  Z   -0.000000   0.000000  -0.041676   0.019167  -0.039225
    6  N  1  S   -0.000000   0.000000   0.038694   0.944624   1.081676
    7  N  1  X   -0.000000   0.010243   0.000000   0.000000   0.000000
    8  N  1  Y    0.010243   0.000000   0.000000   0.000000   0.000000
    9  N  1  Z   -0.000000   0.000000   0.064686  -0.037170   0.074121
   10  N  1 XX   -0.000000   0.000000  -0.344580  -0.895080  -0.941766
   11  N  1 YY   -0.000000   0.000000  -0.344580  -0.895080  -0.941766
   12  N  1 ZZ   -0.000000   0.000000   0.714528  -0.912350  -0.915132
   13  N  1 XY   -0.000000   0.000000   0.000000   0.000000   0.000000
   14  N  1 XZ   -0.000000   0.707089   0.000000   0.000000   0.000000
   15  N  1 YZ    0.707089   0.000000   0.000000   0.000000   0.000000
   16  N  2  S   -0.000000   0.000000  -0.003885  -0.271992   0.280400
   17  N  2  S   -0.000000   0.000000   0.052058   1.094100  -1.049466
   18  N  2  X   -0.000000   0.005337   0.000000   0.000000   0.000000
   19  N  2  Y    0.005337   0.000000   0.000000   0.000000   0.000000
   20  N  2  Z   -0.000000   0.000000  -0.041676  -0.019167  -0.039225
   21  N  2  S   -0.000000   0.000000  -0.038694   0.944624  -1.081676
   22  N  2  X   -0.000000  -0.010243   0.000000   0.000000   0.000000
   23  N  2  Y   -0.010243   0.000000   0.000000   0.000000   0.000000
   24  N  2  Z   -0.000000   0.000000   0.064686   0.037170   0.074121
   25  N  2 XX   -0.000000   0.000000   0.344580  -0.895080   0.941766
   26  N  2 YY   -0.000000   0.000000   0.344580  -0.895080   0.941766
   27  N  2 ZZ   -0.000000   0.000000  -0.714528  -0.912350   0.915132
   28  N  2 XY   -0.000000   0.000000   0.000000   0.000000   0.000000
   29  N  2 XZ   -0.000000   0.707089   0.000000   0.000000   0.000000
   30  N  2 YZ    0.707089   0.000000   0.000000   0.000000   0.000000
 ...... END OF RHF CALCULATION ......
 CPU     0: STEP CPU TIME=     0.01 TOTAL CPU TIME=        0.0 (    0.0 MIN)
 TOTAL WALL CLOCK TIME=        0.1 SECONDS, CPU UTILIZATION IS  80.00%

     ----------------------------------------------------------------
     PROPERTY VALUES FOR THE RHF   SELF-CONSISTENT FIELD WAVEFUNCTION
     ----------------------------------------------------------------

          -----------------
          ENERGY COMPONENTS
          -----------------

         WAVEFUNCTION NORMALIZATION =       1.0000000000

                ONE ELECTRON ENERGY =    -162.7145128309
                TWO ELECTRON ENERGY =      46.6625278199
           NUCLEAR REPULSION ENERGY =       8.1030266290
                                      ------------------
                       TOTAL ENERGY =    -107.9489583821

 ELECTRON-ELECTRON POTENTIAL ENERGY =      46.6625278199
  NUCLEUS-ELECTRON POTENTIAL ENERGY =    -269.8692027118
   NUCLEUS-NUCLEUS POTENTIAL ENERGY =       8.1030266290
                                      ------------------
             TOTAL POTENTIAL ENERGY =    -215.1036482629
               TOTAL KINETIC ENERGY =     107.1546898808
                 VIRIAL RATIO (V/T) =       2.0074123541

  ...... PI ENERGY ANALYSIS ......

 ENERGY ANALYSIS:
            FOCK ENERGY=    -69.3894570839
          BARE H ENERGY=   -162.7145128309
     ELECTRONIC ENERGY =   -116.0519849574
         KINETIC ENERGY=    107.1546898808
          N-N REPULSION=      8.1030266290
           TOTAL ENERGY=   -107.9489583284
        SIGMA PART(1+2)=   -103.9077231422
               (K,V1,2)=    100.6682716866   -240.4117090009     35.8357141722
           PI PART(1+2)=    -12.1442618152
               (K,V1,2)=      6.4864181943    -29.4574937108     10.8268137013
  SIGMA SKELETON, ERROR=    -95.8046965132      0.0000000000
             MIXED PART= 0.00000E+00 0.00000E+00 0.00000E+00 0.00000E+00
 ...... END OF PI ENERGY ANALYSIS ......

          ---------------------------------------
          MULLIKEN AND LOWDIN POPULATION ANALYSES
          ---------------------------------------

     ATOMIC MULLIKEN POPULATION IN EACH MOLECULAR ORBITAL

                      1          2          3          4          5

                  2.000000   2.000000   2.000000   2.000000   2.000000

    1             1.000000   1.000000   1.000000   1.000000   1.000000
    2             1.000000   1.000000   1.000000   1.000000   1.000000

                      6          7

                  2.000000   2.000000

    1             1.000000   1.000000
    2             1.000000   1.000000

               ----- POPULATIONS IN EACH AO -----
                             MULLIKEN      LOWDIN
              1  N  1  S      1.99705     1.98374
              2  N  1  S      1.01572     0.70572
              3  N  1  X      0.54892     0.54051
              4  N  1  Y      0.54892     0.54051
              5  N  1  Z      0.51266     0.50186
              6  N  1  S      1.00215     0.65891
              7  N  1  X      0.45104     0.45945
              8  N  1  Y      0.45104     0.45945
              9  N  1  Z      0.48735     0.49915
             10  N  1 XX     -0.00467     0.21714
             11  N  1 YY     -0.00467     0.21714
             12  N  1 ZZ     -0.00559     0.21634
             13  N  1 XY      0.00000     0.00000
             14  N  1 XZ      0.00004     0.00003
             15  N  1 YZ      0.00004     0.00003
             16  N  2  S      1.99705     1.98374
             17  N  2  S      1.01572     0.70572
             18  N  2  X      0.54892     0.54051
             19  N  2  Y      0.54892     0.54051
             20  N  2  Z      0.51266     0.50186
             21  N  2  S      1.00215     0.65891
             22  N  2  X      0.45104     0.45945
             23  N  2  Y      0.45104     0.45945
             24  N  2  Z      0.48735     0.49915
             25  N  2 XX     -0.00467     0.21714
             26  N  2 YY     -0.00467     0.21714
             27  N  2 ZZ     -0.00559     0.21634
             28  N  2 XY      0.00000     0.00000
             29  N  2 XZ      0.00004     0.00003
             30  N  2 YZ      0.00004     0.00003

          ----- MULLIKEN ATOMIC OVERLAP POPULATIONS -----
          (OFF-DIAGONAL ELEMENTS NEED TO BE MULTIPLIED BY 2)

             1           2

    1    6.9369626
    2    0.0630374   6.9369626

          TOTAL MULLIKEN AND LOWDIN ATOMIC POPULATIONS
       ATOM         MULL.POP.    CHARGE          LOW.POP.     CHARGE
    1 N             7.000000    0.000000         7.000000   -0.000000
    2 N             7.000000    0.000000         7.000000    0.000000

          -------------------------------
          BOND ORDER AND VALENCE ANALYSIS     BOND ORDER THRESHOLD=0.050
          -------------------------------

                   BOND                       BOND                       BOND
  ATOM PAIR DIST  ORDER      ATOM PAIR DIST  ORDER      ATOM PAIR DIST  ORDER
    1   2  3.200  3.000

                       TOTAL       BONDED        FREE
      ATOM            VALENCE     VALENCE     VALENCE
    1 N                 3.000       3.000       0.000
    2 N                 3.000       3.000       0.000

          ---------------------
          ELECTROSTATIC MOMENTS
          ---------------------

 POINT   1           X           Y           Z (BOHR)    CHARGE
                 0.000000    0.000000    0.000000       -0.00 (A.U.)
         DX          DY          DZ         /D/  (DEBYE)
     0.000000    0.000000    0.000000    0.000000

          ----------------
          ELECTRON DENSITY
          ----------------
  POINT      X         Y         Z             DENSITY
                     (BOHR)                    (A.U.)
     1     0.00000   0.00000   0.00000         0.011097
     2     0.00000   0.00000   0.09449         0.011201
     3     0.00000   0.00000   0.18897         0.011517
 ...... END OF PROPERTY EVALUATION ......
 CPU     0: STEP CPU TIME=     0.00 TOTAL CPU TIME=        0.0 (    0.0 MIN)
 TOTAL WALL CLOCK TIME=        0.1 SECONDS, CPU UTILIZATION IS  80.00%



 -----------------------------     ------------------------------
 DISTRIBUTED DATA MP2 GRADIENT     PROGRAM WRITTEN BY G. FLETCHER
 -----------------------------     ------------------------------

 DDI: Creating Array [0] - 900 x 28 = 25200 words.
 DDI: Creating Array [1] - 23 x 196 = 4508 words.
 DDI: Creating Array [2] - 465 x 28 = 13020 words.
 DDI: Creating Array [3] - 28 x 28 = 784 words.
    THIS CALCULATION IS RUNNING WITH MWORDS=    3, MEMDDI=       5, AND P=    1
 MEMORY USAGE PER CPU IS 8*(MWORDS + MEMDDI/P)/1024 =    0.1 GBYTES.

 MINIMAL REQUIREMENT FOR THIS RUN IS MWORDS=    1, MEMDDI=       1.
 FOR P=    1, THE MEMORY USAGE PER CPU(CORE) WOULD BE    0.0 GBYTES.


      DIRECT 4-INDEX TRANSFORMATION 
      SCHWARZ INEQUALITY TEST SKIPPED          0 INTEGRAL BLOCKS

 RESULTS OF MOLLER-PLESSET 2ND ORDER CORRECTION ARE
                     E(SCF)=      -107.9489583821
                       E(2)=        -2.1642930883
                     E(MP2)=      -110.1132514703
 SPIN-COMPONENT-SCALED MP2 RESULTS ARE
                      E(2S)=        -1.4554880845
                      E(2T)=        -0.7088050038
                     E(2ST)=        -1.9828540360 = 6/5 * E(2S) + 1/3 * E(2T)
                    SCS-MP2=      -109.9318124180

      COMPUTING CONTRIBUTIONS TO THE 1-PARTICLE DENSITY MATRICES

      COMPUTING THREE-VIRTUAL CONTRIBUTIONS TO THE LAGRANGIAN
      FORMING BACK-TRANSFORMED AMPLITUDES
      COMPUTING (VV|VO) INTEGRAL CLASS 
      SCHWARZ INEQUALITY TEST SKIPPED          0 INTEGRAL BLOCKS
      RESTORING (VO|VO) INTEGRAL CLASS

      SOLVING FOR Z-VECTOR
 DDI: Creating Array [3] - 30 x 50 = 1500 words.

      ITERATION         TESTER  EXPANSION VECTOR NORM
      ===============================================

                                 0.007979188618856
         2        0.0095091158
                                 0.000653597714104
         3        0.0010632518
                                 0.000033658661130
         4        0.0000631372
                                 0.000002170564079
         5        0.0000048739
                                 0.000000114995185
         6        0.0000003014
                                 0.000000012613407
         7        0.0000000408
                                 0.000000001813076
         8        0.0000000059
                                 0.000000000085641
         9        0.0000000003
                                 0.000000000002177
        10        0.0000000000

      CONVERGED - WAVEFUNCTIONS STATIONARY


      COMPUTING LAST CONTRIBUTIONS TO THE 1-PARTICLE DENSITY

 MP2 NATURAL ORBITAL OCCUPATION NUMBERS ARE
  3.7587 3.7587 2.9785 2.0001 2.0000 1.9831 1.7947 0.2613 0.0774 0.0774
  0.0041 0.0041 0.0034 0.0034 0.0033 0.0033 0.0033 0.0033 0.0030 0.0030
  0.0029 0.0029 0.0028 0.0004 0.0002-0.0006-0.0062-1.0518-1.8374-1.8374
 THERE ARE    18.2738 ELECTRONS IN PRINCIPAL MP2 NATURAL ORBITALS.
 THERE ARE    -4.2738 ELECTRONS IN SECONDARY MP2 NATURAL ORBITALS.
 THE MP2 NATURAL ORBITALS HAVE BEEN PUNCHED.
 ..... DONE WITH MP2 ENERGY .....
 CPU     0: STEP CPU TIME=     0.06 TOTAL CPU TIME=        0.1 (    0.0 MIN)
 TOTAL WALL CLOCK TIME=        0.1 SECONDS, CPU UTILIZATION IS  90.91%

     -------------------------------------------------
     MP2 PROPERTIES...FOR THE FIRST ORDER WAVEFUNCTION
          USING THE RESPONSE (OR RELAXED) DENSITY
     -------------------------------------------------

          -----------------
          ENERGY COMPONENTS
          -----------------

         WAVEFUNCTION NORMALIZATION =       1.0000000000

                ONE ELECTRON ENERGY =    -168.4205018777
                TWO ELECTRON ENERGY =      50.2042237784
           NUCLEAR REPULSION ENERGY =       8.1030266290
                                      ------------------
                       TOTAL ENERGY =    -110.1132514703

 ELECTRON-ELECTRON POTENTIAL ENERGY =      50.2042237784
  NUCLEUS-ELECTRON POTENTIAL ENERGY =    -281.3371955635
   NUCLEUS-NUCLEUS POTENTIAL ENERGY =       8.1030266290
                                      ------------------
             TOTAL POTENTIAL ENERGY =    -223.0299451561
               TOTAL KINETIC ENERGY =     112.9166936858
                 VIRIAL RATIO (V/T) =       1.9751724734

          ---------------------------------------
          MULLIKEN AND LOWDIN POPULATION ANALYSES
          ---------------------------------------

               ----- POPULATIONS IN EACH AO -----
                             MULLIKEN      LOWDIN
              1  N  1  S      1.99458     1.98089
              2  N  1  S      0.71301     0.54604
              3  N  1  X      0.96584     0.90181
              4  N  1  Y      0.96584     0.90181
              5  N  1  Z      0.99091     0.93946
              6  N  1  S      1.26141     0.78959
              7  N  1  X      0.03590     0.09993
              8  N  1  Y      0.03590     0.09993
              9  N  1  Z      0.00542     0.05433
             10  N  1 XX      0.00690     0.22573
             11  N  1 YY      0.00690     0.22573
             12  N  1 ZZ      0.00873     0.22609
             13  N  1 XY      0.00318     0.00318
             14  N  1 XZ      0.00274     0.00274
             15  N  1 YZ      0.00274     0.00274
             16  N  2  S      1.99458     1.98089
             17  N  2  S      0.71301     0.54604
             18  N  2  X      0.96584     0.90181
             19  N  2  Y      0.96584     0.90181
             20  N  2  Z      0.99091     0.93946
             21  N  2  S      1.26141     0.78959
             22  N  2  X      0.03590     0.09993
             23  N  2  Y      0.03590     0.09993
             24  N  2  Z      0.00542     0.05433
             25  N  2 XX      0.00690     0.22573
             26  N  2 YY      0.00690     0.22573
             27  N  2 ZZ      0.00873     0.22609
             28  N  2 XY      0.00318     0.00318
             29  N  2 XZ      0.00274     0.00274
             30  N  2 YZ      0.00274     0.00274

          ----- MULLIKEN ATOMIC OVERLAP POPULATIONS -----
          (OFF-DIAGONAL ELEMENTS NEED TO BE MULTIPLIED BY 2)

             1           2

    1    7.1522980
    2   -0.1522980   7.1522980

          TOTAL MULLIKEN AND LOWDIN ATOMIC POPULATIONS
       ATOM         MULL.POP.    CHARGE          LOW.POP.     CHARGE
    1 N             7.000000   -0.000000         7.000000   -0.000000
    2 N             7.000000   -0.000000         7.000000   -0.000000

          -------------------------------
          BOND ORDER AND VALENCE ANALYSIS     BOND ORDER THRESHOLD=0.050
          -------------------------------

                   BOND                       BOND                       BOND
  ATOM PAIR DIST  ORDER      ATOM PAIR DIST  ORDER      ATOM PAIR DIST  ORDER
    1   2  3.200 18.112

                       TOTAL       BONDED        FREE
      ATOM            VALENCE     VALENCE     VALENCE
    1 N                 2.002      18.112     -16.110
    2 N                 2.002      18.112     -16.110

          ---------------------
          ELECTROSTATIC MOMENTS
          ---------------------

 POINT   1           X           Y           Z (BOHR)    CHARGE
                 0.000000    0.000000    0.000000       -0.00 (A.U.)
         DX          DY          DZ         /D/  (DEBYE)
     0.000000    0.000000   -0.000000    0.000000

          ----------------
          ELECTRON DENSITY
          ----------------
  POINT      X         Y         Z             DENSITY
                     (BOHR)                    (A.U.)
     1     0.00000   0.00000   0.00000        -0.011465
     2     0.00000   0.00000   0.09449        -0.011378
     3     0.00000   0.00000   0.18897        -0.011110
 ...... END OF PROPERTY EVALUATION ......
 CPU     0: STEP CPU TIME=     0.00 TOTAL CPU TIME=        0.1 (    0.0 MIN)
 TOTAL WALL CLOCK TIME=        0.1 SECONDS, CPU UTILIZATION IS  90.91%
               580000  WORDS OF DYNAMIC MEMORY USED
 EXECUTION OF GAMESS TERMINATED NORMALLY Wed Aug  9 21:56:56 2017
 DDI: 617464 bytes (0.6 MB / 0 MWords) used by master data server.

 ----------------------------------------
 CPU timing information for all processes
 ========================================
 0: 0.94 + 0.17 = 0.112
 ----------------------------------------
 ddikick.x: exited gracefully.
unset echo
----- accounting info -----
Files used on the master node compute-0-7.local were:
-rw-rw-r-- 1 sarom sarom 1.2K Aug  9 21:56 /scratch/ddi-rhf-mp2-n2.F05
-rw-rw-r-- 1 sarom sarom 176K Aug  9 21:56 /scratch/ddi-rhf-mp2-n2.F08
-rw-rw-r-- 1 sarom sarom 1.6M Aug  9 21:56 /scratch/ddi-rhf-mp2-n2.F10
rm: No match.
ls: No match.
ls: No match.
ls: No match.
Wed Aug  9 21:56:59 CDT 2017
0.259u 0.148s 0:03.58 10.8%	0+0k 8+360io 0pf+0w
/opt/gridengine/default/spool/compute-0-7/active_jobs/36137.1/pe_hostfile compute-0-7.local
