-catch_rsh /opt/gridengine/default/spool/compute-0-5/active_jobs/36143.1/pe_hostfile
compute-0-5
The primary node assigned by SGE to this run is compute-0-5
Warning: no access to tty (Bad file descriptor).
Thus no job control in this shell.
source /home/sarom/dir.git.branch.saromleang-travis-ci/install.info
setenv GMS_PATH /home/sarom/dir.git.branch.saromleang-travis-ci
setenv GMS_BUILD_DIR /home/sarom/dir.git.branch.saromleang-travis-ci
setenv GMS_TARGET linux64
setenv GMS_FORTRAN gfortran
setenv GMS_GFORTRAN_VERNO 4.4
setenv GMS_MATHLIB mkl-so
setenv GMS_MATHLIB none
setenv GMS_MATHLIB_PATH /share/apps/intel/compilers_and_libraries_2017.1.132/linux/mkl/lib/intel64
setenv GMS_MKL_VERNO 12
setenv GMS_DDI_COMM sockets
setenv GMS_LIBCCHEM false
setenv GMS_EIGEN_PATH
setenv GMS_PHI false
setenv GMS_SHMTYPE sysv
setenv GMS_OPENMP false
unset echo
ddi-rohf-rmp-ch2
/home/sarom/dir.git.branch.saromleang-travis-ci/tests/mp2/parallel
----- GAMESS execution script 'rungms' -----
This job is running on host compute-0-5.local
under operating system Linux at Wed Aug 9 22:00:11 CDT 2017
Available scratch disk space (Kbyte units) at beginning of the job is
Filesystem           1K-blocks      Used Available Use% Mounted on
/dev/sda1             16126920   3962036  11345684  26% /
GAMESS temporary binary files will be written to /scratch
GAMESS supplementary output files will be written to /home/sarom/restart
Copying input file ddi-rohf-rmp-ch2.inp to your run's scratch directory...
cp /home/sarom/dir.git.branch.saromleang-travis-ci/tests/mp2/parallel/ddi-rohf-rmp-ch2.inp /scratch/ddi-rohf-rmp-ch2.F05
unset echo
The generated host list is
compute-0-5.local
/home/sarom/dir.git.branch.saromleang-travis-ci/ddikick.x /home/sarom/dir.git.branch.saromleang-travis-ci/gamess.00.x ddi-rohf-rmp-ch2 -ddi 1 1 compute-0-5.local -scr /scratch

 Distributed Data Interface kickoff program.
 Initiating 1 compute processes on 1 nodes to run the following command:
 /home/sarom/dir.git.branch.saromleang-travis-ci/gamess.00.x ddi-rohf-rmp-ch2 

          ******************************************************
          *         GAMESS VERSION = 20 APR 2017 (R1)          *
          *             FROM IOWA STATE UNIVERSITY             *
          * M.W.SCHMIDT, K.K.BALDRIDGE, J.A.BOATZ, S.T.ELBERT, *
          *   M.S.GORDON, J.H.JENSEN, S.KOSEKI, N.MATSUNAGA,   *
          *          K.A.NGUYEN, S.J.SU, T.L.WINDUS,           *
          *       TOGETHER WITH M.DUPUIS, J.A.MONTGOMERY       *
          *         J.COMPUT.CHEM.  14, 1347-1363(1993)        *
          **************** 64 BIT LINUX VERSION ****************

  SINCE 1993, STUDENTS AND POSTDOCS WORKING AT IOWA STATE UNIVERSITY
  AND ALSO IN THEIR VARIOUS JOBS AFTER LEAVING ISU HAVE MADE IMPORTANT
  CONTRIBUTIONS TO THE CODE:
     IVANA ADAMOVIC, CHRISTINE AIKENS, YURI ALEXEEV, POOJA ARORA,
     ANDREY ASADCHEV, ROB BELL, PRADIPTA BANDYOPADHYAY, JONATHAN BENTZ,
     BRETT BODE, KURT BRORSEN, CALEB CARLIN, GALINA CHABAN, WEI CHEN,
     CHEOL HO CHOI, PAUL DAY, ALBERT DEFUSCO, NUWAN DESILVA, TIM DUDLEY,
     DMITRI FEDOROV, GRAHAM FLETCHER, MARK FREITAG, KURT GLAESEMANN,
     DAN KEMP, GRANT MERRILL, NORIYUKI MINEZAWA, JONATHAN MULLIN,
     TAKESHI NAGATA, SEAN NEDD, HEATHER NETZLOFF, BOSILJKA NJEGIC, RYAN OLSON,
     MIKE PAK, SPENCER PRUITT, LUKE ROSKOP, JIM SHOEMAKER, LYUDMILA SLIPCHENKO,
     TONY SMITH, SAROM SOK LEANG, JIE SONG, TETSUYA TAKETSUGU, SIMON WEBB,
     PENG XU, SOOHAENG YOO, FEDERICO ZAHARIEV

  ADDITIONAL CODE HAS BEEN PROVIDED BY COLLABORATORS IN OTHER GROUPS:
     IOWA STATE UNIVERSITY:
          JOE IVANIC, AARON WEST, LAIMUTIS BYTAUTAS, KLAUS RUEDENBERG
     UNIVERSITY OF TOKYO: KIMIHIKO HIRAO, TAKAHITO NAKAJIMA,
          TAKAO TSUNEDA, MUNEAKI KAMIYA, SUSUMU YANAGISAWA,
          KIYOSHI YAGI, MAHITO CHIBA, SEIKEN TOKURA, NAOAKI KAWAKAMI
     UNIVERSITY OF AARHUS: FRANK JENSEN
     UNIVERSITY OF IOWA: VISVALDAS KAIRYS, HUI LI
     NATIONAL INST. OF STANDARDS AND TECHNOLOGY: WALT STEVENS, DAVID GARMER
     UNIVERSITY OF PISA: BENEDETTA MENNUCCI, JACOPO TOMASI
     UNIVERSITY OF MEMPHIS: HENRY KURTZ, PRAKASHAN KORAMBATH
     UNIVERSITY OF ALBERTA: TOBY ZENG, MARIUSZ KLOBUKOWSKI
     UNIVERSITY OF NEW ENGLAND: MARK SPACKMAN
     MIE UNIVERSITY: HIROAKI UMEDA
     NAT. INST. OF ADVANCED INDUSTRIAL SCIENCE AND TECHNOLOGY: KAZUO KITAURA
     MICHIGAN STATE UNIVERSITY:
          KAROL KOWALSKI, MARTA WLOCH, JEFFREY GOUR, JESSE LUTZ,
          WEI LI, PIOTR PIECUCH
     UNIVERSITY OF SILESIA: MONIKA MUSIAL, STANISLAW KUCHARSKI
     FACULTES UNIVERSITAIRES NOTRE-DAME DE LA PAIX:
          OLIVIER QUINET, BENOIT CHAMPAGNE
     UNIVERSITY OF CALIFORNIA - SANTA BARBARA: BERNARD KIRTMAN
     INSTITUTE FOR MOLECULAR SCIENCE:
          KAZUYA ISHIMURA, MICHIO KATOUDA, AND SHIGERU NAGASE
     UNIVERSITY OF NOTRE DAME: ANNA POMOGAEVA, DAN CHIPMAN
     KYUSHU UNIVERSITY:
          HARUYUKI NAKANO,
          FENG LONG GU, JACEK KORCHOWIEC, MARCIN MAKOWSKI, AND YURIKO AOKI,
          HIROTOSHI MORI AND EISAKU MIYOSHI
     PENNSYLVANIA STATE UNIVERSITY:
          TZVETELIN IORDANOV, CHET SWALINA, JONATHAN SKONE,
          SHARON HAMMES-SCHIFFER
     WASEDA UNIVERSITY:
          MASATO KOBAYASHI, TOMOKO AKAMA, TSUGUKI TOUMA,
          TAKESHI YOSHIKAWA, YASUHIRO IKABATA, JUNJI SEINO,
          YUYA NAKAJIMA, HIROMI NAKAI
     NANJING UNIVERSITY: SHUHUA LI
     UNIVERSITY OF NEBRASKA:
          PEIFENG SU, DEJUN SI, NANDUN THELLAMUREGE, YALI WANG, HUI LI
     UNIVERSITY OF ZURICH: ROBERTO PEVERATI, KIM BALDRIDGE
     N. COPERNICUS UNIVERSITY AND JACKSON STATE UNIVERSITY:
          MARIA BARYSZ
     UNIVERSITY OF COPENHAGEN: Jimmy Kromann, CASPER STEINMANN
     TOKYO INSTITUTE OF TECHNOLOGY: HIROYA NAKATA
     NAGOYA UNIVERSITY: YOSHIO NISHIMOTO, STEPHAN IRLE
     MOSCOW STATE UNIVERSITY: VLADIMIR MIRONOV

 EXECUTION OF GAMESS BEGUN Wed Aug  9 22:00:11 2017

            ECHO OF THE FIRST FEW INPUT CARDS -
 INPUT CARD>!  2nd order perturbation test on CH2...3-B-1...69 AOs                          
 INPUT CARD>!                                                                               
 INPUT CARD>!  This example reproduces the ZAPT energy of Table II in                       
 INPUT CARD>!  T.J.Lee, A.P.Rendell, K.G.Dyall, D.Jayatilaka                                
 INPUT CARD>!  J.Chem.Phys. 100, 7400-7409(1994)                                            
 INPUT CARD>!                                                                               
 INPUT CARD>!  GAMESS: FINAL E= -38.9332646536, ZAPT E(MP2)= -39.0563134733                 
 INPUT CARD>!  Literature: ZAPT E(MP2)= -39.056313                                          
 INPUT CARD>!      E1 =         -.0564862712 closed shell-like term                         
 INPUT CARD>!      E2 =         -.0062018793 singly unoccupied term                         
 INPUT CARD>!      E3 =          .0000000000 two singly occupied                            
 INPUT CARD>!      E4 =         -.0083701755 singly unoccupied/occupied                     
 INPUT CARD>!      E5 =         -.0029404811 "fock matrix contribution"                     
 INPUT CARD>!      E6 =         -.0427048949 singly unoccupied                              
 INPUT CARD>!      E7 =         -.0063451177 two singly unoccupied                          
 INPUT CARD>!                                                                               
 INPUT CARD>!  This run takes 0 seconds on 2.66 GHz Cloverton ( 8 Nov 2005)                 
 INPUT CARD>!                                                                               
 INPUT CARD> $contrl scftyp=rohf mplevl=2 runtyp=energy mult=3 nzvar=3 $end                 
 INPUT CARD> $system mwords=1 memddi=1  $end                                                
 INPUT CARD> $mp2    code=ddi ospt=rmp $end                                                 
 INPUT CARD> $guess  guess=huckel $end                                                      
 INPUT CARD> $zmat   izmat(1)=1,1,2,  1,1,3,  2,2,1,3 $end                                  
 INPUT CARD> $data                                                                          
 INPUT CARD>CH2...3-B-1 state...TZ2Pf basis used by Lee, et al.                             
 INPUT CARD>Cnv  2                                                                          
 INPUT CARD>                                                                                
 INPUT CARD>Carbon   6.0                                                                    
 INPUT CARD>  S 6                                                                           
 INPUT CARD>   1  9471.0    0.000776                                                        
 INPUT CARD>   2  1398.0    0.006218                                                        
 INPUT CARD>   3   307.5    0.033575                                                        
 INPUT CARD>   4    84.54   0.134278                                                        
 INPUT CARD>   5    26.91   0.393668                                                        
 INPUT CARD>   6     9.409  0.544169                                                        
 INPUT CARD>  S 2                                                                           
 INPUT CARD>   1     9.409  0.248075                                                        
 INPUT CARD>   2     3.500  0.782844                                                        
 INPUT CARD>  S 1 ; 1 1.068  1.0                                                            
 INPUT CARD>  S 1 ; 1 0.4002 1.0                                                            
 INPUT CARD>  S 1 ; 1 0.1351 1.0                                                            
 INPUT CARD>  P 3                                                                           
 INPUT CARD>   1 25.37  0.038802                                                            
 INPUT CARD>   2  5.776 0.243118                                                            
 INPUT CARD>   3  1.787 0.810162                                                            
 INPUT CARD>  P 1 ; 1 0.6577  1.0                                                           
 INPUT CARD>  P 1 ; 1 0.2480  1.0                                                           
 INPUT CARD>  P 1 ; 1 0.09106 1.0                                                           
 INPUT CARD>  D 1 ; 1 1.097 1.0                                                             
 INPUT CARD>  D 1 ; 1 0.318 1.0                                                             
    1000000 WORDS OF MEMORY AVAILABLE


     RUN TITLE
     ---------
 CH2...3-B-1 state...TZ2Pf basis used by Lee, et al.                             

 THE POINT GROUP OF THE MOLECULE IS CNV     
 THE ORDER OF THE PRINCIPAL AXIS IS     2
 *** WARNING! ATOM   2 SHELL   13 TYPE S HAS NORMALIZATION   0.99998648

 ATOM      ATOMIC                      COORDINATES (BOHR)
           CHARGE         X                   Y                   Z
 CARBON      6.0     0.0000000000        0.0000000000        0.0000000000
 HYDROGEN    1.0    -0.0000000000       -1.8596034172       -0.8087715479
 HYDROGEN    1.0     0.0000000000        1.8596034172       -0.8087715479

          INTERNUCLEAR DISTANCES (ANGS.)
          ------------------------------

                1 CARB       2 HYDR       3 HYDR  

   1 CARB    0.0000000    1.0731000 *  1.0731000 *
   2 HYDR    1.0731000 *  0.0000000    1.9681196 *
   3 HYDR    1.0731000 *  1.9681196 *  0.0000000  

  * ... LESS THAN  3.000


     ATOMIC BASIS SET
     ----------------
 THE CONTRACTED PRIMITIVE FUNCTIONS HAVE BEEN UNNORMALIZED
 THE CONTRACTED BASIS FUNCTIONS ARE NOW NORMALIZED TO UNITY

  SHELL TYPE  PRIMITIVE        EXPONENT          CONTRACTION COEFFICIENT(S)

 CARBON    

      1   S       1          9471.0000000    0.000776000185
      1   S       2          1398.0000000    0.006218001481
      1   S       3           307.5000000    0.033575007997
      1   S       4            84.5400000    0.134278031981
      1   S       5            26.9100000    0.393668093760
      1   S       6             9.4090000    0.544169129605

      2   S       7             9.4090000    0.248075019298
      2   S       8             3.5000000    0.782844060899

      3   S       9             1.0680000    1.000000000000

      4   S      10             0.4002000    1.000000000000

      5   S      11             0.1351000    1.000000000000

      6   P      12            25.3700000    0.038801991396
      6   P      13             5.7760000    0.243117946094
      6   P      14             1.7870000    0.810161820364

      7   P      15             0.6577000    1.000000000000

      8   P      16             0.2480000    1.000000000000

      9   P      17             0.0910600    1.000000000000

     10   D      18             1.0970000    1.000000000000

     11   D      19             0.3180000    1.000000000000

     12   F      20             0.7610000    1.000000000000

 HYDROGEN  

     19   S      21            33.6400000    0.025373656982
     19   S      22             5.0580000    0.189681435760
     19   S      23             1.1470000    0.852921469637

     20   S      24             0.3211000    1.000000000000

     21   S      25             0.1013000    1.000000000000

     22   P      26             1.4070000    1.000000000000

     23   P      27             0.3880000    1.000000000000

     24   D      28             1.0570000    1.000000000000

 TOTAL NUMBER OF BASIS SET SHELLS             =   24
 NUMBER OF CARTESIAN GAUSSIAN BASIS FUNCTIONS =   69
 NUMBER OF ELECTRONS                          =    8
 CHARGE OF MOLECULE                           =    0
 SPIN MULTIPLICITY                            =    3
 NUMBER OF OCCUPIED ORBITALS (ALPHA)          =    5
 NUMBER OF OCCUPIED ORBITALS (BETA )          =    3
 TOTAL NUMBER OF ATOMS                        =    3
 THE NUCLEAR REPULSION ENERGY IS        6.1864283400

     $CONTRL OPTIONS
     ---------------
 SCFTYP=ROHF         RUNTYP=ENERGY       EXETYP=RUN     
 MPLEVL=       2     CITYP =NONE         CCTYP =NONE         VBTYP =NONE    
 DFTTYP=NONE         TDDFT =NONE    
 MULT  =       3     ICHARG=       0     NZVAR =       3     COORD =UNIQUE  
 PP    =NONE         RELWFN=NONE         LOCAL =NONE         NUMGRD=       F
 ISPHER=      -1     NOSYM =       0     MAXIT =      30     UNITS =ANGS    
 PLTORB=       F     MOLPLT=       F     AIMPAC=       F     FRIEND=        
 NPRINT=       7     IREST =       0     GEOM  =INPUT   
 NORMF =       0     NORMP =       0     ITOL  =      20     ICUT  =       9
 INTTYP=BEST         GRDTYP=BEST         QMTTOL= 1.0E-06

     $SYSTEM OPTIONS
     ---------------
  REPLICATED MEMORY=     1000000 WORDS (ON EVERY NODE).
 DISTRIBUTED MEMDDI=           1 MILLION WORDS IN AGGREGATE,
 MEMDDI DISTRIBUTED OVER   1 PROCESSORS IS     1000000 WORDS/PROCESSOR.
 TOTAL MEMORY REQUESTED ON EACH PROCESSOR=     2000000 WORDS.
 TIMLIM=      525600.00 MINUTES, OR     365.0 DAYS.
 PARALL= F  BALTYP=  DLB     KDIAG=    0  COREFL= F
 MXSEQ2=     300 MXSEQ3=     150  mem10=         0

          ----------------
          PROPERTIES INPUT
          ----------------

     MOMENTS            FIELD           POTENTIAL          DENSITY
 IEMOM =       1   IEFLD =       0   IEPOT =       0   IEDEN =       0
 WHERE =COMASS     WHERE =NUCLEI     WHERE =NUCLEI     WHERE =NUCLEI  
 OUTPUT=BOTH       OUTPUT=BOTH       OUTPUT=BOTH       OUTPUT=BOTH    
 IEMINT=       0   IEFINT=       0                     IEDINT=       0
                                                       MORB  =       0
          EXTRAPOLATION IN EFFECT
          SOSCF IN EFFECT
 ORBITAL PRINTING OPTION: NPREO=     1    69     2     1

     -------------------------------
     INTEGRAL TRANSFORMATION OPTIONS
     -------------------------------
     NWORD  =            0
     CUTOFF = 1.0E-09     MPTRAN =       0
     DIRTRF =       F     AOINTS =DUP     

          ----------------------
          INTEGRAL INPUT OPTIONS
          ----------------------
 NOPK  =       1 NORDER=       0 SCHWRZ=       F

          -----------------------
          MP2 CONTROL INFORMATION
          -----------------------
          NACORE =        1  NBCORE =        1
          LMOMP2 =        F  AOINTS = DUP     
          METHOD =        2  NWORD  =               0
          MP2PRP =        F  OSPT   = RMP     
          CUTOFF = 1.00E-09  CPHFBS = BASISAO 
          CODE   = DDI     

          NUMBER OF CORE -A-  ORBITALS =     1
          NUMBER OF CORE -B-  ORBITALS =     1
          NUMBER OF OCC. -A-  ORBITALS =     5
          NUMBER OF OCC. -B-  ORBITALS =     3
          NUMBER OF MOLECULAR ORBITALS =    69
          NUMBER OF   BASIS  FUNCTIONS =    69


   --- ENCODED Z MATRIX ---
 COORD  TYPE   I   J   K   L   M   N
    1      1    1   2
    2      1    1   3
    3      2    2   1   3

 THE DETERMINANT OF THE G MATRIX IS 10**(    -1)


                     --------------------
                     INTERNAL COORDINATES
                     --------------------

                 - - ATOMS - -         COORDINATE      COORDINATE
 NO.   TYPE    I  J  K  L  M  N        (BOHR,RAD)       (ANG,DEG)
 ----------------------------------------------------------------
   1 STRETCH   1  2                     2.0278650       1.0731000
   2 STRETCH   1  3                     2.0278650       1.0731000
   3 BEND      2  1  3                  2.3211134     132.9900000

     ------------------------------------------
     THE POINT GROUP IS CNV, NAXIS= 2, ORDER= 4
     ------------------------------------------

     DIMENSIONS OF THE SYMMETRY SUBSPACES ARE
 A1  =   29     A2  =    7     B1  =   13     B2  =   20

 ..... DONE SETTING UP THE RUN .....
 CPU     0: STEP CPU TIME=     0.02 TOTAL CPU TIME=        0.0 (    0.0 MIN)
 TOTAL WALL CLOCK TIME=        0.0 SECONDS, CPU UTILIZATION IS  66.67%

          ********************
          1 ELECTRON INTEGRALS
          ********************
 ...... END OF ONE-ELECTRON INTEGRALS ......
 CPU     0: STEP CPU TIME=     0.00 TOTAL CPU TIME=        0.0 (    0.0 MIN)
 TOTAL WALL CLOCK TIME=        0.0 SECONDS, CPU UTILIZATION IS  66.67%

          -------------
          GUESS OPTIONS
          -------------
          GUESS =HUCKEL            NORB  =       0          NORDER=       0
          MIX   =       F          PRTMO =       F          PUNMO =       F
          TOLZ  = 1.0E-08          TOLE  = 1.0E-05
          SYMDEN=       F          PURIFY=       F

 INITIAL GUESS ORBITALS GENERATED BY HUCKEL   ROUTINE.
 HUCKEL GUESS REQUIRES     36906 WORDS.

 SYMMETRIES FOR INITIAL GUESS ORBITALS FOLLOW.  ALPHA SET(S).
     5 ORBITALS ARE OCCUPIED (    1 CORE ORBITALS).
     2=A1       3=B2       4=A1       5=B1       6=B2       7=A1       8=A1  
     9=A1      10=A1      11=A1      12=A1      13=A1      14=A1      15=A1  

 SYMMETRIES FOR INITIAL GUESS ORBITALS FOLLOW.   BETA SET(S).
     3 ORBITALS ARE OCCUPIED (    1 CORE ORBITALS).
     2=A1       3=B2       4=A1       5=B1       6=B2       7=A1       8=A1  
     9=A1      10=A1      11=A1      12=A1      13=A1  
 ...... END OF INITIAL ORBITAL SELECTION ......
 CPU     0: STEP CPU TIME=     0.00 TOTAL CPU TIME=        0.0 (    0.0 MIN)
 TOTAL WALL CLOCK TIME=        0.0 SECONDS, CPU UTILIZATION IS  66.67%

                    ----------------------
                    AO INTEGRAL TECHNOLOGY
                    ----------------------
     S,P,L SHELL ROTATED AXIS INTEGRALS, REPROGRAMMED BY
        KAZUYA ISHIMURA (IMS) AND JOSE SIERRA (SYNSTAR).
     S,P,D,L SHELL ROTATED AXIS INTEGRALS PROGRAMMED BY
        KAZUYA ISHIMURA (INSTITUTE FOR MOLECULAR SCIENCE).
     S,P,D,F,G SHELL TO TOTAL QUARTET ANGULAR MOMENTUM SUM 5,
        ERIC PROGRAM BY GRAHAM FLETCHER (ELORET AND NASA ADVANCED
        SUPERCOMPUTING DIVISION, AMES RESEARCH CENTER).
     S,P,D,F,G,L SHELL GENERAL RYS QUADRATURE PROGRAMMED BY
        MICHEL DUPUIS (PACIFIC NORTHWEST NATIONAL LABORATORY).

          --------------------
          2 ELECTRON INTEGRALS
          --------------------

 THE -PK- OPTION IS OFF, THE INTEGRALS ARE NOT IN SUPERMATRIX FORM.
 STORING   15000 INTEGRALS/RECORD ON DISK, USING 12 BYTES/INTEGRAL.
 TWO ELECTRON INTEGRAL EVALUATION REQUIRES   99400 WORDS OF MEMORY.
 II,JST,KST,LST =  1  1  1  1 NREC =         1 INTLOC =    1
 II,JST,KST,LST =  2  1  1  1 NREC =         1 INTLOC =    2
 II,JST,KST,LST =  3  1  1  1 NREC =         1 INTLOC =    7
 II,JST,KST,LST =  4  1  1  1 NREC =         1 INTLOC =   22
 II,JST,KST,LST =  5  1  1  1 NREC =         1 INTLOC =   56
 II,JST,KST,LST =  6  1  1  1 NREC =         1 INTLOC =  121
 II,JST,KST,LST =  7  1  1  1 NREC =         1 INTLOC =  220
 II,JST,KST,LST =  8  1  1  1 NREC =         1 INTLOC =  496
 II,JST,KST,LST =  9  1  1  1 NREC =         1 INTLOC = 1057
 II,JST,KST,LST = 10  1  1  1 NREC =         1 INTLOC = 2074
 II,JST,KST,LST = 11  1  1  1 NREC =         1 INTLOC = 5929
 II,JST,KST,LST = 12  1  1  1 NREC =         1 INTLOC =14065
 II,JST,KST,LST = 13  1  1  1 NREC =         3 INTLOC =11855
 II,JST,KST,LST = 14  1  1  1 NREC =         3 INTLOC =11855
 II,JST,KST,LST = 15  1  1  1 NREC =         3 INTLOC =11855
 II,JST,KST,LST = 16  1  1  1 NREC =         3 INTLOC =11855
 II,JST,KST,LST = 17  1  1  1 NREC =         3 INTLOC =11855
 II,JST,KST,LST = 18  1  1  1 NREC =         3 INTLOC =11855
 II,JST,KST,LST = 19  1  1  1 NREC =         3 INTLOC =11855
 II,JST,KST,LST = 20  1  1  1 NREC =         4 INTLOC =14814
 II,JST,KST,LST = 21  1  1  1 NREC =         6 INTLOC = 5832
 II,JST,KST,LST = 22  1  1  1 NREC =         8 INTLOC =  275
 II,JST,KST,LST = 23  1  1  1 NREC =        14 INTLOC =  417
 II,JST,KST,LST = 24  1  1  1 NREC =        22 INTLOC = 6225
 TOTAL NUMBER OF NONZERO TWO-ELECTRON INTEGRALS =              715026
         48 INTEGRAL RECORDS WERE STORED ON DISK FILE  8.
  ...... END OF TWO-ELECTRON INTEGRALS .....
 CPU     0: STEP CPU TIME=     0.09 TOTAL CPU TIME=        0.1 (    0.0 MIN)
 TOTAL WALL CLOCK TIME=        0.1 SECONDS, CPU UTILIZATION IS 100.00%

          ---------------------------
                 ROHF SCF CALCULATION
          ---------------------------

     NUCLEAR ENERGY =         6.1864283400
     MAXIT = 30     NPUNCH=  2     MULT=  3
     EXTRAP=T  DAMP=F  SHIFT=F  RSTRCT=F  DIIS=F  SOSCF=T
     DENSITY MATRIX CONV=  1.00E-06
     ROHF CANONICALIZATION PARAMETERS
             C-C     O-O     V-V
     ALPHA -0.5000  0.5000  1.5000
     BETA   1.5000  0.5000 -0.5000
     SOSCF WILL OPTIMIZE     326 ORBITAL ROTATION ANGLES. SOGTOL= 2.500E-01
     MEMORY REQUIRED FOR UHF/ROHF ITERS=     75706 WORDS.

 ITER EX      TOTAL ENERGY        E CHANGE  DENSITY CHANGE    ORB. GRAD 
   1  0      -38.8107484927   -38.8107484927   0.357052308   0.000000000
          ---------------START SECOND ORDER SCF---------------
   2  1      -38.9305482333    -0.1197997407   0.101243974   0.020012962
   3  2      -38.9327788203    -0.0022305870   0.029064227   0.009389910
   4  3      -38.9332453686    -0.0004665483   0.013664080   0.002126914
   5  4      -38.9332626777    -0.0000173091   0.005177457   0.000695891
   6  5      -38.9332646126    -0.0000019349   0.000622224   0.000083373
   7  6      -38.9332646515    -0.0000000388   0.000070215   0.000012262
   8  7      -38.9332646535    -0.0000000021   0.000008924   0.000002469
   9  8      -38.9332646536    -0.0000000000   0.000001626   0.000000527
  10  9      -38.9332646536    -0.0000000000   0.000000186   0.000000067

          -----------------
          DENSITY CONVERGED
          -----------------
     TIME TO FORM FOCK OPERATORS=       0.1 SECONDS (       0.0 SEC/ITER)
     TIME TO SOLVE SCF EQUATIONS=       0.0 SECONDS (       0.0 SEC/ITER)

 FINAL ROHF ENERGY IS      -38.9332646536 AFTER  10 ITERATIONS

          --------------------
          SPIN SZ   =    1.000
          S-SQUARED =    2.000
          --------------------

          ------------
          EIGENVECTORS
          ------------

                      1          2          3          4          5
                  -11.2017    -0.7137    -0.5589    -0.1498    -0.1085
                     A1         A1         B2         A1         B1  
    1  C  1  S    0.576260  -0.106549   0.000000  -0.051316  -0.000000
    2  C  1  S    0.456233  -0.171284   0.000000  -0.086326  -0.000000
    3  C  1  S    0.053581   0.077650   0.000000   0.030139  -0.000000
    4  C  1  S   -0.009024   0.395866   0.000000   0.249920  -0.000000
    5  C  1  S   -0.005909   0.180753   0.000000   0.302338  -0.000000
    6  C  1  X   -0.000000  -0.000000   0.000000   0.000000   0.209305
    7  C  1  Y   -0.000000  -0.000000   0.154294   0.000000  -0.000000
    8  C  1  Z    0.000038  -0.045348   0.000000   0.188921  -0.000000
    9  C  1  X   -0.000000  -0.000000   0.000000   0.000000   0.328878
   10  C  1  Y   -0.000000  -0.000000   0.235316   0.000000  -0.000000
   11  C  1  Z   -0.000619  -0.068539   0.000000   0.301113  -0.000000
   12  C  1  X   -0.000000  -0.000000   0.000000   0.000000   0.415410
   13  C  1  Y   -0.000000  -0.000000   0.218621   0.000000  -0.000000
   14  C  1  Z   -0.000873  -0.057250   0.000000   0.368170  -0.000000
   15  C  1  X   -0.000000  -0.000000   0.000000   0.000000   0.239475
   16  C  1  Y   -0.000000  -0.000000   0.044425   0.000000  -0.000000
   17  C  1  Z    0.000211  -0.022747   0.000000   0.170930  -0.000000
   18  C  1 XX   -0.000205   0.001298   0.000000   0.007420  -0.000000
   19  C  1 YY    0.000405   0.023989   0.000000  -0.012612  -0.000000
   20  C  1 ZZ   -0.000125   0.005852   0.000000   0.009819  -0.000000
   21  C  1 XY   -0.000000  -0.000000   0.000000   0.000000  -0.000000
   22  C  1 XZ   -0.000000  -0.000000   0.000000   0.000000   0.004099
   23  C  1 YZ   -0.000000  -0.000000  -0.016467   0.000000  -0.000000
   24  C  1 XX    0.002947   0.008594   0.000000   0.009121  -0.000000
   25  C  1 YY    0.003875   0.022350   0.000000  -0.040591  -0.000000
   26  C  1 ZZ    0.003042   0.011017   0.000000   0.008341  -0.000000
   27  C  1 XY   -0.000000  -0.000000   0.000000   0.000000  -0.000000
   28  C  1 XZ   -0.000000  -0.000000   0.000000   0.000000   0.006993
   29  C  1 YZ   -0.000000  -0.000000  -0.019612   0.000000  -0.000000
   30  C  1 XXX  -0.000000  -0.000000   0.000000   0.000000   0.004176
   31  C  1 YYY  -0.000000  -0.000000   0.003853   0.000000  -0.000000
   32  C  1 ZZZ   0.000282   0.001435   0.000000   0.003495  -0.000000
   33  C  1 XXY  -0.000000  -0.000000  -0.003638   0.000000  -0.000000
   34  C  1 XXZ   0.000152   0.001094   0.000000   0.001265  -0.000000
   35  C  1 YYX  -0.000000  -0.000000   0.000000   0.000000  -0.000267
   36  C  1 YYZ  -0.000289  -0.002721   0.000000   0.001036  -0.000000
   37  C  1 ZZX  -0.000000  -0.000000   0.000000   0.000000   0.002229
   38  C  1 ZZY  -0.000000  -0.000000  -0.001201   0.000000  -0.000000
   39  C  1 XYZ  -0.000000  -0.000000   0.000000   0.000000  -0.000000
   40  H  2  S    0.000105   0.117613  -0.150721  -0.047385  -0.000000
   41  H  2  S   -0.002011   0.159380  -0.218932  -0.086588  -0.000000
   42  H  2  S    0.000704   0.035355  -0.091383  -0.052719  -0.000000
   43  H  2  X   -0.000000  -0.000000   0.000000   0.000000   0.008890
   44  H  2  Y   -0.000064   0.011536  -0.010175  -0.004347  -0.000000
   45  H  2  Z   -0.000006   0.003794  -0.006035   0.005668  -0.000000
   46  H  2  X   -0.000000  -0.000000   0.000000   0.000000   0.020559
   47  H  2  Y   -0.000538   0.019428  -0.012339   0.000184  -0.000000
   48  H  2  Z   -0.000294   0.004953  -0.008527   0.015989  -0.000000
   49  H  2 XX    0.000105  -0.000245   0.000874   0.001923  -0.000000
   50  H  2 YY   -0.000115   0.003980  -0.002141   0.000408  -0.000000
   51  H  2 ZZ    0.000084   0.000193   0.000004   0.003567  -0.000000
   52  H  2 XY   -0.000000  -0.000000   0.000000   0.000000   0.003352
   53  H  2 XZ   -0.000000  -0.000000   0.000000   0.000000   0.001258
   54  H  2 YZ   -0.000104   0.001500  -0.001969   0.002177  -0.000000
   55  H  3  S    0.000105   0.117613   0.150721  -0.047385  -0.000000
   56  H  3  S   -0.002011   0.159380   0.218932  -0.086588  -0.000000
   57  H  3  S    0.000704   0.035355   0.091383  -0.052719  -0.000000
   58  H  3  X   -0.000000  -0.000000   0.000000   0.000000   0.008890
   59  H  3  Y    0.000064  -0.011536  -0.010175   0.004347  -0.000000
   60  H  3  Z   -0.000006   0.003794   0.006035   0.005668  -0.000000
   61  H  3  X   -0.000000  -0.000000   0.000000   0.000000   0.020559
   62  H  3  Y    0.000538  -0.019428  -0.012339  -0.000184  -0.000000
   63  H  3  Z   -0.000294   0.004953   0.008527   0.015989  -0.000000
   64  H  3 XX    0.000105  -0.000245  -0.000874   0.001923  -0.000000
   65  H  3 YY   -0.000115   0.003980   0.002141   0.000408  -0.000000
   66  H  3 ZZ    0.000084   0.000193  -0.000004   0.003567  -0.000000
   67  H  3 XY   -0.000000  -0.000000   0.000000   0.000000  -0.003352
   68  H  3 XZ   -0.000000  -0.000000   0.000000   0.000000   0.001258
   69  H  3 YZ    0.000104  -0.001500  -0.001969  -0.002177  -0.000000

                      6          7          8          9         10
                    0.1414     0.2166     0.2443     0.2493     0.2650
                     A1         B2         A1         B1         B2  
    1  C  1  S   -0.050471  -0.000000   0.010187   0.000000   0.000000
    2  C  1  S   -0.092498  -0.000000   0.017759   0.000000   0.000000
    3  C  1  S   -0.078675  -0.000000  -0.025997   0.000000   0.000000
    4  C  1  S   -0.065482  -0.000000   0.256514   0.000000   0.000000
    5  C  1  S    3.276314  -0.000000  -0.173706   0.000000   0.000000
    6  C  1  X    0.000000  -0.000000   0.000000  -0.103556   0.000000
    7  C  1  Y    0.000000   0.089640   0.000000   0.000000  -0.010420
    8  C  1  Z   -0.029273  -0.000000  -0.086912   0.000000   0.000000
    9  C  1  X    0.000000  -0.000000   0.000000  -0.193008   0.000000
   10  C  1  Y    0.000000   0.190405   0.000000   0.000000  -0.040789
   11  C  1  Z   -0.051314  -0.000000  -0.174192   0.000000   0.000000
   12  C  1  X    0.000000  -0.000000   0.000000  -1.048992   0.000000
   13  C  1  Y    0.000000   0.544987   0.000000   0.000000  -1.517487
   14  C  1  Z    0.002856  -0.000000  -1.104970   0.000000   0.000000
   15  C  1  X    0.000000  -0.000000   0.000000   1.443003   0.000000
   16  C  1  Y    0.000000   1.781811   0.000000   0.000000   3.699779
   17  C  1  Z   -0.716160  -0.000000   1.469865   0.000000   0.000000
   18  C  1 XX   -0.022430  -0.000000  -0.012845   0.000000   0.000000
   19  C  1 YY   -0.024973  -0.000000   0.019562   0.000000   0.000000
   20  C  1 ZZ   -0.025772  -0.000000  -0.012094   0.000000   0.000000
   21  C  1 XY    0.000000  -0.000000   0.000000   0.000000   0.000000
   22  C  1 XZ    0.000000  -0.000000   0.000000  -0.004673   0.000000
   23  C  1 YZ    0.000000  -0.002113   0.000000   0.000000   0.027630
   24  C  1 XX   -0.299702  -0.000000   0.017646   0.000000   0.000000
   25  C  1 YY   -0.307572  -0.000000   0.266297   0.000000   0.000000
   26  C  1 ZZ   -0.297918  -0.000000   0.039538   0.000000   0.000000
   27  C  1 XY    0.000000  -0.000000   0.000000   0.000000   0.000000
   28  C  1 XZ    0.000000  -0.000000   0.000000  -0.015470   0.000000
   29  C  1 YZ    0.000000  -0.053708   0.000000   0.000000   0.270355
   30  C  1 XXX   0.000000  -0.000000   0.000000   0.148788   0.000000
   31  C  1 YYY   0.000000   0.000039   0.000000   0.000000   0.077090
   32  C  1 ZZZ  -0.014881  -0.000000   0.141983   0.000000   0.000000
   33  C  1 XXY   0.000000  -0.018134   0.000000   0.000000   0.073195
   34  C  1 XXZ  -0.004811  -0.000000   0.064830   0.000000   0.000000
   35  C  1 YYX   0.000000  -0.000000   0.000000   0.070300   0.000000
   36  C  1 YYZ  -0.021408  -0.000000   0.040653   0.000000   0.000000
   37  C  1 ZZX   0.000000  -0.000000   0.000000   0.066687   0.000000
   38  C  1 ZZY   0.000000  -0.006443   0.000000   0.000000   0.049447
   39  C  1 XYZ   0.000000  -0.000000   0.000000   0.000000   0.000000
   40  H  2  S   -0.066026   0.063303   0.007495   0.000000   0.045423
   41  H  2  S    0.222371  -0.254156  -0.070295   0.000000  -0.476918
   42  H  2  S   -1.797969   2.961220  -0.032595   0.000000   2.557787
   43  H  2  X    0.000000  -0.000000   0.000000   0.000878   0.000000
   44  H  2  Y    0.007764  -0.011788   0.007982   0.000000   0.013964
   45  H  2  Z   -0.002198  -0.009501   0.006068   0.000000  -0.000696
   46  H  2  X    0.000000  -0.000000   0.000000  -0.002513   0.000000
   47  H  2  Y   -0.034490   0.121258  -0.133508   0.000000  -0.242005
   48  H  2  Z   -0.002205   0.044716  -0.065037   0.000000  -0.102937
   49  H  2 XX   -0.030750   0.045113  -0.016453   0.000000  -0.008121
   50  H  2 YY   -0.040369   0.058879  -0.023091   0.000000  -0.013915
   51  H  2 ZZ   -0.031307   0.047639  -0.020018   0.000000  -0.008467
   52  H  2 XY    0.000000  -0.000000   0.000000  -0.003652   0.000000
   53  H  2 XZ    0.000000  -0.000000   0.000000  -0.001572   0.000000
   54  H  2 YZ   -0.004369   0.006390  -0.005731   0.000000  -0.005129
   55  H  3  S   -0.066026  -0.063303   0.007495   0.000000  -0.045423
   56  H  3  S    0.222371   0.254156  -0.070295   0.000000   0.476918
   57  H  3  S   -1.797969  -2.961220  -0.032595   0.000000  -2.557787
   58  H  3  X    0.000000  -0.000000   0.000000   0.000878   0.000000
   59  H  3  Y   -0.007764  -0.011788  -0.007982   0.000000   0.013964
   60  H  3  Z   -0.002198   0.009501   0.006068   0.000000   0.000696
   61  H  3  X    0.000000  -0.000000   0.000000  -0.002513   0.000000
   62  H  3  Y    0.034490   0.121258   0.133508   0.000000  -0.242005
   63  H  3  Z   -0.002205  -0.044716  -0.065037   0.000000   0.102937
   64  H  3 XX   -0.030750  -0.045113  -0.016453   0.000000   0.008121
   65  H  3 YY   -0.040369  -0.058879  -0.023091   0.000000   0.013915
   66  H  3 ZZ   -0.031307  -0.047639  -0.020018   0.000000   0.008467
   67  H  3 XY    0.000000  -0.000000   0.000000   0.003652   0.000000
   68  H  3 XZ    0.000000  -0.000000   0.000000  -0.001572   0.000000
   69  H  3 YZ    0.004369   0.006390   0.005731   0.000000  -0.005129

                     11         12         13         14         15
                    0.3479     0.5315     0.6293     0.6824     0.7325
                     A1         A1         B2         A2         A1  
    1  C  1  S    0.020305   0.080928   0.000000  -0.000000  -0.000425
    2  C  1  S   -0.009986   0.094182   0.000000  -0.000000   0.001572
    3  C  1  S   -0.463975  -0.643301   0.000000  -0.000000  -0.005164
    4  C  1  S   -0.982210  -1.695261   0.000000  -0.000000   0.459917
    5  C  1  S    5.737292   7.961560   0.000000  -0.000000  -0.421250
    6  C  1  X    0.000000  -0.000000   0.000000  -0.000000   0.000000
    7  C  1  Y    0.000000  -0.000000  -0.143246  -0.000000   0.000000
    8  C  1  Z   -0.056139   0.056076   0.000000  -0.000000   0.014805
    9  C  1  X    0.000000  -0.000000   0.000000  -0.000000   0.000000
   10  C  1  Y    0.000000  -0.000000  -0.128922  -0.000000   0.000000
   11  C  1  Z   -0.089374   0.041316   0.000000  -0.000000   0.020061
   12  C  1  X    0.000000  -0.000000   0.000000  -0.000000   0.000000
   13  C  1  Y    0.000000  -0.000000  -1.557970  -0.000000   0.000000
   14  C  1  Z   -0.286698   0.424326   0.000000  -0.000000  -0.026833
   15  C  1  X    0.000000  -0.000000   0.000000  -0.000000   0.000000
   16  C  1  Y    0.000000  -0.000000   2.856626  -0.000000   0.000000
   17  C  1  Z   -0.321999  -0.945971   0.000000  -0.000000   0.159782
   18  C  1 XX   -0.128679  -0.216462   0.000000  -0.000000   0.002223
   19  C  1 YY   -0.196941  -0.113927   0.000000  -0.000000   0.007732
   20  C  1 ZZ   -0.146599  -0.192909   0.000000  -0.000000   0.004285
   21  C  1 XY    0.000000  -0.000000   0.000000   0.010704   0.000000
   22  C  1 XZ    0.000000  -0.000000   0.000000  -0.000000   0.000000
   23  C  1 YZ    0.000000  -0.000000  -0.065005  -0.000000   0.000000
   24  C  1 XX   -1.003091  -1.617370   0.000000  -0.000000  -0.605144
   25  C  1 YY   -1.203613  -1.288867   0.000000  -0.000000   0.274746
   26  C  1 ZZ   -1.099886  -1.493210   0.000000  -0.000000   0.866313
   27  C  1 XY    0.000000  -0.000000   0.000000   0.501118   0.000000
   28  C  1 XZ    0.000000  -0.000000   0.000000  -0.000000   0.000000
   29  C  1 YZ    0.000000  -0.000000  -0.145470  -0.000000   0.000000
   30  C  1 XXX   0.000000  -0.000000   0.000000  -0.000000   0.000000
   31  C  1 YYY   0.000000  -0.000000   0.144068  -0.000000   0.000000
   32  C  1 ZZZ   0.030508  -0.033702   0.000000  -0.000000   0.007466
   33  C  1 XXY   0.000000  -0.000000   0.028258  -0.000000   0.000000
   34  C  1 XXZ   0.011749  -0.011407   0.000000  -0.000000  -0.000646
   35  C  1 YYX   0.000000  -0.000000   0.000000  -0.000000   0.000000
   36  C  1 YYZ   0.032843  -0.064329   0.000000  -0.000000  -0.027661
   37  C  1 ZZX   0.000000  -0.000000   0.000000  -0.000000   0.000000
   38  C  1 ZZY   0.000000  -0.000000   0.026770  -0.000000   0.000000
   39  C  1 XYZ   0.000000  -0.000000   0.000000   0.014536   0.000000
   40  H  2  S   -0.007725   0.003394   0.059537  -0.000000  -0.002834
   41  H  2  S   -0.717335   0.884121  -1.779811  -0.000000  -0.282401
   42  H  2  S   -0.767083  -2.314108   3.324848  -0.000000   0.083216
   43  H  2  X    0.000000  -0.000000   0.000000   0.036754   0.000000
   44  H  2  Y   -0.011623  -0.021357   0.017096  -0.000000  -0.013596
   45  H  2  Z   -0.004043  -0.010648   0.003913  -0.000000   0.023705
   46  H  2  X    0.000000  -0.000000   0.000000  -0.422660   0.000000
   47  H  2  Y    0.121240  -0.185653   0.054279  -0.000000  -0.041712
   48  H  2  Z   -0.015209  -0.028816   0.175857  -0.000000  -0.335221
   49  H  2 XX    0.063550  -0.054068   0.099689  -0.000000  -0.001170
   50  H  2 YY    0.064405  -0.093021   0.126380  -0.000000  -0.018386
   51  H  2 ZZ    0.060311  -0.057071   0.112820  -0.000000  -0.000327
   52  H  2 XY    0.000000  -0.000000   0.000000   0.006350   0.000000
   53  H  2 XZ    0.000000  -0.000000   0.000000   0.004288   0.000000
   54  H  2 YZ   -0.002862  -0.015868   0.018681  -0.000000  -0.000384
   55  H  3  S   -0.007725   0.003394  -0.059537  -0.000000  -0.002834
   56  H  3  S   -0.717335   0.884121   1.779811  -0.000000  -0.282401
   57  H  3  S   -0.767083  -2.314108  -3.324848  -0.000000   0.083216
   58  H  3  X    0.000000  -0.000000   0.000000  -0.036754   0.000000
   59  H  3  Y    0.011623   0.021357   0.017096  -0.000000   0.013596
   60  H  3  Z   -0.004043  -0.010648  -0.003913  -0.000000   0.023705
   61  H  3  X    0.000000  -0.000000   0.000000   0.422660   0.000000
   62  H  3  Y   -0.121240   0.185653   0.054279  -0.000000   0.041712
   63  H  3  Z   -0.015209  -0.028816  -0.175857  -0.000000  -0.335221
   64  H  3 XX    0.063550  -0.054068  -0.099689  -0.000000  -0.001170
   65  H  3 YY    0.064405  -0.093021  -0.126380  -0.000000  -0.018386
   66  H  3 ZZ    0.060311  -0.057071  -0.112820  -0.000000  -0.000327
   67  H  3 XY    0.000000  -0.000000   0.000000   0.006350   0.000000
   68  H  3 XZ    0.000000  -0.000000   0.000000  -0.004288   0.000000
   69  H  3 YZ    0.002862   0.015868   0.018681  -0.000000   0.000384

                     16         17         18         19         20
                    0.7392     0.9302     1.0174     1.0954     1.1124
                     B1         B2         A1         B1         B2  
    1  C  1  S    0.000000  -0.000000  -0.006860  -0.000000   0.000000
    2  C  1  S    0.000000  -0.000000  -0.022469  -0.000000   0.000000
    3  C  1  S    0.000000  -0.000000  -0.167824  -0.000000   0.000000
    4  C  1  S    0.000000  -0.000000  -0.369934  -0.000000   0.000000
    5  C  1  S    0.000000  -0.000000   2.125203  -0.000000   0.000000
    6  C  1  X    0.010672  -0.000000   0.000000  -0.320100   0.000000
    7  C  1  Y    0.000000  -0.151011   0.000000  -0.000000  -0.182086
    8  C  1  Z    0.000000  -0.000000  -0.185285  -0.000000   0.000000
    9  C  1  X    0.022996  -0.000000   0.000000  -0.584065   0.000000
   10  C  1  Y    0.000000  -0.115752   0.000000  -0.000000  -0.274569
   11  C  1  Z    0.000000  -0.000000  -0.290132  -0.000000   0.000000
   12  C  1  X    0.132578  -0.000000   0.000000   1.496005   0.000000
   13  C  1  Y    0.000000   2.365401   0.000000  -0.000000   5.535373
   14  C  1  Z    0.000000  -0.000000   0.600059  -0.000000   0.000000
   15  C  1  X    0.082187  -0.000000   0.000000  -0.896517   0.000000
   16  C  1  Y    0.000000  -1.464029   0.000000  -0.000000  -1.312779
   17  C  1  Z    0.000000  -0.000000  -0.797993  -0.000000   0.000000
   18  C  1 XX    0.000000  -0.000000  -0.041621  -0.000000   0.000000
   19  C  1 YY    0.000000  -0.000000  -0.060070  -0.000000   0.000000
   20  C  1 ZZ    0.000000  -0.000000  -0.062921  -0.000000   0.000000
   21  C  1 XY    0.000000  -0.000000   0.000000  -0.000000   0.000000
   22  C  1 XZ   -0.001494  -0.000000   0.000000  -0.012920   0.000000
   23  C  1 YZ    0.000000  -0.018317   0.000000  -0.000000  -0.009858
   24  C  1 XX    0.000000  -0.000000  -1.120789  -0.000000   0.000000
   25  C  1 YY    0.000000  -0.000000   0.240758  -0.000000   0.000000
   26  C  1 ZZ    0.000000  -0.000000  -0.209607  -0.000000   0.000000
   27  C  1 XY    0.000000  -0.000000   0.000000  -0.000000   0.000000
   28  C  1 XZ    0.874950  -0.000000   0.000000   0.435485   0.000000
   29  C  1 YZ    0.000000  -0.404989   0.000000  -0.000000  -0.429844
   30  C  1 XXX  -0.003483  -0.000000   0.000000  -0.434863   0.000000
   31  C  1 YYY   0.000000  -0.099417   0.000000  -0.000000  -0.137475
   32  C  1 ZZZ   0.000000  -0.000000  -0.227711  -0.000000   0.000000
   33  C  1 XXY   0.000000  -0.094481   0.000000  -0.000000  -0.218994
   34  C  1 XXZ   0.000000  -0.000000  -0.096906  -0.000000   0.000000
   35  C  1 YYX   0.003623  -0.000000   0.000000  -0.256691   0.000000
   36  C  1 YYZ   0.000000  -0.000000  -0.152150  -0.000000   0.000000
   37  C  1 ZZX   0.003494  -0.000000   0.000000  -0.203925   0.000000
   38  C  1 ZZY   0.000000   0.013340   0.000000  -0.000000  -0.217851
   39  C  1 XYZ   0.000000  -0.000000   0.000000  -0.000000   0.000000
   40  H  2  S    0.000000   0.047761   0.068955  -0.000000   0.069688
   41  H  2  S    0.000000   0.980437  -0.907927  -0.000000   2.910619
   42  H  2  S    0.000000  -0.554113  -0.122971  -0.000000  -0.522797
   43  H  2  X    0.021366  -0.000000   0.000000  -0.040650   0.000000
   44  H  2  Y    0.000000  -0.037134  -0.033646  -0.000000   0.002625
   45  H  2  Z    0.000000   0.025571  -0.049750  -0.000000  -0.044588
   46  H  2  X   -0.231446  -0.000000   0.000000   0.603987   0.000000
   47  H  2  Y    0.000000   1.142162   0.124541  -0.000000   0.817414
   48  H  2  Z    0.000000  -0.237251   0.527264  -0.000000   1.115802
   49  H  2 XX    0.000000   0.039920   0.047088  -0.000000   0.009011
   50  H  2 YY    0.000000   0.095777   0.050554  -0.000000   0.038482
   51  H  2 ZZ    0.000000   0.028744   0.055390  -0.000000   0.045582
   52  H  2 XY    0.007970  -0.000000   0.000000   0.020863   0.000000
   53  H  2 XZ    0.001402  -0.000000   0.000000   0.013261   0.000000
   54  H  2 YZ    0.000000   0.010145   0.004777  -0.000000   0.055988
   55  H  3  S    0.000000  -0.047761   0.068955  -0.000000  -0.069688
   56  H  3  S    0.000000  -0.980437  -0.907927  -0.000000  -2.910619
   57  H  3  S    0.000000   0.554113  -0.122971  -0.000000   0.522797
   58  H  3  X    0.021366  -0.000000   0.000000  -0.040650   0.000000
   59  H  3  Y    0.000000  -0.037134   0.033646  -0.000000   0.002625
   60  H  3  Z    0.000000  -0.025571  -0.049750  -0.000000   0.044588
   61  H  3  X   -0.231446  -0.000000   0.000000   0.603987   0.000000
   62  H  3  Y    0.000000   1.142162  -0.124541  -0.000000   0.817414
   63  H  3  Z    0.000000   0.237251   0.527264  -0.000000  -1.115802
   64  H  3 XX    0.000000  -0.039920   0.047088  -0.000000  -0.009011
   65  H  3 YY    0.000000  -0.095777   0.050554  -0.000000  -0.038482
   66  H  3 ZZ    0.000000  -0.028744   0.055390  -0.000000  -0.045582
   67  H  3 XY   -0.007970  -0.000000   0.000000  -0.020863   0.000000
   68  H  3 XZ    0.001402  -0.000000   0.000000   0.013261   0.000000
   69  H  3 YZ    0.000000   0.010145  -0.004777  -0.000000   0.055988

                     21         22         23         24         25
                    1.1318     1.1732     1.2968     1.2998     1.3019
                     A1         B1         A2         A1         B2  
    1  C  1  S    0.023794  -0.000000  -0.000000  -0.052089   0.000000
    2  C  1  S    0.074563  -0.000000  -0.000000  -0.206986   0.000000
    3  C  1  S    0.401269  -0.000000  -0.000000  -1.101228   0.000000
    4  C  1  S   -2.428909  -0.000000  -0.000000  -0.159374   0.000000
    5  C  1  S   -2.137316  -0.000000  -0.000000   5.469526   0.000000
    6  C  1  X   -0.000000  -0.209747  -0.000000   0.000000   0.000000
    7  C  1  Y   -0.000000  -0.000000  -0.000000   0.000000  -0.107915
    8  C  1  Z   -0.304156  -0.000000  -0.000000   0.003693   0.000000
    9  C  1  X   -0.000000  -0.463559  -0.000000   0.000000   0.000000
   10  C  1  Y   -0.000000  -0.000000  -0.000000   0.000000  -0.271925
   11  C  1  Z   -0.588855  -0.000000  -0.000000   0.003414   0.000000
   12  C  1  X   -0.000000   2.479667  -0.000000   0.000000   0.000000
   13  C  1  Y   -0.000000  -0.000000  -0.000000   0.000000   8.484720
   14  C  1  Z    3.630139  -0.000000  -0.000000   1.691960   0.000000
   15  C  1  X   -0.000000  -0.500326  -0.000000   0.000000   0.000000
   16  C  1  Y   -0.000000  -0.000000  -0.000000   0.000000  -1.502834
   17  C  1  Z   -0.741829  -0.000000  -0.000000  -0.387897   0.000000
   18  C  1 XX    0.123962  -0.000000  -0.000000  -0.399365   0.000000
   19  C  1 YY    0.112196  -0.000000  -0.000000  -0.381429   0.000000
   20  C  1 ZZ    0.117451  -0.000000  -0.000000  -0.380008   0.000000
   21  C  1 XY   -0.000000  -0.000000  -0.020485   0.000000   0.000000
   22  C  1 XZ   -0.000000   0.008748  -0.000000   0.000000   0.000000
   23  C  1 YZ   -0.000000  -0.000000  -0.000000   0.000000   0.021342
   24  C  1 XX    0.943294  -0.000000  -0.000000  -2.159033   0.000000
   25  C  1 YY   -1.733371  -0.000000  -0.000000  -2.582053   0.000000
   26  C  1 ZZ    0.287772  -0.000000  -0.000000  -3.050851   0.000000
   27  C  1 XY   -0.000000  -0.000000   1.775403   0.000000   0.000000
   28  C  1 XZ   -0.000000  -0.620989  -0.000000   0.000000   0.000000
   29  C  1 YZ   -0.000000  -0.000000  -0.000000   0.000000  -3.680096
   30  C  1 XXX  -0.000000  -0.424706  -0.000000   0.000000   0.000000
   31  C  1 YYY  -0.000000  -0.000000  -0.000000   0.000000  -0.068382
   32  C  1 ZZZ  -0.523782  -0.000000  -0.000000  -0.084838   0.000000
   33  C  1 XXY  -0.000000  -0.000000  -0.000000   0.000000  -0.189403
   34  C  1 XXZ  -0.244340  -0.000000  -0.000000  -0.046592   0.000000
   35  C  1 YYX  -0.000000  -0.091052  -0.000000   0.000000   0.000000
   36  C  1 YYZ  -0.068415  -0.000000  -0.000000   0.040923   0.000000
   37  C  1 ZZX  -0.000000  -0.175381  -0.000000   0.000000   0.000000
   38  C  1 ZZY  -0.000000  -0.000000  -0.000000   0.000000   0.014074
   39  C  1 XYZ  -0.000000  -0.000000  -0.060458   0.000000   0.000000
   40  H  2  S   -0.028247  -0.000000  -0.000000   0.268648  -0.111926
   41  H  2  S    2.896847  -0.000000  -0.000000   0.950372   6.889048
   42  H  2  S    0.091107  -0.000000  -0.000000  -0.509291  -1.381300
   43  H  2  X   -0.000000   0.059865  -0.077434   0.000000   0.000000
   44  H  2  Y    0.024039  -0.000000  -0.000000  -0.047176   0.013304
   45  H  2  Z    0.020724  -0.000000  -0.000000   0.041136   0.037296
   46  H  2  X   -0.000000  -1.000219   1.332788   0.000000   0.000000
   47  H  2  Y    0.803690  -0.000000  -0.000000   0.960637   1.931829
   48  H  2  Z    0.199955  -0.000000  -0.000000  -0.383375  -0.046758
   49  H  2 XX   -0.030659  -0.000000  -0.000000   0.116845  -0.084280
   50  H  2 YY    0.011546  -0.000000  -0.000000   0.154296   0.039124
   51  H  2 ZZ   -0.026432  -0.000000  -0.000000   0.107267  -0.093226
   52  H  2 XY   -0.000000  -0.031618   0.070934   0.000000   0.000000
   53  H  2 XZ   -0.000000  -0.023149   0.011707   0.000000   0.000000
   54  H  2 YZ    0.025012  -0.000000  -0.000000   0.004007  -0.022179
   55  H  3  S   -0.028247  -0.000000  -0.000000   0.268648   0.111926
   56  H  3  S    2.896847  -0.000000  -0.000000   0.950372  -6.889048
   57  H  3  S    0.091107  -0.000000  -0.000000  -0.509291   1.381300
   58  H  3  X   -0.000000   0.059865   0.077434   0.000000   0.000000
   59  H  3  Y   -0.024039  -0.000000  -0.000000   0.047176   0.013304
   60  H  3  Z    0.020724  -0.000000  -0.000000   0.041136  -0.037296
   61  H  3  X   -0.000000  -1.000219  -1.332788   0.000000   0.000000
   62  H  3  Y   -0.803690  -0.000000  -0.000000  -0.960637   1.931829
   63  H  3  Z    0.199955  -0.000000  -0.000000  -0.383375   0.046758
   64  H  3 XX   -0.030659  -0.000000  -0.000000   0.116845   0.084280
   65  H  3 YY    0.011546  -0.000000  -0.000000   0.154296  -0.039124
   66  H  3 ZZ   -0.026432  -0.000000  -0.000000   0.107267   0.093226
   67  H  3 XY   -0.000000   0.031618   0.070934   0.000000   0.000000
   68  H  3 XZ   -0.000000  -0.023149  -0.011707   0.000000   0.000000
   69  H  3 YZ   -0.025012  -0.000000  -0.000000  -0.004007  -0.022179

                     26         27         28         29         30
                    1.4722     1.6301     1.6429     2.1003     2.1231
                     A1         B2         A1         B2         A1  
    1  C  1  S   -0.077557   0.000000  -0.028046   0.000000  -0.029203
    2  C  1  S   -0.245142   0.000000  -0.039032   0.000000  -0.034979
    3  C  1  S   -1.331018   0.000000  -0.497878   0.000000   0.697746
    4  C  1  S    1.554485   0.000000   7.810672   0.000000 -10.079538
    5  C  1  S    7.085217   0.000000   1.164102   0.000000   0.624510
    6  C  1  X   -0.000000   0.000000   0.000000   0.000000  -0.000000
    7  C  1  Y   -0.000000   0.286850   0.000000   0.007665  -0.000000
    8  C  1  Z   -0.056100   0.000000  -0.133551   0.000000   0.045554
    9  C  1  X   -0.000000   0.000000   0.000000   0.000000  -0.000000
   10  C  1  Y   -0.000000   1.348630   0.000000   0.323888  -0.000000
   11  C  1  Z   -0.204020   0.000000  -0.583969   0.000000   0.324138
   12  C  1  X   -0.000000   0.000000   0.000000   0.000000  -0.000000
   13  C  1  Y   -0.000000   7.455597   0.000000   9.051372  -0.000000
   14  C  1  Z   -0.165845   0.000000  -2.413303   0.000000   4.270860
   15  C  1  X   -0.000000   0.000000   0.000000   0.000000  -0.000000
   16  C  1  Y   -0.000000   0.532774   0.000000  -1.418892  -0.000000
   17  C  1  Z   -0.557049   0.000000   0.066159   0.000000  -0.247017
   18  C  1 XX   -0.412864   0.000000  -0.064048   0.000000   0.251393
   19  C  1 YY   -0.324124   0.000000   0.049291   0.000000   0.008973
   20  C  1 ZZ   -0.401076   0.000000  -0.059141   0.000000   0.195283
   21  C  1 XY   -0.000000   0.000000   0.000000   0.000000  -0.000000
   22  C  1 XZ   -0.000000   0.000000   0.000000   0.000000  -0.000000
   23  C  1 YZ   -0.000000  -0.090574   0.000000  -0.147452  -0.000000
   24  C  1 XX   -2.355808   0.000000  -0.205474   0.000000  -0.735294
   25  C  1 YY   -3.625076   0.000000   6.958520   0.000000  -6.100668
   26  C  1 ZZ   -1.720629   0.000000   0.074874   0.000000  -1.809587
   27  C  1 XY   -0.000000   0.000000   0.000000   0.000000  -0.000000
   28  C  1 XZ   -0.000000   0.000000   0.000000   0.000000  -0.000000
   29  C  1 YZ   -0.000000  -3.161259   0.000000  -2.370564  -0.000000
   30  C  1 XXX  -0.000000   0.000000   0.000000   0.000000  -0.000000
   31  C  1 YYY  -0.000000   0.876125   0.000000   0.855766  -0.000000
   32  C  1 ZZZ  -0.060842   0.000000  -0.193814   0.000000   0.113016
   33  C  1 XXY  -0.000000   0.113826   0.000000   0.062117  -0.000000
   34  C  1 XXZ  -0.025623   0.000000  -0.047961   0.000000   0.016521
   35  C  1 YYX  -0.000000   0.000000   0.000000   0.000000  -0.000000
   36  C  1 YYZ  -0.076393   0.000000  -0.445553   0.000000   0.487891
   37  C  1 ZZX  -0.000000   0.000000   0.000000   0.000000  -0.000000
   38  C  1 ZZY  -0.000000   0.278214   0.000000   0.192339  -0.000000
   39  C  1 XYZ  -0.000000   0.000000   0.000000   0.000000  -0.000000
   40  H  2  S   -0.230795   0.269021  -0.373690  -1.264520  -1.139058
   41  H  2  S    1.202770   6.786311  -6.981503  10.362028  10.785831
   42  H  2  S   -1.527915   1.136731  -0.433004  -1.749972  -0.584579
   43  H  2  X   -0.000000   0.000000   0.000000   0.000000  -0.000000
   44  H  2  Y    0.031137   0.004613  -0.046063   0.033648   0.021880
   45  H  2  Z   -0.042164   0.004159   0.038464   0.027073   0.003714
   46  H  2  X   -0.000000   0.000000   0.000000   0.000000  -0.000000
   47  H  2  Y   -0.785936   3.529095  -2.792367   3.112079   3.839957
   48  H  2  Z    0.572143   1.268722  -2.401085   1.380706   1.586821
   49  H  2 XX   -0.068125   0.020322  -0.116687  -0.651181  -0.563240
   50  H  2 YY   -0.153099   0.312866  -0.305889  -0.500189  -0.411373
   51  H  2 ZZ   -0.066976   0.095877  -0.143865  -0.546943  -0.596054
   52  H  2 XY   -0.000000   0.000000   0.000000   0.000000  -0.000000
   53  H  2 XZ   -0.000000   0.000000   0.000000   0.000000  -0.000000
   54  H  2 YZ   -0.018838   0.110181  -0.129988   0.094983   0.082315
   55  H  3  S   -0.230795  -0.269021  -0.373690   1.264520  -1.139058
   56  H  3  S    1.202770  -6.786311  -6.981503 -10.362028  10.785831
   57  H  3  S   -1.527915  -1.136731  -0.433004   1.749972  -0.584579
   58  H  3  X   -0.000000   0.000000   0.000000   0.000000  -0.000000
   59  H  3  Y   -0.031137   0.004613   0.046063   0.033648  -0.021880
   60  H  3  Z   -0.042164  -0.004159   0.038464  -0.027073   0.003714
   61  H  3  X   -0.000000   0.000000   0.000000   0.000000  -0.000000
   62  H  3  Y    0.785936   3.529095   2.792367   3.112079  -3.839957
   63  H  3  Z    0.572143  -1.268722  -2.401085  -1.380706   1.586821
   64  H  3 XX   -0.068125  -0.020322  -0.116687   0.651181  -0.563240
   65  H  3 YY   -0.153099  -0.312866  -0.305889   0.500189  -0.411373
   66  H  3 ZZ   -0.066976  -0.095877  -0.143865   0.546943  -0.596054
   67  H  3 XY   -0.000000   0.000000   0.000000   0.000000  -0.000000
   68  H  3 XZ   -0.000000   0.000000   0.000000   0.000000  -0.000000
   69  H  3 YZ    0.018838   0.110181   0.129988   0.094983  -0.082315

                     31         32         33         34         35
                    2.8392     2.8592     2.8659     2.9605     3.0433
                     B1         A2         A1         B2         B1  
    1  C  1  S    0.000000   0.000000  -0.000733   0.000000  -0.000000
    2  C  1  S    0.000000   0.000000  -0.001042   0.000000  -0.000000
    3  C  1  S    0.000000   0.000000  -0.038400   0.000000  -0.000000
    4  C  1  S    0.000000   0.000000  -0.799966   0.000000  -0.000000
    5  C  1  S    0.000000   0.000000   0.305846   0.000000  -0.000000
    6  C  1  X    0.003448   0.000000   0.000000   0.000000  -0.094003
    7  C  1  Y    0.000000   0.000000   0.000000   0.050760  -0.000000
    8  C  1  Z    0.000000   0.000000   0.026151   0.000000  -0.000000
    9  C  1  X    0.019801   0.000000   0.000000   0.000000  -0.370013
   10  C  1  Y    0.000000   0.000000   0.000000   0.291522  -0.000000
   11  C  1  Z    0.000000   0.000000   0.122089   0.000000  -0.000000
   12  C  1  X   -0.084513   0.000000   0.000000   0.000000  -0.348525
   13  C  1  Y    0.000000   0.000000   0.000000   1.305792  -0.000000
   14  C  1  Z    0.000000   0.000000   0.508230   0.000000  -0.000000
   15  C  1  X   -0.007497   0.000000   0.000000   0.000000   0.220805
   16  C  1  Y    0.000000   0.000000   0.000000  -0.992443  -0.000000
   17  C  1  Z    0.000000   0.000000  -0.115409   0.000000  -0.000000
   18  C  1 XX    0.000000   0.000000  -0.041754   0.000000  -0.000000
   19  C  1 YY    0.000000   0.000000  -0.095469   0.000000  -0.000000
   20  C  1 ZZ    0.000000   0.000000   0.117941   0.000000  -0.000000
   21  C  1 XY    0.000000   0.593672   0.000000   0.000000  -0.000000
   22  C  1 XZ    0.019030   0.000000   0.000000   0.000000  -0.683852
   23  C  1 YZ    0.000000   0.000000   0.000000  -0.559292  -0.000000
   24  C  1 XX    0.000000   0.000000  -0.062963   0.000000  -0.000000
   25  C  1 YY    0.000000   0.000000  -0.776807   0.000000  -0.000000
   26  C  1 ZZ    0.000000   0.000000  -0.290893   0.000000  -0.000000
   27  C  1 XY    0.000000  -0.253673   0.000000   0.000000  -0.000000
   28  C  1 XZ    0.100401   0.000000   0.000000   0.000000   0.255914
   29  C  1 YZ    0.000000   0.000000   0.000000   0.205194  -0.000000
   30  C  1 XXX  -0.518180   0.000000   0.000000   0.000000   0.079574
   31  C  1 YYY   0.000000   0.000000   0.000000  -1.008648  -0.000000
   32  C  1 ZZZ   0.000000   0.000000  -0.881943   0.000000  -0.000000
   33  C  1 XXY   0.000000   0.000000   0.000000  -0.488666  -0.000000
   34  C  1 XXZ   0.000000   0.000000   0.878079   0.000000  -0.000000
   35  C  1 YYX  -0.288726   0.000000   0.000000   0.000000   0.801598
   36  C  1 YYZ   0.000000   0.000000  -0.012607   0.000000  -0.000000
   37  C  1 ZZX   0.968040   0.000000   0.000000   0.000000   0.358881
   38  C  1 ZZY   0.000000   0.000000   0.000000   0.167412  -0.000000
   39  C  1 XYZ   0.000000  -0.491325   0.000000   0.000000  -0.000000
   40  H  2  S    0.000000   0.000000  -0.034765  -0.067238  -0.000000
   41  H  2  S    0.000000   0.000000   0.910798   0.415572  -0.000000
   42  H  2  S    0.000000   0.000000  -0.071645  -0.678006  -0.000000
   43  H  2  X   -0.013308  -0.236748   0.000000   0.000000   0.244616
   44  H  2  Y    0.000000   0.000000  -0.011579  -0.295418  -0.000000
   45  H  2  Z    0.000000   0.000000  -0.063376   0.117045  -0.000000
   46  H  2  X    0.088631   0.205202   0.000000   0.000000  -0.354384
   47  H  2  Y    0.000000   0.000000   0.304968   0.324482  -0.000000
   48  H  2  Z    0.000000   0.000000   0.274758  -0.152013  -0.000000
   49  H  2 XX    0.000000   0.000000  -0.170885   0.094665  -0.000000
   50  H  2 YY    0.000000   0.000000   0.014423  -0.163793  -0.000000
   51  H  2 ZZ    0.000000   0.000000   0.095473  -0.013100  -0.000000
   52  H  2 XY    0.075217  -0.228763   0.000000   0.000000   0.082402
   53  H  2 XZ   -0.190160   0.062923   0.000000   0.000000   0.064103
   54  H  2 YZ    0.000000   0.000000  -0.082415   0.103648  -0.000000
   55  H  3  S    0.000000   0.000000  -0.034765   0.067238  -0.000000
   56  H  3  S    0.000000   0.000000   0.910798  -0.415572  -0.000000
   57  H  3  S    0.000000   0.000000  -0.071645   0.678006  -0.000000
   58  H  3  X   -0.013308   0.236748   0.000000   0.000000   0.244616
   59  H  3  Y    0.000000   0.000000   0.011579  -0.295418  -0.000000
   60  H  3  Z    0.000000   0.000000  -0.063376  -0.117045  -0.000000
   61  H  3  X    0.088631  -0.205202   0.000000   0.000000  -0.354384
   62  H  3  Y    0.000000   0.000000  -0.304968   0.324482  -0.000000
   63  H  3  Z    0.000000   0.000000   0.274758   0.152013  -0.000000
   64  H  3 XX    0.000000   0.000000  -0.170885  -0.094665  -0.000000
   65  H  3 YY    0.000000   0.000000   0.014423   0.163793  -0.000000
   66  H  3 ZZ    0.000000   0.000000   0.095473   0.013100  -0.000000
   67  H  3 XY   -0.075217  -0.228763   0.000000   0.000000  -0.082402
   68  H  3 XZ   -0.190160  -0.062923   0.000000   0.000000   0.064103
   69  H  3 YZ    0.000000   0.000000   0.082415   0.103648  -0.000000

                     36         37         38         39         40
                    3.0649     3.1566     3.1794     3.1843     3.2243
                     A1         A1         B1         A2         A1  
    1  C  1  S    0.016959  -0.008243   0.000000   0.000000   0.063665
    2  C  1  S   -0.005645   0.002895   0.000000   0.000000   0.006229
    3  C  1  S   -1.075919   0.536742   0.000000   0.000000  -1.868001
    4  C  1  S    2.866701  -0.771127   0.000000   0.000000   2.627838
    5  C  1  S    1.931464  -0.925656   0.000000   0.000000   2.232841
    6  C  1  X   -0.000000   0.000000   0.210291   0.000000   0.000000
    7  C  1  Y   -0.000000   0.000000   0.000000   0.000000   0.000000
    8  C  1  Z    0.090578  -0.049832   0.000000   0.000000  -0.208085
    9  C  1  X   -0.000000   0.000000   0.886829   0.000000   0.000000
   10  C  1  Y   -0.000000   0.000000   0.000000   0.000000   0.000000
   11  C  1  Z    0.372061  -0.256496   0.000000   0.000000  -0.790705
   12  C  1  X   -0.000000   0.000000   1.738254   0.000000   0.000000
   13  C  1  Y   -0.000000   0.000000   0.000000   0.000000   0.000000
   14  C  1  Z    0.402586  -0.488915   0.000000   0.000000  -1.654424
   15  C  1  X   -0.000000   0.000000  -0.508927   0.000000   0.000000
   16  C  1  Y   -0.000000   0.000000   0.000000   0.000000   0.000000
   17  C  1  Z   -0.409583   0.233061   0.000000   0.000000   0.323970
   18  C  1 XX   -0.117142  -0.822078   0.000000   0.000000  -0.233253
   19  C  1 YY   -0.912939   0.184583   0.000000   0.000000  -0.904111
   20  C  1 ZZ    0.258390   1.020664   0.000000   0.000000  -0.496880
   21  C  1 XY   -0.000000   0.000000   0.000000  -0.716582   0.000000
   22  C  1 XZ   -0.000000   0.000000  -0.574950   0.000000   0.000000
   23  C  1 YZ   -0.000000   0.000000   0.000000   0.000000   0.000000
   24  C  1 XX   -0.988240   0.972314   0.000000   0.000000  -1.489802
   25  C  1 YY    1.598343   0.414045   0.000000   0.000000  -0.674032
   26  C  1 ZZ   -1.080886  -0.227901   0.000000   0.000000  -1.253400
   27  C  1 XY   -0.000000   0.000000   0.000000   1.227100   0.000000
   28  C  1 XZ   -0.000000   0.000000   0.377528   0.000000   0.000000
   29  C  1 YZ   -0.000000   0.000000   0.000000   0.000000   0.000000
   30  C  1 XXX  -0.000000   0.000000  -1.665818   0.000000   0.000000
   31  C  1 YYY  -0.000000   0.000000   0.000000   0.000000   0.000000
   32  C  1 ZZZ  -0.620194   0.619839   0.000000   0.000000   1.704708
   33  C  1 XXY  -0.000000   0.000000   0.000000   0.000000   0.000000
   34  C  1 XXZ  -0.485060   0.113727   0.000000   0.000000   0.913948
   35  C  1 YYX  -0.000000   0.000000  -0.862948   0.000000   0.000000
   36  C  1 YYZ  -0.839437   0.447399   0.000000   0.000000   0.300654
   37  C  1 ZZX  -0.000000   0.000000  -0.800149   0.000000   0.000000
   38  C  1 ZZY  -0.000000   0.000000   0.000000   0.000000   0.000000
   39  C  1 XYZ  -0.000000   0.000000   0.000000  -0.694703   0.000000
   40  H  2  S   -0.132182   0.063207   0.000000   0.000000  -0.145276
   41  H  2  S   -1.720062  -0.033730   0.000000   0.000000   0.142783
   42  H  2  S   -0.230493   0.137397   0.000000   0.000000  -0.195630
   43  H  2  X   -0.000000   0.000000  -0.026042   0.123758   0.000000
   44  H  2  Y   -0.215797   0.185693   0.000000   0.000000  -0.179071
   45  H  2  Z   -0.339440  -0.027516   0.000000   0.000000  -0.078964
   46  H  2  X   -0.000000   0.000000   0.117099   0.586041   0.000000
   47  H  2  Y   -0.339080   0.000257   0.000000   0.000000   0.276482
   48  H  2  Z   -0.360017  -0.139572   0.000000   0.000000   0.101646
   49  H  2 XX    0.018671  -0.033129   0.000000   0.000000   0.010690
   50  H  2 YY   -0.068017   0.144859   0.000000   0.000000  -0.067649
   51  H  2 ZZ   -0.142205  -0.024199   0.000000   0.000000  -0.127313
   52  H  2 XY   -0.000000   0.000000   0.096743   0.054904   0.000000
   53  H  2 XZ   -0.000000   0.000000   0.006718   0.354595   0.000000
   54  H  2 YZ   -0.119992  -0.063641   0.000000   0.000000  -0.019938
   55  H  3  S   -0.132182   0.063207   0.000000   0.000000  -0.145276
   56  H  3  S   -1.720062  -0.033730   0.000000   0.000000   0.142783
   57  H  3  S   -0.230493   0.137397   0.000000   0.000000  -0.195630
   58  H  3  X   -0.000000   0.000000  -0.026042  -0.123758   0.000000
   59  H  3  Y    0.215797  -0.185693   0.000000   0.000000   0.179071
   60  H  3  Z   -0.339440  -0.027516   0.000000   0.000000  -0.078964
   61  H  3  X   -0.000000   0.000000   0.117099  -0.586041   0.000000
   62  H  3  Y    0.339080  -0.000257   0.000000   0.000000  -0.276482
   63  H  3  Z   -0.360017  -0.139572   0.000000   0.000000   0.101646
   64  H  3 XX    0.018671  -0.033129   0.000000   0.000000   0.010690
   65  H  3 YY   -0.068017   0.144859   0.000000   0.000000  -0.067649
   66  H  3 ZZ   -0.142205  -0.024199   0.000000   0.000000  -0.127313
   67  H  3 XY   -0.000000   0.000000  -0.096743   0.054904   0.000000
   68  H  3 XZ   -0.000000   0.000000   0.006718  -0.354595   0.000000
   69  H  3 YZ    0.119992   0.063641   0.000000   0.000000   0.019938

                     41         42         43         44         45
                    3.2520     3.2732     3.3720     3.4471     3.5533
                     B1         B2         B2         A1         B2  
    1  C  1  S   -0.000000  -0.000000   0.000000   0.188057   0.000000
    2  C  1  S   -0.000000  -0.000000   0.000000   0.053776   0.000000
    3  C  1  S   -0.000000  -0.000000   0.000000  -5.050281   0.000000
    4  C  1  S   -0.000000  -0.000000   0.000000   7.378791   0.000000
    5  C  1  S   -0.000000  -0.000000   0.000000   5.935262   0.000000
    6  C  1  X   -0.087721  -0.000000   0.000000  -0.000000   0.000000
    7  C  1  Y   -0.000000   0.119256   0.138498  -0.000000  -0.222526
    8  C  1  Z   -0.000000  -0.000000   0.000000   0.052547   0.000000
    9  C  1  X   -0.323558  -0.000000   0.000000  -0.000000   0.000000
   10  C  1  Y   -0.000000   0.505650   0.078678  -0.000000   0.762634
   11  C  1  Z   -0.000000  -0.000000   0.000000   0.011287   0.000000
   12  C  1  X   -1.323415  -0.000000   0.000000  -0.000000   0.000000
   13  C  1  Y   -0.000000   2.720622   5.391598  -0.000000   6.129664
   14  C  1  Z   -0.000000  -0.000000   0.000000   1.071243   0.000000
   15  C  1  X    0.188936  -0.000000   0.000000  -0.000000   0.000000
   16  C  1  Y   -0.000000  -0.696645  -0.739772  -0.000000   0.310592
   17  C  1  Z   -0.000000  -0.000000   0.000000  -0.410711   0.000000
   18  C  1 XX   -0.000000  -0.000000   0.000000  -1.665338   0.000000
   19  C  1 YY   -0.000000  -0.000000   0.000000  -1.191514   0.000000
   20  C  1 ZZ   -0.000000  -0.000000   0.000000  -1.457432   0.000000
   21  C  1 XY   -0.000000  -0.000000   0.000000  -0.000000   0.000000
   22  C  1 XZ   -0.663476  -0.000000   0.000000  -0.000000   0.000000
   23  C  1 YZ   -0.000000  -0.214003   0.728283  -0.000000  -0.337242
   24  C  1 XX   -0.000000  -0.000000   0.000000  -2.934745   0.000000
   25  C  1 YY   -0.000000  -0.000000   0.000000  -4.042366   0.000000
   26  C  1 ZZ   -0.000000  -0.000000   0.000000  -3.228742   0.000000
   27  C  1 XY   -0.000000  -0.000000   0.000000  -0.000000   0.000000
   28  C  1 XZ    0.664877  -0.000000   0.000000  -0.000000   0.000000
   29  C  1 YZ   -0.000000   0.088624  -2.654206  -0.000000  -2.725889
   30  C  1 XXX   1.458150  -0.000000   0.000000  -0.000000   0.000000
   31  C  1 YYY  -0.000000  -0.416467  -0.258432  -0.000000   2.466579
   32  C  1 ZZZ  -0.000000  -0.000000   0.000000  -0.511049   0.000000
   33  C  1 XXY  -0.000000  -0.897578  -0.896664  -0.000000  -0.176584
   34  C  1 XXZ  -0.000000  -0.000000   0.000000  -0.325532   0.000000
   35  C  1 YYX  -0.502373  -0.000000   0.000000  -0.000000   0.000000
   36  C  1 YYZ  -0.000000  -0.000000   0.000000   0.183772   0.000000
   37  C  1 ZZX   0.143560  -0.000000   0.000000  -0.000000   0.000000
   38  C  1 ZZY  -0.000000  -1.300113   0.439040  -0.000000   0.646968
   39  C  1 XYZ  -0.000000  -0.000000   0.000000  -0.000000   0.000000
   40  H  2  S   -0.000000  -0.068719  -0.133875  -0.179006   0.277226
   41  H  2  S   -0.000000   0.934635   4.566226   1.452193   5.877375
   42  H  2  S   -0.000000  -0.383309  -0.764702  -0.922843   0.679630
   43  H  2  X   -0.064115  -0.000000   0.000000  -0.000000   0.000000
   44  H  2  Y   -0.000000   0.013150   0.229882   0.014268   0.015015
   45  H  2  Z   -0.000000  -0.228635   0.134840   0.104283  -0.117600
   46  H  2  X    0.528225  -0.000000   0.000000  -0.000000   0.000000
   47  H  2  Y   -0.000000  -0.020610   1.156189   0.026576   2.995576
   48  H  2  Z   -0.000000   0.551137  -0.103241  -0.023612   1.264706
   49  H  2 XX   -0.000000   0.111172   0.124453  -0.068915   0.338327
   50  H  2 YY   -0.000000  -0.059615  -0.072995  -0.187857   0.606111
   51  H  2 ZZ   -0.000000   0.027011  -0.318254   0.025780   0.130191
   52  H  2 XY    0.144992  -0.000000   0.000000  -0.000000   0.000000
   53  H  2 XZ   -0.124306  -0.000000   0.000000  -0.000000   0.000000
   54  H  2 YZ   -0.000000   0.064702  -0.049612  -0.115222   0.454184
   55  H  3  S   -0.000000   0.068719   0.133875  -0.179006  -0.277226
   56  H  3  S   -0.000000  -0.934635  -4.566226   1.452193  -5.877375
   57  H  3  S   -0.000000   0.383309   0.764702  -0.922843  -0.679630
   58  H  3  X   -0.064115  -0.000000   0.000000  -0.000000   0.000000
   59  H  3  Y   -0.000000   0.013150   0.229882  -0.014268   0.015015
   60  H  3  Z   -0.000000   0.228635  -0.134840   0.104283   0.117600
   61  H  3  X    0.528225  -0.000000   0.000000  -0.000000   0.000000
   62  H  3  Y   -0.000000  -0.020610   1.156189  -0.026576   2.995576
   63  H  3  Z   -0.000000  -0.551137   0.103241  -0.023612  -1.264706
   64  H  3 XX   -0.000000  -0.111172  -0.124453  -0.068915  -0.338327
   65  H  3 YY   -0.000000   0.059615   0.072995  -0.187857  -0.606111
   66  H  3 ZZ   -0.000000  -0.027011   0.318254   0.025780  -0.130191
   67  H  3 XY   -0.144992  -0.000000   0.000000  -0.000000   0.000000
   68  H  3 XZ   -0.124306  -0.000000   0.000000  -0.000000   0.000000
   69  H  3 YZ   -0.000000   0.064702  -0.049612   0.115222   0.454184

                     46         47         48         49         50
                    3.5850     3.7796     3.8911     3.9096     3.9198
                     A1         A2         B2         B1         A1  
    1  C  1  S    0.033047   0.000000  -0.000000   0.000000   0.012959
    2  C  1  S    0.088217   0.000000  -0.000000   0.000000  -0.030106
    3  C  1  S   -1.219116   0.000000  -0.000000   0.000000  -0.293340
    4  C  1  S    6.804205   0.000000  -0.000000   0.000000   0.942839
    5  C  1  S    1.436695   0.000000  -0.000000   0.000000   0.007482
    6  C  1  X   -0.000000   0.000000  -0.000000  -0.027192   0.000000
    7  C  1  Y   -0.000000   0.000000  -0.047963   0.000000   0.000000
    8  C  1  Z    0.079074   0.000000  -0.000000   0.000000   0.011841
    9  C  1  X   -0.000000   0.000000  -0.000000  -0.118671   0.000000
   10  C  1  Y   -0.000000   0.000000   0.632230   0.000000   0.000000
   11  C  1  Z   -0.406973   0.000000  -0.000000   0.000000   0.254179
   12  C  1  X   -0.000000   0.000000  -0.000000  -0.429752   0.000000
   13  C  1  Y   -0.000000   0.000000   1.092762   0.000000   0.000000
   14  C  1  Z   -2.439099   0.000000  -0.000000   0.000000  -0.006945
   15  C  1  X   -0.000000   0.000000  -0.000000  -0.001760   0.000000
   16  C  1  Y   -0.000000   0.000000  -0.067373   0.000000   0.000000
   17  C  1  Z   -0.000821   0.000000  -0.000000   0.000000  -0.006179
   18  C  1 XX   -0.414733   0.000000  -0.000000   0.000000  -0.274308
   19  C  1 YY    0.503833   0.000000  -0.000000   0.000000  -0.202594
   20  C  1 ZZ   -0.348001   0.000000  -0.000000   0.000000  -0.091192
   21  C  1 XY   -0.000000   0.324352  -0.000000   0.000000   0.000000
   22  C  1 XZ   -0.000000   0.000000  -0.000000  -0.185081   0.000000
   23  C  1 YZ   -0.000000   0.000000  -0.056449   0.000000   0.000000
   24  C  1 XX   -0.431111   0.000000  -0.000000   0.000000  -0.238230
   25  C  1 YY    3.495958   0.000000  -0.000000   0.000000   0.332633
   26  C  1 ZZ    0.540483   0.000000  -0.000000   0.000000   0.087092
   27  C  1 XY   -0.000000  -0.502916  -0.000000   0.000000   0.000000
   28  C  1 XZ   -0.000000   0.000000  -0.000000  -0.033083   0.000000
   29  C  1 YZ   -0.000000   0.000000  -0.443848   0.000000   0.000000
   30  C  1 XXX  -0.000000   0.000000  -0.000000   0.089061   0.000000
   31  C  1 YYY  -0.000000   0.000000   0.066671   0.000000   0.000000
   32  C  1 ZZZ   0.146051   0.000000  -0.000000   0.000000  -0.710726
   33  C  1 XXY  -0.000000   0.000000  -0.895731   0.000000   0.000000
   34  C  1 XXZ   0.317025   0.000000  -0.000000   0.000000   0.252180
   35  C  1 YYX  -0.000000   0.000000  -0.000000  -0.281530   0.000000
   36  C  1 YYZ  -1.408523   0.000000  -0.000000   0.000000   0.274347
   37  C  1 ZZX  -0.000000   0.000000  -0.000000   0.566729   0.000000
   38  C  1 ZZY  -0.000000   0.000000   0.316090   0.000000   0.000000
   39  C  1 XYZ  -0.000000   0.649110  -0.000000   0.000000   0.000000
   40  H  2  S   -0.249429   0.000000   0.091814   0.000000   0.060463
   41  H  2  S   -4.357785   0.000000   0.372509   0.000000  -0.769611
   42  H  2  S   -0.497040   0.000000   0.190491   0.000000   0.112300
   43  H  2  X   -0.000000   0.343925  -0.000000  -0.446417   0.000000
   44  H  2  Y    0.207167   0.000000  -0.116793   0.000000  -0.108911
   45  H  2  Z   -0.118927   0.000000   0.039327   0.000000   0.152899
   46  H  2  X   -0.000000  -0.530910  -0.000000   0.408661   0.000000
   47  H  2  Y   -2.552503   0.000000   0.545744   0.000000  -0.010464
   48  H  2  Z   -0.906370   0.000000   0.044867   0.000000  -0.185478
   49  H  2 XX   -0.090281   0.000000  -0.433316   0.000000   0.665848
   50  H  2 YY   -0.774805   0.000000   0.593934   0.000000   0.254264
   51  H  2 ZZ   -0.396017   0.000000   0.552959   0.000000  -0.461459
   52  H  2 XY   -0.000000  -0.359635  -0.000000  -0.125720   0.000000
   53  H  2 XZ   -0.000000   0.491591  -0.000000   0.620996   0.000000
   54  H  2 YZ   -0.151085   0.000000  -0.176417   0.000000   0.300917
   55  H  3  S   -0.249429   0.000000  -0.091814   0.000000   0.060463
   56  H  3  S   -4.357785   0.000000  -0.372509   0.000000  -0.769611
   57  H  3  S   -0.497040   0.000000  -0.190491   0.000000   0.112300
   58  H  3  X   -0.000000  -0.343925  -0.000000  -0.446417   0.000000
   59  H  3  Y   -0.207167   0.000000  -0.116793   0.000000   0.108911
   60  H  3  Z   -0.118927   0.000000  -0.039327   0.000000   0.152899
   61  H  3  X   -0.000000   0.530910  -0.000000   0.408661   0.000000
   62  H  3  Y    2.552503   0.000000   0.545744   0.000000   0.010464
   63  H  3  Z   -0.906370   0.000000  -0.044867   0.000000  -0.185478
   64  H  3 XX   -0.090281   0.000000   0.433316   0.000000   0.665848
   65  H  3 YY   -0.774805   0.000000  -0.593934   0.000000   0.254264
   66  H  3 ZZ   -0.396017   0.000000  -0.552959   0.000000  -0.461459
   67  H  3 XY   -0.000000  -0.359635  -0.000000   0.125720   0.000000
   68  H  3 XZ   -0.000000  -0.491591  -0.000000   0.620996   0.000000
   69  H  3 YZ    0.151085   0.000000  -0.176417   0.000000  -0.300917

                     51         52         53         54         55
                    4.1581     4.1984     4.2781     4.3031     4.8420
                     B2         A2         B1         A1         A1  
    1  C  1  S   -0.000000  -0.000000   0.000000  -0.021340   0.009497
    2  C  1  S   -0.000000  -0.000000   0.000000   0.033892   0.019119
    3  C  1  S   -0.000000  -0.000000   0.000000   0.486485  -0.354522
    4  C  1  S   -0.000000  -0.000000   0.000000   1.612334  -3.241074
    5  C  1  S   -0.000000  -0.000000   0.000000  -0.965625   0.528682
    6  C  1  X   -0.000000  -0.000000  -0.055098   0.000000   0.000000
    7  C  1  Y   -0.057643  -0.000000   0.000000   0.000000   0.000000
    8  C  1  Z   -0.000000  -0.000000   0.000000   0.060799  -0.040723
    9  C  1  X   -0.000000  -0.000000  -0.120084   0.000000   0.000000
   10  C  1  Y    0.025779  -0.000000   0.000000   0.000000   0.000000
   11  C  1  Z   -0.000000  -0.000000   0.000000  -0.195518   0.177379
   12  C  1  X   -0.000000  -0.000000  -0.436378   0.000000   0.000000
   13  C  1  Y    0.817863  -0.000000   0.000000   0.000000   0.000000
   14  C  1  Z   -0.000000  -0.000000   0.000000  -0.340056   1.496234
   15  C  1  X   -0.000000  -0.000000  -0.060484   0.000000   0.000000
   16  C  1  Y   -0.365135  -0.000000   0.000000   0.000000   0.000000
   17  C  1  Z   -0.000000  -0.000000   0.000000   0.193459  -0.132212
   18  C  1 XX   -0.000000  -0.000000   0.000000   0.189025  -0.094809
   19  C  1 YY   -0.000000  -0.000000   0.000000   0.156967  -0.367452
   20  C  1 ZZ   -0.000000  -0.000000   0.000000   0.494586   0.248540
   21  C  1 XY   -0.000000  -0.060261   0.000000   0.000000   0.000000
   22  C  1 XZ   -0.000000  -0.000000   0.186910   0.000000   0.000000
   23  C  1 YZ   -0.197078  -0.000000   0.000000   0.000000   0.000000
   24  C  1 XX   -0.000000  -0.000000   0.000000   0.493914  -0.486116
   25  C  1 YY   -0.000000  -0.000000   0.000000   2.980311  -2.843395
   26  C  1 ZZ   -0.000000  -0.000000   0.000000   0.192039  -0.623490
   27  C  1 XY   -0.000000  -0.515838   0.000000   0.000000   0.000000
   28  C  1 XZ   -0.000000  -0.000000   0.288807   0.000000   0.000000
   29  C  1 YZ   -0.599384  -0.000000   0.000000   0.000000   0.000000
   30  C  1 XXX  -0.000000  -0.000000  -0.000767   0.000000   0.000000
   31  C  1 YYY  -0.291922  -0.000000   0.000000   0.000000   0.000000
   32  C  1 ZZZ  -0.000000  -0.000000   0.000000   0.028314  -0.303432
   33  C  1 XXY   0.049791  -0.000000   0.000000   0.000000   0.000000
   34  C  1 XXZ  -0.000000  -0.000000   0.000000  -0.024683  -0.020645
   35  C  1 YYX  -0.000000  -0.000000   0.075243   0.000000   0.000000
   36  C  1 YYZ  -0.000000  -0.000000   0.000000  -0.601423   0.019900
   37  C  1 ZZX  -0.000000  -0.000000  -0.261584   0.000000   0.000000
   38  C  1 ZZY  -0.043421  -0.000000   0.000000   0.000000   0.000000
   39  C  1 XYZ  -0.000000  -0.262693   0.000000   0.000000   0.000000
   40  H  2  S   -0.085634  -0.000000   0.000000  -0.030276   0.022568
   41  H  2  S    0.611915  -0.000000   0.000000  -2.085059   5.136953
   42  H  2  S   -0.247755  -0.000000   0.000000   0.093073  -0.385524
   43  H  2  X   -0.000000   0.753932  -0.609465   0.000000   0.000000
   44  H  2  Y   -0.380024  -0.000000   0.000000  -0.291967  -0.200565
   45  H  2  Z    0.515862  -0.000000   0.000000   0.797611  -0.059339
   46  H  2  X   -0.000000  -0.743128   0.709673   0.000000   0.000000
   47  H  2  Y    0.561417  -0.000000   0.000000  -0.676198   1.446524
   48  H  2  Z   -0.552413  -0.000000   0.000000  -1.389018   1.032490
   49  H  2 XX    0.194221  -0.000000   0.000000  -0.179848  -0.918883
   50  H  2 YY    0.428500  -0.000000   0.000000  -0.293313  -0.827716
   51  H  2 ZZ   -0.479246  -0.000000   0.000000  -0.210803  -0.575730
   52  H  2 XY   -0.000000  -0.262651   0.655210   0.000000   0.000000
   53  H  2 XZ   -0.000000  -0.425412  -0.081108   0.000000   0.000000
   54  H  2 YZ   -0.358945  -0.000000   0.000000  -0.340907   0.585134
   55  H  3  S    0.085634  -0.000000   0.000000  -0.030276   0.022568
   56  H  3  S   -0.611915  -0.000000   0.000000  -2.085059   5.136953
   57  H  3  S    0.247755  -0.000000   0.000000   0.093073  -0.385524
   58  H  3  X   -0.000000  -0.753932  -0.609465   0.000000   0.000000
   59  H  3  Y   -0.380024  -0.000000   0.000000   0.291967   0.200565
   60  H  3  Z   -0.515862  -0.000000   0.000000   0.797611  -0.059339
   61  H  3  X   -0.000000   0.743128   0.709673   0.000000   0.000000
   62  H  3  Y    0.561417  -0.000000   0.000000   0.676198  -1.446524
   63  H  3  Z    0.552413  -0.000000   0.000000  -1.389018   1.032490
   64  H  3 XX   -0.194221  -0.000000   0.000000  -0.179848  -0.918883
   65  H  3 YY   -0.428500  -0.000000   0.000000  -0.293313  -0.827716
[...]
   48  H  2  Z    0.768225  -0.153007   0.845262  -0.833572   0.388948
   49  H  2 XX   -0.620354  -0.067399   0.221710  -0.287797  -0.053637
   50  H  2 YY    0.569275   0.909604   1.193586  -1.265434   0.200759
   51  H  2 ZZ    0.031175  -0.767210   0.744025  -0.311087  -0.023497
   52  H  2 XY    0.000000  -0.000000  -0.000000   0.000000   0.000000
   53  H  2 XZ    0.000000  -0.000000  -0.000000   0.000000   0.000000
   54  H  2 YZ    0.633356  -0.411052   0.715976  -0.531254   0.124308
   55  H  3  S   -1.002601   0.469329  -0.811162  -0.833213   0.064132
   56  H  3  S    3.298698  -1.987260  -2.510891  -2.528413   1.654730
   57  H  3  S    0.015299   0.006077  -0.709068  -0.554379  -0.279514
   58  H  3  X    0.000000  -0.000000  -0.000000   0.000000   0.000000
   59  H  3  Y    0.424086   0.181671   1.221005   1.330027  -0.236257
   60  H  3  Z    0.059874   0.696400  -0.828321  -0.430195   0.028962
   61  H  3  X    0.000000  -0.000000  -0.000000   0.000000   0.000000
   62  H  3  Y   -1.913617   1.076472   1.718449   1.513650  -0.617024
   63  H  3  Z    0.768225   0.153007  -0.845262  -0.833572   0.388948
   64  H  3 XX   -0.620354   0.067399  -0.221710  -0.287797  -0.053637
   65  H  3 YY    0.569275  -0.909604  -1.193586  -1.265434   0.200759
   66  H  3 ZZ    0.031175   0.767210  -0.744025  -0.311087  -0.023497
   67  H  3 XY    0.000000  -0.000000  -0.000000   0.000000   0.000000
   68  H  3 XZ    0.000000  -0.000000  -0.000000   0.000000   0.000000
   69  H  3 YZ   -0.633356  -0.411052   0.715976   0.531254  -0.124308

                     66         67         68         69
                    8.2188     8.5509     8.9355    34.4968
                     B1         A1         B2         A1  
    1  C  1  S   -0.000000  -0.137252  -0.000000   2.132213
    2  C  1  S   -0.000000  -1.261917  -0.000000  -4.898712
    3  C  1  S   -0.000000  -0.202524  -0.000000   2.300772
    4  C  1  S   -0.000000   4.037970  -0.000000   5.170610
    5  C  1  S   -0.000000   2.373272  -0.000000   2.364241
    6  C  1  X   -2.520448   0.000000  -0.000000   0.000000
    7  C  1  Y   -0.000000   0.000000  -2.558291   0.000000
    8  C  1  Z   -0.000000  -1.769189  -0.000000  -0.036648
    9  C  1  X    5.470078   0.000000  -0.000000   0.000000
   10  C  1  Y   -0.000000   0.000000   6.719584   0.000000
   11  C  1  Z   -0.000000   4.343613  -0.000000   0.202914
   12  C  1  X    1.488794   0.000000  -0.000000   0.000000
   13  C  1  Y   -0.000000   0.000000   2.316388   0.000000
   14  C  1  Z   -0.000000   1.714167  -0.000000   0.337183
   15  C  1  X   -0.363442   0.000000  -0.000000   0.000000
   16  C  1  Y   -0.000000   0.000000  -0.597521   0.000000
   17  C  1  Z   -0.000000  -0.372356  -0.000000  -0.128890
   18  C  1 XX   -0.000000  -2.129745  -0.000000  -2.663654
   19  C  1 YY   -0.000000  -3.221453  -0.000000  -2.887385
   20  C  1 ZZ   -0.000000  -2.340723  -0.000000  -2.711711
   21  C  1 XY   -0.000000   0.000000  -0.000000   0.000000
   22  C  1 XZ    0.011270   0.000000  -0.000000   0.000000
   23  C  1 YZ   -0.000000   0.000000  -0.512289   0.000000
   24  C  1 XX   -0.000000  -1.544269  -0.000000  -1.451227
   25  C  1 YY   -0.000000  -2.645995  -0.000000  -1.900578
   26  C  1 ZZ   -0.000000  -1.750675  -0.000000  -1.517915
   27  C  1 XY   -0.000000   0.000000  -0.000000   0.000000
   28  C  1 XZ   -0.005222   0.000000  -0.000000   0.000000
   29  C  1 YZ   -0.000000   0.000000  -0.259041   0.000000
   30  C  1 XXX  -3.365038   0.000000  -0.000000   0.000000
   31  C  1 YYY  -0.000000   0.000000  -3.187369   0.000000
   32  C  1 ZZZ  -0.000000  -2.428814  -0.000000  -0.071521
   33  C  1 XXY  -0.000000   0.000000  -1.647365   0.000000
   34  C  1 XXZ  -0.000000  -1.114489  -0.000000  -0.039237
   35  C  1 YYX  -1.558854   0.000000  -0.000000   0.000000
   36  C  1 YYZ  -0.000000  -0.620409  -0.000000   0.083767
   37  C  1 ZZX  -1.511031   0.000000  -0.000000   0.000000
   38  C  1 ZZY  -0.000000   0.000000  -1.498332   0.000000
   39  C  1 XYZ  -0.000000   0.000000  -0.000000   0.000000
   40  H  2  S   -0.000000  -0.009972  -0.106585  -0.051445
   41  H  2  S   -0.000000   1.970852   1.304001   0.896138
   42  H  2  S   -0.000000  -0.324537  -0.351469  -0.321236
   43  H  2  X    0.059035   0.000000  -0.000000   0.000000
   44  H  2  Y   -0.000000   0.445449   0.415750   0.092401
   45  H  2  Z   -0.000000   0.202550   0.161156   0.030868
   46  H  2  X   -0.030518   0.000000  -0.000000   0.000000
   47  H  2  Y   -0.000000   0.848214   0.538636   0.289106
   48  H  2  Z   -0.000000   0.362586   0.244469   0.150514
   49  H  2 XX   -0.000000  -0.133976  -0.153831  -0.073922
   50  H  2 YY   -0.000000   0.526250   0.535597   0.099168
   51  H  2 ZZ   -0.000000  -0.023570  -0.029908  -0.043109
   52  H  2 XY    0.017961   0.000000  -0.000000   0.000000
   53  H  2 XZ    0.015884   0.000000  -0.000000   0.000000
   54  H  2 YZ   -0.000000   0.330433   0.325764   0.083463
   55  H  3  S   -0.000000  -0.009972   0.106585  -0.051445
   56  H  3  S   -0.000000   1.970852  -1.304001   0.896138
   57  H  3  S   -0.000000  -0.324537   0.351469  -0.321236
   58  H  3  X    0.059035   0.000000  -0.000000   0.000000
   59  H  3  Y   -0.000000  -0.445449   0.415750  -0.092401
   60  H  3  Z   -0.000000   0.202550  -0.161156   0.030868
   61  H  3  X   -0.030518   0.000000  -0.000000   0.000000
   62  H  3  Y   -0.000000  -0.848214   0.538636  -0.289106
   63  H  3  Z   -0.000000   0.362586  -0.244469   0.150514
   64  H  3 XX   -0.000000  -0.133976   0.153831  -0.073922
   65  H  3 YY   -0.000000   0.526250  -0.535597   0.099168
   66  H  3 ZZ   -0.000000  -0.023570   0.029908  -0.043109
   67  H  3 XY   -0.017961   0.000000  -0.000000   0.000000
   68  H  3 XZ    0.015884   0.000000  -0.000000   0.000000
   69  H  3 YZ   -0.000000  -0.330433   0.325764  -0.083463
 ...... END OF ROHF CALCULATION ......
 CPU     0: STEP CPU TIME=     0.12 TOTAL CPU TIME=        0.2 (    0.0 MIN)
 TOTAL WALL CLOCK TIME=        0.3 SECONDS, CPU UTILIZATION IS  92.00%

     ----------------------------------------------------------------
     PROPERTY VALUES FOR THE ROHF  SELF-CONSISTENT FIELD WAVEFUNCTION
     ----------------------------------------------------------------

          -----------------
          ENERGY COMPONENTS
          -----------------

         WAVEFUNCTION NORMALIZATION =       1.0000000000

                ONE ELECTRON ENERGY =     -63.9622573647
                TWO ELECTRON ENERGY =      18.8425643712
           NUCLEAR REPULSION ENERGY =       6.1864283400
                                      ------------------
                       TOTAL ENERGY =     -38.9332646536

 ELECTRON-ELECTRON POTENTIAL ENERGY =      18.8425643712
  NUCLEUS-ELECTRON POTENTIAL ENERGY =    -102.8774190872
   NUCLEUS-NUCLEUS POTENTIAL ENERGY =       6.1864283400
                                      ------------------
             TOTAL POTENTIAL ENERGY =     -77.8484263761
               TOTAL KINETIC ENERGY =      38.9151617225
                 VIRIAL RATIO (V/T) =       2.0004651897

          ---------------------------------------
          MULLIKEN AND LOWDIN POPULATION ANALYSES
          ---------------------------------------

     ATOMIC MULLIKEN POPULATION IN EACH MOLECULAR ORBITAL

                      1          2          3          4          5

                  2.000000   2.000000   2.000000   1.000000   1.000000

    1             2.000640   1.362193   1.015651   0.891757   0.976081
    2            -0.000320   0.318904   0.492175   0.054121   0.011959
    3            -0.000320   0.318904   0.492175   0.054121   0.011959

     ATOMIC SPIN POPULATION (ALPHA MINUS BETA)
       ATOM         MULL.POP.                    LOW.POP.
    1 CARBON        1.935261                     1.832009
    2 HYDROGEN      0.032370                     0.083995
    3 HYDROGEN      0.032370                     0.083995

               ----- POPULATIONS IN EACH AO -----
                             MULLIKEN      LOWDIN
              1  C  1  S      1.11416     1.06492
              2  C  1  S      0.82451     0.77758
              3  C  1  S      0.15065     0.22327
              4  C  1  S      0.72898     0.24607
              5  C  1  S      0.39646     0.20359
              6  C  1  X      0.12364     0.12628
              7  C  1  Y      0.14987     0.13514
              8  C  1  Z      0.11556     0.11623
              9  C  1  X      0.29175     0.18361
             10  C  1  Y      0.38604     0.22384
             11  C  1  Z      0.28255     0.17516
             12  C  1  X      0.38773     0.23000
             13  C  1  Y      0.40462     0.28648
             14  C  1  Z      0.35368     0.21653
             15  C  1  X      0.16853     0.15929
             16  C  1  Y      0.06064     0.14663
             17  C  1  Z      0.12057     0.13356
             18  C  1 XX      0.00328     0.09989
             19  C  1 YY      0.02901     0.11903
             20  C  1 ZZ      0.00896     0.10559
             21  C  1 XY      0.00000     0.00000
             22  C  1 XZ      0.00001     0.00009
             23  C  1 YZ      0.00408     0.00363
             24  C  1 XX      0.01130     0.08209
             25  C  1 YY      0.02887     0.13517
             26  C  1 ZZ      0.01436     0.09292
             27  C  1 XY      0.00000     0.00000
             28  C  1 XZ     -0.00003     0.00040
             29  C  1 YZ      0.00919     0.01902
             30  C  1 XXX     0.00330     0.11849
             31  C  1 YYY     0.00630     0.17680
             32  C  1 ZZZ     0.00195     0.10792
             33  C  1 XXY    -0.00373     0.05570
             34  C  1 XXZ     0.00035     0.04977
             35  C  1 YYX    -0.00016     0.04574
             36  C  1 YYZ     0.00197     0.06325
             37  C  1 ZZX     0.00132     0.05282
             38  C  1 ZZY    -0.00136     0.07437
             39  C  1 XYZ     0.00000     0.00000
             40  H  2  S      0.26610     0.19696
             41  H  2  S      0.48566     0.25203
             42  H  2  S      0.10823     0.14231
             43  H  2  X      0.00154     0.00216
             44  H  2  Y      0.00644     0.00864
             45  H  2  Z      0.00211     0.00333
             46  H  2  X      0.00965     0.03440
             47  H  2  Y      0.01536     0.03871
             48  H  2  Z      0.00936     0.03107
             49  H  2 XX     -0.00113     0.06920
             50  H  2 YY      0.00572     0.10725
             51  H  2 ZZ      0.00004     0.07794
             52  H  2 XY      0.00066     0.00425
             53  H  2 XZ      0.00011     0.00082
             54  H  2 YZ      0.00070     0.00547
             55  H  3  S      0.26610     0.19696
             56  H  3  S      0.48566     0.25203
             57  H  3  S      0.10823     0.14231
             58  H  3  X      0.00154     0.00216
             59  H  3  Y      0.00644     0.00864
             60  H  3  Z      0.00211     0.00333
             61  H  3  X      0.00965     0.03440
             62  H  3  Y      0.01536     0.03871
             63  H  3  Z      0.00936     0.03107
             64  H  3 XX     -0.00113     0.06920
             65  H  3 YY      0.00572     0.10725
             66  H  3 ZZ      0.00004     0.07794
             67  H  3 XY      0.00066     0.00425
             68  H  3 XZ      0.00011     0.00082
             69  H  3 YZ      0.00070     0.00547

          ----- MULLIKEN ATOMIC OVERLAP POPULATIONS -----
          (OFF-DIAGONAL ELEMENTS NEED TO BE MULTIPLIED BY 2)

             1           2           3

    1    5.3573170
    2    0.4107909   0.5270610
    3    0.4107909  -0.0273013   0.5270610

          TOTAL MULLIKEN AND LOWDIN ATOMIC POPULATIONS
       ATOM         MULL.POP.    CHARGE          LOW.POP.     CHARGE
    1 CARBON        6.178899   -0.178899         6.050898   -0.050898
    2 HYDROGEN      0.910551    0.089449         0.974551    0.025449
    3 HYDROGEN      0.910551    0.089449         0.974551    0.025449

          -------------------------------
          BOND ORDER AND VALENCE ANALYSIS     BOND ORDER THRESHOLD=0.050
          -------------------------------

                   BOND                       BOND                       BOND
  ATOM PAIR DIST  ORDER      ATOM PAIR DIST  ORDER      ATOM PAIR DIST  ORDER
    1   2  1.073  1.010        1   3  1.073  1.010

                       TOTAL       BONDED        FREE
      ATOM            VALENCE     VALENCE     VALENCE
    1 CARBON            3.892       2.019       1.873
    2 HYDROGEN          1.010       1.009       0.001
    3 HYDROGEN          1.010       1.009       0.001

          -----------------------------------------
          ATOMIC SPIN DENSITY AT THE NUCLEUS (A.U.)
          -----------------------------------------
                            SPIN DENS    ALPHA DENS     BETA DENS
    1  CARBON       6.0     0.4214319      61.08469      60.66326
    2  HYDROGEN     1.0     0.0125776       0.21454       0.20196
    3  HYDROGEN     1.0     0.0125776       0.21454       0.20196

          ---------------------
          ELECTROSTATIC MOMENTS
          ---------------------

 POINT   1           X           Y           Z (BOHR)    CHARGE
                -0.000000    0.000000   -0.116313        0.00 (A.U.)
         DX          DY          DZ         /D/  (DEBYE)
     0.000000    0.000000   -0.574427    0.574427
 ...... END OF PROPERTY EVALUATION ......
 CPU     0: STEP CPU TIME=     0.01 TOTAL CPU TIME=        0.2 (    0.0 MIN)
 TOTAL WALL CLOCK TIME=        0.3 SECONDS, CPU UTILIZATION IS  96.00%

          --------------------
          2 ELECTRON INTEGRALS
          --------------------

 THE -PK- OPTION IS OFF, THE INTEGRALS ARE NOT IN SUPERMATRIX FORM.
 STORING   15000 INTEGRALS/RECORD ON DISK, USING 12 BYTES/INTEGRAL.
 TWO ELECTRON INTEGRAL EVALUATION REQUIRES   99400 WORDS OF MEMORY.
 II,JST,KST,LST =  1  1  1  1 NREC =         1 INTLOC =    1
 II,JST,KST,LST =  2  1  1  1 NREC =         1 INTLOC =    2
 II,JST,KST,LST =  3  1  1  1 NREC =         1 INTLOC =    7
 II,JST,KST,LST =  4  1  1  1 NREC =         1 INTLOC =   22
 II,JST,KST,LST =  5  1  1  1 NREC =         1 INTLOC =   56
 II,JST,KST,LST =  6  1  1  1 NREC =         1 INTLOC =  121
 II,JST,KST,LST =  7  1  1  1 NREC =         1 INTLOC =  220
 II,JST,KST,LST =  8  1  1  1 NREC =         1 INTLOC =  496
 II,JST,KST,LST =  9  1  1  1 NREC =         1 INTLOC = 1057
 II,JST,KST,LST = 10  1  1  1 NREC =         1 INTLOC = 2074
 II,JST,KST,LST = 11  1  1  1 NREC =         1 INTLOC = 5929
 II,JST,KST,LST = 12  1  1  1 NREC =         1 INTLOC =14065
 II,JST,KST,LST = 13  1  1  1 NREC =         3 INTLOC =11855
 II,JST,KST,LST = 14  1  1  1 NREC =         3 INTLOC =11855
 II,JST,KST,LST = 15  1  1  1 NREC =         3 INTLOC =11855
 II,JST,KST,LST = 16  1  1  1 NREC =         3 INTLOC =11855
 II,JST,KST,LST = 17  1  1  1 NREC =         3 INTLOC =11855
 II,JST,KST,LST = 18  1  1  1 NREC =         3 INTLOC =11855
 II,JST,KST,LST = 19  1  1  1 NREC =         3 INTLOC =11855
 II,JST,KST,LST = 20  1  1  1 NREC =         4 INTLOC =14814
 II,JST,KST,LST = 21  1  1  1 NREC =         6 INTLOC = 5832
 II,JST,KST,LST = 22  1  1  1 NREC =         8 INTLOC =  275
 II,JST,KST,LST = 23  1  1  1 NREC =        14 INTLOC =  417
 II,JST,KST,LST = 24  1  1  1 NREC =        22 INTLOC = 6225
 TOTAL NUMBER OF NONZERO TWO-ELECTRON INTEGRALS =              715026
         48 INTEGRAL RECORDS WERE STORED ON DISK FILE  8.
  ...... END OF TWO-ELECTRON INTEGRALS .....
 STEP CPU TIME =     0.07 TOTAL CPU TIME =        0.3 (    0.0 MIN)
 TOTAL WALL CLOCK TIME=        0.3 SECONDS, CPU UTILIZATION IS 100.00%

 -----------------------------   -------------------------------------------
 RMP2 (ROHF-MBPT2) CALCULATION   PROGRAM BY M.DUPUIS,S.MALUENDES,N.MATSUNAGA
 -----------------------------   -------------------------------------------
 NCORE=   1  NOCC ALPHA,BETA=    5    3  NMOS=   69  NAOS=   69

     ORBITALS AND ORBITAL ENERGIES ARE MODIFIED
     DEFINED UNIQUE ORBITAL ENERGIES ARE:
       ALPHA
       -11.265548   -0.943670   -0.626981   -0.450038   -0.402303
         0.149567    0.223834    0.266028    0.272015    0.277020
         0.370138    0.548840    0.655132    0.711379    0.783343
         0.793422    0.937910    1.041794    1.125932    1.126103
         1.168363    1.197331    1.311621    1.315120    1.320854
         1.486180    1.639418    1.655472    2.105934    2.128632
         2.874607    2.881368    2.901902    2.976168    3.077106
         3.086598    3.210997    3.211444    3.220735    3.259075
         3.290167    3.293276    3.396252    3.465291    3.561316
         3.594673    3.792754    3.901817    3.917867    3.927976
         4.162568    4.204509    4.282886    4.309947    4.846279
         4.865744    4.970492    5.099166    5.215097    5.300684
         5.550540    6.008165    6.709952    6.788821    8.179912
         8.242933    8.564692    8.943534   34.505801
       BETA
       -11.222912   -0.784072   -0.581605    0.094394    0.109828
         0.163886    0.235134    0.285639    0.349047    0.389167
         0.424292    0.583925    0.705956    0.766772    0.883468
         0.900316    0.953413    1.095959    1.153782    1.172472
         1.246898    1.275470    1.339916    1.353080    1.359895
         1.517093    1.658229    1.682145    2.117220    2.139822
         2.925375    2.943157    2.972723    3.007393    3.129661
         3.139033    3.263148    3.304085    3.316568    3.332773
         3.337224    3.377937    3.445469    3.504259    3.577381
         3.614618    3.820941    3.924317    3.935042    3.944977
         4.171805    4.217150    4.292728    4.324201    4.854918
         4.877624    4.985805    5.111533    5.239238    5.325651
         5.568649    6.023843    6.730088    6.806493    8.231927
         8.291476    8.592438    8.959602   34.523709

 MEMORY REQUIREMENTS FOR PARALLEL MP2 TRANSFORMATION
   MINIMUM=         382867 WORDS, USING 1 ORBITAL PER PASS
   MAXIMUM=        1382677 WORDS, MAKING ONLY 1 INTEGRAL PASS
 PARAMETERS FOR THE PARALLEL MP2 TRANSFORMATION
   NUMBER OF MOS/NODE/PASS =    2
   NUMBER OF PASSES        =    2
   MEMORY USED =          716137 WORDS.
 PASS #   1 TOOK        0.03 SECONDS.
 PASS #   2 TOOK        0.01 SECONDS.
 DONE WITH PARTIAL TRANSFORMATION (PQ|RS) TO (IA|JB)

     SINGLE EXCITATION CONTRIBUTION
         ALPHA        -0.0014589782
         BETA         -0.0014979597
     DOUBLE EXCITATION CONTRIBUTION
                      -0.1222130947

 RESULTS OF MOLLER-PLESSET 2ND ORDER CORRECTION ARE
               E(0)=       -38.9332646536
               E(1)=         0.0
               E(2)=        -0.1251700326
             E(MP2)=       -39.0584346862
 ..... DONE WITH MP2 ENERGY .....
 CPU     0: STEP CPU TIME=     0.04 TOTAL CPU TIME=        0.3 (    0.0 MIN)
 TOTAL WALL CLOCK TIME=        0.4 SECONDS, CPU UTILIZATION IS  97.22%
               716137  WORDS OF DYNAMIC MEMORY USED
 EXECUTION OF GAMESS TERMINATED NORMALLY Wed Aug  9 22:00:12 2017
 DDI: 263640 bytes (0.3 MB / 0 MWords) used by master data server.

 ----------------------------------------
 CPU timing information for all processes
 ========================================
 0: 0.327 + 0.34 = 0.362
 ----------------------------------------
 ddikick.x: exited gracefully.
unset echo
----- accounting info -----
Files used on the master node compute-0-5.local were:
-rw-rw-r-- 1 sarom sarom 1.8K Aug  9 22:00 /scratch/ddi-rohf-rmp-ch2.F05
-rw-rw-r-- 1 sarom sarom 8.3M Aug  9 22:00 /scratch/ddi-rohf-rmp-ch2.F08
-rw-rw-r-- 1 sarom sarom 2.3M Aug  9 22:00 /scratch/ddi-rohf-rmp-ch2.F10
rm: No match.
ls: No match.
ls: No match.
ls: No match.
Wed Aug  9 22:00:15 CDT 2017
0.250u 0.182s 0:03.87 11.1%	0+0k 8+360io 0pf+0w
/opt/gridengine/default/spool/compute-0-5/active_jobs/36143.1/pe_hostfile compute-0-5.local
