-catch_rsh /opt/gridengine/default/spool/compute-0-7/active_jobs/36134.1/pe_hostfile
compute-0-7
The primary node assigned by SGE to this run is compute-0-7
Warning: no access to tty (Bad file descriptor).
Thus no job control in this shell.
source /home/sarom/dir.git.branch.saromleang-travis-ci/install.info
setenv GMS_PATH /home/sarom/dir.git.branch.saromleang-travis-ci
setenv GMS_BUILD_DIR /home/sarom/dir.git.branch.saromleang-travis-ci
setenv GMS_TARGET linux64
setenv GMS_FORTRAN gfortran
setenv GMS_GFORTRAN_VERNO 4.4
setenv GMS_MATHLIB mkl-so
setenv GMS_MATHLIB none
setenv GMS_MATHLIB_PATH /share/apps/intel/compilers_and_libraries_2017.1.132/linux/mkl/lib/intel64
setenv GMS_MKL_VERNO 12
setenv GMS_DDI_COMM sockets
setenv GMS_LIBCCHEM false
setenv GMS_EIGEN_PATH
setenv GMS_PHI false
setenv GMS_SHMTYPE sysv
setenv GMS_OPENMP false
unset echo
ddi-rhf-mp2-h3po-numgrd
/home/sarom/dir.git.branch.saromleang-travis-ci/tests/mp2/parallel
----- GAMESS execution script 'rungms' -----
This job is running on host compute-0-7.local
under operating system Linux at Wed Aug 9 21:54:56 CDT 2017
Available scratch disk space (Kbyte units) at beginning of the job is
Filesystem           1K-blocks      Used Available Use% Mounted on
/dev/sda1             16126920   3962060  11345660  26% /
GAMESS temporary binary files will be written to /scratch
GAMESS supplementary output files will be written to /home/sarom/restart
Copying input file ddi-rhf-mp2-h3po-numgrd.inp to your run's scratch directory...
cp /home/sarom/dir.git.branch.saromleang-travis-ci/tests/mp2/parallel/ddi-rhf-mp2-h3po-numgrd.inp /scratch/ddi-rhf-mp2-h3po-numgrd.F05
unset echo
The generated host list is
compute-0-7.local
/home/sarom/dir.git.branch.saromleang-travis-ci/ddikick.x /home/sarom/dir.git.branch.saromleang-travis-ci/gamess.00.x ddi-rhf-mp2-h3po-numgrd -ddi 1 1 compute-0-7.local -scr /scratch

 Distributed Data Interface kickoff program.
 Initiating 1 compute processes on 1 nodes to run the following command:
 /home/sarom/dir.git.branch.saromleang-travis-ci/gamess.00.x ddi-rhf-mp2-h3po-numgrd 

          ******************************************************
          *         GAMESS VERSION = 20 APR 2017 (R1)          *
          *             FROM IOWA STATE UNIVERSITY             *
          * M.W.SCHMIDT, K.K.BALDRIDGE, J.A.BOATZ, S.T.ELBERT, *
          *   M.S.GORDON, J.H.JENSEN, S.KOSEKI, N.MATSUNAGA,   *
          *          K.A.NGUYEN, S.J.SU, T.L.WINDUS,           *
          *       TOGETHER WITH M.DUPUIS, J.A.MONTGOMERY       *
          *         J.COMPUT.CHEM.  14, 1347-1363(1993)        *
          **************** 64 BIT LINUX VERSION ****************

  SINCE 1993, STUDENTS AND POSTDOCS WORKING AT IOWA STATE UNIVERSITY
  AND ALSO IN THEIR VARIOUS JOBS AFTER LEAVING ISU HAVE MADE IMPORTANT
  CONTRIBUTIONS TO THE CODE:
     IVANA ADAMOVIC, CHRISTINE AIKENS, YURI ALEXEEV, POOJA ARORA,
     ANDREY ASADCHEV, ROB BELL, PRADIPTA BANDYOPADHYAY, JONATHAN BENTZ,
     BRETT BODE, KURT BRORSEN, CALEB CARLIN, GALINA CHABAN, WEI CHEN,
     CHEOL HO CHOI, PAUL DAY, ALBERT DEFUSCO, NUWAN DESILVA, TIM DUDLEY,
     DMITRI FEDOROV, GRAHAM FLETCHER, MARK FREITAG, KURT GLAESEMANN,
     DAN KEMP, GRANT MERRILL, NORIYUKI MINEZAWA, JONATHAN MULLIN,
     TAKESHI NAGATA, SEAN NEDD, HEATHER NETZLOFF, BOSILJKA NJEGIC, RYAN OLSON,
     MIKE PAK, SPENCER PRUITT, LUKE ROSKOP, JIM SHOEMAKER, LYUDMILA SLIPCHENKO,
     TONY SMITH, SAROM SOK LEANG, JIE SONG, TETSUYA TAKETSUGU, SIMON WEBB,
     PENG XU, SOOHAENG YOO, FEDERICO ZAHARIEV

  ADDITIONAL CODE HAS BEEN PROVIDED BY COLLABORATORS IN OTHER GROUPS:
     IOWA STATE UNIVERSITY:
          JOE IVANIC, AARON WEST, LAIMUTIS BYTAUTAS, KLAUS RUEDENBERG
     UNIVERSITY OF TOKYO: KIMIHIKO HIRAO, TAKAHITO NAKAJIMA,
          TAKAO TSUNEDA, MUNEAKI KAMIYA, SUSUMU YANAGISAWA,
          KIYOSHI YAGI, MAHITO CHIBA, SEIKEN TOKURA, NAOAKI KAWAKAMI
     UNIVERSITY OF AARHUS: FRANK JENSEN
     UNIVERSITY OF IOWA: VISVALDAS KAIRYS, HUI LI
     NATIONAL INST. OF STANDARDS AND TECHNOLOGY: WALT STEVENS, DAVID GARMER
     UNIVERSITY OF PISA: BENEDETTA MENNUCCI, JACOPO TOMASI
     UNIVERSITY OF MEMPHIS: HENRY KURTZ, PRAKASHAN KORAMBATH
     UNIVERSITY OF ALBERTA: TOBY ZENG, MARIUSZ KLOBUKOWSKI
     UNIVERSITY OF NEW ENGLAND: MARK SPACKMAN
     MIE UNIVERSITY: HIROAKI UMEDA
     NAT. INST. OF ADVANCED INDUSTRIAL SCIENCE AND TECHNOLOGY: KAZUO KITAURA
     MICHIGAN STATE UNIVERSITY:
          KAROL KOWALSKI, MARTA WLOCH, JEFFREY GOUR, JESSE LUTZ,
          WEI LI, PIOTR PIECUCH
     UNIVERSITY OF SILESIA: MONIKA MUSIAL, STANISLAW KUCHARSKI
     FACULTES UNIVERSITAIRES NOTRE-DAME DE LA PAIX:
          OLIVIER QUINET, BENOIT CHAMPAGNE
     UNIVERSITY OF CALIFORNIA - SANTA BARBARA: BERNARD KIRTMAN
     INSTITUTE FOR MOLECULAR SCIENCE:
          KAZUYA ISHIMURA, MICHIO KATOUDA, AND SHIGERU NAGASE
     UNIVERSITY OF NOTRE DAME: ANNA POMOGAEVA, DAN CHIPMAN
     KYUSHU UNIVERSITY:
          HARUYUKI NAKANO,
          FENG LONG GU, JACEK KORCHOWIEC, MARCIN MAKOWSKI, AND YURIKO AOKI,
          HIROTOSHI MORI AND EISAKU MIYOSHI
     PENNSYLVANIA STATE UNIVERSITY:
          TZVETELIN IORDANOV, CHET SWALINA, JONATHAN SKONE,
          SHARON HAMMES-SCHIFFER
     WASEDA UNIVERSITY:
          MASATO KOBAYASHI, TOMOKO AKAMA, TSUGUKI TOUMA,
          TAKESHI YOSHIKAWA, YASUHIRO IKABATA, JUNJI SEINO,
          YUYA NAKAJIMA, HIROMI NAKAI
     NANJING UNIVERSITY: SHUHUA LI
     UNIVERSITY OF NEBRASKA:
          PEIFENG SU, DEJUN SI, NANDUN THELLAMUREGE, YALI WANG, HUI LI
     UNIVERSITY OF ZURICH: ROBERTO PEVERATI, KIM BALDRIDGE
     N. COPERNICUS UNIVERSITY AND JACKSON STATE UNIVERSITY:
          MARIA BARYSZ
     UNIVERSITY OF COPENHAGEN: Jimmy Kromann, CASPER STEINMANN
     TOKYO INSTITUTE OF TECHNOLOGY: HIROYA NAKATA
     NAGOYA UNIVERSITY: YOSHIO NISHIMOTO, STEPHAN IRLE
     MOSCOW STATE UNIVERSITY: VLADIMIR MIRONOV

 EXECUTION OF GAMESS BEGUN Wed Aug  9 21:54:56 2017

            ECHO OF THE FIRST FEW INPUT CARDS -
 INPUT CARD>!  H3PO...numerical differentiation for gradient of SCS-MP2 energy              
 INPUT CARD>!                                                                               
 INPUT CARD>!  the DDI program is used for the standard test case:                          
 INPUT CARD>!     FINAL E=-417.3568768381, 11 iters,                                        
 INPUT CARD>!     E(MP2)= -417.6961584558, SCS-MP2= -417.6952818064                         
 INPUT CARD>!  using the undocumented option to do 5 point rather than 3 point              
 INPUT CARD>!  numerical differentiation, RMS grad= 0.006332469                             
 INPUT CARD>!                                                                               
 INPUT CARD>!                       MP2            SCS-MP2        5-pt grad    3-pt grad    
 INPUT CARD>!  CODE = SERIAL  -417.6961584559  -417.6952818064  0.006332469  0.006353322    
 INPUT CARD>!  CODE = DDI     -417.6961584558  -417.6952818064  0.006332469  0.006353322    
 INPUT CARD>!  CODE = IMS     -417.6961584558  -417.6952818064  0.006332469  0.006353322    
 INPUT CARD>!      the last program will do analytic gradients, 0.006332437                 
 INPUT CARD>!                  and optimize to -417.6959080098 in 5 steps                   
 INPUT CARD>!                                                                               
 INPUT CARD>!  This run takes 12 seconds on a 2.66 GHz Cloverton ( 1 Apr 2015)              
 INPUT CARD>!  results haven't changed since 2009                                           
 INPUT CARD>!                                                                               
 INPUT CARD> $contrl scftyp=rhf runtyp=gradient mplevl=2 numgrd=.true. $end                 
 INPUT CARD> $system parall=.true. mwords=1 memddi=5 $end                                   
 INPUT CARD> $basis  gbasis=n311 ngauss=6 ndfunc=1 npfunc=1 $end                            
 INPUT CARD> $mp2    code=ddi scspt=scs $end                                                
 INPUT CARD> $data                                                                          
 INPUT CARD>phosphine oxide...3-21G* basis                                                  
 INPUT CARD>Cnv 3                                                                           
 INPUT CARD>                                                                                
 INPUT CARD>P 15.0                                                                          
 INPUT CARD>O  8.0  0.0000000000  0.0   1.4701                                              
 INPUT CARD>H  1.0  1.2335928631  0.0  -0.6421021244                                        
 INPUT CARD> $end                                                                           
 INPUT CARD>!        comment next out to get normal 3-point differentiation                 
 INPUT CARD> $vib2                                                                          
 INPUT CARD>nvib= 5                                                                         
 INPUT CARD> $end                                                                           
    1000000 WORDS OF MEMORY AVAILABLE

     BASIS OPTIONS
     -------------
     GBASIS=N311         IGAUSS=       6      POLAR=POPN311 
     NDFUNC=       1     NFFUNC=       0     DIFFSP=       F
     NPFUNC=       1      DIFFS=       F     BASNAM=        


     RUN TITLE
     ---------
 phosphine oxide...3-21G* basis                                                  

 THE POINT GROUP OF THE MOLECULE IS CNV     
 THE ORDER OF THE PRINCIPAL AXIS IS     3

 ATOM      ATOMIC                      COORDINATES (BOHR)
           CHARGE         X                   Y                   Z
 P          15.0     0.0000000000        0.0000000000        0.0000000000
 O           8.0     0.0000000000        0.0000000000        2.7780861745
 H           1.0    -1.1655762458        2.0188372779       -1.2133970713
 H           1.0    -1.1655762458       -2.0188372779       -1.2133970713
 H           1.0     2.3311524917        0.0000000000       -1.2133970713

          INTERNUCLEAR DISTANCES (ANGS.)
          ------------------------------

                1 P          2 O          3 H          4 H          5 H     

   1 P       0.0000000    1.4701000 *  1.3907000 *  1.3907000 *  1.3907000 *
   2 O       1.4701000 *  0.0000000    2.4460477 *  2.4460477 *  2.4460477 *
   3 H       1.3907000 *  2.4460477 *  0.0000000    2.1366455 *  2.1366455 *
   4 H       1.3907000 *  2.4460477 *  2.1366455 *  0.0000000    2.1366455 *
   5 H       1.3907000 *  2.4460477 *  2.1366455 *  2.1366455 *  0.0000000  

  * ... LESS THAN  3.000


     ATOMIC BASIS SET
     ----------------
 THE CONTRACTED PRIMITIVE FUNCTIONS HAVE BEEN UNNORMALIZED
 THE CONTRACTED BASIS FUNCTIONS ARE NOW NORMALIZED TO UNITY

  SHELL TYPE  PRIMITIVE        EXPONENT          CONTRACTION COEFFICIENT(S)

 P         

      1   S       1         77492.4300000    0.000786999225
      1   S       2         11605.7900000    0.006106993986
      1   S       3          2645.9600000    0.031372969105
      1   S       4           754.9800000    0.124238877653
      1   S       5           248.7500000    0.380892624909
      1   S       6            91.1570000    0.559811448715

      2   S       7            91.1570000    0.163986247350
      2   S       8            36.2260000    0.625950944158
      2   S       9            15.2110000    0.262196395486

      3   S      10             4.7138000    1.000000000000

      4   S      11             1.7827000    1.000000000000

      5   S      12             0.3425000    1.000000000000

      6   S      13             0.1246000    1.000000000000

      7   P      14           384.8400000    0.003239994020
      7   P      15            90.5520000    0.024924953996
      7   P      16            28.8060000    0.105696804916
      7   P      17            10.6880000    0.263228514161
      7   P      18             4.2521000    0.719051672850

      8   P      19             4.2521000   -1.612717667822
      8   P      20             1.7405000    1.205067060009

      9   P      21             0.5979000    1.000000000000

     10   P      22             0.2292000    1.000000000000

     11   P      23             0.0838000    1.000000000000

     12   D      24             0.5500000    1.000000000000

 O         

     13   S      25          8588.5000000    0.001895150083
     13   S      26          1297.2300000    0.014385900631
     13   S      27           299.2960000    0.070732003103
     13   S      28            87.3771000    0.240001010530
     13   S      29            25.6789000    0.594797026097
     13   S      30             3.7400400    0.280802012320

     14   L      31            42.1175000    0.113889012440    0.036511397380
     14   L      32             9.6283700    0.920811100576    0.237152982984
     14   L      33             2.8533200   -0.003274470358    0.819701941186

     15   L      34             0.9056610    1.000000000000    1.000000000000

     16   L      35             0.2556110    1.000000000000    1.000000000000

     17   D      36             1.2920000    1.000000000000

 H         

     26   S      37            33.8650000    0.025493814541
     26   S      38             5.0947900    0.190373108582
     26   S      39             1.1587900    0.852161486043

     27   S      40             0.3258400    1.000000000000

     28   S      41             0.1027410    1.000000000000

     29   P      42             0.7500000    1.000000000000

 TOTAL NUMBER OF BASIS SET SHELLS             =   29
 NUMBER OF CARTESIAN GAUSSIAN BASIS FUNCTIONS =   64
 NUMBER OF ELECTRONS                          =   26
 CHARGE OF MOLECULE                           =    0
 SPIN MULTIPLICITY                            =    1
 NUMBER OF OCCUPIED ORBITALS (ALPHA)          =   13
 NUMBER OF OCCUPIED ORBITALS (BETA )          =   13
 TOTAL NUMBER OF ATOMS                        =    5
 THE NUCLEAR REPULSION ENERGY IS       66.2533738551

     $CONTRL OPTIONS
     ---------------
 SCFTYP=RHF          RUNTYP=GRADIENT     EXETYP=RUN     
 MPLEVL=       2     CITYP =NONE         CCTYP =NONE         VBTYP =NONE    
 DFTTYP=NONE         TDDFT =NONE    
 MULT  =       1     ICHARG=       0     NZVAR =       0     COORD =UNIQUE  
 PP    =NONE         RELWFN=NONE         LOCAL =NONE         NUMGRD=       T
 ISPHER=      -1     NOSYM =       0     MAXIT =      30     UNITS =ANGS    
 PLTORB=       F     MOLPLT=       F     AIMPAC=       F     FRIEND=        
 NPRINT=       7     IREST =       0     GEOM  =INPUT   
 NORMF =       0     NORMP =       0     ITOL  =      20     ICUT  =       9
 INTTYP=BEST         GRDTYP=BEST         QMTTOL= 1.0E-06

     $SYSTEM OPTIONS
     ---------------
  REPLICATED MEMORY=     1000000 WORDS (ON EVERY NODE).
 DISTRIBUTED MEMDDI=           5 MILLION WORDS IN AGGREGATE,
 MEMDDI DISTRIBUTED OVER   1 PROCESSORS IS     5000000 WORDS/PROCESSOR.
 TOTAL MEMORY REQUESTED ON EACH PROCESSOR=     6000000 WORDS.
 TIMLIM=      525600.00 MINUTES, OR     365.0 DAYS.
 PARALL= T  BALTYP=  DLB     KDIAG=    0  COREFL= F
 MXSEQ2=     300 MXSEQ3=     150  mem10=         0

          ----------------
          PROPERTIES INPUT
          ----------------

     MOMENTS            FIELD           POTENTIAL          DENSITY
 IEMOM =       1   IEFLD =       0   IEPOT =       0   IEDEN =       0
 WHERE =COMASS     WHERE =NUCLEI     WHERE =NUCLEI     WHERE =NUCLEI  
 OUTPUT=BOTH       OUTPUT=BOTH       OUTPUT=BOTH       OUTPUT=BOTH    
 IEMINT=       0   IEFINT=       0                     IEDINT=       0
                                                       MORB  =       0
          EXTRAPOLATION IN EFFECT
          DIIS IN EFFECT
 ORBITAL PRINTING OPTION: NPREO=     1    64     2     1

     -------------------------------
     INTEGRAL TRANSFORMATION OPTIONS
     -------------------------------
     NWORD  =            0
     CUTOFF = 1.0E-09     MPTRAN =       0
     DIRTRF =       F     AOINTS =DUP     

          ----------------------
          INTEGRAL INPUT OPTIONS
          ----------------------
 NOPK  =       1 NORDER=       0 SCHWRZ=       F

          -----------------------
          MP2 CONTROL INFORMATION
          -----------------------
          NACORE =        6  NBCORE =        6
          LMOMP2 =        F  AOINTS = DUP     
          METHOD =        2  NWORD  =               0
          MP2PRP =        F  OSPT   = NONE    
          CUTOFF = 1.00E-09  CPHFBS = BASISAO 
          CODE   = DDI     

          NUMBER OF CORE -A-  ORBITALS =     6
          NUMBER OF CORE -B-  ORBITALS =     6
          NUMBER OF OCC. -A-  ORBITALS =    13
          NUMBER OF OCC. -B-  ORBITALS =    13
          NUMBER OF MOLECULAR ORBITALS =    64
          NUMBER OF   BASIS  FUNCTIONS =    64


 **** EFFICIENCY NOTE ****
 THE MP2 TRANSFORMATION CANNOT USE SYMMETRY WHEN THE GROUP IS NON-ABELIAN.
 YOU MAY BE ABLE TO SPEED UP THIS RUN BY USING AN ABELIAN SUBGROUP IN $DATA.


     ------------------------------------------
     THE POINT GROUP IS CNV, NAXIS= 3, ORDER= 6
     ------------------------------------------

     DIMENSIONS OF THE SYMMETRY SUBSPACES ARE
 A1  =   27     A2  =    1     E   =   18

 ..... DONE SETTING UP THE RUN .....
 CPU     0: STEP CPU TIME=     0.02 TOTAL CPU TIME=        0.0 (    0.0 MIN)
 TOTAL WALL CLOCK TIME=        0.0 SECONDS, CPU UTILIZATION IS 100.00%

                    --------------------------------
                    SINGLE POINT ENERGY AND GRADIENT
                    --------------------------------

          ********************
          1 ELECTRON INTEGRALS
          ********************
 ...... END OF ONE-ELECTRON INTEGRALS ......
 STEP CPU TIME =     0.00 TOTAL CPU TIME =        0.0 (    0.0 MIN)
 TOTAL WALL CLOCK TIME=        0.0 SECONDS, CPU UTILIZATION IS 100.00%

          -------------
          GUESS OPTIONS
          -------------
          GUESS =HUCKEL            NORB  =       0          NORDER=       0
          MIX   =       F          PRTMO =       F          PUNMO =       F
          TOLZ  = 1.0E-08          TOLE  = 1.0E-05
          SYMDEN=       F          PURIFY=       F

 INITIAL GUESS ORBITALS GENERATED BY HUCKEL   ROUTINE.
 HUCKEL GUESS REQUIRES     34892 WORDS.

 SYMMETRIES FOR INITIAL GUESS ORBITALS FOLLOW.   BOTH SET(S).
    13 ORBITALS ARE OCCUPIED (    6 CORE ORBITALS).
     7=?A1      8=?A1      9=?E      10=?E      11=?A1     12=E       13=?E  
    14=E       15=?E      16=?A1     17=?A1     18=A1      19=A1      20=A1  
    21=A1      22=A1      23=A1  
 ...... END OF INITIAL ORBITAL SELECTION ......
 STEP CPU TIME =     0.00 TOTAL CPU TIME =        0.0 (    0.0 MIN)
 TOTAL WALL CLOCK TIME=        0.0 SECONDS, CPU UTILIZATION IS  66.67%

                    ----------------------
                    AO INTEGRAL TECHNOLOGY
                    ----------------------
     S,P,L SHELL ROTATED AXIS INTEGRALS, REPROGRAMMED BY
        KAZUYA ISHIMURA (IMS) AND JOSE SIERRA (SYNSTAR).
     S,P,D,L SHELL ROTATED AXIS INTEGRALS PROGRAMMED BY
        KAZUYA ISHIMURA (INSTITUTE FOR MOLECULAR SCIENCE).
     S,P,D,F,G SHELL TO TOTAL QUARTET ANGULAR MOMENTUM SUM 5,
        ERIC PROGRAM BY GRAHAM FLETCHER (ELORET AND NASA ADVANCED
        SUPERCOMPUTING DIVISION, AMES RESEARCH CENTER).
     S,P,D,F,G,L SHELL GENERAL RYS QUADRATURE PROGRAMMED BY
        MICHEL DUPUIS (PACIFIC NORTHWEST NATIONAL LABORATORY).

          --------------------
          2 ELECTRON INTEGRALS
          --------------------

 THE -PK- OPTION IS OFF, THE INTEGRALS ARE NOT IN SUPERMATRIX FORM.
 STORING   15000 INTEGRALS/RECORD ON DISK, USING 12 BYTES/INTEGRAL.
 TWO ELECTRON INTEGRAL EVALUATION REQUIRES   90831 WORDS OF MEMORY.
 II,JST,KST,LST =  1  1  1  1 NREC =         1 INTLOC =    1
 II,JST,KST,LST =  2  1  1  1 NREC =         1 INTLOC =    2
 II,JST,KST,LST =  3  1  1  1 NREC =         1 INTLOC =    7
 II,JST,KST,LST =  4  1  1  1 NREC =         1 INTLOC =   22
 II,JST,KST,LST =  5  1  1  1 NREC =         1 INTLOC =   56
 II,JST,KST,LST =  6  1  1  1 NREC =         1 INTLOC =  121
 II,JST,KST,LST =  7  1  1  1 NREC =         1 INTLOC =  232
 II,JST,KST,LST =  8  1  1  1 NREC =         1 INTLOC =  367
 II,JST,KST,LST =  9  1  1  1 NREC =         1 INTLOC =  730
 II,JST,KST,LST = 10  1  1  1 NREC =         1 INTLOC = 1429
 II,JST,KST,LST = 11  1  1  1 NREC =         1 INTLOC = 2635
 II,JST,KST,LST = 12  1  1  1 NREC =         1 INTLOC = 4582
 II,JST,KST,LST = 13  1  1  1 NREC =         1 INTLOC =11002
 II,JST,KST,LST = 14  1  1  1 NREC =         1 INTLOC =13962
 II,JST,KST,LST = 15  1  1  1 NREC =         2 INTLOC =13075
 II,JST,KST,LST = 16  1  1  1 NREC =         4 INTLOC = 5756
 II,JST,KST,LST = 17  1  1  1 NREC =         6 INTLOC = 7316
 II,JST,KST,LST = 18  1  1  1 NREC =        10 INTLOC =11187
 II,JST,KST,LST = 19  1  1  1 NREC =        10 INTLOC =11187
 II,JST,KST,LST = 20  1  1  1 NREC =        10 INTLOC =11187
 II,JST,KST,LST = 21  1  1  1 NREC =        10 INTLOC =11187
 II,JST,KST,LST = 22  1  1  1 NREC =        10 INTLOC =11187
 II,JST,KST,LST = 23  1  1  1 NREC =        10 INTLOC =11187
 II,JST,KST,LST = 24  1  1  1 NREC =        10 INTLOC =11187
 II,JST,KST,LST = 25  1  1  1 NREC =        10 INTLOC =11187
 II,JST,KST,LST = 26  1  1  1 NREC =        10 INTLOC =11187
 II,JST,KST,LST = 27  1  1  1 NREC =        12 INTLOC = 9380
 II,JST,KST,LST = 28  1  1  1 NREC =        15 INTLOC =  957
 II,JST,KST,LST = 29  1  1  1 NREC =        17 INTLOC =14378
 TOTAL NUMBER OF NONZERO TWO-ELECTRON INTEGRALS =              421481
         29 INTEGRAL RECORDS WERE STORED ON DISK FILE  8.
  ...... END OF TWO-ELECTRON INTEGRALS .....
 STEP CPU TIME =     0.08 TOTAL CPU TIME =        0.1 (    0.0 MIN)
 TOTAL WALL CLOCK TIME=        0.1 SECONDS, CPU UTILIZATION IS 100.00%

          --------------------------
                 RHF SCF CALCULATION
          --------------------------

     NUCLEAR ENERGY =        66.2533738551
     MAXIT =   30     NPUNCH=    2
     EXTRAP=T  DAMP=F  SHIFT=F  RSTRCT=F  DIIS=T  DEM=F  SOSCF=F
     DENSITY MATRIX CONV=  1.00E-06
     MEMORY REQUIRED FOR RHF ITERS=     60233 WORDS.

 ITER EX DEM     TOTAL ENERGY        E CHANGE  DENSITY CHANGE    DIIS ERROR
   1  0  0     -416.4547028394  -416.4547028394   0.511226456   3.556514577
          * * *   INITIATING DIIS PROCEDURE   * * *
   2  1  0     -417.2251595341    -0.7704566947   0.291004307   0.186132580
   3  2  0     -417.2867656835    -0.0616061494   0.113969844   0.158010113
   4  3  0     -417.3563519320    -0.0695862484   0.020332540   0.008839810
   5  4  0     -417.3568299188    -0.0004779869   0.002414998   0.002572188
   6  5  0     -417.3568738772    -0.0000439584   0.001144760   0.000675386
   7  6  0     -417.3568765483    -0.0000026711   0.000212003   0.000120257
   8  7  0     -417.3568768142    -0.0000002659   0.000097186   0.000051829
   9  8  0     -417.3568768375    -0.0000000233   0.000018688   0.000006698
  10  9  0     -417.3568768381    -0.0000000006   0.000001268   0.000000749
  11 10  0     -417.3568768381    -0.0000000000   0.000000253   0.000000138

          -----------------
          DENSITY CONVERGED
          -----------------
     TIME TO FORM FOCK OPERATORS=       0.0 SECONDS (       0.0 SEC/ITER)
     TIME TO SOLVE SCF EQUATIONS=       0.0 SECONDS (       0.0 SEC/ITER)

 FINAL RHF ENERGY IS     -417.3568768381 AFTER  11 ITERATIONS

          ------------
          EIGENVECTORS
          ------------

                      1          2          3          4          5
                  -80.0324   -20.4989    -7.5691    -5.4658    -5.4657
                     A1         A1         A1         A1         E   
    1  P  1  S    0.416474   0.000005  -0.119091  -0.000171  -0.000000
    2  P  1  S    0.649007   0.000011  -0.316828  -0.000473  -0.000000
    3  P  1  S    0.011786  -0.000007   0.542064   0.001069  -0.000000
    4  P  1  S   -0.003176  -0.000096   0.569458   0.000124  -0.000000
    5  P  1  S    0.003722   0.000113   0.057517   0.000957  -0.000000
    6  P  1  S   -0.000208  -0.000176  -0.018231  -0.000720  -0.000000
    7  P  1  X   -0.000000  -0.000000  -0.000000   0.000000   1.145775
    8  P  1  Y   -0.000000  -0.000000  -0.000000   0.000000  -0.000000
    9  P  1  Z   -0.000031  -0.000184  -0.001580   1.145455  -0.000000
   10  P  1  X   -0.000000  -0.000000  -0.000000   0.000000   0.241833
   11  P  1  Y   -0.000000  -0.000000  -0.000000   0.000000  -0.000000
   12  P  1  Z   -0.000019  -0.000111  -0.000280   0.241701  -0.000000
   13  P  1  X   -0.000000  -0.000000  -0.000000   0.000000   0.039232
   14  P  1  Y   -0.000000  -0.000000  -0.000000   0.000000  -0.000000
   15  P  1  Z    0.000022   0.000255  -0.000154   0.039321  -0.000000
   16  P  1  X   -0.000000  -0.000000  -0.000000   0.000000  -0.004967
   17  P  1  Y   -0.000000  -0.000000  -0.000000   0.000000  -0.000000
   18  P  1  Z   -0.000009  -0.000027  -0.000660  -0.005247  -0.000000
   19  P  1  X   -0.000000  -0.000000  -0.000000   0.000000   0.001603
   20  P  1  Y   -0.000000  -0.000000  -0.000000   0.000000  -0.000000
   21  P  1  Z    0.000012   0.000117   0.002371   0.001317  -0.000000
   22  P  1 XX   -0.001150  -0.000043  -0.005684  -0.000260   0.000035
   23  P  1 YY   -0.001150  -0.000043  -0.005684  -0.000260  -0.000035
   24  P  1 ZZ   -0.001152   0.000181  -0.005839  -0.000329  -0.000000
   25  P  1 XY   -0.000000  -0.000000  -0.000000   0.000000  -0.000000
   26  P  1 XZ   -0.000000  -0.000000  -0.000000   0.000000  -0.000309
   27  P  1 YZ   -0.000000  -0.000000  -0.000000   0.000000  -0.000000
   28  O  2  S    0.000002   0.551511  -0.000209  -0.000624  -0.000000
   29  O  2  S   -0.000003   0.471486  -0.000212  -0.000824  -0.000000
   30  O  2  X   -0.000000  -0.000000  -0.000000   0.000000   0.000179
   31  O  2  Y   -0.000000  -0.000000  -0.000000   0.000000  -0.000000
   32  O  2  Z   -0.000003  -0.001744  -0.000142  -0.000849  -0.000000
   33  O  2  S    0.000006   0.005866   0.000112   0.001720  -0.000000
   34  O  2  X   -0.000000  -0.000000  -0.000000   0.000000   0.000464
   35  O  2  Y   -0.000000  -0.000000  -0.000000   0.000000  -0.000000
   36  O  2  Z   -0.000001   0.000587  -0.000773  -0.001988  -0.000000
   37  O  2  S    0.000001   0.000136   0.000743   0.001398  -0.000000
   38  O  2  X   -0.000000  -0.000000  -0.000000   0.000000   0.000229
   39  O  2  Y   -0.000000  -0.000000  -0.000000   0.000000  -0.000000
   40  O  2  Z    0.000003  -0.000254   0.000256  -0.000831  -0.000000
   41  O  2 XX   -0.000004  -0.000341  -0.000104  -0.000198  -0.000012
   42  O  2 YY   -0.000004  -0.000341  -0.000104  -0.000198   0.000012
   43  O  2 ZZ   -0.000006  -0.000355   0.000683   0.001233  -0.000000
   44  O  2 XY   -0.000000  -0.000000  -0.000000   0.000000  -0.000000
   45  O  2 XZ   -0.000000  -0.000000  -0.000000   0.000000  -0.000269
   46  O  2 YZ   -0.000000  -0.000000  -0.000000   0.000000  -0.000000
   47  H  3  S    0.000003  -0.000004   0.000139  -0.000292  -0.000253
   48  H  3  S   -0.000008   0.000006  -0.000354  -0.000622  -0.000573
   49  H  3  S    0.000017   0.000051   0.003124   0.000245   0.000358
   50  H  3  X    0.000005   0.000005  -0.000118  -0.000095   0.000056
   51  H  3  Y   -0.000008  -0.000009   0.000204   0.000165   0.000107
   52  H  3  Z    0.000004   0.000004  -0.000129   0.000053  -0.000064
   53  H  4  S    0.000003  -0.000004   0.000139  -0.000292  -0.000253
   54  H  4  S   -0.000008   0.000006  -0.000354  -0.000622  -0.000573
   55  H  4  S    0.000017   0.000051   0.003124   0.000245   0.000358
   56  H  4  X    0.000005   0.000005  -0.000118  -0.000095   0.000056
   57  H  4  Y    0.000008   0.000009  -0.000204  -0.000165  -0.000107
   58  H  4  Z    0.000004   0.000004  -0.000129   0.000053  -0.000064
   59  H  5  S    0.000003  -0.000004   0.000139  -0.000292   0.000506
   60  H  5  S   -0.000008   0.000006  -0.000354  -0.000622   0.001145
   61  H  5  S    0.000017   0.000051   0.003124   0.000245  -0.000716
   62  H  5  X   -0.000010  -0.000010   0.000236   0.000191  -0.000129
   63  H  5  Y   -0.000000  -0.000000  -0.000000   0.000000  -0.000000
   64  H  5  Z    0.000004   0.000004  -0.000129   0.000053   0.000128

                      6          7          8          9         10
                   -5.4657    -1.3060    -0.8711    -0.6137    -0.6137
                     E          A1         A1         E          E   
    1  P  1  S   -0.000000   0.013445   0.024201   0.000000   0.000000
    2  P  1  S   -0.000000   0.037542   0.068006   0.000000   0.000000
    3  P  1  S   -0.000000  -0.077582  -0.144822   0.000000   0.000000
    4  P  1  S   -0.000000  -0.151699  -0.272725   0.000000   0.000000
    5  P  1  S   -0.000000   0.262486   0.470063   0.000000   0.000000
    6  P  1  S   -0.000000   0.028537   0.280990   0.000000   0.000000
    7  P  1  X   -0.000000   0.000000  -0.000000  -0.212498   0.000000
    8  P  1  Y    1.145775   0.000000  -0.000000   0.000000  -0.212498
    9  P  1  Z   -0.000000  -0.104868   0.096706   0.000000   0.000000
   10  P  1  X   -0.000000   0.000000  -0.000000  -0.040917   0.000000
   11  P  1  Y    0.241833   0.000000  -0.000000   0.000000  -0.040917
   12  P  1  Z   -0.000000  -0.021622   0.018966   0.000000   0.000000
   13  P  1  X   -0.000000   0.000000  -0.000000   0.195114   0.000000
   14  P  1  Y    0.039232   0.000000  -0.000000   0.000000   0.195114
   15  P  1  Z   -0.000000   0.094765  -0.083982   0.000000   0.000000
   16  P  1  X   -0.000000   0.000000  -0.000000   0.297249   0.000000
   17  P  1  Y   -0.004967   0.000000  -0.000000   0.000000   0.297249
   18  P  1  Z   -0.000000   0.065045  -0.101993   0.000000   0.000000
   19  P  1  X   -0.000000   0.000000  -0.000000   0.054571   0.000000
   20  P  1  Y    0.001603   0.000000  -0.000000   0.000000   0.054571
   21  P  1  Z   -0.000000  -0.010162  -0.029826   0.000000   0.000000
   22  P  1 XX   -0.000000  -0.036326   0.007044   0.039751   0.000000
   23  P  1 YY   -0.000000  -0.036326   0.007044  -0.039751   0.000000
   24  P  1 ZZ   -0.000000   0.052040  -0.025496   0.000000   0.000000
   25  P  1 XY   -0.000040   0.000000  -0.000000   0.000000  -0.045900
   26  P  1 XZ   -0.000000   0.000000  -0.000000  -0.020575   0.000000
   27  P  1 YZ   -0.000309   0.000000  -0.000000   0.000000  -0.020575
   28  O  2  S   -0.000000  -0.108394   0.038609   0.000000   0.000000
   29  O  2  S   -0.000000  -0.180241   0.066007   0.000000   0.000000
   30  O  2  X   -0.000000   0.000000  -0.000000   0.104330   0.000000
   31  O  2  Y    0.000179   0.000000  -0.000000   0.000000   0.104330
   32  O  2  Z   -0.000000  -0.048320  -0.038953   0.000000   0.000000
   33  O  2  S   -0.000000   0.510940  -0.189944   0.000000   0.000000
   34  O  2  X   -0.000000   0.000000  -0.000000   0.166022   0.000000
   35  O  2  Y    0.000464   0.000000  -0.000000   0.000000   0.166022
   36  O  2  Z   -0.000000  -0.091152  -0.060241   0.000000   0.000000
   37  O  2  S   -0.000000   0.394889  -0.212652   0.000000   0.000000
   38  O  2  X   -0.000000   0.000000  -0.000000   0.136988   0.000000
   39  O  2  Y    0.000229   0.000000  -0.000000   0.000000   0.136988
   40  O  2  Z   -0.000000  -0.041202  -0.030862   0.000000   0.000000
   41  O  2 XX   -0.000000  -0.004963   0.000400   0.000052   0.000000
   42  O  2 YY   -0.000000  -0.004963   0.000400  -0.000052   0.000000
   43  O  2 ZZ   -0.000000   0.017222   0.007747   0.000000   0.000000
   44  O  2 XY    0.000014   0.000000  -0.000000   0.000000  -0.000060
   45  O  2 XZ   -0.000000   0.000000  -0.000000  -0.015975   0.000000
   46  O  2 YZ   -0.000269   0.000000  -0.000000   0.000000  -0.015975
   47  H  3  S    0.000438   0.009337   0.082662  -0.068046   0.117860
   48  H  3  S    0.000992   0.023542   0.139336  -0.127864   0.221468
   49  H  3  S   -0.000620  -0.000564   0.011254  -0.053515   0.092690
   50  H  3  X    0.000107   0.002909   0.010189  -0.002701   0.012114
   51  H  3  Y   -0.000067  -0.005038  -0.017648   0.012114  -0.016689
   52  H  3  Z    0.000111   0.004436   0.009395  -0.005880   0.010184
   53  H  4  S   -0.000438   0.009337   0.082662  -0.068046  -0.117860
   54  H  4  S   -0.000992   0.023542   0.139336  -0.127864  -0.221468
   55  H  4  S    0.000620  -0.000564   0.011254  -0.053515  -0.092690
   56  H  4  X   -0.000107   0.002909   0.010189  -0.002701  -0.012114
   57  H  4  Y   -0.000067   0.005038   0.017648  -0.012114  -0.016689
   58  H  4  Z   -0.000111   0.004436   0.009395  -0.005880  -0.010184
   59  H  5  S   -0.000000   0.009337   0.082662   0.136093   0.000000
   60  H  5  S   -0.000000   0.023542   0.139336   0.255729   0.000000
   61  H  5  S   -0.000000  -0.000564   0.011254   0.107030   0.000000
   62  H  5  X   -0.000000  -0.005817  -0.020378  -0.023683   0.000000
   63  H  5  Y    0.000118   0.000000  -0.000000   0.000000   0.004293
   64  H  5  Z   -0.000000   0.004436   0.009395   0.011760   0.000000

                     11         12         13         14         15
                   -0.5610    -0.4424    -0.4424     0.1299     0.1430
                     A1         E          E          A1         A1  
    1  P  1  S   -0.006214  -0.000000  -0.000000   0.014909   0.004026
    2  P  1  S   -0.017472  -0.000000  -0.000000   0.041741   0.011585
    3  P  1  S    0.037206  -0.000000  -0.000000  -0.086350  -0.027742
    4  P  1  S    0.076106  -0.000000  -0.000000  -0.218807  -0.032175
    5  P  1  S   -0.164858  -0.000000  -0.000000   0.205507   0.079579
    6  P  1  S   -0.052885  -0.000000  -0.000000   2.212355  -0.131631
    7  P  1  X   -0.000000   0.027999  -0.000000  -0.000000   0.000000
    8  P  1  Y   -0.000000  -0.000000   0.027999  -0.000000   0.000000
    9  P  1  Z    0.186572  -0.000000  -0.000000   0.073854  -0.065946
   10  P  1  X   -0.000000   0.004911  -0.000000  -0.000000   0.000000
   11  P  1  Y   -0.000000  -0.000000   0.004911  -0.000000   0.000000
   12  P  1  Z    0.035868  -0.000000  -0.000000   0.011675  -0.014296
   13  P  1  X   -0.000000  -0.028611  -0.000000  -0.000000   0.000000
   14  P  1  Y   -0.000000  -0.000000  -0.028611  -0.000000   0.000000
   15  P  1  Z   -0.187234  -0.000000  -0.000000  -0.060632   0.070693
   16  P  1  X   -0.000000  -0.040633  -0.000000  -0.000000   0.000000
   17  P  1  Y   -0.000000  -0.000000  -0.040633  -0.000000   0.000000
   18  P  1  Z   -0.273974  -0.000000  -0.000000  -0.187750   0.093743
   19  P  1  X   -0.000000   0.116795  -0.000000  -0.000000   0.000000
   20  P  1  Y   -0.000000  -0.000000   0.116795  -0.000000   0.000000
   21  P  1  Z    0.028453  -0.000000  -0.000000  -0.378717   1.424934
   22  P  1 XX    0.040163  -0.034070  -0.000000  -0.060589   0.095131
   23  P  1 YY    0.040163   0.034070  -0.000000  -0.060589   0.095131
   24  P  1 ZZ   -0.076562  -0.000000  -0.000000  -0.068312  -0.119243
   25  P  1 XY   -0.000000  -0.000000   0.039340  -0.000000   0.000000
   26  P  1 XZ   -0.000000   0.136744  -0.000000  -0.000000   0.000000
   27  P  1 YZ   -0.000000  -0.000000   0.136744  -0.000000   0.000000
   28  O  2  S   -0.038546  -0.000000  -0.000000   0.002111   0.029091
   29  O  2  S   -0.067358  -0.000000  -0.000000   0.004191   0.056808
   30  O  2  X   -0.000000   0.243439  -0.000000  -0.000000   0.000000
   31  O  2  Y   -0.000000  -0.000000   0.243439  -0.000000   0.000000
   32  O  2  Z    0.231149  -0.000000  -0.000000   0.046504   0.063149
   33  O  2  S    0.196051  -0.000000  -0.000000  -0.001442  -0.098324
   34  O  2  X   -0.000000   0.372336  -0.000000  -0.000000   0.000000
   35  O  2  Y   -0.000000  -0.000000   0.372336  -0.000000   0.000000
   36  O  2  Z    0.351378  -0.000000  -0.000000   0.058132   0.108630
   37  O  2  S    0.335492  -0.000000  -0.000000  -0.131076  -0.891200
   38  O  2  X   -0.000000   0.410770  -0.000000  -0.000000   0.000000
   39  O  2  Y   -0.000000  -0.000000   0.410770  -0.000000   0.000000
   40  O  2  Z    0.252391  -0.000000  -0.000000   0.180571   0.158749
   41  O  2 XX    0.005366  -0.000696  -0.000000   0.002580   0.030007
   42  O  2 YY    0.005366   0.000696  -0.000000   0.002580   0.030007
   43  O  2 ZZ   -0.028662  -0.000000  -0.000000   0.002531   0.018526
   44  O  2 XY   -0.000000  -0.000000   0.000804  -0.000000   0.000000
   45  O  2 XZ   -0.000000  -0.024514  -0.000000  -0.000000   0.000000
   46  O  2 YZ   -0.000000  -0.000000  -0.024514  -0.000000   0.000000
   47  H  3  S    0.037868   0.046206  -0.080030  -0.032513  -0.005091
   48  H  3  S    0.055200   0.106739  -0.184878   0.050071   0.043074
   49  H  3  S    0.054808   0.106096  -0.183764  -1.067345   0.334391
   50  H  3  X    0.002195  -0.000954  -0.006189   0.003671  -0.004750
   51  H  3  Y   -0.003802  -0.006189   0.006192  -0.006358   0.008227
   52  H  3  Z   -0.001560   0.002051  -0.003553   0.001057   0.021673
   53  H  4  S    0.037868   0.046206   0.080030  -0.032513  -0.005091
   54  H  4  S    0.055200   0.106739   0.184878   0.050071   0.043074
   55  H  4  S    0.054808   0.106096   0.183764  -1.067345   0.334391
   56  H  4  X    0.002195  -0.000954   0.006189   0.003671  -0.004750
   57  H  4  Y    0.003802   0.006189   0.006192   0.006358  -0.008227
   58  H  4  Z   -0.001560   0.002051   0.003553   0.001057   0.021673
   59  H  5  S    0.037868  -0.092411  -0.000000  -0.032513  -0.005091
   60  H  5  S    0.055200  -0.213479  -0.000000   0.050071   0.043074
   61  H  5  S    0.054808  -0.212192  -0.000000  -1.067345   0.334391
   62  H  5  X   -0.004390   0.009765  -0.000000  -0.007342   0.009500
   63  H  5  Y   -0.000000  -0.000000  -0.004527  -0.000000   0.000000
   64  H  5  Z   -0.001560  -0.004103  -0.000000   0.001057   0.021673

                     16         17         18         19         20
                    0.1938     0.1938     0.2550     0.2550     0.4718
                     E          E          E          E          A1  
    1  P  1  S   -0.000000   0.000000   0.000000   0.000000   0.009717
    2  P  1  S   -0.000000   0.000000   0.000000   0.000000   0.027351
    3  P  1  S   -0.000000   0.000000   0.000000   0.000000  -0.058237
    4  P  1  S   -0.000000   0.000000   0.000000   0.000000  -0.140351
    5  P  1  S   -0.000000   0.000000   0.000000   0.000000   0.013760
    6  P  1  S   -0.000000   0.000000   0.000000   0.000000   2.127080
    7  P  1  X    0.134207   0.000000   0.103237   0.000000   0.000000
    8  P  1  Y   -0.000000  -0.134207   0.000000   0.103237   0.000000
    9  P  1  Z   -0.000000   0.000000   0.000000   0.000000  -0.120844
   10  P  1  X    0.025309   0.000000   0.007778   0.000000   0.000000
   11  P  1  Y   -0.000000  -0.025309   0.000000   0.007778   0.000000
   12  P  1  Z   -0.000000   0.000000   0.000000   0.000000  -0.003783
   13  P  1  X   -0.140917   0.000000  -0.008844   0.000000   0.000000
   14  P  1  Y   -0.000000   0.140917   0.000000  -0.008844   0.000000
   15  P  1  Z   -0.000000   0.000000   0.000000   0.000000  -0.087097
   16  P  1  X   -0.235795   0.000000  -0.797550   0.000000   0.000000
   17  P  1  Y   -0.000000   0.235795   0.000000  -0.797550   0.000000
   18  P  1  Z   -0.000000   0.000000   0.000000   0.000000   1.740347
   19  P  1  X   -1.820895   0.000000   1.050129   0.000000   0.000000
   20  P  1  Y   -0.000000   1.820895   0.000000   1.050129   0.000000
   21  P  1  Z   -0.000000   0.000000   0.000000   0.000000  -1.669152
   22  P  1 XX    0.093777   0.000000  -0.050559   0.000000   0.068544
   23  P  1 YY   -0.093777   0.000000   0.050559   0.000000   0.068544
   24  P  1 ZZ   -0.000000   0.000000   0.000000   0.000000  -0.240147
   25  P  1 XY   -0.000000   0.108285   0.000000   0.058380   0.000000
   26  P  1 XZ   -0.007185   0.000000   0.030281   0.000000   0.000000
   27  P  1 YZ   -0.000000   0.007185   0.000000   0.030281   0.000000
   28  O  2  S   -0.000000   0.000000   0.000000   0.000000   0.016452
   29  O  2  S   -0.000000   0.000000   0.000000   0.000000   0.027163
   30  O  2  X    0.104592   0.000000  -0.022620   0.000000   0.000000
   31  O  2  Y   -0.000000  -0.104592   0.000000  -0.022620   0.000000
   32  O  2  Z   -0.000000   0.000000   0.000000   0.000000   0.138354
   33  O  2  S   -0.000000   0.000000   0.000000   0.000000  -0.091640
   34  O  2  X    0.115652   0.000000  -0.012084   0.000000   0.000000
   35  O  2  Y   -0.000000  -0.115652   0.000000  -0.012084   0.000000
   36  O  2  Z   -0.000000   0.000000   0.000000   0.000000   0.214341
   37  O  2  S   -0.000000   0.000000   0.000000   0.000000  -0.494443
   38  O  2  X    0.409608   0.000000  -0.114823   0.000000   0.000000
   39  O  2  Y   -0.000000  -0.409608   0.000000  -0.114823   0.000000
   40  O  2  Z   -0.000000   0.000000   0.000000   0.000000   0.816359
   41  O  2 XX    0.003354   0.000000  -0.000602   0.000000  -0.004249
   42  O  2 YY   -0.003354   0.000000   0.000602   0.000000  -0.004249
   43  O  2 ZZ   -0.000000   0.000000   0.000000   0.000000  -0.008295
   44  O  2 XY   -0.000000   0.003873   0.000000   0.000695   0.000000
   45  O  2 XZ   -0.000279   0.000000   0.004309   0.000000   0.000000
   46  O  2 YZ   -0.000000   0.000279   0.000000   0.004309   0.000000
   47  H  3  S   -0.032525  -0.056335   0.007384  -0.012789  -0.027120
   48  H  3  S   -0.008776  -0.015201   0.217716  -0.377094  -0.259237
   49  H  3  S   -0.981151  -1.699403  -0.322742   0.559005  -0.435266
   50  H  3  X   -0.022774   0.016344   0.008328   0.002784   0.000541
   51  H  3  Y   -0.016344   0.003902   0.002784   0.005113  -0.000937
   52  H  3  Z    0.002951   0.005111   0.000671  -0.001162   0.028628
   53  H  4  S   -0.032525   0.056335   0.007384   0.012789  -0.027120
   54  H  4  S   -0.008776   0.015201   0.217716   0.377094  -0.259237
   55  H  4  S   -0.981151   1.699403  -0.322742  -0.559005  -0.435266
   56  H  4  X   -0.022774  -0.016344   0.008328  -0.002784   0.000541
   57  H  4  Y    0.016344   0.003902  -0.002784   0.005113   0.000937
   58  H  4  Z    0.002951  -0.005111   0.000671   0.001162   0.028628
   59  H  5  S    0.065050   0.000000  -0.014767   0.000000  -0.027120
   60  H  5  S    0.017552   0.000000  -0.435431   0.000000  -0.259237
   61  H  5  S    1.962302   0.000000   0.645484   0.000000  -0.435266
   62  H  5  X    0.005535   0.000000   0.003505   0.000000  -0.001082
   63  H  5  Y   -0.000000   0.032210   0.000000   0.009935   0.000000
   64  H  5  Z   -0.005902   0.000000  -0.001342   0.000000   0.028628

                     21         22         23         24         25
                    0.4753     0.4753     0.4779     0.7079     0.7984
                     E          E          A1         A1         E   
    1  P  1  S    0.000000  -0.000000  -0.010784  -0.027388   0.000000
    2  P  1  S    0.000000  -0.000000  -0.031034  -0.080953   0.000000
    3  P  1  S    0.000000  -0.000000   0.073835   0.217388   0.000000
    4  P  1  S    0.000000  -0.000000   0.105694   0.108526   0.000000
    5  P  1  S    0.000000  -0.000000  -0.042469  -2.001590   0.000000
    6  P  1  S    0.000000  -0.000000  -0.340704   5.235208   0.000000
    7  P  1  X   -0.161016  -0.000000   0.000000  -0.000000  -0.056330
    8  P  1  Y    0.000000   0.161016   0.000000  -0.000000   0.000000
    9  P  1  Z    0.000000  -0.000000  -0.090000  -0.023744   0.000000
   10  P  1  X   -0.017824  -0.000000   0.000000  -0.000000  -0.012382
   11  P  1  Y    0.000000   0.017824   0.000000  -0.000000   0.000000
   12  P  1  Z    0.000000  -0.000000  -0.007949  -0.005722   0.000000
   13  P  1  X    0.012448  -0.000000   0.000000  -0.000000   0.101103
   14  P  1  Y    0.000000  -0.012448   0.000000  -0.000000   0.000000
   15  P  1  Z    0.000000  -0.000000  -0.023635   0.060165   0.000000
   16  P  1  X    1.358920  -0.000000   0.000000  -0.000000   0.021675
   17  P  1  Y    0.000000  -1.358920   0.000000  -0.000000   0.000000
   18  P  1  Z    0.000000  -0.000000   1.022226  -0.008302   0.000000
   19  P  1  X   -1.975265  -0.000000   0.000000  -0.000000   0.131503
   20  P  1  Y    0.000000   1.975265   0.000000  -0.000000   0.000000
   21  P  1  Z    0.000000  -0.000000  -0.395310  -0.774625   0.000000
   22  P  1 XX   -0.121897  -0.000000   0.005163  -0.435783   0.516526
   23  P  1 YY    0.121897  -0.000000   0.005163  -0.435783  -0.516526
   24  P  1 ZZ    0.000000  -0.000000  -0.106832  -0.391603   0.000000
   25  P  1 XY    0.000000  -0.140755   0.000000  -0.000000   0.000000
   26  P  1 XZ    0.072311  -0.000000   0.000000  -0.000000   0.550218
   27  P  1 YZ    0.000000  -0.072311   0.000000  -0.000000   0.000000
   28  O  2  S    0.000000  -0.000000  -0.015082   0.002148   0.000000
   29  O  2  S    0.000000  -0.000000  -0.023517   0.004627   0.000000
   30  O  2  X   -0.036397  -0.000000   0.000000  -0.000000  -0.102450
   31  O  2  Y    0.000000   0.036397   0.000000  -0.000000   0.000000
   32  O  2  Z    0.000000  -0.000000  -0.005656  -0.032065   0.000000
   33  O  2  S    0.000000  -0.000000   0.112368  -0.016975   0.000000
   34  O  2  X   -0.057648  -0.000000   0.000000  -0.000000  -0.243402
   35  O  2  Y    0.000000   0.057648   0.000000  -0.000000   0.000000
   36  O  2  Z    0.000000  -0.000000  -0.004569  -0.061092   0.000000
   37  O  2  S    0.000000  -0.000000  -0.136591  -0.431895   0.000000
   38  O  2  X   -0.076213  -0.000000   0.000000  -0.000000   0.035374
   39  O  2  Y    0.000000   0.076213   0.000000  -0.000000   0.000000
   40  O  2  Z    0.000000  -0.000000   0.163666   0.059859   0.000000
   41  O  2 XX    0.000022  -0.000000   0.009300   0.010569   0.011352
   42  O  2 YY   -0.000022  -0.000000   0.009300   0.010569  -0.011352
   43  O  2 ZZ    0.000000  -0.000000   0.014593  -0.011647   0.000000
   44  O  2 XY    0.000000   0.000025   0.000000  -0.000000   0.000000
   45  O  2 XZ   -0.017401  -0.000000   0.000000  -0.000000  -0.025462
   46  O  2 YZ    0.000000   0.017401   0.000000  -0.000000   0.000000
   47  H  3  S    0.032239   0.055839   0.075616   0.015305   0.006001
   48  H  3  S    0.590730   1.023175   0.976333  -0.175903   0.062342
   49  H  3  S   -1.176101  -2.037067  -0.518246  -1.083293  -0.001149
   50  H  3  X    0.039416   0.003243   0.001277  -0.020043  -0.120422
   51  H  3  Y   -0.003243  -0.043160  -0.002212   0.034716  -0.104003
   52  H  3  Z    0.007231   0.012525   0.035501  -0.034989  -0.083335
   53  H  4  S    0.032239  -0.055839   0.075616   0.015305   0.006001
   54  H  4  S    0.590730  -1.023175   0.976333  -0.175903   0.062342
   55  H  4  S   -1.176101   2.037067  -0.518246  -1.083293  -0.001149
   56  H  4  X    0.039416  -0.003243   0.001277  -0.020043  -0.120422
   57  H  4  Y    0.003243  -0.043160   0.002212  -0.034716   0.104003
   58  H  4  Z    0.007231  -0.012525   0.035501  -0.034989  -0.083335
   59  H  5  S   -0.064477  -0.000000   0.075616   0.015305  -0.012003
   60  H  5  S   -1.181461  -0.000000   0.976333  -0.175903  -0.124685
   61  H  5  S    2.352203  -0.000000  -0.518246  -1.083293   0.002298
   62  H  5  X    0.045032  -0.000000  -0.002554   0.040087   0.059716
   63  H  5  Y    0.000000  -0.037544   0.000000  -0.000000   0.000000
   64  H  5  Z   -0.014463  -0.000000   0.035501  -0.034989   0.166671

                     26         27         28         29         30
                    0.7984     1.0226     1.1026     1.1026     1.1742
                     E          A1         E          E          E   
    1  P  1  S   -0.000000   0.000855   0.000000  -0.000000  -0.000000
    2  P  1  S   -0.000000   0.002722   0.000000  -0.000000  -0.000000
    3  P  1  S   -0.000000  -0.009414   0.000000  -0.000000  -0.000000
    4  P  1  S   -0.000000   0.011189   0.000000  -0.000000  -0.000000
    5  P  1  S   -0.000000   0.044451   0.000000  -0.000000  -0.000000
    6  P  1  S   -0.000000   1.663597   0.000000  -0.000000  -0.000000
    7  P  1  X   -0.000000   0.000000   0.190543  -0.000000  -0.036675
    8  P  1  Y    0.056330   0.000000   0.000000  -0.190543  -0.000000
    9  P  1  Z   -0.000000  -0.197544   0.000000  -0.000000  -0.000000
   10  P  1  X   -0.000000   0.000000   0.049694  -0.000000  -0.009365
   11  P  1  Y    0.012382   0.000000   0.000000  -0.049694  -0.000000
   12  P  1  Z   -0.000000  -0.053661   0.000000  -0.000000  -0.000000
   13  P  1  X   -0.000000   0.000000  -0.504937  -0.000000   0.109373
   14  P  1  Y   -0.101103   0.000000   0.000000   0.504937  -0.000000
   15  P  1  Z   -0.000000   0.514583   0.000000  -0.000000  -0.000000
   16  P  1  X   -0.000000   0.000000   0.322224  -0.000000  -0.275866
   17  P  1  Y   -0.021675   0.000000   0.000000  -0.322224  -0.000000
   18  P  1  Z   -0.000000   0.667922   0.000000  -0.000000  -0.000000
   19  P  1  X   -0.000000   0.000000   0.071645  -0.000000  -0.687342
   20  P  1  Y   -0.131503   0.000000   0.000000  -0.071645  -0.000000
   21  P  1  Z   -0.000000  -0.393261   0.000000  -0.000000  -0.000000
   22  P  1 XX   -0.000000  -0.153091  -0.456966  -0.000000  -0.235364
   23  P  1 YY   -0.000000  -0.153091   0.456966  -0.000000   0.235364
   24  P  1 ZZ   -0.000000   0.488794   0.000000  -0.000000  -0.000000
   25  P  1 XY    0.596432   0.000000   0.000000  -0.527659  -0.000000
   26  P  1 XZ   -0.000000   0.000000   0.681209  -0.000000  -0.136191
   27  P  1 YZ   -0.550218   0.000000   0.000000  -0.681209  -0.000000
   28  O  2  S   -0.000000   0.049627   0.000000  -0.000000  -0.000000
   29  O  2  S   -0.000000   0.079669   0.000000  -0.000000  -0.000000
   30  O  2  X   -0.000000   0.000000  -0.019507  -0.000000  -0.222336
   31  O  2  Y    0.102450   0.000000   0.000000   0.019507  -0.000000
   32  O  2  Z   -0.000000  -0.089531   0.000000  -0.000000  -0.000000
   33  O  2  S   -0.000000  -0.321632   0.000000  -0.000000  -0.000000
   34  O  2  X   -0.000000   0.000000   0.018198  -0.000000  -0.833891
   35  O  2  Y    0.243402   0.000000   0.000000  -0.018198  -0.000000
   36  O  2  Z   -0.000000  -0.526482   0.000000  -0.000000  -0.000000
   37  O  2  S   -0.000000  -0.624558   0.000000  -0.000000  -0.000000
   38  O  2  X   -0.000000   0.000000  -0.238655  -0.000000   1.382778
   39  O  2  Y   -0.035374   0.000000   0.000000   0.238655  -0.000000
   40  O  2  Z   -0.000000   1.823738   0.000000  -0.000000  -0.000000
   41  O  2 XX   -0.000000  -0.046049  -0.014603  -0.000000  -0.005433
   42  O  2 YY   -0.000000  -0.046049   0.014603  -0.000000   0.005433
   43  O  2 ZZ   -0.000000   0.005137   0.000000  -0.000000  -0.000000
   44  O  2 XY    0.013108   0.000000   0.000000  -0.016862  -0.000000
   45  O  2 XZ   -0.000000   0.000000  -0.035714  -0.000000   0.035399
   46  O  2 YZ    0.025462   0.000000   0.000000   0.035714  -0.000000
   47  H  3  S    0.010395   0.007292   0.010810   0.018724   0.009312
   48  H  3  S    0.107980   0.021131  -0.401068  -0.694669  -0.099653
   49  H  3  S   -0.001990  -0.355053   0.372301   0.644844  -0.203562
   50  H  3  X    0.104003  -0.006963   0.055029   0.088356  -0.032525
   51  H  3  Y    0.000330   0.012061  -0.088356  -0.157054   0.000190
   52  H  3  Z   -0.144341  -0.070204   0.031293   0.054202   0.035392
   53  H  4  S   -0.010395   0.007292   0.010810  -0.018724   0.009312
   54  H  4  S   -0.107980   0.021131  -0.401068   0.694669  -0.099653
   55  H  4  S    0.001990  -0.355053   0.372301  -0.644844  -0.203562
   56  H  4  X   -0.104003  -0.006963   0.055029  -0.088356  -0.032525
   57  H  4  Y    0.000330  -0.012061   0.088356  -0.157054  -0.000190
   58  H  4  Z    0.144341  -0.070204   0.031293  -0.054202   0.035392
   59  H  5  S   -0.000000   0.007292  -0.021621  -0.000000  -0.018624
   60  H  5  S   -0.000000   0.021131   0.802135  -0.000000   0.199305
   61  H  5  S   -0.000000  -0.355053  -0.744602  -0.000000   0.407125
   62  H  5  X   -0.000000   0.013926   0.208067  -0.000000  -0.032854
   63  H  5  Y    0.180468   0.000000   0.000000  -0.004017  -0.000000
   64  H  5  Z   -0.000000  -0.070204  -0.062587  -0.000000  -0.070784

                     31         32         33         34         35
                    1.1742     1.3432     1.4377     1.4884     1.4884
                     E          A1         A1         E          E   
    1  P  1  S   -0.000000   0.007738  -0.003788  -0.000000  -0.000000
    2  P  1  S   -0.000000   0.022900  -0.010626  -0.000000  -0.000000
    3  P  1  S   -0.000000  -0.061331   0.022047  -0.000000  -0.000000
    4  P  1  S   -0.000000  -0.056888   0.066662  -0.000000  -0.000000
    5  P  1  S   -0.000000   0.284154  -0.005622  -0.000000  -0.000000
    6  P  1  S   -0.000000  -1.951134  -1.725838  -0.000000  -0.000000
    7  P  1  X   -0.000000  -0.000000  -0.000000   0.463984  -0.000000
    8  P  1  Y   -0.036675  -0.000000  -0.000000  -0.000000   0.463984
    9  P  1  Z   -0.000000  -0.303426   0.264639  -0.000000  -0.000000
   10  P  1  X   -0.000000  -0.000000  -0.000000   0.132152  -0.000000
   11  P  1  Y   -0.009365  -0.000000  -0.000000  -0.000000   0.132152
   12  P  1  Z   -0.000000  -0.069409   0.073172  -0.000000  -0.000000
   13  P  1  X   -0.000000  -0.000000  -0.000000  -1.530782  -0.000000
   14  P  1  Y    0.109373  -0.000000  -0.000000  -0.000000  -1.530782
   15  P  1  Z   -0.000000   0.757882  -0.789661  -0.000000  -0.000000
   16  P  1  X   -0.000000  -0.000000  -0.000000   2.114300  -0.000000
   17  P  1  Y   -0.275866  -0.000000  -0.000000  -0.000000   2.114300
   18  P  1  Z   -0.000000  -1.560567  -0.102483  -0.000000  -0.000000
   19  P  1  X   -0.000000  -0.000000  -0.000000  -1.218649  -0.000000
   20  P  1  Y   -0.687342  -0.000000  -0.000000  -0.000000  -1.218649
   21  P  1  Z   -0.000000   0.509557  -0.534203  -0.000000  -0.000000
   22  P  1 XX   -0.000000   0.021852   0.323908   0.346441  -0.000000
   23  P  1 YY   -0.000000   0.021852   0.323908  -0.346441  -0.000000
   24  P  1 ZZ   -0.000000   0.041616  -0.683520  -0.000000  -0.000000
   25  P  1 XY    0.271775  -0.000000  -0.000000  -0.000000  -0.400036
   26  P  1 XZ   -0.000000  -0.000000  -0.000000  -0.444991  -0.000000
   27  P  1 YZ   -0.136191  -0.000000  -0.000000  -0.000000  -0.444991
   28  O  2  S   -0.000000   0.062252   0.059219  -0.000000  -0.000000
   29  O  2  S   -0.000000   0.082648   0.063664  -0.000000  -0.000000
   30  O  2  X   -0.000000  -0.000000  -0.000000  -0.018023  -0.000000
   31  O  2  Y   -0.222336  -0.000000  -0.000000  -0.000000  -0.018023
   32  O  2  Z   -0.000000   0.192195  -0.140736  -0.000000  -0.000000
   33  O  2  S   -0.000000  -0.824741  -1.044217  -0.000000  -0.000000
   34  O  2  X   -0.000000  -0.000000  -0.000000  -0.139691  -0.000000
   35  O  2  Y   -0.833891  -0.000000  -0.000000  -0.000000  -0.139691
   36  O  2  Z   -0.000000   0.576228  -0.284521  -0.000000  -0.000000
   37  O  2  S   -0.000000   2.009664   2.829257  -0.000000  -0.000000
   38  O  2  X   -0.000000  -0.000000  -0.000000   0.226222  -0.000000
   39  O  2  Y    1.382778  -0.000000  -0.000000  -0.000000   0.226222
   40  O  2  Z   -0.000000  -1.438469  -0.727888  -0.000000  -0.000000
   41  O  2 XX   -0.000000  -0.137532  -0.154058   0.016773  -0.000000
   42  O  2 YY   -0.000000  -0.137532  -0.154058  -0.016773  -0.000000
   43  O  2 ZZ   -0.000000  -0.117680  -0.271687  -0.000000  -0.000000
   44  O  2 XY    0.006274  -0.000000  -0.000000  -0.000000  -0.019368
   45  O  2 XZ   -0.000000  -0.000000  -0.000000   0.053148  -0.000000
   46  O  2 YZ    0.035399  -0.000000  -0.000000  -0.000000   0.053148
   47  H  3  S   -0.016129   0.006251   0.055347  -0.010026   0.017365
   48  H  3  S    0.172604   0.122567   0.067499   0.375346  -0.650118
   49  H  3  S    0.352581   0.208463   0.109794  -0.382513   0.662532
   50  H  3  X    0.000190  -0.030537   0.029375   0.263764  -0.049581
   51  H  3  Y   -0.032744   0.052892  -0.050880  -0.049581   0.321016
   52  H  3  Z   -0.061301  -0.217660   0.009666  -0.091080   0.157755
   53  H  4  S    0.016129   0.006251   0.055347  -0.010026  -0.017365
   54  H  4  S   -0.172604   0.122567   0.067499   0.375346   0.650118
   55  H  4  S   -0.352581   0.208463   0.109794  -0.382513  -0.662532
   56  H  4  X   -0.000190  -0.030537   0.029375   0.263764   0.049581
   57  H  4  Y   -0.032744  -0.052892   0.050880   0.049581   0.321016
   58  H  4  Z    0.061301  -0.217660   0.009666  -0.091080  -0.157755
   59  H  5  S   -0.000000   0.006251   0.055347   0.020052  -0.000000
   60  H  5  S   -0.000000   0.122567   0.067499  -0.750691  -0.000000
   61  H  5  S   -0.000000   0.208463   0.109794   0.765026  -0.000000
   62  H  5  X   -0.000000   0.061075  -0.058751   0.349641  -0.000000
   63  H  5  Y   -0.032415  -0.000000  -0.000000  -0.000000   0.235139
   64  H  5  Z   -0.000000  -0.217660   0.009666   0.182160  -0.000000

                     36         37         38         39         40
                    1.5039     1.6200     1.6679     1.6679     1.8617
                     A2         A1         E          E          E   
    1  P  1  S    0.000000   0.003473   0.000000   0.000000  -0.000000
    2  P  1  S    0.000000   0.010082   0.000000   0.000000  -0.000000
    3  P  1  S    0.000000  -0.024869   0.000000   0.000000  -0.000000
    4  P  1  S    0.000000  -0.045384   0.000000   0.000000  -0.000000
    5  P  1  S    0.000000  -0.013145   0.000000   0.000000  -0.000000
    6  P  1  S    0.000000   1.298424   0.000000   0.000000  -0.000000
    7  P  1  X    0.000000   0.000000   0.271391   0.000000   0.217926
    8  P  1  Y    0.000000   0.000000   0.000000   0.271391  -0.000000
    9  P  1  Z    0.000000   0.381917   0.000000   0.000000  -0.000000
   10  P  1  X    0.000000   0.000000   0.080793   0.000000   0.067193
   11  P  1  Y    0.000000   0.000000   0.000000   0.080793  -0.000000
   12  P  1  Z    0.000000   0.117564   0.000000   0.000000  -0.000000
   13  P  1  X    0.000000   0.000000  -0.980793   0.000000  -0.830543
   14  P  1  Y    0.000000   0.000000   0.000000  -0.980793  -0.000000
   15  P  1  Z    0.000000  -1.510436   0.000000   0.000000  -0.000000
   16  P  1  X    0.000000   0.000000   1.468167   0.000000   1.217161
   17  P  1  Y    0.000000   0.000000   0.000000   1.468167  -0.000000
   18  P  1  Z    0.000000   3.058994   0.000000   0.000000  -0.000000
   19  P  1  X    0.000000   0.000000  -0.377111   0.000000  -0.234974
   20  P  1  Y    0.000000   0.000000   0.000000  -0.377111  -0.000000
   21  P  1  Z    0.000000  -0.956213   0.000000   0.000000  -0.000000
   22  P  1 XX    0.000000  -0.556044   0.357720   0.000000  -0.328520
   23  P  1 YY    0.000000  -0.556044  -0.357720   0.000000   0.328520
   24  P  1 ZZ    0.000000   1.058777   0.000000   0.000000  -0.000000
   25  P  1 XY    0.000000   0.000000   0.000000  -0.413059  -0.000000
   26  P  1 XZ    0.000000   0.000000   0.152793   0.000000  -0.310632
   27  P  1 YZ    0.000000   0.000000   0.000000   0.152793  -0.000000
   28  O  2  S    0.000000   0.030663   0.000000   0.000000  -0.000000
   29  O  2  S    0.000000   0.042114   0.000000   0.000000  -0.000000
   30  O  2  X    0.000000   0.000000  -0.023632   0.000000   0.038119
   31  O  2  Y    0.000000   0.000000   0.000000  -0.023632  -0.000000
   32  O  2  Z    0.000000   0.052461   0.000000   0.000000  -0.000000
   33  O  2  S    0.000000  -0.277155   0.000000   0.000000  -0.000000
   34  O  2  X    0.000000   0.000000  -0.003115   0.000000   0.067944
   35  O  2  Y    0.000000   0.000000   0.000000  -0.003115  -0.000000
   36  O  2  Z    0.000000   0.361034   0.000000   0.000000  -0.000000
   37  O  2  S    0.000000  -1.037387   0.000000   0.000000  -0.000000
   38  O  2  X    0.000000   0.000000  -0.212764   0.000000  -0.197320
   39  O  2  Y    0.000000   0.000000   0.000000  -0.212764  -0.000000
   40  O  2  Z    0.000000   0.781915   0.000000   0.000000  -0.000000
   41  O  2 XX    0.000000  -0.025968   0.017306   0.000000  -0.021542
   42  O  2 YY    0.000000  -0.025968  -0.017306   0.000000   0.021542
   43  O  2 ZZ    0.000000  -0.120766   0.000000   0.000000  -0.000000
   44  O  2 XY    0.000000   0.000000   0.000000  -0.019984  -0.000000
   45  O  2 XZ    0.000000   0.000000  -0.054122   0.000000   0.028371
   46  O  2 YZ    0.000000   0.000000   0.000000  -0.054122  -0.000000
   47  H  3  S    0.000000  -0.058384   0.006300  -0.010912   0.011762
   48  H  3  S    0.000000   0.438409   0.239878  -0.415482   0.172186
   49  H  3  S    0.000000  -0.388255  -0.128552   0.222658  -0.107991
   50  H  3  X   -0.503982  -0.003183  -0.107491   0.116127  -0.631055
   51  H  3  Y   -0.290974   0.005514   0.116127  -0.241583  -0.333082
   52  H  3  Z    0.000000   0.051307   0.340739  -0.590176  -0.073457
   53  H  4  S    0.000000  -0.058384   0.006300   0.010912   0.011762
   54  H  4  S    0.000000   0.438409   0.239878   0.415482   0.172186
   55  H  4  S    0.000000  -0.388255  -0.128552  -0.222658  -0.107991
   56  H  4  X    0.503982  -0.003183  -0.107491  -0.116127  -0.631055
   57  H  4  Y   -0.290974  -0.005514  -0.116127  -0.241583   0.333082
   58  H  4  Z    0.000000   0.051307   0.340739   0.590176  -0.073457
   59  H  5  S    0.000000  -0.058384  -0.012600   0.000000  -0.023524
   60  H  5  S    0.000000   0.438409  -0.479757   0.000000  -0.344371
   61  H  5  S    0.000000  -0.388255   0.257104   0.000000   0.215982
   62  H  5  X    0.000000   0.006367  -0.308629   0.000000  -0.054139
   63  H  5  Y    0.581948   0.000000   0.000000  -0.040446  -0.000000
   64  H  5  Z    0.000000   0.051307  -0.681477   0.000000   0.146915

                     41         42         43         44         45
                    1.8617     2.0462     2.1960     2.4286     2.4286
                     E          A1         A1         E          E   
    1  P  1  S   -0.000000   0.002662  -0.012738  -0.000000   0.000000
    2  P  1  S   -0.000000   0.008675  -0.036872  -0.000000   0.000000
    3  P  1  S   -0.000000  -0.032616   0.088850  -0.000000   0.000000
    4  P  1  S   -0.000000   0.047220   0.205133  -0.000000   0.000000
    5  P  1  S   -0.000000  -0.034934  -0.575904  -0.000000   0.000000
    6  P  1  S   -0.000000   1.155012   0.132427  -0.000000   0.000000
    7  P  1  X   -0.000000  -0.000000   0.000000   0.147292   0.000000
    8  P  1  Y    0.217926  -0.000000   0.000000  -0.000000  -0.147292
    9  P  1  Z   -0.000000   0.220761  -0.045295  -0.000000   0.000000
   10  P  1  X   -0.000000  -0.000000   0.000000   0.019014   0.000000
   11  P  1  Y    0.067193  -0.000000   0.000000  -0.000000  -0.019014
   12  P  1  Z   -0.000000   0.059790   0.004396  -0.000000   0.000000
   13  P  1  X   -0.000000  -0.000000   0.000000  -0.246803   0.000000
   14  P  1  Y   -0.830543  -0.000000   0.000000  -0.000000   0.246803
   15  P  1  Z   -0.000000  -0.874158  -0.150708  -0.000000   0.000000
   16  P  1  X   -0.000000  -0.000000   0.000000  -0.652473   0.000000
   17  P  1  Y    1.217161  -0.000000   0.000000  -0.000000   0.652473
   18  P  1  Z   -0.000000   2.069626   1.433476  -0.000000   0.000000
   19  P  1  X   -0.000000  -0.000000   0.000000  -0.167067   0.000000
   20  P  1  Y   -0.234974  -0.000000   0.000000  -0.000000   0.167067
   21  P  1  Z   -0.000000  -0.127734  -0.175715  -0.000000   0.000000
   22  P  1 XX   -0.000000   0.216245  -0.138084  -0.444547   0.000000
   23  P  1 YY   -0.000000   0.216245  -0.138084   0.444547   0.000000
   24  P  1 ZZ   -0.000000   0.004070   0.423922  -0.000000   0.000000
   25  P  1 XY    0.379342  -0.000000   0.000000  -0.000000  -0.513318
   26  P  1 XZ   -0.000000  -0.000000   0.000000   0.582502   0.000000
   27  P  1 YZ   -0.310632  -0.000000   0.000000  -0.000000  -0.582502
   28  O  2  S   -0.000000  -0.034091   0.004629  -0.000000   0.000000
   29  O  2  S   -0.000000  -0.047991   0.010946  -0.000000   0.000000
   30  O  2  X   -0.000000  -0.000000   0.000000  -0.032300   0.000000
   31  O  2  Y    0.038119  -0.000000   0.000000  -0.000000   0.032300
   32  O  2  Z   -0.000000  -0.058731   0.052439  -0.000000   0.000000
   33  O  2  S   -0.000000   0.574399   0.034674  -0.000000   0.000000
   34  O  2  X   -0.000000  -0.000000   0.000000  -0.042109   0.000000
   35  O  2  Y    0.067944  -0.000000   0.000000  -0.000000   0.042109
   36  O  2  Z   -0.000000  -0.148975   0.138839  -0.000000   0.000000
   37  O  2  S   -0.000000  -1.928803  -0.848427  -0.000000   0.000000
   38  O  2  X   -0.000000  -0.000000   0.000000   0.092123   0.000000
   39  O  2  Y   -0.197320  -0.000000   0.000000  -0.000000  -0.092123
   40  O  2  Z   -0.000000   1.007432   0.420204  -0.000000   0.000000
   41  O  2 XX   -0.000000   0.083198  -0.009505  -0.050750   0.000000
   42  O  2 YY   -0.000000   0.083198  -0.009505   0.050750   0.000000
   43  O  2 ZZ   -0.000000   0.054278   0.053479  -0.000000   0.000000
   44  O  2 XY    0.024875  -0.000000   0.000000  -0.000000  -0.058601
   45  O  2 XZ   -0.000000  -0.000000   0.000000  -0.063641   0.000000
   46  O  2 YZ    0.028371  -0.000000   0.000000  -0.000000   0.063641
   47  H  3  S   -0.020373  -0.067163   0.497970  -0.393444  -0.681465
   48  H  3  S   -0.298234   0.197156  -0.231027   0.160553   0.278086
   49  H  3  S    0.187045  -0.193115   0.219565  -0.340538  -0.589830
   50  H  3  X   -0.333082   0.060807   0.297482  -0.067905  -0.394760
   51  H  3  Y   -0.246444  -0.105322  -0.515254   0.394760   0.523735
   52  H  3  Z    0.127232  -0.621423   0.047719  -0.225931  -0.391324
   53  H  4  S    0.020373  -0.067163   0.497970  -0.393444   0.681465
   54  H  4  S    0.298234   0.197156  -0.231027   0.160553  -0.278086
   55  H  4  S   -0.187045  -0.193115   0.219565  -0.340538   0.589830
   56  H  4  X    0.333082   0.060807   0.297482  -0.067905   0.394760
   57  H  4  Y   -0.246444   0.105322   0.515254  -0.394760   0.523735
   58  H  4  Z   -0.127232  -0.621423   0.047719  -0.225931   0.391324
   59  H  5  S   -0.000000  -0.067163   0.497970   0.786888   0.000000
   60  H  5  S   -0.000000   0.197156  -0.231027  -0.321106   0.000000
   61  H  5  S   -0.000000  -0.193115   0.219565   0.681076   0.000000
   62  H  5  X   -0.000000  -0.121615  -0.594964  -0.751650   0.000000
   63  H  5  Y   -0.823360  -0.000000   0.000000  -0.000000  -0.160010
   64  H  5  Z   -0.000000  -0.621423   0.047719   0.451862   0.000000

                     46         47         48         49         50
                    2.8218     2.8218     2.9268     3.2662     3.2662
                     E          E          A1         E          E   
    1  P  1  S    0.000000  -0.000000  -0.007036  -0.000000   0.000000
    2  P  1  S    0.000000  -0.000000  -0.023538  -0.000000   0.000000
    3  P  1  S    0.000000  -0.000000   0.095632  -0.000000   0.000000
    4  P  1  S    0.000000  -0.000000  -0.153427  -0.000000   0.000000
    5  P  1  S    0.000000  -0.000000   0.380209  -0.000000   0.000000
    6  P  1  S    0.000000  -0.000000  -1.276586  -0.000000   0.000000
    7  P  1  X    0.138171  -0.000000  -0.000000   0.020575   0.000000
    8  P  1  Y    0.000000  -0.138171  -0.000000  -0.000000  -0.020575
    9  P  1  Z    0.000000  -0.000000  -0.089208  -0.000000   0.000000
   10  P  1  X    0.043580  -0.000000  -0.000000   0.003583   0.000000
   11  P  1  Y    0.000000  -0.043580  -0.000000  -0.000000  -0.003583
   12  P  1  Z    0.000000  -0.000000  -0.023170  -0.000000   0.000000
   13  P  1  X   -0.258672  -0.000000  -0.000000  -0.018285   0.000000
   14  P  1  Y    0.000000   0.258672  -0.000000  -0.000000   0.018285
   15  P  1  Z    0.000000  -0.000000   0.131527  -0.000000   0.000000
   16  P  1  X   -1.222706  -0.000000  -0.000000  -0.315103   0.000000
   17  P  1  Y    0.000000   1.222706  -0.000000  -0.000000   0.315103
   18  P  1  Z    0.000000  -0.000000   0.897038  -0.000000   0.000000
   19  P  1  X    0.428933  -0.000000  -0.000000   0.137950   0.000000
   20  P  1  Y    0.000000  -0.428933  -0.000000  -0.000000  -0.137950
   21  P  1  Z    0.000000  -0.000000   0.088541  -0.000000   0.000000
   22  P  1 XX   -0.450440  -0.000000  -0.501143  -0.183426   0.000000
   23  P  1 YY    0.450440  -0.000000  -0.501143   0.183426   0.000000
   24  P  1 ZZ    0.000000  -0.000000  -0.242045  -0.000000   0.000000
   25  P  1 XY    0.000000  -0.520123  -0.000000  -0.000000  -0.211802
   26  P  1 XZ    0.630597  -0.000000  -0.000000   0.152763   0.000000
   27  P  1 YZ    0.000000  -0.630597  -0.000000  -0.000000  -0.152763
   28  O  2  S    0.000000  -0.000000   0.013067  -0.000000   0.000000
   29  O  2  S    0.000000  -0.000000   0.024003  -0.000000   0.000000
   30  O  2  X   -0.006661  -0.000000  -0.000000  -0.000793   0.000000
   31  O  2  Y    0.000000   0.006661  -0.000000  -0.000000   0.000793
   32  O  2  Z    0.000000  -0.000000   0.026295  -0.000000   0.000000
   33  O  2  S    0.000000  -0.000000  -0.230717  -0.000000   0.000000
   34  O  2  X   -0.025773  -0.000000  -0.000000  -0.002124   0.000000
   35  O  2  Y    0.000000   0.025773  -0.000000  -0.000000   0.002124
   36  O  2  Z    0.000000  -0.000000   0.071225  -0.000000   0.000000
   37  O  2  S    0.000000  -0.000000   0.250192  -0.000000   0.000000
   38  O  2  X    0.129191  -0.000000  -0.000000   0.017344   0.000000
   39  O  2  Y    0.000000  -0.129191  -0.000000  -0.000000  -0.017344
   40  O  2  Z    0.000000  -0.000000  -0.114523  -0.000000   0.000000
   41  O  2 XX   -0.115329  -0.000000  -0.023338   0.857007   0.000000
   42  O  2 YY    0.115329  -0.000000  -0.023338  -0.857007   0.000000
   43  O  2 ZZ    0.000000  -0.000000   0.015608  -0.000000   0.000000
   44  O  2 XY    0.000000  -0.133170  -0.000000  -0.000000   0.989586
   45  O  2 XZ    0.050088  -0.000000  -0.000000   0.022927   0.000000
   46  O  2 YZ    0.000000  -0.050088  -0.000000  -0.000000  -0.022927
   47  H  3  S    0.526272   0.911530  -0.793611   0.052600   0.091106
   48  H  3  S   -1.115709  -1.932464   1.624055  -0.197044  -0.341289
   49  H  3  S    0.487426   0.844246  -0.176985   0.101467   0.175745
   50  H  3  X   -0.033382  -0.428595   0.316094  -0.035067  -0.082048
   51  H  3  Y    0.428595   0.528281  -0.547491   0.082048   0.129808
   52  H  3  Z   -0.240892  -0.417237   0.143957  -0.060920  -0.105517
   53  H  4  S    0.526272  -0.911530  -0.793611   0.052600  -0.091106
   54  H  4  S   -1.115709   1.932464   1.624055  -0.197044   0.341289
   55  H  4  S    0.487426  -0.844246  -0.176985   0.101467  -0.175745
   56  H  4  X   -0.033382   0.428595   0.316094  -0.035067   0.082048
   57  H  4  Y   -0.428595   0.528281   0.547491  -0.082048   0.129808
   58  H  4  Z   -0.240892   0.417237   0.143957  -0.060920   0.105517
   59  H  5  S   -1.052544  -0.000000  -0.793611  -0.105200   0.000000
   60  H  5  S    2.231417  -0.000000   1.624055   0.394087   0.000000
   61  H  5  S   -0.974852  -0.000000  -0.176985  -0.202933   0.000000
   62  H  5  X   -0.775730  -0.000000  -0.632188  -0.177179   0.000000
   63  H  5  Y    0.000000  -0.214068  -0.000000  -0.000000  -0.012303
   64  H  5  Z    0.481784  -0.000000   0.143957   0.121840   0.000000

                     51         52         53         54         55
                    3.3917     3.4227     3.4227     3.9526     5.4466
                     A1         E          E          A1         E   
    1  P  1  S    0.057018   0.000000   0.000000  -0.002608   0.000000
    2  P  1  S    0.144980   0.000000   0.000000  -0.010956   0.000000
    3  P  1  S   -0.091028   0.000000   0.000000   0.070210   0.000000
    4  P  1  S   -3.224269   0.000000   0.000000  -0.250655   0.000000
    5  P  1  S    8.373302   0.000000   0.000000   0.378058   0.000000
    6  P  1  S    1.171608   0.000000   0.000000  -0.769104   0.000000
    7  P  1  X    0.000000  -0.001858   0.000000  -0.000000  -0.003836
    8  P  1  Y    0.000000   0.000000  -0.001858  -0.000000   0.000000
    9  P  1  Z    0.000876   0.000000   0.000000   0.140523   0.000000
   10  P  1  X    0.000000   0.010458   0.000000  -0.000000  -0.004307
   11  P  1  Y    0.000000   0.000000   0.010458  -0.000000   0.000000
   12  P  1  Z    0.001448   0.000000   0.000000   0.009690   0.000000
   13  P  1  X    0.000000  -0.055645   0.000000  -0.000000   0.017311
   14  P  1  Y    0.000000   0.000000  -0.055645  -0.000000   0.000000
   15  P  1  Z   -0.038404   0.000000   0.000000  -0.390107   0.000000
   16  P  1  X    0.000000   0.305268   0.000000  -0.000000   0.046927
   17  P  1  Y    0.000000   0.000000   0.305268  -0.000000   0.000000
   18  P  1  Z    0.285947   0.000000   0.000000  -1.009298   0.000000
   19  P  1  X    0.000000  -0.079874   0.000000  -0.000000   0.309380
   20  P  1  Y    0.000000   0.000000  -0.079874  -0.000000   0.000000
   21  P  1  Z   -0.251949   0.000000   0.000000   0.122241   0.000000
   22  P  1 XX   -3.532135   0.021727   0.000000  -0.068838   0.026904
   23  P  1 YY   -3.532135  -0.021727   0.000000  -0.068838  -0.026904
   24  P  1 ZZ   -3.561825   0.000000   0.000000  -0.974158   0.000000
   25  P  1 XY    0.000000   0.000000  -0.025088  -0.000000   0.000000
   26  P  1 XZ    0.000000   0.319179   0.000000  -0.000000  -0.047869
   27  P  1 YZ    0.000000   0.000000   0.319179  -0.000000   0.000000
   28  O  2  S   -0.004228   0.000000   0.000000   0.008188   0.000000
   29  O  2  S    0.000182   0.000000   0.000000   0.013316   0.000000
   30  O  2  X    0.000000   0.040108   0.000000  -0.000000  -1.277552
   31  O  2  Y    0.000000   0.000000   0.040108  -0.000000   0.000000
   32  O  2  Z    0.009166   0.000000   0.000000  -0.141649   0.000000
   33  O  2  S   -0.000358   0.000000   0.000000  -0.372888   0.000000
   34  O  2  X    0.000000   0.026046   0.000000  -0.000000   1.425788
   35  O  2  Y    0.000000   0.000000   0.026046  -0.000000   0.000000
   36  O  2  Z   -0.181916   0.000000   0.000000   0.088883   0.000000
   37  O  2  S   -0.083224   0.000000   0.000000   1.586140   0.000000
   38  O  2  X    0.000000  -0.191854   0.000000  -0.000000  -0.659191
   39  O  2  Y    0.000000   0.000000  -0.191854  -0.000000   0.000000
   40  O  2  Z    0.008708   0.000000   0.000000  -1.155949   0.000000
   41  O  2 XX    0.007499  -0.016650   0.000000  -0.595437   0.000284
   42  O  2 YY    0.007499   0.016650   0.000000  -0.595437  -0.000284
   43  O  2 ZZ    0.087459   0.000000   0.000000   1.114983   0.000000
   44  O  2 XY    0.000000   0.000000   0.019225  -0.000000   0.000000
   45  O  2 XZ    0.000000   1.021569   0.000000  -0.000000   0.029182
   46  O  2 YZ    0.000000   0.000000   1.021569  -0.000000   0.000000
   47  H  3  S    0.055947  -0.063773   0.110458  -0.011699   0.003790
   48  H  3  S    0.166502   0.099176  -0.171778  -0.057422   0.021847
   49  H  3  S   -0.286116  -0.059423   0.102923   0.084388   0.102132
   50  H  3  X    0.116272  -0.016312   0.025678  -0.036140  -0.022077
   51  H  3  Y   -0.201389   0.025678  -0.045962   0.062596  -0.034307
   52  H  3  Z    0.081965   0.039055  -0.067645   0.002499   0.005286
   53  H  4  S    0.055947  -0.063773  -0.110458  -0.011699   0.003790
   54  H  4  S    0.166502   0.099176   0.171778  -0.057422   0.021847
   55  H  4  S   -0.286116  -0.059423  -0.102923   0.084388   0.102132
   56  H  4  X    0.116272  -0.016312  -0.025678  -0.036140  -0.022077
   57  H  4  Y    0.201389  -0.025678  -0.045962  -0.062596   0.034307
   58  H  4  Z    0.081965   0.039055   0.067645   0.002499   0.005286
   59  H  5  S    0.055947   0.127546   0.000000  -0.011699  -0.007580
   60  H  5  S    0.166502  -0.198353   0.000000  -0.057422  -0.043695
   61  H  5  S   -0.286116   0.118845   0.000000   0.084388  -0.204264
   62  H  5  X   -0.232543  -0.060788   0.000000   0.072280   0.037345
   63  H  5  Y    0.000000   0.000000  -0.001486  -0.000000   0.000000
   64  H  5  Z    0.081965  -0.078110   0.000000   0.002499  -0.010573

                     56         57         58         59         60
                    5.4466     5.6556     6.5989    11.7485    15.4526
                     E          A1         A1         A1         E   
    1  P  1  S    0.000000   0.003592   0.002966  -0.115671  -0.000000
    2  P  1  S    0.000000   0.013904   0.011905  -0.481479  -0.000000
    3  P  1  S    0.000000  -0.078788  -0.072180   3.578545  -0.000000
    4  P  1  S    0.000000   0.176389   0.154315  -7.751099  -0.000000
    5  P  1  S    0.000000  -0.334202  -0.257527  11.553854  -0.000000
    6  P  1  S    0.000000  -0.321280  -0.764597  -0.349828  -0.000000
    7  P  1  X    0.000000   0.000000   0.000000  -0.000000   2.472352
    8  P  1  Y   -0.003836   0.000000   0.000000  -0.000000  -0.000000
    9  P  1  Z    0.000000  -0.051038  -0.007883   0.020634  -0.000000
   10  P  1  X    0.000000   0.000000   0.000000  -0.000000   2.731174
   11  P  1  Y   -0.004307   0.000000   0.000000  -0.000000  -0.000000
   12  P  1  Z    0.000000   0.047494   0.044890   0.025974  -0.000000
   13  P  1  X    0.000000   0.000000   0.000000  -0.000000  -2.440471
   14  P  1  Y    0.017311   0.000000   0.000000  -0.000000  -0.000000
   15  P  1  Z    0.000000   0.209595   0.022509  -0.020445  -0.000000
   16  P  1  X    0.000000   0.000000   0.000000  -0.000000   1.268481
   17  P  1  Y    0.046927   0.000000   0.000000  -0.000000  -0.000000
   18  P  1  Z    0.000000   0.157004  -0.101924   0.060440  -0.000000
   19  P  1  X    0.000000   0.000000   0.000000  -0.000000  -0.507177
   20  P  1  Y    0.309380   0.000000   0.000000  -0.000000  -0.000000
   21  P  1  Z    0.000000   0.124384  -0.175595  -0.024557  -0.000000
   22  P  1 XX    0.000000   0.019506   0.037883  -3.742090  -0.073270
   23  P  1 YY    0.000000   0.019506   0.037883  -3.742090   0.073270
   24  P  1 ZZ    0.000000   0.564973   0.229047  -3.736718  -0.000000
   25  P  1 XY   -0.031065   0.000000   0.000000  -0.000000  -0.000000
   26  P  1 XZ    0.000000   0.000000   0.000000  -0.000000   0.085580
   27  P  1 YZ   -0.047869   0.000000   0.000000  -0.000000  -0.000000
   28  O  2  S    0.000000   0.022529  -0.180369  -0.005848  -0.000000
   29  O  2  S    0.000000   0.081622  -0.690418  -0.013312  -0.000000
   30  O  2  X    0.000000   0.000000   0.000000  -0.000000  -0.005128
   31  O  2  Y   -1.277552   0.000000   0.000000  -0.000000  -0.000000
   32  O  2  Z    0.000000  -1.274165  -0.177355  -0.033647  -0.000000
   33  O  2  S    0.000000  -0.293756   2.549833   0.061342  -0.000000
   34  O  2  X    0.000000   0.000000   0.000000  -0.000000  -0.004442
   35  O  2  Y    1.425788   0.000000   0.000000  -0.000000  -0.000000
   36  O  2  Z    0.000000   1.521093   0.312558  -0.022545  -0.000000
   37  O  2  S    0.000000  -0.331240   1.456236  -0.007180  -0.000000
   38  O  2  X    0.000000   0.000000   0.000000  -0.000000  -0.017990
   39  O  2  Y   -0.659191   0.000000   0.000000  -0.000000  -0.000000
   40  O  2  Z    0.000000  -0.422849  -0.411068   0.008605  -0.000000
   41  O  2 XX    0.000000   0.245211  -1.530486  -0.025866   0.002176
   42  O  2 YY    0.000000   0.245211  -1.530486  -0.025866  -0.002176
   43  O  2 ZZ    0.000000  -0.039651  -1.520092  -0.023141  -0.000000
   44  O  2 XY   -0.000328   0.000000   0.000000  -0.000000  -0.000000
   45  O  2 XZ    0.000000   0.000000   0.000000  -0.000000  -0.023491
   46  O  2 YZ    0.029182   0.000000   0.000000  -0.000000  -0.000000
   47  H  3  S   -0.006564  -0.001844  -0.034896   0.025869  -0.005244
   48  H  3  S   -0.037841   0.086213   0.164071   0.003326   0.016786
   49  H  3  S   -0.176897   0.071270   0.013101  -0.006018  -0.109016
   50  H  3  X   -0.034307   0.022869   0.016667   0.024159  -0.055372
   51  H  3  Y    0.017538  -0.039611  -0.028868  -0.041845   0.076642
   52  H  3  Z   -0.009156   0.019502   0.062981   0.020076  -0.046570
   53  H  4  S    0.006564  -0.001844  -0.034896   0.025869  -0.005244
   54  H  4  S    0.037841   0.086213   0.164071   0.003326   0.016786
   55  H  4  S    0.176897   0.071270   0.013101  -0.006018  -0.109016
[...]
     DENSITY MATRIX CONV=  1.00E-06

 ITER EX DEM     TOTAL ENERGY        E CHANGE  DENSITY CHANGE    DIIS ERROR
          * * *   INITIATING DIIS PROCEDURE   * * *
   1  0  0     -417.3569925251  -417.3569925251   0.001575918   0.002936151
   2  1  0     -417.3570018084    -0.0000092833   0.000309357   0.000432321
   3  2  0     -417.3570020958    -0.0000002874   0.000124218   0.000154066
   4  3  0     -417.3570021650    -0.0000000692   0.000027833   0.000014934
   5  4  0     -417.3570021672    -0.0000000022   0.000003088   0.000002592
   6  5  0     -417.3570021673    -0.0000000001   0.000000715   0.000000368
   7  6  0     -417.3570021673    -0.0000000000   0.000000199   0.000000111

          -----------------
          DENSITY CONVERGED
          -----------------
     TIME TO FORM FOCK OPERATORS=       0.0 SECONDS (       0.0 SEC/ITER)
     TIME TO SOLVE SCF EQUATIONS=       0.0 SECONDS (       0.0 SEC/ITER)

 FINAL RHF ENERGY IS     -417.3570021673 AFTER   7 ITERATIONS
 ...... END OF RHF CALCULATION ......
 CPU     0: STEP CPU TIME=     0.04 TOTAL CPU TIME=        4.8 (    0.1 MIN)
 TOTAL WALL CLOCK TIME=        4.8 SECONDS, CPU UTILIZATION IS  99.79%



 -----------------------------     ------------------------------
 DISTRIBUTED DATA MP2 GRADIENT     PROGRAM WRITTEN BY G. FLETCHER
 -----------------------------     ------------------------------

 DDI: Creating Array [1] - 4096 x 28 = 114688 words.
    THIS CALCULATION IS RUNNING WITH MWORDS=    1, MEMDDI=       5, AND P=    1
 MEMORY USAGE PER CPU IS 8*(MWORDS + MEMDDI/P)/1024 =    0.0 GBYTES.

 MINIMAL REQUIREMENT FOR THIS RUN IS MWORDS=    1, MEMDDI=       1.
 FOR P=    1, THE MEMORY USAGE PER CPU(CORE) WOULD BE    0.0 GBYTES.


      DIRECT 4-INDEX TRANSFORMATION 
      SCHWARZ INEQUALITY TEST SKIPPED          0 INTEGRAL BLOCKS

 RESULTS OF MOLLER-PLESSET 2ND ORDER CORRECTION ARE
                     E(SCF)=      -417.3570021673
                       E(2)=        -0.3393431739
                     E(MP2)=      -417.6963453412
 SPIN-COMPONENT-SCALED MP2 RESULTS ARE
                      E(2S)=        -0.2600276653
                      E(2T)=        -0.0793155087
                     E(2ST)=        -0.3384717012 = 6/5 * E(2S) + 1/3 * E(2T)
                    SCS-MP2=      -417.6954738685
 ..... DONE WITH MP2 ENERGY .....
 CPU     0: STEP CPU TIME=     0.44 TOTAL CPU TIME=        5.3 (    0.1 MIN)
 TOTAL WALL CLOCK TIME=        5.3 SECONDS, CPU UTILIZATION IS  99.81%

 -------------------------------
 WORKING ON IMODE=   3 IVIB=1...
 -------------------------------

 COORDINATES OF ALL ATOMS ARE (ANGS)
   ATOM   CHARGE       X              Y              Z
 ------------------------------------------------------------
 P          15.0   0.0000000000   0.0000000000  -0.0074836964
 O           8.0   0.0000000000   0.0000000000   1.4775836964
 H           1.0  -0.6167964315   1.0683227574  -0.6421021244
 H           1.0  -0.6167964316  -1.0683227574  -0.6421021244
 H           1.0   1.2335928631   0.0000000000  -0.6421021244
 ...... END OF ONE-ELECTRON INTEGRALS ......
 CPU     0: STEP CPU TIME=     0.00 TOTAL CPU TIME=        5.3 (    0.1 MIN)
 TOTAL WALL CLOCK TIME=        5.3 SECONDS, CPU UTILIZATION IS  99.81%
 TOTAL NUMBER OF NONZERO TWO-ELECTRON INTEGRALS =              420748
         29 INTEGRAL RECORDS WERE STORED ON DISK FILE  8.
  ...... END OF TWO-ELECTRON INTEGRALS .....
 CPU     0: STEP CPU TIME=     0.06 TOTAL CPU TIME=        5.3 (    0.1 MIN)
 TOTAL WALL CLOCK TIME=        5.3 SECONDS, CPU UTILIZATION IS  99.81%

          --------------------------
                 RHF SCF CALCULATION
          --------------------------
     DENSITY MATRIX CONV=  1.00E-06

 ITER EX DEM     TOTAL ENERGY        E CHANGE  DENSITY CHANGE    DIIS ERROR
          * * *   INITIATING DIIS PROCEDURE   * * *
   1  0  0     -417.3560421132  -417.3560421132   0.005456535   0.004551707
   2  1  0     -417.3561749784    -0.0001328652   0.003297187   0.002514961
   3  2  0     -417.3561951853    -0.0000202069   0.001293162   0.001152956
   4  3  0     -417.3562013480    -0.0000061627   0.000323404   0.000302813
   5  4  0     -417.3562021285    -0.0000007806   0.000222673   0.000105725
   6  5  0     -417.3562022398    -0.0000001113   0.000053539   0.000020251
   7  6  0     -417.3562022457    -0.0000000059   0.000009933   0.000003736
   8  7  0     -417.3562022458    -0.0000000001   0.000000942   0.000000316
   9  8  0     -417.3562022458     0.0000000000   0.000000078   0.000000038

          -----------------
          DENSITY CONVERGED
          -----------------
     TIME TO FORM FOCK OPERATORS=       0.0 SECONDS (       0.0 SEC/ITER)
     TIME TO SOLVE SCF EQUATIONS=       0.0 SECONDS (       0.0 SEC/ITER)

 FINAL RHF ENERGY IS     -417.3562022458 AFTER   9 ITERATIONS
 ...... END OF RHF CALCULATION ......
 CPU     0: STEP CPU TIME=     0.06 TOTAL CPU TIME=        5.4 (    0.1 MIN)
 TOTAL WALL CLOCK TIME=        5.4 SECONDS, CPU UTILIZATION IS  99.81%



 -----------------------------     ------------------------------
 DISTRIBUTED DATA MP2 GRADIENT     PROGRAM WRITTEN BY G. FLETCHER
 -----------------------------     ------------------------------

 DDI: Creating Array [1] - 4096 x 28 = 114688 words.
    THIS CALCULATION IS RUNNING WITH MWORDS=    1, MEMDDI=       5, AND P=    1
 MEMORY USAGE PER CPU IS 8*(MWORDS + MEMDDI/P)/1024 =    0.0 GBYTES.

 MINIMAL REQUIREMENT FOR THIS RUN IS MWORDS=    1, MEMDDI=       1.
 FOR P=    1, THE MEMORY USAGE PER CPU(CORE) WOULD BE    0.0 GBYTES.


      DIRECT 4-INDEX TRANSFORMATION 
      SCHWARZ INEQUALITY TEST SKIPPED          0 INTEGRAL BLOCKS

 RESULTS OF MOLLER-PLESSET 2ND ORDER CORRECTION ARE
                     E(SCF)=      -417.3562022458
                       E(2)=        -0.3401012155
                     E(MP2)=      -417.6963034613
 SPIN-COMPONENT-SCALED MP2 RESULTS ARE
                      E(2S)=        -0.2605400723
                      E(2T)=        -0.0795611432
                     E(2ST)=        -0.3391684678 = 6/5 * E(2S) + 1/3 * E(2T)
                    SCS-MP2=      -417.6953707136
 ..... DONE WITH MP2 ENERGY .....
 CPU     0: STEP CPU TIME=     0.44 TOTAL CPU TIME=        5.8 (    0.1 MIN)
 TOTAL WALL CLOCK TIME=        5.8 SECONDS, CPU UTILIZATION IS  99.83%

 -------------------------------
 WORKING ON IMODE=   3 IVIB=2...
 -------------------------------

 COORDINATES OF ALL ATOMS ARE (ANGS)
   ATOM   CHARGE       X              Y              Z
 ------------------------------------------------------------
 P          15.0   0.0000000000   0.0000000000  -0.0037418482
 O           8.0   0.0000000000   0.0000000000   1.4738418482
 H           1.0  -0.6167964315   1.0683227574  -0.6421021244
 H           1.0  -0.6167964316  -1.0683227574  -0.6421021244
 H           1.0   1.2335928631   0.0000000000  -0.6421021244
 ...... END OF ONE-ELECTRON INTEGRALS ......
 CPU     0: STEP CPU TIME=     0.00 TOTAL CPU TIME=        5.8 (    0.1 MIN)
 TOTAL WALL CLOCK TIME=        5.8 SECONDS, CPU UTILIZATION IS  99.83%
 TOTAL NUMBER OF NONZERO TWO-ELECTRON INTEGRALS =              421112
         29 INTEGRAL RECORDS WERE STORED ON DISK FILE  8.
  ...... END OF TWO-ELECTRON INTEGRALS .....
 CPU     0: STEP CPU TIME=     0.06 TOTAL CPU TIME=        5.9 (    0.1 MIN)
 TOTAL WALL CLOCK TIME=        5.9 SECONDS, CPU UTILIZATION IS  99.83%

          --------------------------
                 RHF SCF CALCULATION
          --------------------------
     DENSITY MATRIX CONV=  1.00E-06

 ITER EX DEM     TOTAL ENERGY        E CHANGE  DENSITY CHANGE    DIIS ERROR
          * * *   INITIATING DIIS PROCEDURE   * * *
   1  0  0     -417.3565658603  -417.3565658603   0.002734596   0.002346911
   2  1  0     -417.3565992326    -0.0000333722   0.001649364   0.001256667
   3  2  0     -417.3566042752    -0.0000050427   0.000647295   0.000582298
   4  3  0     -417.3566057943    -0.0000015191   0.000159703   0.000150225
   5  4  0     -417.3566059838    -0.0000001895   0.000109798   0.000052687
   6  5  0     -417.3566060102    -0.0000000264   0.000026388   0.000009834
   7  6  0     -417.3566060117    -0.0000000014   0.000004869   0.000001820
   8  7  0     -417.3566060117    -0.0000000000   0.000000469   0.000000155
   9  8  0     -417.3566060117     0.0000000000   0.000000038   0.000000019

          -----------------
          DENSITY CONVERGED
          -----------------
     TIME TO FORM FOCK OPERATORS=       0.1 SECONDS (       0.0 SEC/ITER)
     TIME TO SOLVE SCF EQUATIONS=       0.0 SECONDS (       0.0 SEC/ITER)

 FINAL RHF ENERGY IS     -417.3566060117 AFTER   9 ITERATIONS
 ...... END OF RHF CALCULATION ......
 CPU     0: STEP CPU TIME=     0.06 TOTAL CPU TIME=        5.9 (    0.1 MIN)
 TOTAL WALL CLOCK TIME=        5.9 SECONDS, CPU UTILIZATION IS 100.00%



 -----------------------------     ------------------------------
 DISTRIBUTED DATA MP2 GRADIENT     PROGRAM WRITTEN BY G. FLETCHER
 -----------------------------     ------------------------------

 DDI: Creating Array [1] - 4096 x 28 = 114688 words.
    THIS CALCULATION IS RUNNING WITH MWORDS=    1, MEMDDI=       5, AND P=    1
 MEMORY USAGE PER CPU IS 8*(MWORDS + MEMDDI/P)/1024 =    0.0 GBYTES.

 MINIMAL REQUIREMENT FOR THIS RUN IS MWORDS=    1, MEMDDI=       1.
 FOR P=    1, THE MEMORY USAGE PER CPU(CORE) WOULD BE    0.0 GBYTES.


      DIRECT 4-INDEX TRANSFORMATION 
      SCHWARZ INEQUALITY TEST SKIPPED          0 INTEGRAL BLOCKS

 RESULTS OF MOLLER-PLESSET 2ND ORDER CORRECTION ARE
                     E(SCF)=      -417.3566060117
                       E(2)=        -0.3396951424
                     E(MP2)=      -417.6963011540
 SPIN-COMPONENT-SCALED MP2 RESULTS ARE
                      E(2S)=        -0.2602595254
                      E(2T)=        -0.0794356169
                     E(2ST)=        -0.3387899695 = 6/5 * E(2S) + 1/3 * E(2T)
                    SCS-MP2=      -417.6953959812
 ..... DONE WITH MP2 ENERGY .....
 CPU     0: STEP CPU TIME=     0.44 TOTAL CPU TIME=        6.4 (    0.1 MIN)
 TOTAL WALL CLOCK TIME=        6.4 SECONDS, CPU UTILIZATION IS 100.00%

 -------------------------------
 WORKING ON IMODE=   3 IVIB=4...
 -------------------------------

 COORDINATES OF ALL ATOMS ARE (ANGS)
   ATOM   CHARGE       X              Y              Z
 ------------------------------------------------------------
 P          15.0  -0.0000000000   0.0000000000   0.0037418482
 O           8.0  -0.0000000000   0.0000000000   1.4663581518
 H           1.0  -0.6167964315   1.0683227574  -0.6421021244
 H           1.0  -0.6167964316  -1.0683227574  -0.6421021244
 H           1.0   1.2335928631   0.0000000000  -0.6421021244
 ...... END OF ONE-ELECTRON INTEGRALS ......
 CPU     0: STEP CPU TIME=     0.00 TOTAL CPU TIME=        6.4 (    0.1 MIN)
 TOTAL WALL CLOCK TIME=        6.4 SECONDS, CPU UTILIZATION IS 100.00%
 TOTAL NUMBER OF NONZERO TWO-ELECTRON INTEGRALS =              421807
         29 INTEGRAL RECORDS WERE STORED ON DISK FILE  8.
  ...... END OF TWO-ELECTRON INTEGRALS .....
 CPU     0: STEP CPU TIME=     0.06 TOTAL CPU TIME=        6.4 (    0.1 MIN)
 TOTAL WALL CLOCK TIME=        6.4 SECONDS, CPU UTILIZATION IS 100.00%

          --------------------------
                 RHF SCF CALCULATION
          --------------------------
     DENSITY MATRIX CONV=  1.00E-06

 ITER EX DEM     TOTAL ENERGY        E CHANGE  DENSITY CHANGE    DIIS ERROR
          * * *   INITIATING DIIS PROCEDURE   * * *
   1  0  0     -417.3569679691  -417.3569679691   0.002746500   0.002445739
   2  1  0     -417.3570016533    -0.0000336842   0.001650936   0.001254889
   3  2  0     -417.3570066795    -0.0000050263   0.000648502   0.000593217
   4  3  0     -417.3570081559    -0.0000014764   0.000155747   0.000147853
   5  4  0     -417.3570083345    -0.0000001786   0.000106705   0.000052689
   6  5  0     -417.3570083583    -0.0000000239   0.000025627   0.000009258
   7  6  0     -417.3570083596    -0.0000000013   0.000004673   0.000001726
   8  7  0     -417.3570083596    -0.0000000000   0.000000465   0.000000149
   9  8  0     -417.3570083596     0.0000000000   0.000000037   0.000000018

          -----------------
          DENSITY CONVERGED
          -----------------
     TIME TO FORM FOCK OPERATORS=       0.0 SECONDS (       0.0 SEC/ITER)
     TIME TO SOLVE SCF EQUATIONS=       0.0 SECONDS (       0.0 SEC/ITER)

 FINAL RHF ENERGY IS     -417.3570083596 AFTER   9 ITERATIONS
 ...... END OF RHF CALCULATION ......
 CPU     0: STEP CPU TIME=     0.05 TOTAL CPU TIME=        6.5 (    0.1 MIN)
 TOTAL WALL CLOCK TIME=        6.5 SECONDS, CPU UTILIZATION IS  99.85%



 -----------------------------     ------------------------------
 DISTRIBUTED DATA MP2 GRADIENT     PROGRAM WRITTEN BY G. FLETCHER
 -----------------------------     ------------------------------

 DDI: Creating Array [1] - 4096 x 28 = 114688 words.
    THIS CALCULATION IS RUNNING WITH MWORDS=    1, MEMDDI=       5, AND P=    1
 MEMORY USAGE PER CPU IS 8*(MWORDS + MEMDDI/P)/1024 =    0.0 GBYTES.

 MINIMAL REQUIREMENT FOR THIS RUN IS MWORDS=    1, MEMDDI=       1.
 FOR P=    1, THE MEMORY USAGE PER CPU(CORE) WOULD BE    0.0 GBYTES.


      DIRECT 4-INDEX TRANSFORMATION 
      SCHWARZ INEQUALITY TEST SKIPPED          0 INTEGRAL BLOCKS

 RESULTS OF MOLLER-PLESSET 2ND ORDER CORRECTION ARE
                     E(SCF)=      -417.3570083596
                       E(2)=        -0.3388609801
                     E(MP2)=      -417.6958693397
 SPIN-COMPONENT-SCALED MP2 RESULTS ARE
                      E(2S)=        -0.2596847116
                      E(2T)=        -0.0791762684
                     E(2ST)=        -0.3380137435 = 6/5 * E(2S) + 1/3 * E(2T)
                    SCS-MP2=      -417.6950221031
 ..... DONE WITH MP2 ENERGY .....
 CPU     0: STEP CPU TIME=     0.44 TOTAL CPU TIME=        6.9 (    0.1 MIN)
 TOTAL WALL CLOCK TIME=        6.9 SECONDS, CPU UTILIZATION IS  99.86%

 -------------------------------
 WORKING ON IMODE=   3 IVIB=5...
 -------------------------------

 COORDINATES OF ALL ATOMS ARE (ANGS)
   ATOM   CHARGE       X              Y              Z
 ------------------------------------------------------------
 P          15.0  -0.0000000000   0.0000000000   0.0074836964
 O           8.0  -0.0000000000   0.0000000000   1.4626163036
 H           1.0  -0.6167964315   1.0683227574  -0.6421021244
 H           1.0  -0.6167964316  -1.0683227574  -0.6421021244
 H           1.0   1.2335928631   0.0000000000  -0.6421021244
 ...... END OF ONE-ELECTRON INTEGRALS ......
 CPU     0: STEP CPU TIME=     0.01 TOTAL CPU TIME=        6.9 (    0.1 MIN)
 TOTAL WALL CLOCK TIME=        6.9 SECONDS, CPU UTILIZATION IS 100.00%
 TOTAL NUMBER OF NONZERO TWO-ELECTRON INTEGRALS =              422147
         29 INTEGRAL RECORDS WERE STORED ON DISK FILE  8.
  ...... END OF TWO-ELECTRON INTEGRALS .....
 CPU     0: STEP CPU TIME=     0.05 TOTAL CPU TIME=        7.0 (    0.1 MIN)
 TOTAL WALL CLOCK TIME=        7.0 SECONDS, CPU UTILIZATION IS  99.86%

          --------------------------
                 RHF SCF CALCULATION
          --------------------------
     DENSITY MATRIX CONV=  1.00E-06

 ITER EX DEM     TOTAL ENERGY        E CHANGE  DENSITY CHANGE    DIIS ERROR
          * * *   INITIATING DIIS PROCEDURE   * * *
   1  0  0     -417.3568319243  -417.3568319243   0.005504177   0.004939121
   2  1  0     -417.3569672874    -0.0001353631   0.003303522   0.002507820
   3  2  0     -417.3569873632    -0.0000200758   0.001298000   0.001196581
   4  3  0     -417.3569931842    -0.0000058209   0.000307584   0.000293327
   5  4  0     -417.3569938775    -0.0000006933   0.000210311   0.000105270
   6  5  0     -417.3569939681    -0.0000000906   0.000050497   0.000017949
   7  6  0     -417.3569939730    -0.0000000049   0.000009150   0.000003358
   8  7  0     -417.3569939731    -0.0000000001   0.000000926   0.000000294
   9  8  0     -417.3569939731    -0.0000000000   0.000000073   0.000000035

          -----------------
          DENSITY CONVERGED
          -----------------
     TIME TO FORM FOCK OPERATORS=       0.0 SECONDS (       0.0 SEC/ITER)
     TIME TO SOLVE SCF EQUATIONS=       0.0 SECONDS (       0.0 SEC/ITER)

 FINAL RHF ENERGY IS     -417.3569939731 AFTER   9 ITERATIONS
 ...... END OF RHF CALCULATION ......
 CPU     0: STEP CPU TIME=     0.06 TOTAL CPU TIME=        7.0 (    0.1 MIN)
 TOTAL WALL CLOCK TIME=        7.0 SECONDS, CPU UTILIZATION IS  99.86%



 -----------------------------     ------------------------------
 DISTRIBUTED DATA MP2 GRADIENT     PROGRAM WRITTEN BY G. FLETCHER
 -----------------------------     ------------------------------

 DDI: Creating Array [1] - 4096 x 28 = 114688 words.
    THIS CALCULATION IS RUNNING WITH MWORDS=    1, MEMDDI=       5, AND P=    1
 MEMORY USAGE PER CPU IS 8*(MWORDS + MEMDDI/P)/1024 =    0.0 GBYTES.

 MINIMAL REQUIREMENT FOR THIS RUN IS MWORDS=    1, MEMDDI=       1.
 FOR P=    1, THE MEMORY USAGE PER CPU(CORE) WOULD BE    0.0 GBYTES.


      DIRECT 4-INDEX TRANSFORMATION 
      SCHWARZ INEQUALITY TEST SKIPPED          0 INTEGRAL BLOCKS

 RESULTS OF MOLLER-PLESSET 2ND ORDER CORRECTION ARE
                     E(SCF)=      -417.3569939731
                       E(2)=        -0.3384335534
                     E(MP2)=      -417.6954275266
 SPIN-COMPONENT-SCALED MP2 RESULTS ARE
                      E(2S)=        -0.2593908199
                      E(2T)=        -0.0790427335
                     E(2ST)=        -0.3376165617 = 6/5 * E(2S) + 1/3 * E(2T)
                    SCS-MP2=      -417.6946105349
 ..... DONE WITH MP2 ENERGY .....
 CPU     0: STEP CPU TIME=     0.43 TOTAL CPU TIME=        7.5 (    0.1 MIN)
 TOTAL WALL CLOCK TIME=        7.5 SECONDS, CPU UTILIZATION IS  99.87%

                         ----------------------
                         GRADIENT OF THE ENERGY
                         ----------------------

 UNITS ARE HARTREE/BOHR    E'X               E'Y               E'Z 
    1 P                0.000000000       0.000000000       0.007207542
    2 O                0.000000000       0.000000000      -0.019083230
    3 H                0.003395750      -0.005881612       0.003958563
    4 H                0.003395750       0.005881612       0.003958563
    5 H               -0.006791500       0.000000000       0.003958563

                   MAXIMUM GRADIENT =    0.019083230
                       RMS GRADIENT =    0.006332469
  $VIB   
          IVIB=   0 IATOM=   0 ICOORD=   0 E=     -417.6952818064
  0.000000000E+00 0.000000000E+00 7.207541689E-03 0.000000000E+00 0.000000000E+00
 -1.908323032E-02 3.395750080E-03-5.881611668E-03 3.958562876E-03 3.395750080E-03
  5.881611668E-03 3.958562876E-03-6.791500160E-03 0.000000000E+00 3.958562876E-03
 -6.772625127E-15 7.878817018E-15-4.346548975E+00

..... END OF SINGLE POINT GRADIENT .....
 CPU     0: STEP CPU TIME=     0.00 TOTAL CPU TIME=        7.5 (    0.1 MIN)
 TOTAL WALL CLOCK TIME=        7.5 SECONDS, CPU UTILIZATION IS  99.73%
               580000  WORDS OF DYNAMIC MEMORY USED
 EXECUTION OF GAMESS TERMINATED NORMALLY Wed Aug  9 21:55:04 2017
 DDI: 1181384 bytes (1.1 MB / 0 MWords) used by master data server.

 ----------------------------------------
 CPU timing information for all processes
 ========================================
 0: 7.338 + 0.149 = 7.488
 ----------------------------------------
 ddikick.x: exited gracefully.
unset echo
----- accounting info -----
Files used on the master node compute-0-7.local were:
-rw-rw-r-- 1 sarom sarom 1.3K Aug  9 21:54 /scratch/ddi-rhf-mp2-h3po-numgrd.F05
-rw-rw-r-- 1 sarom sarom 5.0M Aug  9 21:55 /scratch/ddi-rhf-mp2-h3po-numgrd.F08
-rw-rw-r-- 1 sarom sarom 1.9M Aug  9 21:55 /scratch/ddi-rhf-mp2-h3po-numgrd.F10
rm: No match.
ls: No match.
ls: No match.
ls: No match.
Wed Aug  9 21:55:07 CDT 2017
0.274u 0.154s 0:10.99 3.8%	0+0k 8+360io 0pf+0w
/opt/gridengine/default/spool/compute-0-7/active_jobs/36134.1/pe_hostfile compute-0-7.local
