-catch_rsh /opt/gridengine/default/spool/compute-1-7/active_jobs/36243.1/pe_hostfile
compute-1-7
The primary node assigned by SGE to this run is compute-1-7
Warning: no access to tty (Bad file descriptor).
Thus no job control in this shell.
source /home/sarom/dir.git.branch.saromleang-travis-ci/install.info
setenv GMS_PATH /home/sarom/dir.git.branch.saromleang-travis-ci
setenv GMS_BUILD_DIR /home/sarom/dir.git.branch.saromleang-travis-ci
setenv GMS_TARGET linux64
setenv GMS_FORTRAN gfortran
setenv GMS_GFORTRAN_VERNO 4.4
setenv GMS_MATHLIB mkl-so
setenv GMS_MATHLIB none
setenv GMS_MATHLIB_PATH /share/apps/intel/compilers_and_libraries_2017.1.132/linux/mkl/lib/intel64
setenv GMS_MKL_VERNO 12
setenv GMS_DDI_COMM sockets
setenv GMS_LIBCCHEM false
setenv GMS_EIGEN_PATH
setenv GMS_PHI false
setenv GMS_SHMTYPE sysv
setenv GMS_OPENMP false
unset echo
aldet-ch3nh2-vci
/home/sarom/dir.git.branch.saromleang-travis-ci/tests/ci/parallel
----- GAMESS execution script 'rungms' -----
This job is running on host compute-1-7.local
under operating system Linux at Wed Aug 9 22:27:26 CDT 2017
Available scratch disk space (Kbyte units) at beginning of the job is
Filesystem           1K-blocks      Used Available Use% Mounted on
/dev/sda1             16126920   8505684   6802036  56% /
GAMESS temporary binary files will be written to /scratch
GAMESS supplementary output files will be written to /home/sarom/restart
Copying input file aldet-ch3nh2-vci.inp to your run's scratch directory...
cp /home/sarom/dir.git.branch.saromleang-travis-ci/tests/ci/parallel/aldet-ch3nh2-vci.inp /scratch/aldet-ch3nh2-vci.F05
unset echo
The generated host list is
compute-1-7.local
/home/sarom/dir.git.branch.saromleang-travis-ci/ddikick.x /home/sarom/dir.git.branch.saromleang-travis-ci/gamess.00.x aldet-ch3nh2-vci -ddi 1 1 compute-1-7.local -scr /scratch

 Distributed Data Interface kickoff program.
 Initiating 1 compute processes on 1 nodes to run the following command:
 /home/sarom/dir.git.branch.saromleang-travis-ci/gamess.00.x aldet-ch3nh2-vci 

          ******************************************************
          *         GAMESS VERSION = 20 APR 2017 (R1)          *
          *             FROM IOWA STATE UNIVERSITY             *
          * M.W.SCHMIDT, K.K.BALDRIDGE, J.A.BOATZ, S.T.ELBERT, *
          *   M.S.GORDON, J.H.JENSEN, S.KOSEKI, N.MATSUNAGA,   *
          *          K.A.NGUYEN, S.J.SU, T.L.WINDUS,           *
          *       TOGETHER WITH M.DUPUIS, J.A.MONTGOMERY       *
          *         J.COMPUT.CHEM.  14, 1347-1363(1993)        *
          **************** 64 BIT LINUX VERSION ****************

  SINCE 1993, STUDENTS AND POSTDOCS WORKING AT IOWA STATE UNIVERSITY
  AND ALSO IN THEIR VARIOUS JOBS AFTER LEAVING ISU HAVE MADE IMPORTANT
  CONTRIBUTIONS TO THE CODE:
     IVANA ADAMOVIC, CHRISTINE AIKENS, YURI ALEXEEV, POOJA ARORA,
     ANDREY ASADCHEV, ROB BELL, PRADIPTA BANDYOPADHYAY, JONATHAN BENTZ,
     BRETT BODE, KURT BRORSEN, CALEB CARLIN, GALINA CHABAN, WEI CHEN,
     CHEOL HO CHOI, PAUL DAY, ALBERT DEFUSCO, NUWAN DESILVA, TIM DUDLEY,
     DMITRI FEDOROV, GRAHAM FLETCHER, MARK FREITAG, KURT GLAESEMANN,
     DAN KEMP, GRANT MERRILL, NORIYUKI MINEZAWA, JONATHAN MULLIN,
     TAKESHI NAGATA, SEAN NEDD, HEATHER NETZLOFF, BOSILJKA NJEGIC, RYAN OLSON,
     MIKE PAK, SPENCER PRUITT, LUKE ROSKOP, JIM SHOEMAKER, LYUDMILA SLIPCHENKO,
     TONY SMITH, SAROM SOK LEANG, JIE SONG, TETSUYA TAKETSUGU, SIMON WEBB,
     PENG XU, SOOHAENG YOO, FEDERICO ZAHARIEV

  ADDITIONAL CODE HAS BEEN PROVIDED BY COLLABORATORS IN OTHER GROUPS:
     IOWA STATE UNIVERSITY:
          JOE IVANIC, AARON WEST, LAIMUTIS BYTAUTAS, KLAUS RUEDENBERG
     UNIVERSITY OF TOKYO: KIMIHIKO HIRAO, TAKAHITO NAKAJIMA,
          TAKAO TSUNEDA, MUNEAKI KAMIYA, SUSUMU YANAGISAWA,
          KIYOSHI YAGI, MAHITO CHIBA, SEIKEN TOKURA, NAOAKI KAWAKAMI
     UNIVERSITY OF AARHUS: FRANK JENSEN
     UNIVERSITY OF IOWA: VISVALDAS KAIRYS, HUI LI
     NATIONAL INST. OF STANDARDS AND TECHNOLOGY: WALT STEVENS, DAVID GARMER
     UNIVERSITY OF PISA: BENEDETTA MENNUCCI, JACOPO TOMASI
     UNIVERSITY OF MEMPHIS: HENRY KURTZ, PRAKASHAN KORAMBATH
     UNIVERSITY OF ALBERTA: TOBY ZENG, MARIUSZ KLOBUKOWSKI
     UNIVERSITY OF NEW ENGLAND: MARK SPACKMAN
     MIE UNIVERSITY: HIROAKI UMEDA
     NAT. INST. OF ADVANCED INDUSTRIAL SCIENCE AND TECHNOLOGY: KAZUO KITAURA
     MICHIGAN STATE UNIVERSITY:
          KAROL KOWALSKI, MARTA WLOCH, JEFFREY GOUR, JESSE LUTZ,
          WEI LI, PIOTR PIECUCH
     UNIVERSITY OF SILESIA: MONIKA MUSIAL, STANISLAW KUCHARSKI
     FACULTES UNIVERSITAIRES NOTRE-DAME DE LA PAIX:
          OLIVIER QUINET, BENOIT CHAMPAGNE
     UNIVERSITY OF CALIFORNIA - SANTA BARBARA: BERNARD KIRTMAN
     INSTITUTE FOR MOLECULAR SCIENCE:
          KAZUYA ISHIMURA, MICHIO KATOUDA, AND SHIGERU NAGASE
     UNIVERSITY OF NOTRE DAME: ANNA POMOGAEVA, DAN CHIPMAN
     KYUSHU UNIVERSITY:
          HARUYUKI NAKANO,
          FENG LONG GU, JACEK KORCHOWIEC, MARCIN MAKOWSKI, AND YURIKO AOKI,
          HIROTOSHI MORI AND EISAKU MIYOSHI
     PENNSYLVANIA STATE UNIVERSITY:
          TZVETELIN IORDANOV, CHET SWALINA, JONATHAN SKONE,
          SHARON HAMMES-SCHIFFER
     WASEDA UNIVERSITY:
          MASATO KOBAYASHI, TOMOKO AKAMA, TSUGUKI TOUMA,
          TAKESHI YOSHIKAWA, YASUHIRO IKABATA, JUNJI SEINO,
          YUYA NAKAJIMA, HIROMI NAKAI
     NANJING UNIVERSITY: SHUHUA LI
     UNIVERSITY OF NEBRASKA:
          PEIFENG SU, DEJUN SI, NANDUN THELLAMUREGE, YALI WANG, HUI LI
     UNIVERSITY OF ZURICH: ROBERTO PEVERATI, KIM BALDRIDGE
     N. COPERNICUS UNIVERSITY AND JACKSON STATE UNIVERSITY:
          MARIA BARYSZ
     UNIVERSITY OF COPENHAGEN: Jimmy Kromann, CASPER STEINMANN
     TOKYO INSTITUTE OF TECHNOLOGY: HIROYA NAKATA
     NAGOYA UNIVERSITY: YOSHIO NISHIMOTO, STEPHAN IRLE
     MOSCOW STATE UNIVERSITY: VLADIMIR MIRONOV

 EXECUTION OF GAMESS BEGUN Wed Aug  9 22:27:26 2017

            ECHO OF THE FIRST FEW INPUT CARDS -
 INPUT CARD>!   full valence CI on H3C-NH2...there are 1,472,976 determinants               
 INPUT CARD>!   there are only 40 AOs and MOs...we use the parallel MO transf.              
 INPUT CARD>!                                                                               
 INPUT CARD>!   E(FCI) = -95.3335772059  (using VVOs)  dipole= 1.480120                     
 INPUT CARD>!                                                                               
 INPUT CARD>!   this run takes 75 seconds on 2.66 GHz Cloverton (22 Dec 2014)               
 INPUT CARD>!                                                                               
 INPUT CARD>!   SCF E= -95.209829, MCSCF E= -95.350303,                                     
 INPUT CARD>!   so that valence full CI with VVOs is 88% of the way to MCSCF.               
 INPUT CARD>!                                                                               
 INPUT CARD> $contrl scftyp=none cityp=aldet runtyp=energy $end                             
 INPUT CARD> $system parall=.t. mwords=33 memddi=2 $end                                     
 INPUT CARD> $basis  gbasis=n31 ngauss=6 ndfunc=1 $end                                      
 INPUT CARD> $guess  guess=moread norb=40 $end                                              
 INPUT CARD> $cidet  group=Cs stsym=Ap ncore=2 nact=13 nels=14 $end                         
 INPUT CARD>                                                                                
 INPUT CARD>x$contrl scftyp=rhf cityp=none $end                                             
 INPUT CARD>x$guess  guess=huckel $end                                                      
 INPUT CARD>x$scf    vvos=.true. $end                                                       
 INPUT CARD>                                                                                
 INPUT CARD>x$contrl scftyp=mcscf cityp=none $end                                           
 INPUT CARD>x$guess  guess=moread norb=40 $end                                              
 INPUT CARD>x$det    group=Cs stsym=Ap ncore=2 nact=13 nels=14 $end                         
 INPUT CARD>                                                                                
 INPUT CARD> $data                                                                          
 INPUT CARD>aminomethane...full valence space CI...RHF/6-31G(d) geometry                    
 INPUT CARD>Cs                                                                              
 INPUT CARD>                                                                                
 INPUT CARD>H    1.0  -1.0828105767  -0.5242386771   0.8042883751                           
 INPUT CARD>N    7.0  -0.7391157801  -0.0365331470   0.0000000000                           
 INPUT CARD>C    6.0   0.7137755263  -0.0074070662   0.0000000000                           
 INPUT CARD>H    1.0   1.0599939209   0.5325038915   0.8738162367                           
 INPUT CARD>H    1.0   1.1908542422  -0.9885375889   0.0000000000                           
 INPUT CARD> $end                                                                           
 INPUT CARD>                                                                                
 INPUT CARD>--- CLOSED SHELL ORBITALS --- GENERATED AT Mon Dec 22 13:23:35 2014             
 INPUT CARD>aminomethane...RHF/6-31G(d) geometry...SCF occupied plus VVOs plus external     
 INPUT CARD>E(RHF)=      -95.2098286882, E(NUC)=   42.3348014496,   11 ITERS                
 INPUT CARD> $VEC                                                                           
 INPUT CARD> 1  1 2.72946122E-04 5.64897931E-04 2.72946122E-04 5.64897931E-04 9.94996794E-01
 INPUT CARD> 1  2 2.49324887E-02 5.40557812E-04-1.36645220E-03 0.00000000E+00-2.28696358E-03
 INPUT CARD> 1  3-6.26626297E-04 9.24736137E-04 0.00000000E+00-3.47345225E-03-3.23456776E-03
 INPUT CARD> 1  4-3.42552303E-03-4.66990380E-05 0.00000000E+00 0.00000000E+00-1.31672131E-05
 INPUT CARD> 1  5 2.15332850E-04-2.45558683E-04-6.43724454E-06 0.00000000E+00 1.41980017E-03
 INPUT CARD> 1  6-4.32404501E-04-2.49701375E-04 0.00000000E+00-2.05755831E-04-5.93954311E-05
 INPUT CARD> 1  7-1.04468529E-04 9.60431284E-06 0.00000000E+00 0.00000000E+00-6.56223790E-05
 INPUT CARD> 1  8-1.05347274E-04-6.56223790E-05-1.05347274E-04-1.31366722E-04-1.84364002E-04
 INPUT CARD> 2  1-5.42770600E-05 2.42526840E-04-5.42770600E-05 2.42526840E-04-2.14748355E-04
 INPUT CARD> 2  2 9.17025319E-05-3.09872064E-05-2.95753772E-05 0.00000000E+00 2.39477031E-03
 INPUT CARD> 2  3 9.34304711E-04 1.14882419E-04 0.00000000E+00-6.39535371E-04-7.87712635E-05
   33000000 WORDS OF MEMORY AVAILABLE

     BASIS OPTIONS
     -------------
     GBASIS=N31          IGAUSS=       6      POLAR=POPN31  
     NDFUNC=       1     NFFUNC=       0     DIFFSP=       F
     NPFUNC=       0      DIFFS=       F     BASNAM=        


     RUN TITLE
     ---------
 aminomethane...full valence space CI...RHF/6-31G(d) geometry                    

 THE POINT GROUP OF THE MOLECULE IS CS      
 THE ORDER OF THE PRINCIPAL AXIS IS     0

 ATOM      ATOMIC                      COORDINATES (BOHR)
           CHARGE         X                   Y                   Z
 H           1.0    -2.0462152866       -0.9906674519       -1.5198846440
 H           1.0    -2.0462152866       -0.9906674519        1.5198846440
 N           7.0    -1.3967262976       -0.0690376373        0.0000000000
 C           6.0     1.3488401614       -0.0139973255        0.0000000000
 H           1.0     2.0030980592        1.0062864423       -1.6512732510
 H           1.0     2.0030980592        1.0062864423        1.6512732510
 H           1.0     2.2503882091       -1.8680651716        0.0000000000

          INTERNUCLEAR DISTANCES (ANGS.)
          ------------------------------

                1 H          2 H          3 N          4 C          5 H     

   1 H       0.0000000    1.6085768 *  1.0014303 *  2.0351207 *  2.3902197 *
   2 H       1.6085768 *  0.0000000    1.0014303 *  2.0351207 *  2.9196491 *
   3 N       1.0014303 *  1.0014303 *  0.0000000    1.4531832 *  2.0794599 *
   4 C       2.0351207 *  2.0351207 *  1.4531832 *  0.0000000    1.0839400 *
   5 H       2.3902197 *  2.9196491 *  2.0794599 *  1.0839400 *  0.0000000  
   6 H       2.9196491 *  2.3902197 *  2.0794599 *  1.0839400 *  1.7476325 *
   7 H       2.4560140 *  2.4560140 *  2.1519983 *  1.0909726 *  1.7590470 *

                6 H          7 H     

   1 H       2.9196491 *  2.4560140 *
   2 H       2.3902197 *  2.4560140 *
   3 N       2.0794599 *  2.1519983 *
   4 C       1.0839400 *  1.0909726 *
   5 H       1.7476325 *  1.7590470 *
   6 H       0.0000000    1.7590470 *
   7 H       1.7590470 *  0.0000000  

  * ... LESS THAN  3.000


     ATOMIC BASIS SET
     ----------------
 THE CONTRACTED PRIMITIVE FUNCTIONS HAVE BEEN UNNORMALIZED
 THE CONTRACTED BASIS FUNCTIONS ARE NOW NORMALIZED TO UNITY

  SHELL TYPE  PRIMITIVE        EXPONENT          CONTRACTION COEFFICIENT(S)

 H         

      3   S       1            18.7311370    0.033494604338
      3   S       2             2.8253944    0.234726953484
      3   S       3             0.6401217    0.813757326146

      4   S       4             0.1612778    1.000000000000

 N         

      5   S       5          4173.5114600    0.001834772160
      5   S       6           627.4579110    0.013994627002
      5   S       7           142.9020930    0.068586551812
      5   S       8            40.2343293    0.232240873040
      5   S       9            12.8202129    0.469069948082
      5   S      10             4.3904370    0.360455199063

      6   L      11            11.6263619   -0.114961181702    0.067579743878
      6   L      12             2.7162798   -0.169117478561    0.323907295893
      6   L      13             0.7722184    1.145851947027    0.740895139755

      7   L      14             0.2120315    1.000000000000    1.000000000000

      8   D      15             0.8000000    1.000000000000

 C         

      9   S      16          3047.5248800    0.001834737132
      9   S      17           457.3695180    0.014037322813
      9   S      18           103.9486850    0.068842622264
      9   S      19            29.2101553    0.232184443216
      9   S      20             9.2866630    0.467941348435
      9   S      21             3.1639270    0.362311985337

     10   L      22             7.8682723   -0.119332419775    0.068999066591
     10   L      23             1.8812885   -0.160854151696    0.316423960957
     10   L      24             0.5442493    1.143456437840    0.744308290898

     11   L      25             0.1687145    1.000000000000    1.000000000000

     12   D      26             0.8000000    1.000000000000

 H         

     15   S      27            18.7311370    0.033494604338
     15   S      28             2.8253944    0.234726953484
     15   S      29             0.6401217    0.813757326146

     16   S      30             0.1612778    1.000000000000

 H         

     17   S      31            18.7311370    0.033494604338
     17   S      32             2.8253944    0.234726953484
     17   S      33             0.6401217    0.813757326146

     18   S      34             0.1612778    1.000000000000

 TOTAL NUMBER OF BASIS SET SHELLS             =   18
 NUMBER OF CARTESIAN GAUSSIAN BASIS FUNCTIONS =   40
 NUMBER OF ELECTRONS                          =   18
 CHARGE OF MOLECULE                           =    0
 SPIN MULTIPLICITY                            =    1
 NUMBER OF OCCUPIED ORBITALS (ALPHA)          =    9
 NUMBER OF OCCUPIED ORBITALS (BETA )          =    9
 TOTAL NUMBER OF ATOMS                        =    7
 THE NUCLEAR REPULSION ENERGY IS       42.3348014496

     $CONTRL OPTIONS
     ---------------
 SCFTYP=NONE         RUNTYP=ENERGY       EXETYP=RUN     
 MPLEVL=       0     CITYP =ALDET        CCTYP =NONE         VBTYP =NONE    
 DFTTYP=NONE         TDDFT =NONE    
 MULT  =       1     ICHARG=       0     NZVAR =       0     COORD =UNIQUE  
 PP    =NONE         RELWFN=NONE         LOCAL =NONE         NUMGRD=       F
 ISPHER=      -1     NOSYM =       0     MAXIT =      30     UNITS =ANGS    
 PLTORB=       F     MOLPLT=       F     AIMPAC=       F     FRIEND=        
 NPRINT=       7     IREST =       0     GEOM  =INPUT   
 NORMF =       0     NORMP =       0     ITOL  =      20     ICUT  =       9
 INTTYP=BEST         GRDTYP=BEST         QMTTOL= 1.0E-06

     $SYSTEM OPTIONS
     ---------------
  REPLICATED MEMORY=    33000000 WORDS (ON EVERY NODE).
 DISTRIBUTED MEMDDI=           2 MILLION WORDS IN AGGREGATE,
 MEMDDI DISTRIBUTED OVER   1 PROCESSORS IS     2000000 WORDS/PROCESSOR.
 TOTAL MEMORY REQUESTED ON EACH PROCESSOR=    35000000 WORDS.
 TIMLIM=      525600.00 MINUTES, OR     365.0 DAYS.
 PARALL= T  BALTYP=  DLB     KDIAG=    0  COREFL= F
 MXSEQ2=     300 MXSEQ3=     150  mem10=         0

          ----------------
          PROPERTIES INPUT
          ----------------

     MOMENTS            FIELD           POTENTIAL          DENSITY
 IEMOM =       1   IEFLD =       0   IEPOT =       0   IEDEN =       0
 WHERE =COMASS     WHERE =NUCLEI     WHERE =NUCLEI     WHERE =NUCLEI  
 OUTPUT=BOTH       OUTPUT=BOTH       OUTPUT=BOTH       OUTPUT=BOTH    
 IEMINT=       0   IEFINT=       0                     IEDINT=       0
                                                       MORB  =       0
          EXTRAPOLATION IN EFFECT
          SOSCF IN EFFECT
 ORBITAL PRINTING OPTION: NPREO=     1    40     2     1

     -------------------------------
     INTEGRAL TRANSFORMATION OPTIONS
     -------------------------------
     NWORD  =            0
     CUTOFF = 1.0E-09     MPTRAN =       0
     DIRTRF =       F     AOINTS =DUP     

          ----------------------
          INTEGRAL INPUT OPTIONS
          ----------------------
 NOPK  =       1 NORDER=       0 SCHWRZ=       T

     ------------------------------------------
     THE POINT GROUP IS CS , NAXIS= 0, ORDER= 2
     ------------------------------------------

     DIMENSIONS OF THE SYMMETRY SUBSPACES ARE
 A'  =   28     A'' =   12

 ..... DONE SETTING UP THE RUN .....
 CPU     0: STEP CPU TIME=     0.04 TOTAL CPU TIME=        0.0 (    0.0 MIN)
 TOTAL WALL CLOCK TIME=        0.0 SECONDS, CPU UTILIZATION IS 133.33%

          ********************
          1 ELECTRON INTEGRALS
          ********************
 ...... END OF ONE-ELECTRON INTEGRALS ......
 CPU     0: STEP CPU TIME=     0.00 TOTAL CPU TIME=        0.0 (    0.0 MIN)
 TOTAL WALL CLOCK TIME=        0.0 SECONDS, CPU UTILIZATION IS 100.00%

          -------------
          GUESS OPTIONS
          -------------
          GUESS =MOREAD            NORB  =      40          NORDER=       0
          MIX   =       F          PRTMO =       F          PUNMO =       F
          TOLZ  = 1.0E-08          TOLE  = 1.0E-05
          SYMDEN=       F          PURIFY=       F

 INITIAL GUESS ORBITALS GENERATED BY MOREAD   ROUTINE.

 SYMMETRIES FOR INITIAL GUESS ORBITALS FOLLOW.   BOTH SET(S).
     9 ORBITALS ARE OCCUPIED (    2 CORE ORBITALS).
     1=A'       2=A'       3=A'       4=A'       5=A''      6=A'       7=A'  
     8=A''      9=A'      10=A'      11=A''     12=A'      13=A'      14=A'' 
    15=A'      16=A'      17=A''     18=A'      19=A''     20=A'      21=A'  
    22=A'      23=A''     24=A'      25=A'      26=A''     27=A'      28=A'  
    29=A''     30=A'      31=A'      32=A'      33=A''     34=A'      35=A'' 
    36=A'      37=A''     38=A'      39=A'      40=A'  
 ...... END OF INITIAL ORBITAL SELECTION ......
 CPU     0: STEP CPU TIME=     0.00 TOTAL CPU TIME=        0.0 (    0.0 MIN)
 TOTAL WALL CLOCK TIME=        0.0 SECONDS, CPU UTILIZATION IS 100.00%

                    ----------------------
                    AO INTEGRAL TECHNOLOGY
                    ----------------------
     S,P,L SHELL ROTATED AXIS INTEGRALS, REPROGRAMMED BY
        KAZUYA ISHIMURA (IMS) AND JOSE SIERRA (SYNSTAR).
     S,P,D,L SHELL ROTATED AXIS INTEGRALS PROGRAMMED BY
        KAZUYA ISHIMURA (INSTITUTE FOR MOLECULAR SCIENCE).
     S,P,D,F,G SHELL TO TOTAL QUARTET ANGULAR MOMENTUM SUM 5,
        ERIC PROGRAM BY GRAHAM FLETCHER (ELORET AND NASA ADVANCED
        SUPERCOMPUTING DIVISION, AMES RESEARCH CENTER).
     S,P,D,F,G,L SHELL GENERAL RYS QUADRATURE PROGRAMMED BY
        MICHEL DUPUIS (PACIFIC NORTHWEST NATIONAL LABORATORY).
 DIRECT TRANSFORMATION SKIPS AO INTEGRAL STORAGE ON DISK.
  ...... END OF TWO-ELECTRON INTEGRALS .....
 CPU     0: STEP CPU TIME=     0.01 TOTAL CPU TIME=        0.0 (    0.0 MIN)
 TOTAL WALL CLOCK TIME=        0.0 SECONDS, CPU UTILIZATION IS 100.00%
 DDI: Creating Array [0] - 120 x 120 = 14400 words.
 DDI: Creating Array [1] - 820 x 120 = 98400 words.

 DETERMINANT CI OPTIONS   NRNFG   NPFLG
 INTEGRAL TRANSFORMATION    1       0
 DIAGONALIZE HAMILTONIAN    1       0
 FORM 1E- DENSITY MATRIX    1       0
 FORM 2E- DENSITY MATRIX    0       0

     --------------------------------------------------
          AMES LABORATORY DETERMINANTAL FULL CI
     PROGRAM WRITTEN BY JOE IVANIC AND KLAUS RUEDENBERG
     --------------------------------------------------

 THE POINT GROUP                  =   CS      
 THE STATE SYMMETRY               =   A'      
 NUMBER OF CORE ORBITALS          =    2
 NUMBER OF ACTIVE ORBITALS        =   13
 NUMBER OF ALPHA ELECTRONS        =    9 (   7 ACTIVE)
 NUMBER OF BETA ELECTRONS         =    9 (   7 ACTIVE)
 NUMBER OF OCCUPIED ORBITALS      =   15
 NUMBER OF CI STATES REQUESTED    =    1
 NUMBER OF CI STARTING VECTORS    =    1
 MAX. NO. OF CI EXPANSION VECTORS =   10
 SIZE OF INITIAL CI GUESS MATRIX  =  300
 MAX. NO. OF CI ITERS/STATE       =  100
 CI DIAGONALIZATION CRITERION     = 1.00E-06
 CI PROPERTIES WILL BE FOUND FOR ROOT NUMBER   1
 1E- DENSITY MATRIX OPTIONS ARE 1

 CORRELATION ENERGY ANALYSIS      =    F

 SYMMETRIES FOR THE   2 CORE,  13 ACTIVE ARE

     CORE= A'    A'  

   ACTIVE= A'    A'    A''   A'    A'    A''   A'    A'    A''   A'  
           A'    A''   A'  

     --------------------------------------------
     PARTIAL TWO ELECTRON INTEGRAL TRANSFORMATION
     --------------------------------------------

 NUMBER OF CORE MOLECULAR ORBITALS     =    2
 NUMBER OF OCCUPIED MOLECULAR ORBITALS =   15
 TOTAL NUMBER OF MOLECULAR ORBITALS    =   15
 TOTAL NUMBER OF ATOMIC ORBITALS       =   40
 THRESHOLD FOR KEEPING TRANSFORMED 2E- INTEGRALS = 1.000E-09

 -------------------------------     ------------------------------
 DISTRIBUTED DATA TRANSFORMATION     PROGRAM WRITTEN BY G. FLETCHER
 -------------------------------     ------------------------------

 THE DISTRIBUTED MEMORY REQUIRED FOR THIS STEP IS MEMDDI=         1 MWORDS
 CREATING DISTRIBUTED STORAGE FOR [OCC OCC|OCC OCC] INTEGRALS
 CREATING WORKSPACE OF SIZE VVOO
 FOR    1 PROCESSORS, THE REPLICATED MEMORY NEEDED IS       97929 WORDS.
 SCHWARZ INEQUALITY OVERHEAD:       820 INTEGRALS, T=        0.00

      DIRECT 4-INDEX TRANSFORMATION 
      SCHWARZ INEQUALITY TEST SKIPPED         16 INTEGRAL BLOCKS
 ----- FROZEN CORE ENERGY =       -92.6824783201
 ... END OF INTEGRAL TRANSFORMATION ...
 CPU     0: STEP CPU TIME=     0.08 TOTAL CPU TIME=        0.1 (    0.0 MIN)
 TOTAL WALL CLOCK TIME=        0.1 SECONDS, CPU UTILIZATION IS 100.00%

     --------------------------------------------------
          AMES LABORATORY DETERMINANTAL FULL CI
     PROGRAM WRITTEN BY JOE IVANIC AND KLAUS RUEDENBERG
     --------------------------------------------------

 THE NUMBER OF DETERMINANTS HAVING SPACE SYMMETRY A' 
 IN POINT GROUP CS   WITH SZ=  0.0 IS        1472976
 THE DETERMINANT FULL CI REQUIRES        31170951 WORDS
 INITIAL CI VECTOR GUESS TIME  :          0.2
 INITIAL FULL CI ITERATION TIME:          2.6

 ITERATION      ENERGY           GRADIENT
     0      -95.2244133738     0.46522791
     1      -95.3248786499     0.15898688
     2      -95.3327763143     0.05332521
     3      -95.3334658732     0.02066845
     4      -95.3335661414     0.00674609
     5      -95.3335759274     0.00228903
     6      -95.3335770682     0.00077050
     7      -95.3335771879     0.00029385
     8      -95.3335772035     0.00010852
     9      -95.3335772056     0.00003791
    10      -95.3335772058     0.00001681
    11      -95.3335772059     0.00000724
    12      -95.3335772059     0.00000296
    13      -95.3335772059     0.00000105
    14      -95.3335772059     0.00000040

 CONVERGED STATE    1 ENERGY=      -95.3335772059 IN   14 ITERS

 ALL STATES CONVERGED.

 CI EIGENVECTORS WILL BE LABELED IN GROUP=CS      
 PRINTING CI COEFFICIENTS LARGER THAN 5.000E-02

 STATE   1  ENERGY=       -95.3335772059  S=  0.00  SZ=  0.00  SPACE SYM=A'  

    ALPHA      |    BETA       | CI COEFFICIENT
---------------|---------------|---------------
 1111111000000 | 1111111000000 |   0.9664867640
 ..... DONE WITH DETERMINANT CI COMPUTATION .....
 CPU     0: STEP CPU TIME=    42.29 TOTAL CPU TIME=       42.4 (    0.7 MIN)
 TOTAL WALL CLOCK TIME=       42.6 SECONDS, CPU UTILIZATION IS  99.65%

     ---------------------------
     ONE PARTICLE DENSITY MATRIX
     ---------------------------

 DENSITY MATRIX WILL BE SAVED FOR   1-TH STATE WITH S= 0.00

 CI EIGENSTATE   1 TOTAL ENERGY =      -95.3335772059

          NATURAL ORBITALS IN ATOMIC ORBITAL BASIS
          ----------------------------------------

                      1          2          3          4          5
                    2.0000     2.0000     1.9959     1.9858     1.9824
                     A'         A'         A'         A'         A'  
    1  H  1  S    0.000273  -0.000054   0.015466   0.093443  -0.144772
    2  H  1  S    0.000565   0.000243  -0.036147   0.022140  -0.035537
    3  H  2  S    0.000273  -0.000054   0.015466   0.093443  -0.144772
    4  H  2  S    0.000565   0.000243  -0.036147   0.022140  -0.035537
    5  N  3  S    0.994997  -0.000215  -0.150768  -0.088111   0.106990
    6  N  3  S    0.024932   0.000092   0.328936   0.174130  -0.215489
    7  N  3  X    0.000541  -0.000031  -0.148254   0.111241   0.053390
    8  N  3  Y   -0.001366  -0.000030   0.414292  -0.238983   0.255646
    9  N  3  Z   -0.000000   0.000000   0.000000   0.000000   0.000000
   10  N  3  S   -0.002287   0.002395   0.423817   0.113795  -0.241428
   11  N  3  X   -0.000627   0.000934  -0.147867   0.073003  -0.012336
   12  N  3  Y    0.000925   0.000115   0.370097  -0.192838   0.191533
   13  N  3  Z   -0.000000   0.000000   0.000000   0.000000   0.000000
   14  N  3 XX   -0.003473  -0.000640   0.006892   0.009211   0.012992
   15  N  3 YY   -0.003235  -0.000079  -0.019298   0.008567  -0.013008
   16  N  3 ZZ   -0.003426  -0.000093   0.015503   0.004029  -0.013562
   17  N  3 XY   -0.000047  -0.000031   0.014268  -0.001877  -0.005519
   18  N  3 XZ   -0.000000  -0.000000   0.000000   0.000000   0.000000
   19  N  3 YZ   -0.000000  -0.000000   0.000000   0.000000   0.000000
   20  C  4  S   -0.000013   0.995726  -0.011307  -0.153938  -0.112056
   21  C  4  S    0.000215   0.028030   0.015267   0.290349   0.213490
   22  C  4  X   -0.000246  -0.000338  -0.005379  -0.006596   0.139281
   23  C  4  Y   -0.000006  -0.000013   0.047556  -0.041818   0.066219
   24  C  4  Z    0.000000  -0.000000   0.000000   0.000000   0.000000
   25  C  4  S    0.001420  -0.013726   0.003110   0.234931   0.258650
   26  C  4  X   -0.000432   0.000055   0.008158   0.026499   0.042301
   27  C  4  Y   -0.000250  -0.000168   0.020335  -0.021854   0.018881
   28  C  4  Z    0.000000  -0.000000   0.000000   0.000000   0.000000
   29  C  4 XX   -0.000206  -0.001807   0.011035   0.010133  -0.014239
   30  C  4 YY   -0.000059  -0.001861  -0.002087   0.006207   0.010959
   31  C  4 ZZ   -0.000104  -0.001841  -0.002410   0.005425   0.015228
   32  C  4 XY    0.000010   0.000003  -0.017211   0.007456  -0.008187
   33  C  4 XZ    0.000000  -0.000000   0.000000   0.000000   0.000000
   34  C  4 YZ    0.000000  -0.000000   0.000000   0.000000   0.000000
   35  H  5  S   -0.000066   0.000125  -0.002266   0.100366   0.118778
   36  H  5  S   -0.000105   0.002637  -0.021382   0.036011   0.039538
   37  H  6  S   -0.000066   0.000125  -0.002266   0.100366   0.118778
   38  H  6  S   -0.000105   0.002637  -0.021382   0.036011   0.039538
   39  H  7  S   -0.000131   0.000097   0.024183   0.108041   0.094629
   40  H  7  S   -0.000184   0.002524   0.067620   0.010753   0.043054

                      6          7          8          9         10
                    1.9776     1.9762     1.9744     1.9724     0.0262
                     A''        A'         A''        A'         A'  
    1  H  1  S   -0.139115   0.018056  -0.199205  -0.111974  -0.087328
    2  H  1  S   -0.060614   0.017375  -0.137197  -0.080224  -0.087102
    3  H  2  S    0.139115   0.018056   0.199205  -0.111974  -0.087328
    4  H  2  S    0.060614   0.017375   0.137197  -0.080224  -0.087102
    5  N  3  S   -0.000000  -0.009190   0.000000  -0.025032   0.063721
    6  N  3  S   -0.000000   0.017154   0.000000   0.053946  -0.248111
    7  N  3  X   -0.000000   0.076955   0.000000   0.425119  -0.648676
    8  N  3  Y   -0.000000  -0.079456   0.000000   0.112279  -0.040964
    9  N  3  Z    0.299127  -0.000000   0.366934  -0.000000   0.000000
   10  N  3  S   -0.000000  -0.016295   0.000000   0.075983  -0.371900
   11  N  3  X   -0.000000   0.066904   0.000000   0.260315  -0.453958
   12  N  3  Y   -0.000000  -0.120702   0.000000   0.069331  -0.010653
   13  N  3  Z    0.156009  -0.000000   0.234803  -0.000000   0.000000
   14  N  3 XX   -0.000000   0.002726   0.000000   0.025973  -0.003257
   15  N  3 YY   -0.000000   0.002659   0.000000  -0.013864   0.004239
   16  N  3 ZZ   -0.000000   0.000664   0.000000  -0.017312   0.002924
   17  N  3 XY   -0.000000   0.006470   0.000000  -0.019935  -0.000475
   18  N  3 XZ    0.000779  -0.000000  -0.018574  -0.000000   0.000000
   19  N  3 YZ   -0.024804  -0.000000  -0.036348  -0.000000   0.000000
   20  C  4  S   -0.000000  -0.002335   0.000000  -0.025817  -0.118249
   21  C  4  S   -0.000000   0.009445   0.000000   0.057148   0.474786
   22  C  4  X   -0.000000  -0.092730   0.000000  -0.369361  -0.530127
   23  C  4  Y   -0.000000   0.426483   0.000000  -0.078383  -0.288220
   24  C  4  Z    0.345585  -0.000000  -0.283402  -0.000000   0.000000
   25  C  4  S   -0.000000  -0.018743   0.000000  -0.002822   0.726142
   26  C  4  X   -0.000000  -0.023071   0.000000  -0.140607  -0.403688
   27  C  4  Y   -0.000000   0.207374   0.000000  -0.060400  -0.200199
   28  C  4  Z    0.175237  -0.000000  -0.162066  -0.000000   0.000000
   29  C  4 XX   -0.000000   0.001853   0.000000   0.032865  -0.008205
   30  C  4 YY   -0.000000  -0.024977   0.000000  -0.013613  -0.010759
   31  C  4 ZZ   -0.000000   0.023508   0.000000  -0.020552  -0.011018
   32  C  4 XY   -0.000000   0.030591   0.000000  -0.004291   0.000602
   33  C  4 XZ    0.006327  -0.000000  -0.025597  -0.000000   0.000000
   34  C  4 YZ    0.021867  -0.000000  -0.023070  -0.000000   0.000000
   35  H  5  S   -0.171465   0.129887   0.168200  -0.086246   0.034711
   36  H  5  S   -0.120436   0.114105   0.157609  -0.075970  -0.018863
   37  H  6  S    0.171465   0.129887  -0.168200  -0.086246   0.034711
   38  H  6  S    0.120436   0.114105  -0.157609  -0.075970  -0.018863
   39  H  7  S   -0.000000  -0.292277   0.000000  -0.029708  -0.241540
   40  H  7  S   -0.000000  -0.271914   0.000000  -0.030204  -0.375514

                     11         12         13         14         15
                    0.0236     0.0224     0.0222     0.0208     0.0203
                     A''        A'         A''        A'         A'  
    1  H  1  S    0.445761  -0.082937  -0.129496  -0.381071   0.037737
    2  H  1  S    0.620271  -0.126618  -0.208619  -0.624552   0.006415
    3  H  2  S   -0.445761  -0.082937   0.129496  -0.381071   0.037737
    4  H  2  S   -0.620271  -0.126618   0.208619  -0.624552   0.006415
    5  N  3  S    0.000000   0.009001   0.000000  -0.131617  -0.010488
    6  N  3  S    0.000000  -0.028003   0.000000   0.611651   0.048667
    7  N  3  X    0.000000  -0.250911   0.000000  -0.198239   0.087231
    8  N  3  Y    0.000000  -0.240503   0.000000  -0.356435   0.026492
    9  N  3  Z    0.701049  -0.000000  -0.340660   0.000000  -0.000000
   10  N  3  S    0.000000  -0.038845   0.000000   0.771079   0.113643
   11  N  3  X    0.000000  -0.178348   0.000000  -0.112339   0.062609
   12  N  3  Y    0.000000  -0.140562   0.000000  -0.268206  -0.011218
   13  N  3  Z    0.441386  -0.000000  -0.216799   0.000000  -0.000000
   14  N  3 XX    0.000000  -0.005846   0.000000   0.004334   0.007412
   15  N  3 YY    0.000000  -0.001000   0.000000  -0.000376  -0.004404
   16  N  3 ZZ    0.000000  -0.003451   0.000000  -0.000912  -0.000731
   17  N  3 XY    0.000000   0.000138   0.000000  -0.000272   0.001012
   18  N  3 XZ   -0.000464  -0.000000  -0.000849   0.000000  -0.000000
   19  N  3 YZ    0.001808  -0.000000  -0.002438   0.000000  -0.000000
   20  C  4  S    0.000000  -0.028879   0.000000   0.022239  -0.139578
   21  C  4  S    0.000000   0.112742   0.000000  -0.069870   0.674546
   22  C  4  X    0.000000  -0.283598   0.000000   0.108186   0.507069
   23  C  4  Y    0.000000   0.754790   0.000000  -0.098994   0.097108
   24  C  4  Z    0.227086  -0.000000   0.782182   0.000000  -0.000000
   25  C  4  S    0.000000   0.183634   0.000000  -0.100454   0.892080
   26  C  4  X    0.000000  -0.209329   0.000000   0.111500   0.396968
   27  C  4  Y    0.000000   0.522979   0.000000  -0.073804   0.073979
   28  C  4  Z    0.170564  -0.000000   0.540794   0.000000  -0.000000
   29  C  4 XX    0.000000  -0.000440   0.000000  -0.000345  -0.019542
   30  C  4 YY    0.000000  -0.001934   0.000000   0.001729  -0.014647
   31  C  4 ZZ    0.000000  -0.002954   0.000000   0.002381  -0.013472
   32  C  4 XY    0.000000   0.002305   0.000000  -0.001323  -0.001398
   33  C  4 XZ   -0.002234  -0.000000   0.001875   0.000000  -0.000000
   34  C  4 YZ    0.000770  -0.000000  -0.000241   0.000000  -0.000000
   35  H  5  S    0.173653  -0.249038   0.459497   0.081418  -0.369816
   36  H  5  S    0.232692  -0.336856   0.592035   0.090855  -0.585407
   37  H  6  S   -0.173653  -0.249038  -0.459497   0.081418  -0.369816
   38  H  6  S   -0.232692  -0.336856  -0.592035   0.090855  -0.585407
   39  H  7  S    0.000000   0.527963   0.000000  -0.059481  -0.305312
   40  H  7  S    0.000000   0.663815   0.000000  -0.096951  -0.501343
 ..... DONE WITH ONE PARTICLE DENSITY MATRIX .....
 CPU     0: STEP CPU TIME=     0.09 TOTAL CPU TIME=       42.5 (    0.7 MIN)
 TOTAL WALL CLOCK TIME=       42.7 SECONDS, CPU UTILIZATION IS  99.65%

     --------------------------------------------------------
     ALDET CI PROPERTIES...FOR THE WAVEFUNCTION OF STATE    1
               USING THE EXPECTATION VALUE DENSITY
     --------------------------------------------------------

          -----------------
          ENERGY COMPONENTS
          -----------------

         WAVEFUNCTION NORMALIZATION =       1.0000000000

                ONE ELECTRON ENERGY =    -211.8150186222
                TWO ELECTRON ENERGY =      74.1466399667
           NUCLEAR REPULSION ENERGY =      42.3348014496
                                      ------------------
                       TOTAL ENERGY =     -95.3335772059

 ELECTRON-ELECTRON POTENTIAL ENERGY =      74.1466399667
  NUCLEUS-ELECTRON POTENTIAL ENERGY =    -307.0563331229
   NUCLEUS-NUCLEUS POTENTIAL ENERGY =      42.3348014496
                                      ------------------
             TOTAL POTENTIAL ENERGY =    -190.5748917066
               TOTAL KINETIC ENERGY =      95.2413145007
                 VIRIAL RATIO (V/T) =       2.0009687257

          ---------------------------------------
          MULLIKEN AND LOWDIN POPULATION ANALYSES
          ---------------------------------------

               ----- POPULATIONS IN EACH AO -----
                             MULLIKEN      LOWDIN
              1  H  1  S      0.51323     0.47418
              2  H  1  S      0.16685     0.26666
              3  H  2  S      0.51323     0.47418
              4  H  2  S      0.16685     0.26666
              5  N  3  S      1.99550     1.97827
              6  N  3  S      0.76150     0.51533
              7  N  3  X      0.74764     0.69633
              8  N  3  Y      0.95472     0.92819
              9  N  3  Z      0.74988     0.69067
             10  N  3  S      0.85433     0.39607
             11  N  3  X      0.44409     0.50801
             12  N  3  Y      0.76498     0.77505
             13  N  3  Z      0.45498     0.52375
             14  N  3 XX      0.01598     0.18356
             15  N  3 YY     -0.00413     0.15278
             16  N  3 ZZ      0.02807     0.19314
             17  N  3 XY      0.00496     0.00956
             18  N  3 XZ      0.00639     0.01506
             19  N  3 YZ      0.01606     0.02118
             20  C  4  S      1.99651     1.98050
             21  C  4  S      0.63630     0.35079
             22  C  4  X      0.62157     0.56632
             23  C  4  Y      0.70679     0.63404
             24  C  4  Z      0.71735     0.64813
             25  C  4  S      0.59276     0.32546
             26  C  4  X      0.18252     0.33579
             27  C  4  Y      0.35807     0.48397
             28  C  4  Z      0.39037     0.48919
             29  C  4 XX      0.02050     0.15988
             30  C  4 YY      0.01733     0.15129
             31  C  4 ZZ      0.02087     0.15550
             32  C  4 XY      0.01752     0.03410
             33  C  4 XZ      0.00899     0.01696
             34  C  4 YZ      0.01069     0.01618
             35  H  5  S      0.53309     0.49920
             36  H  5  S      0.30524     0.35242
             37  H  6  S      0.53309     0.49920
             38  H  6  S      0.30524     0.35242
             39  H  7  S      0.53663     0.50740
             40  H  7  S      0.33345     0.37265

          ----- MULLIKEN ATOMIC OVERLAP POPULATIONS -----
          (OFF-DIAGONAL ELEMENTS NEED TO BE MULTIPLIED BY 2)

             1           2           3           4           5

    1    0.4433263
    2   -0.0297366   0.4433263
    3    0.3038199   0.3038199   7.0824251
    4   -0.0358660  -0.0358660   0.2347964   5.0530977
    5   -0.0033289   0.0047488  -0.0400586   0.3631449   0.5775959
    6    0.0047488  -0.0033289  -0.0400586   0.3631449  -0.0252674
    7   -0.0028920  -0.0028920  -0.0497873   0.3557057  -0.0385048

             6           7

    6    0.5775959
    7   -0.0385048   0.6469581

          TOTAL MULLIKEN AND LOWDIN ATOMIC POPULATIONS
       ATOM         MULL.POP.    CHARGE          LOW.POP.     CHARGE
    1 H             0.680072    0.319928         0.740832    0.259168
    2 H             0.680072    0.319928         0.740832    0.259168
    3 N             7.794957   -0.794957         7.586935   -0.586935
    4 C             6.298158   -0.298158         6.348104   -0.348104
    5 H             0.838330    0.161670         0.851623    0.148377
    6 H             0.838330    0.161670         0.851623    0.148377
    7 H             0.870083    0.129917         0.880050    0.119950

          ---------------------
          ELECTROSTATIC MOMENTS
          ---------------------

 POINT   1           X           Y           Z (BOHR)    CHARGE
                -0.038376   -0.096189    0.000000        0.00 (A.U.)
         DX          DY          DZ         /D/  (DEBYE)
     0.395214   -1.426381    0.000000    1.480120
 ...... END OF PROPERTY EVALUATION ......
 CPU     0: STEP CPU TIME=     0.00 TOTAL CPU TIME=       42.5 (    0.7 MIN)
 TOTAL WALL CLOCK TIME=       42.7 SECONDS, CPU UTILIZATION IS  99.65%
             31171851  WORDS OF DYNAMIC MEMORY USED
 EXECUTION OF GAMESS TERMINATED NORMALLY Wed Aug  9 22:28:09 2017
 DDI: 1166040 bytes (1.1 MB / 0 MWords) used by master data server.

 ----------------------------------------
 CPU timing information for all processes
 ========================================
 0: 42.474 + 0.48 = 42.523
 ----------------------------------------
 ddikick.x: exited gracefully.
unset echo
----- accounting info -----
Files used on the master node compute-1-7.local were:
-rw-rw-r-- 1 sarom sarom  27K Aug  9 22:27 /scratch/aldet-ch3nh2-vci.F05
-rw-rw-r-- 1 sarom sarom    0 Aug  9 22:27 /scratch/aldet-ch3nh2-vci.F08
-rw-rw-r-- 1 sarom sarom  968 Aug  9 22:27 /scratch/aldet-ch3nh2-vci.F09
-rw-rw-r-- 1 sarom sarom 1.8M Aug  9 22:28 /scratch/aldet-ch3nh2-vci.F10
-rw-rw-r-- 1 sarom sarom  12M Aug  9 22:28 /scratch/aldet-ch3nh2-vci.F12
rm: cannot remove `/scratch/tmp': Is a directory
ls: No match.
ls: No match.
ls: No match.
Wed Aug  9 22:28:12 CDT 2017
0.263u 0.206s 0:46.20 0.9%	0+0k 56+408io 0pf+0w
/opt/gridengine/default/spool/compute-1-7/active_jobs/36243.1/pe_hostfile compute-1-7.local
