-catch_rsh /opt/gridengine/default/spool/compute-1-1/active_jobs/36248.1/pe_hostfile
compute-1-1
The primary node assigned by SGE to this run is compute-1-1
Warning: no access to tty (Bad file descriptor).
Thus no job control in this shell.
source /home/sarom/dir.git.branch.saromleang-travis-ci/install.info
setenv GMS_PATH /home/sarom/dir.git.branch.saromleang-travis-ci
setenv GMS_BUILD_DIR /home/sarom/dir.git.branch.saromleang-travis-ci
setenv GMS_TARGET linux64
setenv GMS_FORTRAN gfortran
setenv GMS_GFORTRAN_VERNO 4.4
setenv GMS_MATHLIB mkl-so
setenv GMS_MATHLIB none
setenv GMS_MATHLIB_PATH /share/apps/intel/compilers_and_libraries_2017.1.132/linux/mkl/lib/intel64
setenv GMS_MKL_VERNO 12
setenv GMS_DDI_COMM sockets
setenv GMS_LIBCCHEM false
setenv GMS_EIGEN_PATH
setenv GMS_PHI false
setenv GMS_SHMTYPE sysv
setenv GMS_OPENMP false
unset echo
aldet-tmm
/home/sarom/dir.git.branch.saromleang-travis-ci/tests/ci/parallel
----- GAMESS execution script 'rungms' -----
This job is running on host compute-1-1.local
under operating system Linux at Wed Aug 9 22:29:26 CDT 2017
Available scratch disk space (Kbyte units) at beginning of the job is
Filesystem           1K-blocks      Used Available Use% Mounted on
/dev/sda1             16126920   9109384   6198336  60% /
GAMESS temporary binary files will be written to /scratch
GAMESS supplementary output files will be written to /home/sarom/restart
Copying input file aldet-tmm.inp to your run's scratch directory...
cp /home/sarom/dir.git.branch.saromleang-travis-ci/tests/ci/parallel/aldet-tmm.inp /scratch/aldet-tmm.F05
unset echo
The generated host list is
compute-1-1.local
/home/sarom/dir.git.branch.saromleang-travis-ci/ddikick.x /home/sarom/dir.git.branch.saromleang-travis-ci/gamess.00.x aldet-tmm -ddi 1 1 compute-1-1.local -scr /scratch

 Distributed Data Interface kickoff program.
 Initiating 1 compute processes on 1 nodes to run the following command:
 /home/sarom/dir.git.branch.saromleang-travis-ci/gamess.00.x aldet-tmm 

          ******************************************************
          *         GAMESS VERSION = 20 APR 2017 (R1)          *
          *             FROM IOWA STATE UNIVERSITY             *
          * M.W.SCHMIDT, K.K.BALDRIDGE, J.A.BOATZ, S.T.ELBERT, *
          *   M.S.GORDON, J.H.JENSEN, S.KOSEKI, N.MATSUNAGA,   *
          *          K.A.NGUYEN, S.J.SU, T.L.WINDUS,           *
          *       TOGETHER WITH M.DUPUIS, J.A.MONTGOMERY       *
          *         J.COMPUT.CHEM.  14, 1347-1363(1993)        *
          **************** 64 BIT LINUX VERSION ****************

  SINCE 1993, STUDENTS AND POSTDOCS WORKING AT IOWA STATE UNIVERSITY
  AND ALSO IN THEIR VARIOUS JOBS AFTER LEAVING ISU HAVE MADE IMPORTANT
  CONTRIBUTIONS TO THE CODE:
     IVANA ADAMOVIC, CHRISTINE AIKENS, YURI ALEXEEV, POOJA ARORA,
     ANDREY ASADCHEV, ROB BELL, PRADIPTA BANDYOPADHYAY, JONATHAN BENTZ,
     BRETT BODE, KURT BRORSEN, CALEB CARLIN, GALINA CHABAN, WEI CHEN,
     CHEOL HO CHOI, PAUL DAY, ALBERT DEFUSCO, NUWAN DESILVA, TIM DUDLEY,
     DMITRI FEDOROV, GRAHAM FLETCHER, MARK FREITAG, KURT GLAESEMANN,
     DAN KEMP, GRANT MERRILL, NORIYUKI MINEZAWA, JONATHAN MULLIN,
     TAKESHI NAGATA, SEAN NEDD, HEATHER NETZLOFF, BOSILJKA NJEGIC, RYAN OLSON,
     MIKE PAK, SPENCER PRUITT, LUKE ROSKOP, JIM SHOEMAKER, LYUDMILA SLIPCHENKO,
     TONY SMITH, SAROM SOK LEANG, JIE SONG, TETSUYA TAKETSUGU, SIMON WEBB,
     PENG XU, SOOHAENG YOO, FEDERICO ZAHARIEV

  ADDITIONAL CODE HAS BEEN PROVIDED BY COLLABORATORS IN OTHER GROUPS:
     IOWA STATE UNIVERSITY:
          JOE IVANIC, AARON WEST, LAIMUTIS BYTAUTAS, KLAUS RUEDENBERG
     UNIVERSITY OF TOKYO: KIMIHIKO HIRAO, TAKAHITO NAKAJIMA,
          TAKAO TSUNEDA, MUNEAKI KAMIYA, SUSUMU YANAGISAWA,
          KIYOSHI YAGI, MAHITO CHIBA, SEIKEN TOKURA, NAOAKI KAWAKAMI
     UNIVERSITY OF AARHUS: FRANK JENSEN
     UNIVERSITY OF IOWA: VISVALDAS KAIRYS, HUI LI
     NATIONAL INST. OF STANDARDS AND TECHNOLOGY: WALT STEVENS, DAVID GARMER
     UNIVERSITY OF PISA: BENEDETTA MENNUCCI, JACOPO TOMASI
     UNIVERSITY OF MEMPHIS: HENRY KURTZ, PRAKASHAN KORAMBATH
     UNIVERSITY OF ALBERTA: TOBY ZENG, MARIUSZ KLOBUKOWSKI
     UNIVERSITY OF NEW ENGLAND: MARK SPACKMAN
     MIE UNIVERSITY: HIROAKI UMEDA
     NAT. INST. OF ADVANCED INDUSTRIAL SCIENCE AND TECHNOLOGY: KAZUO KITAURA
     MICHIGAN STATE UNIVERSITY:
          KAROL KOWALSKI, MARTA WLOCH, JEFFREY GOUR, JESSE LUTZ,
          WEI LI, PIOTR PIECUCH
     UNIVERSITY OF SILESIA: MONIKA MUSIAL, STANISLAW KUCHARSKI
     FACULTES UNIVERSITAIRES NOTRE-DAME DE LA PAIX:
          OLIVIER QUINET, BENOIT CHAMPAGNE
     UNIVERSITY OF CALIFORNIA - SANTA BARBARA: BERNARD KIRTMAN
     INSTITUTE FOR MOLECULAR SCIENCE:
          KAZUYA ISHIMURA, MICHIO KATOUDA, AND SHIGERU NAGASE
     UNIVERSITY OF NOTRE DAME: ANNA POMOGAEVA, DAN CHIPMAN
     KYUSHU UNIVERSITY:
          HARUYUKI NAKANO,
          FENG LONG GU, JACEK KORCHOWIEC, MARCIN MAKOWSKI, AND YURIKO AOKI,
          HIROTOSHI MORI AND EISAKU MIYOSHI
     PENNSYLVANIA STATE UNIVERSITY:
          TZVETELIN IORDANOV, CHET SWALINA, JONATHAN SKONE,
          SHARON HAMMES-SCHIFFER
     WASEDA UNIVERSITY:
          MASATO KOBAYASHI, TOMOKO AKAMA, TSUGUKI TOUMA,
          TAKESHI YOSHIKAWA, YASUHIRO IKABATA, JUNJI SEINO,
          YUYA NAKAJIMA, HIROMI NAKAI
     NANJING UNIVERSITY: SHUHUA LI
     UNIVERSITY OF NEBRASKA:
          PEIFENG SU, DEJUN SI, NANDUN THELLAMUREGE, YALI WANG, HUI LI
     UNIVERSITY OF ZURICH: ROBERTO PEVERATI, KIM BALDRIDGE
     N. COPERNICUS UNIVERSITY AND JACKSON STATE UNIVERSITY:
          MARIA BARYSZ
     UNIVERSITY OF COPENHAGEN: Jimmy Kromann, CASPER STEINMANN
     TOKYO INSTITUTE OF TECHNOLOGY: HIROYA NAKATA
     NAGOYA UNIVERSITY: YOSHIO NISHIMOTO, STEPHAN IRLE
     MOSCOW STATE UNIVERSITY: VLADIMIR MIRONOV

 EXECUTION OF GAMESS BEGUN Wed Aug  9 22:29:26 2017

            ECHO OF THE FIRST FEW INPUT CARDS -
 INPUT CARD>!   TMM...D3h symmetry...72 AOs, 16 alpha and 14 beta spins.                    
 INPUT CARD>!   The electron configuration is (e'')2, so the ground                         
 INPUT CARD>!   state is 3-A'-2, but this configuration also contains                       
 INPUT CARD>!   1-E' and 1-A'-1 terms, which are easily generated by                        
 INPUT CARD>!   a small CI within the (e'')2 configuration.                                 
 INPUT CARD>!   See GVB test cases for how to do SCF calculations on the upper terms.       
 INPUT CARD>!                                                                               
 INPUT CARD>!          FINAL E(ROHF)= -154.8646925519, 10 iters                             
 INPUT CARD>!      STATE   1  ENERGY= -154.8646925509  S=  1.00  SPACE SYM=A  (3-A2         
 INPUT CARD>!      STATE   2  ENERGY= -154.7475703535  S=  0.00  SPACE SYM=A  (1-E')        
 INPUT CARD>!      STATE   3  ENERGY= -154.7475703535  S=  0.00  SPACE SYM=A  (1-E')        
 INPUT CARD>!      STATE   4  ENERGY= -154.6304481561  S=  0.00  SPACE SYM=A  (1-A1')       
 INPUT CARD>!                                                                               
 INPUT CARD>!   This run takes 1 seconds on 2.66 GHz Cloverton (13 Apr 2015)                
 INPUT CARD>!                                                                               
 INPUT CARD> $contrl scftyp=rohf mult=3 cityp=aldet runtyp=energy $end                      
 INPUT CARD> $system mwords=5 $end                                                          
 INPUT CARD> $guess  guess=huckel $end                                                      
 INPUT CARD> $basis  gbasis=n31 ngauss=6 ndfunc=1 $end                                      
 INPUT CARD> $cidet  group=c1 ncore=14 nact=2 nels=2 nstate=4 sz=0 $end                     
 INPUT CARD> $data                                                                          
 INPUT CARD>trimethylene methane                                                            
 INPUT CARD>Dnh 3                                                                           
 INPUT CARD>                                                                                
 INPUT CARD>C           6.0   0.0000000000   0.0000000000   0.0000000000                    
 INPUT CARD>C           6.0   1.4021325985   0.0000000000   0.0000000000                    
 INPUT CARD>H           1.0   1.9585470094   0.9177949316   0.0000000000                    
 INPUT CARD> $end                                                                           
    5000000 WORDS OF MEMORY AVAILABLE

     BASIS OPTIONS
     -------------
     GBASIS=N31          IGAUSS=       6      POLAR=POPN31  
     NDFUNC=       1     NFFUNC=       0     DIFFSP=       F
     NPFUNC=       0      DIFFS=       F     BASNAM=        


     RUN TITLE
     ---------
 trimethylene methane                                                            

 THE POINT GROUP OF THE MOLECULE IS DNH     
 THE ORDER OF THE PRINCIPAL AXIS IS     3

 ATOM      ATOMIC                      COORDINATES (BOHR)
           CHARGE         X                   Y                   Z
 C           6.0     0.0000000000        0.0000000000        0.0000000000
 C           6.0    -1.3248232048        2.2946611018        0.0000000000
 C           6.0    -1.3248232048       -2.2946611018        0.0000000000
 C           6.0     2.6496464096        0.0000000000        0.0000000000
 H           1.0    -3.3525765393        2.3380710350        0.0000000000
 H           1.0    -0.3485406425       -4.0724519687        0.0000000000
 H           1.0     3.7011171818       -1.7343809336        0.0000000000
 H           1.0    -0.3485406425        4.0724519687        0.0000000000
 H           1.0    -3.3525765393       -2.3380710350        0.0000000000
 H           1.0     3.7011171818        1.7343809336        0.0000000000

          INTERNUCLEAR DISTANCES (ANGS.)
          ------------------------------

                1 C          2 C          3 C          4 C          5 H     

   1 C       0.0000000    1.4021326 *  1.4021326 *  1.4021326 *  2.1629272 *
   2 C       1.4021326 *  0.0000000    2.4285649 *  2.4285649 *  1.0732868 *
   3 C       1.4021326 *  2.4285649 *  0.0000000    2.4285649 *  2.6760882 *
   4 C       1.4021326 *  2.4285649 *  2.4285649 *  0.0000000    3.4087090  
   5 H       2.1629272 *  1.0732868 *  2.6760882 *  3.4087090    0.0000000  
   6 H       2.1629272 *  3.4087090    1.0732868 *  2.6760882 *  3.7462997  
   7 H       2.1629272 *  3.4087090    2.6760882 *  1.0732868 *  4.3100979  
   8 H       2.1629272 *  1.0732868 *  3.4087090    2.6760882 *  1.8355899 *
   9 H       2.1629272 *  2.6760882 *  1.0732868 *  3.4087090    2.4745080 *
  10 H       2.1629272 *  2.6760882 *  3.4087090    1.0732868 *  3.7462997  

                6 H          7 H          8 H          9 H         10 H     

   1 C       2.1629272 *  2.1629272 *  2.1629272 *  2.1629272 *  2.1629272 *
   2 C       3.4087090    3.4087090    1.0732868 *  2.6760882 *  2.6760882 *
   3 C       1.0732868 *  2.6760882 *  3.4087090    1.0732868 *  3.4087090  
   4 C       2.6760882 *  1.0732868 *  2.6760882 *  3.4087090    1.0732868 *
   5 H       3.7462997    4.3100979    1.8355899 *  2.4745080 *  3.7462997  
   6 H       0.0000000    2.4745080 *  4.3100979    1.8355899 *  3.7462997  
   7 H       2.4745080 *  0.0000000    3.7462997    3.7462997    1.8355899 *
   8 H       4.3100979    3.7462997    0.0000000    3.7462997    2.4745080 *
   9 H       1.8355899 *  3.7462997    3.7462997    0.0000000    4.3100979  
  10 H       3.7462997    1.8355899 *  2.4745080 *  4.3100979    0.0000000  

  * ... LESS THAN  3.000


     ATOMIC BASIS SET
     ----------------
 THE CONTRACTED PRIMITIVE FUNCTIONS HAVE BEEN UNNORMALIZED
 THE CONTRACTED BASIS FUNCTIONS ARE NOW NORMALIZED TO UNITY

  SHELL TYPE  PRIMITIVE        EXPONENT          CONTRACTION COEFFICIENT(S)

 C         

      1   S       1          3047.5248800    0.001834737132
      1   S       2           457.3695180    0.014037322813
      1   S       3           103.9486850    0.068842622264
      1   S       4            29.2101553    0.232184443216
      1   S       5             9.2866630    0.467941348435
      1   S       6             3.1639270    0.362311985337

      2   L       7             7.8682723   -0.119332419775    0.068999066591
      2   L       8             1.8812885   -0.160854151696    0.316423960957
      2   L       9             0.5442493    1.143456437840    0.744308290898

      3   L      10             0.1687145    1.000000000000    1.000000000000

      4   D      11             0.8000000    1.000000000000

 C         

     13   S      12          3047.5248800    0.001834737132
     13   S      13           457.3695180    0.014037322813
     13   S      14           103.9486850    0.068842622264
     13   S      15            29.2101553    0.232184443216
     13   S      16             9.2866630    0.467941348435
     13   S      17             3.1639270    0.362311985337

     14   L      18             7.8682723   -0.119332419775    0.068999066591
     14   L      19             1.8812885   -0.160854151696    0.316423960957
     14   L      20             0.5442493    1.143456437840    0.744308290898

     15   L      21             0.1687145    1.000000000000    1.000000000000

     16   D      22             0.8000000    1.000000000000

 H         

     27   S      23            18.7311370    0.033494604338
     27   S      24             2.8253944    0.234726953484
     27   S      25             0.6401217    0.813757326146

     28   S      26             0.1612778    1.000000000000

 TOTAL NUMBER OF BASIS SET SHELLS             =   28
 NUMBER OF CARTESIAN GAUSSIAN BASIS FUNCTIONS =   72
 NUMBER OF ELECTRONS                          =   30
 CHARGE OF MOLECULE                           =    0
 SPIN MULTIPLICITY                            =    3
 NUMBER OF OCCUPIED ORBITALS (ALPHA)          =   16
 NUMBER OF OCCUPIED ORBITALS (BETA )          =   14
 TOTAL NUMBER OF ATOMS                        =   10
 THE NUCLEAR REPULSION ENERGY IS      106.2800437606

     $CONTRL OPTIONS
     ---------------
 SCFTYP=ROHF         RUNTYP=ENERGY       EXETYP=RUN     
 MPLEVL=       0     CITYP =ALDET        CCTYP =NONE         VBTYP =NONE    
 DFTTYP=NONE         TDDFT =NONE    
 MULT  =       3     ICHARG=       0     NZVAR =       0     COORD =UNIQUE  
 PP    =NONE         RELWFN=NONE         LOCAL =NONE         NUMGRD=       F
 ISPHER=      -1     NOSYM =       0     MAXIT =      30     UNITS =ANGS    
 PLTORB=       F     MOLPLT=       F     AIMPAC=       F     FRIEND=        
 NPRINT=       7     IREST =       0     GEOM  =INPUT   
 NORMF =       0     NORMP =       0     ITOL  =      20     ICUT  =       9
 INTTYP=BEST         GRDTYP=BEST         QMTTOL= 1.0E-06

     $SYSTEM OPTIONS
     ---------------
  REPLICATED MEMORY=     5000000 WORDS (ON EVERY NODE).
 DISTRIBUTED MEMDDI=           0 MILLION WORDS IN AGGREGATE,
 MEMDDI DISTRIBUTED OVER   1 PROCESSORS IS           0 WORDS/PROCESSOR.
 TOTAL MEMORY REQUESTED ON EACH PROCESSOR=     5000000 WORDS.
 TIMLIM=      525600.00 MINUTES, OR     365.0 DAYS.
 PARALL= F  BALTYP=  DLB     KDIAG=    0  COREFL= F
 MXSEQ2=     300 MXSEQ3=     150  mem10=         0

          ----------------
          PROPERTIES INPUT
          ----------------

     MOMENTS            FIELD           POTENTIAL          DENSITY
 IEMOM =       1   IEFLD =       0   IEPOT =       0   IEDEN =       0
 WHERE =COMASS     WHERE =NUCLEI     WHERE =NUCLEI     WHERE =NUCLEI  
 OUTPUT=BOTH       OUTPUT=BOTH       OUTPUT=BOTH       OUTPUT=BOTH    
 IEMINT=       0   IEFINT=       0                     IEDINT=       0
                                                       MORB  =       0
          EXTRAPOLATION IN EFFECT
          DIIS IN EFFECT
 ORBITAL PRINTING OPTION: NPREO=     1    72     2     1

     -------------------------------
     INTEGRAL TRANSFORMATION OPTIONS
     -------------------------------
     NWORD  =            0
     CUTOFF = 1.0E-09     MPTRAN =       0
     DIRTRF =       F     AOINTS =DUP     

          ----------------------
          INTEGRAL INPUT OPTIONS
          ----------------------
 NOPK  =       1 NORDER=       0 SCHWRZ=       T

     ------------------------------------------
     THE POINT GROUP IS DNH, NAXIS= 3, ORDER=12
     ------------------------------------------

     DIMENSIONS OF THE SYMMETRY SUBSPACES ARE
 A1' =   15     A1" =    1     A2' =    5     A2" =    5     E'' =    5
 E'  =   18

 ..... DONE SETTING UP THE RUN .....
 STEP CPU TIME =     0.02 TOTAL CPU TIME =        0.0 (    0.0 MIN)
 TOTAL WALL CLOCK TIME=        0.0 SECONDS, CPU UTILIZATION IS  66.67%

          ********************
          1 ELECTRON INTEGRALS
          ********************
 ...... END OF ONE-ELECTRON INTEGRALS ......
 STEP CPU TIME =     0.00 TOTAL CPU TIME =        0.0 (    0.0 MIN)
 TOTAL WALL CLOCK TIME=        0.0 SECONDS, CPU UTILIZATION IS  66.67%

          -------------
          GUESS OPTIONS
          -------------
          GUESS =HUCKEL            NORB  =       0          NORDER=       0
          MIX   =       F          PRTMO =       F          PUNMO =       F
          TOLZ  = 1.0E-08          TOLE  = 1.0E-05
          SYMDEN=       F          PURIFY=       F

 INITIAL GUESS ORBITALS GENERATED BY HUCKEL   ROUTINE.
 HUCKEL GUESS REQUIRES     47838 WORDS.

 SYMMETRIES FOR INITIAL GUESS ORBITALS FOLLOW.  ALPHA SET(S).
    16 ORBITALS ARE OCCUPIED (    4 CORE ORBITALS).
     5=?A1'     6=?E'      7=?E'      8=?A1'     9=E'      10=?E'     11=A2" 
    12=?A2'    13=?E'     14=?E'     15=E''     16=E''     17=A2"     18=E'  
    19=E'      20=A2'     21=E'      22=A1'     23=A1'     24=A1'     25=A1' 
    26=A1' 

 SYMMETRIES FOR INITIAL GUESS ORBITALS FOLLOW.   BETA SET(S).
    14 ORBITALS ARE OCCUPIED (    4 CORE ORBITALS).
     5=?A1'     6=?E'      7=?E'      8=?A1'     9=E'      10=?E'     11=A2" 
    12=?A2'    13=?E'     14=?E'     15=E''     16=E''     17=A2"     18=E'  
    19=E'      20=A2'     21=E'      22=A1'     23=A1'     24=A1' 
 ...... END OF INITIAL ORBITAL SELECTION ......
 STEP CPU TIME =     0.00 TOTAL CPU TIME =        0.0 (    0.0 MIN)
 TOTAL WALL CLOCK TIME=        0.0 SECONDS, CPU UTILIZATION IS  50.00%

                    ----------------------
                    AO INTEGRAL TECHNOLOGY
                    ----------------------
     S,P,L SHELL ROTATED AXIS INTEGRALS, REPROGRAMMED BY
        KAZUYA ISHIMURA (IMS) AND JOSE SIERRA (SYNSTAR).
     S,P,D,L SHELL ROTATED AXIS INTEGRALS PROGRAMMED BY
        KAZUYA ISHIMURA (INSTITUTE FOR MOLECULAR SCIENCE).
     S,P,D,F,G SHELL TO TOTAL QUARTET ANGULAR MOMENTUM SUM 5,
        ERIC PROGRAM BY GRAHAM FLETCHER (ELORET AND NASA ADVANCED
        SUPERCOMPUTING DIVISION, AMES RESEARCH CENTER).
     S,P,D,F,G,L SHELL GENERAL RYS QUADRATURE PROGRAMMED BY
        MICHEL DUPUIS (PACIFIC NORTHWEST NATIONAL LABORATORY).

          --------------------
          2 ELECTRON INTEGRALS
          --------------------

 THE -PK- OPTION IS OFF, THE INTEGRALS ARE NOT IN SUPERMATRIX FORM.
 STORING   15000 INTEGRALS/RECORD ON DISK, USING 12 BYTES/INTEGRAL.
 TWO ELECTRON INTEGRAL EVALUATION REQUIRES   90802 WORDS OF MEMORY.
 SCHWARZ INEQUALITY OVERHEAD:      2628 INTEGRALS, T=        0.00
 II,JST,KST,LST =  1  1  1  1 NREC =         1 INTLOC =    1
 II,JST,KST,LST =  2  1  1  1 NREC =         1 INTLOC =    2
 II,JST,KST,LST =  3  1  1  1 NREC =         1 INTLOC =   34
 II,JST,KST,LST =  4  1  1  1 NREC =         1 INTLOC =  214
 II,JST,KST,LST =  5  1  1  1 NREC =         1 INTLOC = 1189
 II,JST,KST,LST =  6  1  1  1 NREC =         1 INTLOC = 1189
 II,JST,KST,LST =  7  1  1  1 NREC =         1 INTLOC = 1189
 II,JST,KST,LST =  8  1  1  1 NREC =         1 INTLOC = 1189
 II,JST,KST,LST =  9  1  1  1 NREC =         1 INTLOC = 1189
 II,JST,KST,LST = 10  1  1  1 NREC =         1 INTLOC = 1189
 II,JST,KST,LST = 11  1  1  1 NREC =         1 INTLOC = 1189
 II,JST,KST,LST = 12  1  1  1 NREC =         1 INTLOC = 1189
 II,JST,KST,LST = 13  1  1  1 NREC =         1 INTLOC = 1189
 II,JST,KST,LST = 14  1  1  1 NREC =         1 INTLOC = 1965
 II,JST,KST,LST = 15  1  1  1 NREC =         1 INTLOC =11941
 II,JST,KST,LST = 16  1  1  1 NREC =         3 INTLOC =11457
 II,JST,KST,LST = 17  1  1  1 NREC =        11 INTLOC = 8371
 II,JST,KST,LST = 18  1  1  1 NREC =        11 INTLOC = 8371
 II,JST,KST,LST = 19  1  1  1 NREC =        11 INTLOC = 8371
 II,JST,KST,LST = 20  1  1  1 NREC =        11 INTLOC = 8371
 II,JST,KST,LST = 21  1  1  1 NREC =        11 INTLOC = 8371
 II,JST,KST,LST = 22  1  1  1 NREC =        11 INTLOC = 8371
 II,JST,KST,LST = 23  1  1  1 NREC =        11 INTLOC = 8371
 II,JST,KST,LST = 24  1  1  1 NREC =        11 INTLOC = 8371
 II,JST,KST,LST = 25  1  1  1 NREC =        11 INTLOC = 8371
 II,JST,KST,LST = 26  1  1  1 NREC =        11 INTLOC = 8371
 II,JST,KST,LST = 27  1  1  1 NREC =        11 INTLOC = 8371
 II,JST,KST,LST = 28  1  1  1 NREC =        16 INTLOC = 1851
 SCHWARZ INEQUALITY TEST SKIPPED        1003 INTEGRAL BLOCKS.
 TOTAL NUMBER OF NONZERO TWO-ELECTRON INTEGRALS =              324236
         22 INTEGRAL RECORDS WERE STORED ON DISK FILE  8.
  ...... END OF TWO-ELECTRON INTEGRALS .....
 STEP CPU TIME =     0.06 TOTAL CPU TIME =        0.1 (    0.0 MIN)
 TOTAL WALL CLOCK TIME=        0.1 SECONDS, CPU UTILIZATION IS  88.89%

          ---------------------------
                 ROHF SCF CALCULATION
          ---------------------------

     NUCLEAR ENERGY =       106.2800437606
     MAXIT = 30     NPUNCH=  2     MULT=  3
     EXTRAP=T  DAMP=F  SHIFT=F  RSTRCT=F  DIIS=T  SOSCF=F
     DENSITY MATRIX CONV=  1.00E-06
     ROHF CANONICALIZATION PARAMETERS
             C-C     O-O     V-V
     ALPHA -0.5000  0.5000  1.5000
     BETA   1.5000  0.5000 -0.5000
     MEMORY REQUIRED FOR UHF/ROHF ITERS=     78401 WORDS.

 ITER EX      TOTAL ENERGY        E CHANGE  DENSITY CHANGE    DIIS ERROR
          * * *   INITIATING DIIS PROCEDURE   * * *
   1  0     -154.5114317694  -154.5114317694   0.186755370   0.395399317
   2  1     -154.8386143814    -0.3271826120   0.137023221   0.122233461
   3  2     -154.8537417884    -0.0151274070   0.043787819   0.063175912
   4  3     -154.8645453323    -0.0108035439   0.007042805   0.004330746
   5  4     -154.8646788005    -0.0001334682   0.002111257   0.002271078
   6  5     -154.8646924256    -0.0000136251   0.000372749   0.000129260
   7  6     -154.8646925477    -0.0000001221   0.000037655   0.000026280
   8  7     -154.8646925518    -0.0000000041   0.000005893   0.000003357
   9  8     -154.8646925519    -0.0000000001   0.000000839   0.000000501
  10  9     -154.8646925519    -0.0000000000   0.000000099   0.000000040

          -----------------
          DENSITY CONVERGED
          -----------------
     TIME TO FORM FOCK OPERATORS=       0.0 SECONDS (       0.0 SEC/ITER)
     TIME TO SOLVE SCF EQUATIONS=       0.0 SECONDS (       0.0 SEC/ITER)

 FINAL ROHF ENERGY IS     -154.8646925519 AFTER  10 ITERATIONS

          --------------------
          SPIN SZ   =    1.000
          S-SQUARED =    2.000
          --------------------

          ------------
          EIGENVECTORS
          ------------

                      1          2          3          4          5
                  -11.2413   -11.2127   -11.2126   -11.2126    -1.0578
                     A1'        A1'        E'         E'         A1' 
    1  C  1  S    0.995156  -0.032628  -0.000000   0.000000  -0.165920
    2  C  1  S    0.027575  -0.001157  -0.000000   0.000000   0.322939
    3  C  1  X   -0.000000   0.000000  -0.000495   0.000000  -0.000000
    4  C  1  Y   -0.000000   0.000000  -0.000000   0.000495  -0.000000
    5  C  1  Z   -0.000000   0.000000  -0.000000   0.000000  -0.000000
    6  C  1  S   -0.013717   0.005654  -0.000000   0.000000   0.201611
    7  C  1  X   -0.000000   0.000000   0.001381   0.000000  -0.000000
    8  C  1  Y   -0.000000   0.000000  -0.000000  -0.001381  -0.000000
    9  C  1  Z   -0.000000   0.000000  -0.000000   0.000000  -0.000000
   10  C  1 XX   -0.001408  -0.000703  -0.000139   0.000000   0.008980
   11  C  1 YY   -0.001408  -0.000703   0.000139   0.000000   0.008980
   12  C  1 ZZ   -0.002325  -0.000090  -0.000000   0.000000  -0.013810
   13  C  1 XY   -0.000000   0.000000  -0.000000  -0.000161  -0.000000
   14  C  1 XZ   -0.000000   0.000000  -0.000000   0.000000  -0.000000
   15  C  1 YZ   -0.000000   0.000000  -0.000000   0.000000  -0.000000
   16  C  2  S    0.018424   0.574620  -0.406559  -0.704181  -0.088751
   17  C  2  S    0.000457   0.015476  -0.011127  -0.019272   0.169521
   18  C  2  X   -0.000101   0.000063  -0.000052  -0.000028   0.045599
   19  C  2  Y    0.000175  -0.000110   0.000028   0.000085  -0.078980
   20  C  2  Z   -0.000000   0.000000  -0.000000   0.000000  -0.000000
   21  C  2  S    0.003593  -0.006496   0.004599   0.007965   0.120751
   22  C  2  X    0.000677  -0.000082   0.000457   0.000054   0.006744
   23  C  2  Y   -0.001173   0.000141  -0.000054  -0.000519  -0.011681
   24  C  2  Z   -0.000000   0.000000  -0.000000   0.000000  -0.000000
   25  C  2 XX   -0.000352  -0.001056   0.000845   0.001410   0.004851
   26  C  2 YY   -0.000519  -0.000922   0.000763   0.001375   0.011642
   27  C  2 ZZ   -0.000121  -0.001502   0.000998   0.001729  -0.008006
   28  C  2 XY    0.000167  -0.000133   0.000020   0.000071  -0.006790
   29  C  2 XZ   -0.000000   0.000000  -0.000000   0.000000  -0.000000
   30  C  2 YZ   -0.000000   0.000000  -0.000000   0.000000  -0.000000
   31  C  3  S    0.018424   0.574620  -0.406559   0.704181  -0.088751
   32  C  3  S    0.000457   0.015476  -0.011127   0.019272   0.169521
   33  C  3  X   -0.000101   0.000063  -0.000052   0.000028   0.045599
   34  C  3  Y   -0.000175   0.000110  -0.000028   0.000085   0.078980
   35  C  3  Z   -0.000000   0.000000  -0.000000   0.000000  -0.000000
   36  C  3  S    0.003593  -0.006496   0.004599  -0.007965   0.120751
   37  C  3  X    0.000677  -0.000082   0.000457  -0.000054   0.006744
   38  C  3  Y    0.001173  -0.000141   0.000054  -0.000519   0.011681
   39  C  3  Z   -0.000000   0.000000  -0.000000   0.000000  -0.000000
   40  C  3 XX   -0.000352  -0.001056   0.000845  -0.001410   0.004851
   41  C  3 YY   -0.000519  -0.000922   0.000763  -0.001375   0.011642
   42  C  3 ZZ   -0.000121  -0.001502   0.000998  -0.001729  -0.008006
   43  C  3 XY   -0.000167   0.000133  -0.000020   0.000071   0.006790
   44  C  3 XZ   -0.000000   0.000000  -0.000000   0.000000  -0.000000
   45  C  3 YZ   -0.000000   0.000000  -0.000000   0.000000  -0.000000
   46  C  4  S    0.018424   0.574620   0.813118   0.000000  -0.088751
   47  C  4  S    0.000457   0.015476   0.022253   0.000000   0.169521
   48  C  4  X    0.000202  -0.000127  -0.000102   0.000000  -0.091198
   49  C  4  Y   -0.000000   0.000000  -0.000000   0.000036  -0.000000
   50  C  4  Z   -0.000000   0.000000  -0.000000   0.000000  -0.000000
   51  C  4  S    0.003593  -0.006496  -0.009198   0.000000   0.120751
   52  C  4  X   -0.001355   0.000163   0.000550   0.000000  -0.013488
   53  C  4  Y   -0.000000   0.000000  -0.000000  -0.000426  -0.000000
   54  C  4  Z   -0.000000   0.000000  -0.000000   0.000000  -0.000000
   55  C  4 XX   -0.000602  -0.000856  -0.001536   0.000000   0.015037
   56  C  4 YY   -0.000268  -0.001122  -0.001679   0.000000   0.001456
   57  C  4 ZZ   -0.000121  -0.001502  -0.001997   0.000000  -0.008006
   58  C  4 XY   -0.000000   0.000000  -0.000000   0.000036  -0.000000
   59  C  4 XZ   -0.000000   0.000000  -0.000000   0.000000  -0.000000
   60  C  4 YZ   -0.000000   0.000000  -0.000000   0.000000  -0.000000
   61  H  5  S   -0.000076  -0.000210   0.000149   0.000218   0.038439
   62  H  5  S   -0.000134   0.001223  -0.000612  -0.001498   0.003945
   63  H  6  S   -0.000076  -0.000210   0.000114  -0.000238   0.038439
   64  H  6  S   -0.000134   0.001223  -0.000991   0.001279   0.003945
   65  H  7  S   -0.000076  -0.000210  -0.000263  -0.000020   0.038439
   66  H  7  S   -0.000134   0.001223   0.001603  -0.000219   0.003945
   67  H  8  S   -0.000076  -0.000210   0.000114   0.000238   0.038439
   68  H  8  S   -0.000134   0.001223  -0.000991  -0.001279   0.003945
   69  H  9  S   -0.000076  -0.000210   0.000149  -0.000218   0.038439
   70  H  9  S   -0.000134   0.001223  -0.000612   0.001498   0.003945
   71  H 10  S   -0.000076  -0.000210  -0.000263   0.000020   0.038439
   72  H 10  S   -0.000134   0.001223   0.001603   0.000219   0.003945

                      6          7          8          9         10
                   -0.8519    -0.8519    -0.6999    -0.6178    -0.6178
                     E'         E'         A1'        E'         E'  
    1  C  1  S    0.000000  -0.000000  -0.104895   0.000000   0.000000
    2  C  1  S    0.000000  -0.000000   0.212123   0.000000   0.000000
    3  C  1  X    0.218217  -0.000000   0.000000   0.231039   0.000000
    4  C  1  Y    0.000000  -0.218217   0.000000   0.000000   0.231039
    5  C  1  Z    0.000000  -0.000000   0.000000   0.000000   0.000000
    6  C  1  S    0.000000  -0.000000   0.223345   0.000000   0.000000
    7  C  1  X    0.038439  -0.000000   0.000000   0.032233   0.000000
    8  C  1  Y    0.000000  -0.038439   0.000000   0.000000   0.032233
    9  C  1  Z    0.000000  -0.000000   0.000000   0.000000   0.000000
   10  C  1 XX    0.012600  -0.000000   0.001789  -0.002864   0.000000
   11  C  1 YY   -0.012600  -0.000000   0.001789   0.002864   0.000000
   12  C  1 ZZ    0.000000  -0.000000  -0.006955   0.000000   0.000000
   13  C  1 XY    0.000000   0.014549   0.000000   0.000000   0.003307
   14  C  1 XZ    0.000000  -0.000000   0.000000   0.000000   0.000000
   15  C  1 YZ    0.000000  -0.000000   0.000000   0.000000   0.000000
   16  C  2  S    0.079795   0.138210   0.058778  -0.012779   0.022133
   17  C  2  S   -0.154971  -0.268417  -0.112119   0.024184  -0.041888
   18  C  2  X    0.043001  -0.026794   0.104000   0.149571   0.217525
   19  C  2  Y    0.026794  -0.012062  -0.180134   0.217525  -0.101605
   20  C  2  Z    0.000000  -0.000000   0.000000   0.000000   0.000000
   21  C  2  S   -0.143187  -0.248007  -0.141665   0.023877  -0.041357
   22  C  2  X    0.021743  -0.007121   0.032296   0.078874   0.105405
   23  C  2  Y    0.007121  -0.013521  -0.055938   0.105405  -0.042837
   24  C  2  Z    0.000000  -0.000000   0.000000   0.000000   0.000000
   25  C  2 XX   -0.006642  -0.013307  -0.013600  -0.002647  -0.013893
   26  C  2 YY   -0.006974  -0.010277   0.000738   0.007220   0.005973
   27  C  2 ZZ    0.006514   0.011283   0.005345  -0.001159   0.002007
   28  C  2 XY   -0.001749  -0.001828  -0.014338   0.011470  -0.007547
   29  C  2 XZ    0.000000  -0.000000   0.000000   0.000000   0.000000
   30  C  2 YZ    0.000000  -0.000000   0.000000   0.000000   0.000000
   31  C  3  S    0.079795  -0.138210   0.058778  -0.012779  -0.022133
   32  C  3  S   -0.154971   0.268417  -0.112119   0.024184   0.041888
   33  C  3  X    0.043001   0.026794   0.104000   0.149571  -0.217525
   34  C  3  Y   -0.026794  -0.012062   0.180134  -0.217525  -0.101605
   35  C  3  Z    0.000000  -0.000000   0.000000   0.000000   0.000000
   36  C  3  S   -0.143187   0.248007  -0.141665   0.023877   0.041357
   37  C  3  X    0.021743   0.007121   0.032296   0.078874  -0.105405
   38  C  3  Y   -0.007121  -0.013521   0.055938  -0.105405  -0.042837
   39  C  3  Z    0.000000  -0.000000   0.000000   0.000000   0.000000
   40  C  3 XX   -0.006642   0.013307  -0.013600  -0.002647   0.013893
   41  C  3 YY   -0.006974   0.010277   0.000738   0.007220  -0.005973
   42  C  3 ZZ    0.006514  -0.011283   0.005345  -0.001159  -0.002007
   43  C  3 XY    0.001749  -0.001828   0.014338  -0.011470  -0.007547
   44  C  3 XZ    0.000000  -0.000000   0.000000   0.000000   0.000000
   45  C  3 YZ    0.000000  -0.000000   0.000000   0.000000   0.000000
   46  C  4  S   -0.159591  -0.000000   0.058778   0.025557   0.000000
   47  C  4  S    0.309941  -0.000000  -0.112119  -0.048368   0.000000
   48  C  4  X   -0.003408  -0.000000  -0.208001  -0.227193   0.000000
   49  C  4  Y    0.000000  -0.058470   0.000000   0.000000   0.275159
   50  C  4  Z    0.000000  -0.000000   0.000000   0.000000   0.000000
   51  C  4  S    0.286374  -0.000000  -0.141665  -0.047755   0.000000
   52  C  4  X    0.009410  -0.000000  -0.064592  -0.103692   0.000000
   53  C  4  Y    0.000000  -0.025854   0.000000   0.000000   0.139729
   54  C  4  Z    0.000000  -0.000000   0.000000   0.000000   0.000000
   55  C  4 XX    0.011158  -0.000000   0.007908   0.007698   0.000000
   56  C  4 YY    0.016074  -0.000000  -0.020769  -0.016844   0.000000
   57  C  4 ZZ   -0.013028  -0.000000   0.005345   0.002318   0.000000
   58  C  4 XY    0.000000   0.001202   0.000000   0.000000   0.012319
   59  C  4 XZ    0.000000  -0.000000   0.000000   0.000000   0.000000
   60  C  4 YZ    0.000000  -0.000000   0.000000   0.000000   0.000000
   61  H  5  S   -0.081093  -0.093657  -0.113415  -0.072546  -0.148928
   62  H  5  S   -0.027695  -0.029041  -0.066685  -0.043594  -0.091865
   63  H  6  S   -0.040563   0.117058  -0.113415   0.165248   0.011638
   64  H  6  S   -0.011302   0.038505  -0.066685   0.101355   0.008179
   65  H  7  S    0.121656   0.023400  -0.113415  -0.092703  -0.137290
   66  H  7  S    0.038997   0.009464  -0.066685  -0.057761  -0.083686
   67  H  8  S   -0.040563  -0.117058  -0.113415   0.165248  -0.011638
   68  H  8  S   -0.011302  -0.038505  -0.066685   0.101355  -0.008179
   69  H  9  S   -0.081093   0.093657  -0.113415  -0.072546   0.148928
   70  H  9  S   -0.027695   0.029041  -0.066685  -0.043594   0.091865
   71  H 10  S    0.121656  -0.023400  -0.113415  -0.092703   0.137290
   72  H 10  S    0.038997  -0.009464  -0.066685  -0.057761   0.083686

                     11         12         13         14         15
                   -0.5271    -0.5092    -0.5092    -0.2992    -0.0954
                     A2'        E'         E'         A2"        E'' 
    1  C  1  S    0.000000   0.000000   0.000000  -0.000000  -0.000000
    2  C  1  S    0.000000   0.000000   0.000000  -0.000000  -0.000000
    3  C  1  X    0.000000   0.319916   0.000000  -0.000000  -0.000000
    4  C  1  Y    0.000000   0.000000   0.319916  -0.000000  -0.000000
    5  C  1  Z    0.000000   0.000000   0.000000   0.368780  -0.000000
    6  C  1  S    0.000000   0.000000   0.000000  -0.000000  -0.000000
    7  C  1  X    0.000000   0.143125   0.000000  -0.000000  -0.000000
    8  C  1  Y    0.000000   0.000000   0.143125  -0.000000  -0.000000
    9  C  1  Z    0.000000   0.000000   0.000000   0.251597  -0.000000
   10  C  1 XX    0.000000   0.024783   0.000000  -0.000000  -0.000000
   11  C  1 YY    0.000000  -0.024783   0.000000  -0.000000  -0.000000
   12  C  1 ZZ    0.000000   0.000000   0.000000  -0.000000  -0.000000
   13  C  1 XY    0.000000   0.000000  -0.028617  -0.000000  -0.000000
   14  C  1 XZ    0.000000   0.000000   0.000000  -0.000000  -0.000000
   15  C  1 YZ    0.000000   0.000000   0.000000  -0.000000  -0.036081
   16  C  2  S    0.000000   0.015496  -0.026840  -0.000000  -0.000000
   17  C  2  S    0.000000  -0.033524   0.058065  -0.000000  -0.000000
   18  C  2  X   -0.229181  -0.241611   0.038096  -0.000000  -0.000000
   19  C  2  Y   -0.132318   0.038096  -0.285600  -0.000000  -0.000000
   20  C  2  Z    0.000000   0.000000   0.000000   0.210169  -0.415218
   21  C  2  S    0.000000  -0.030304   0.052488  -0.000000  -0.000000
   22  C  2  X   -0.125395  -0.123678   0.001977  -0.000000  -0.000000
   23  C  2  Y   -0.072397   0.001977  -0.125961  -0.000000  -0.000000
   24  C  2  Z    0.000000   0.000000   0.000000   0.156286  -0.407911
   25  C  2 XX    0.016494   0.022614   0.000551  -0.000000  -0.000000
   26  C  2 YY   -0.016494  -0.018967  -0.006869  -0.000000  -0.000000
   27  C  2 ZZ    0.000000   0.000299  -0.000517  -0.000000  -0.000000
   28  C  2 XY   -0.010996  -0.004283  -0.019061  -0.000000  -0.000000
   29  C  2 XZ    0.000000   0.000000   0.000000   0.008443  -0.003451
   30  C  2 YZ    0.000000   0.000000   0.000000  -0.014624   0.002541
   31  C  3  S    0.000000   0.015496   0.026840  -0.000000  -0.000000
   32  C  3  S    0.000000  -0.033524  -0.058065  -0.000000  -0.000000
   33  C  3  X    0.229181  -0.241611  -0.038096  -0.000000  -0.000000
   34  C  3  Y   -0.132318  -0.038096  -0.285600  -0.000000  -0.000000
   35  C  3  Z    0.000000   0.000000   0.000000   0.210169   0.415218
   36  C  3  S    0.000000  -0.030304  -0.052488  -0.000000  -0.000000
   37  C  3  X    0.125395  -0.123678  -0.001977  -0.000000  -0.000000
   38  C  3  Y   -0.072397  -0.001977  -0.125961  -0.000000  -0.000000
   39  C  3  Z    0.000000   0.000000   0.000000   0.156286   0.407911
   40  C  3 XX   -0.016494   0.022614  -0.000551  -0.000000  -0.000000
   41  C  3 YY    0.016494  -0.018967   0.006869  -0.000000  -0.000000
   42  C  3 ZZ    0.000000   0.000299   0.000517  -0.000000  -0.000000
   43  C  3 XY   -0.010996   0.004283  -0.019061  -0.000000  -0.000000
   44  C  3 XZ    0.000000   0.000000   0.000000   0.008443   0.003451
   45  C  3 YZ    0.000000   0.000000   0.000000   0.014624   0.002541
   46  C  4  S    0.000000  -0.030992   0.000000  -0.000000  -0.000000
   47  C  4  S    0.000000   0.067048   0.000000  -0.000000  -0.000000
   48  C  4  X    0.000000  -0.307595   0.000000  -0.000000  -0.000000
   49  C  4  Y    0.264635   0.000000  -0.219616  -0.000000  -0.000000
   50  C  4  Z    0.000000   0.000000   0.000000   0.210169  -0.000000
   51  C  4  S    0.000000   0.060608   0.000000  -0.000000  -0.000000
   52  C  4  X    0.000000  -0.127102   0.000000  -0.000000  -0.000000
   53  C  4  Y    0.144793   0.000000  -0.122536  -0.000000  -0.000000
   54  C  4  Z    0.000000   0.000000   0.000000   0.156286  -0.000000
   55  C  4 XX    0.000000   0.010718   0.000000  -0.000000  -0.000000
   56  C  4 YY    0.000000  -0.018013   0.000000  -0.000000  -0.000000
   57  C  4 ZZ    0.000000  -0.000597   0.000000  -0.000000  -0.000000
   58  C  4 XY    0.021991   0.000000  -0.026480  -0.000000  -0.000000
   59  C  4 XZ    0.000000   0.000000   0.000000  -0.016886  -0.000000
   60  C  4 YZ    0.000000   0.000000   0.000000  -0.000000  -0.003436
   61  H  5  S    0.148093   0.158203   0.000568  -0.000000  -0.000000
   62  H  5  S    0.109871   0.140874  -0.007662  -0.000000  -0.000000
   63  H  6  S    0.148093  -0.079593   0.136724  -0.000000  -0.000000
   64  H  6  S    0.109871  -0.063801   0.125831  -0.000000  -0.000000
   65  H  7  S   -0.148093  -0.078610   0.137292  -0.000000  -0.000000
   66  H  7  S   -0.109871  -0.077073   0.118169  -0.000000  -0.000000
   67  H  8  S   -0.148093  -0.079593  -0.136724  -0.000000  -0.000000
   68  H  8  S   -0.109871  -0.063801  -0.125831  -0.000000  -0.000000
   69  H  9  S   -0.148093   0.158203  -0.000568  -0.000000  -0.000000
   70  H  9  S   -0.109871   0.140874   0.007662  -0.000000  -0.000000
   71  H 10  S    0.148093  -0.078610  -0.137292  -0.000000  -0.000000
   72  H 10  S    0.109871  -0.077073  -0.118169  -0.000000  -0.000000

                     16         17         18         19         20
                   -0.0954     0.1648     0.2342     0.2993     0.2993
                     E''        A2"        A1'        E'         E'  
    1  C  1  S   -0.000000   0.000000   0.007770  -0.000000  -0.000000
    2  C  1  S   -0.000000   0.000000  -0.040453  -0.000000  -0.000000
    3  C  1  X   -0.000000   0.000000  -0.000000   0.039863  -0.000000
    4  C  1  Y   -0.000000   0.000000  -0.000000  -0.000000   0.039863
    5  C  1  Z   -0.000000   0.436276  -0.000000  -0.000000  -0.000000
    6  C  1  S   -0.000000   0.000000   0.425458  -0.000000  -0.000000
    7  C  1  X   -0.000000   0.000000  -0.000000  -0.613243  -0.000000
    8  C  1  Y   -0.000000   0.000000  -0.000000  -0.000000  -0.613243
    9  C  1  Z   -0.000000   0.942309  -0.000000  -0.000000  -0.000000
   10  C  1 XX   -0.000000   0.000000   0.000881  -0.030207  -0.000000
   11  C  1 YY   -0.000000   0.000000   0.000881   0.030207  -0.000000
   12  C  1 ZZ   -0.000000   0.000000  -0.000265  -0.000000  -0.000000
   13  C  1 XY   -0.000000   0.000000  -0.000000  -0.000000   0.034880
   14  C  1 XZ    0.036081   0.000000  -0.000000  -0.000000  -0.000000
   15  C  1 YZ   -0.000000   0.000000  -0.000000  -0.000000  -0.000000
   16  C  2  S   -0.000000   0.000000  -0.072617   0.005675  -0.009830
   17  C  2  S   -0.000000   0.000000   0.087126   0.017899  -0.031001
   18  C  2  X   -0.000000   0.000000  -0.049764   0.237821   0.052372
   19  C  2  Y   -0.000000   0.000000   0.086194   0.052372   0.177347
   20  C  2  Z   -0.239726  -0.244322  -0.000000  -0.000000  -0.000000
   21  C  2  S   -0.000000   0.000000   1.041684  -0.456874   0.791328
   22  C  2  X   -0.000000   0.000000  -0.256842   1.059990   0.477095
   23  C  2  Y   -0.000000   0.000000   0.444863   0.477095   0.509088
   24  C  2  Z   -0.235507  -0.492292  -0.000000  -0.000000  -0.000000
   25  C  2 XX   -0.000000   0.000000  -0.010689   0.006217   0.005362
   26  C  2 YY   -0.000000   0.000000  -0.006830  -0.010119   0.001396
   27  C  2 ZZ   -0.000000   0.000000   0.004381   0.003680  -0.006373
   28  C  2 XY   -0.000000   0.000000  -0.003859  -0.002290  -0.006787
   29  C  2 XZ    0.001443   0.017663  -0.000000  -0.000000  -0.000000
   30  C  2 YZ    0.003451  -0.030593  -0.000000  -0.000000  -0.000000
   31  C  3  S   -0.000000   0.000000  -0.072617   0.005675   0.009830
   32  C  3  S   -0.000000   0.000000   0.087126   0.017899   0.031001
   33  C  3  X   -0.000000   0.000000  -0.049764   0.237821  -0.052372
   34  C  3  Y   -0.000000   0.000000  -0.086194  -0.052372   0.177347
   35  C  3  Z   -0.239726  -0.244322  -0.000000  -0.000000  -0.000000
   36  C  3  S   -0.000000   0.000000   1.041684  -0.456874  -0.791328
   37  C  3  X   -0.000000   0.000000  -0.256842   1.059990  -0.477095
   38  C  3  Y   -0.000000   0.000000  -0.444863  -0.477095   0.509088
   39  C  3  Z   -0.235507  -0.492292  -0.000000  -0.000000  -0.000000
   40  C  3 XX   -0.000000   0.000000  -0.010689   0.006217  -0.005362
   41  C  3 YY   -0.000000   0.000000  -0.006830  -0.010119  -0.001396
   42  C  3 ZZ   -0.000000   0.000000   0.004381   0.003680   0.006373
   43  C  3 XY   -0.000000   0.000000   0.003859   0.002290  -0.006787
   44  C  3 XZ    0.001443   0.017663  -0.000000  -0.000000  -0.000000
   45  C  3 YZ   -0.003451   0.030593  -0.000000  -0.000000  -0.000000
   46  C  4  S   -0.000000   0.000000  -0.072617  -0.011351  -0.000000
   47  C  4  S   -0.000000   0.000000   0.087126  -0.035797  -0.000000
   48  C  4  X   -0.000000   0.000000   0.099528   0.147110  -0.000000
   49  C  4  Y   -0.000000   0.000000  -0.000000  -0.000000   0.268058
   50  C  4  Z    0.479452  -0.244322  -0.000000  -0.000000  -0.000000
   51  C  4  S   -0.000000   0.000000   1.041684   0.913747  -0.000000
   52  C  4  X   -0.000000   0.000000   0.513684   0.233637  -0.000000
   53  C  4  Y   -0.000000   0.000000  -0.000000  -0.000000   1.335440
   54  C  4  Z    0.471015  -0.492292  -0.000000  -0.000000  -0.000000
   55  C  4 XX   -0.000000   0.000000  -0.004900   0.008635  -0.000000
   56  C  4 YY   -0.000000   0.000000  -0.012619  -0.000831  -0.000000
   57  C  4 ZZ   -0.000000   0.000000   0.004381  -0.007359  -0.000000
   58  C  4 XY   -0.000000   0.000000  -0.000000  -0.000000  -0.010754
   59  C  4 XZ   -0.004534  -0.035326  -0.000000  -0.000000  -0.000000
   60  C  4 YZ   -0.000000   0.000000  -0.000000  -0.000000  -0.000000
   61  H  5  S   -0.000000   0.000000  -0.019788   0.006168   0.003661
   62  H  5  S   -0.000000   0.000000  -0.802002   1.420416   0.251235
   63  H  6  S   -0.000000   0.000000  -0.019788  -0.006255   0.003511
   64  H  6  S   -0.000000   0.000000  -0.802002  -0.927784   1.104499
   65  H  7  S   -0.000000   0.000000  -0.019788   0.000087   0.007172
   66  H  7  S   -0.000000   0.000000  -0.802002  -0.492632   1.355734
   67  H  8  S   -0.000000   0.000000  -0.019788  -0.006255  -0.003511
   68  H  8  S   -0.000000   0.000000  -0.802002  -0.927784  -1.104499
   69  H  9  S   -0.000000   0.000000  -0.019788   0.006168  -0.003661
   70  H  9  S   -0.000000   0.000000  -0.802002   1.420416  -0.251235
   71  H 10  S   -0.000000   0.000000  -0.019788   0.000087  -0.007172
   72  H 10  S   -0.000000   0.000000  -0.802002  -0.492632  -1.355734

                     21         22         23         24         25
                    0.3040     0.3040     0.3827     0.4133     0.5329
                     E'         E'         A2'        A1'        E'  
    1  C  1  S    0.000000  -0.000000   0.000000  -0.157701   0.000000
    2  C  1  S    0.000000  -0.000000   0.000000   0.103580   0.000000
    3  C  1  X   -0.149731  -0.000000   0.000000  -0.000000   0.357032
    4  C  1  Y    0.000000   0.149731   0.000000  -0.000000   0.000000
    5  C  1  Z    0.000000  -0.000000   0.000000  -0.000000   0.000000
    6  C  1  S    0.000000  -0.000000   0.000000   4.784893   0.000000
    7  C  1  X   -0.565858  -0.000000   0.000000  -0.000000   4.316865
    8  C  1  Y    0.000000   0.565858   0.000000  -0.000000   0.000000
    9  C  1  Z    0.000000  -0.000000   0.000000  -0.000000   0.000000
   10  C  1 XX    0.016126  -0.000000   0.000000   0.015821   0.019427
   11  C  1 YY   -0.016126  -0.000000   0.000000   0.015821  -0.019427
   12  C  1 ZZ    0.000000  -0.000000   0.000000  -0.012937   0.000000
   13  C  1 XY    0.000000   0.018620   0.000000  -0.000000   0.000000
   14  C  1 XZ    0.000000  -0.000000   0.000000  -0.000000   0.000000
   15  C  1 YZ    0.000000  -0.000000   0.000000  -0.000000   0.000000
   16  C  2  S    0.057635   0.099827   0.000000   0.060521  -0.026403
   17  C  2  S   -0.055095  -0.095427   0.000000  -0.000809  -0.043274
   18  C  2  X   -0.011925   0.072590   0.194226  -0.013161   0.045309
   19  C  2  Y   -0.072590  -0.071895   0.112136   0.022796   0.018496
   20  C  2  Z    0.000000  -0.000000   0.000000  -0.000000   0.000000
   21  C  2  S   -1.051303  -1.820911   0.000000  -1.505535   1.472120
   22  C  2  X   -0.122301   0.190548   0.983030  -0.662006  -0.432775
   23  C  2  Y   -0.190548  -0.097725   0.567552   1.146628  -2.013374
   24  C  2  Z    0.000000  -0.000000   0.000000  -0.000000   0.000000
   25  C  2 XX   -0.008820   0.020500  -0.002703  -0.009705   0.007045
   26  C  2 YY    0.022870   0.003835   0.002703   0.009226  -0.005549
   27  C  2 ZZ   -0.005431  -0.009406   0.000000   0.001303  -0.002119
   28  C  2 XY    0.009622  -0.007186   0.001802  -0.018931   0.012809
   29  C  2 XZ    0.000000  -0.000000   0.000000  -0.000000   0.000000
   30  C  2 YZ    0.000000  -0.000000   0.000000  -0.000000   0.000000
   31  C  3  S    0.057635  -0.099827   0.000000   0.060521  -0.026403
   32  C  3  S   -0.055095   0.095427   0.000000  -0.000809  -0.043274
   33  C  3  X   -0.011925  -0.072590  -0.194226  -0.013161   0.045309
   34  C  3  Y    0.072590  -0.071895   0.112136  -0.022796  -0.018496
   35  C  3  Z    0.000000  -0.000000   0.000000  -0.000000   0.000000
   36  C  3  S   -1.051303   1.820911   0.000000  -1.505535   1.472120
   37  C  3  X   -0.122301  -0.190548  -0.983030  -0.662006  -0.432775
   38  C  3  Y    0.190548  -0.097725   0.567552  -1.146628   2.013374
   39  C  3  Z    0.000000  -0.000000   0.000000  -0.000000   0.000000
   40  C  3 XX   -0.008820  -0.020500   0.002703  -0.009705   0.007045
   41  C  3 YY    0.022870  -0.003835  -0.002703   0.009226  -0.005549
   42  C  3 ZZ   -0.005431   0.009406   0.000000   0.001303  -0.002119
   43  C  3 XY   -0.009622  -0.007186   0.001802   0.018931  -0.012809
   44  C  3 XZ    0.000000  -0.000000   0.000000  -0.000000   0.000000
   45  C  3 YZ    0.000000  -0.000000   0.000000  -0.000000   0.000000
   46  C  4  S   -0.115270  -0.000000   0.000000   0.060521   0.052806
   47  C  4  S    0.110189  -0.000000   0.000000  -0.000809   0.086548
   48  C  4  X    0.113805  -0.000000   0.000000   0.026322   0.013273
   49  C  4  Y    0.000000   0.053834  -0.224273  -0.000000   0.000000
   50  C  4  Z    0.000000  -0.000000   0.000000  -0.000000   0.000000
   51  C  4  S    2.102606  -0.000000   0.000000  -1.505535  -2.944241
   52  C  4  X    0.207739  -0.000000   0.000000   1.324012   3.054492
   53  C  4  Y    0.000000   0.232314  -1.135105  -0.000000   0.000000
   54  C  4  Z    0.000000  -0.000000   0.000000  -0.000000   0.000000
   55  C  4 XX   -0.015463  -0.000000   0.000000   0.018691   0.024013
   56  C  4 YY   -0.012637  -0.000000   0.000000  -0.019171  -0.027006
   57  C  4 ZZ    0.010861  -0.000000   0.000000   0.001303   0.004238
   58  C  4 XY    0.000000  -0.023851  -0.003605  -0.000000   0.000000
   59  C  4 XZ    0.000000  -0.000000   0.000000  -0.000000   0.000000
   60  C  4 YZ    0.000000  -0.000000   0.000000  -0.000000   0.000000
   61  H  5  S   -0.036430   0.061775  -0.000616  -0.024097   0.039682
   62  H  5  S    0.229707   1.193464   1.191710   0.026754  -0.489268
   63  H  6  S    0.071714   0.000662  -0.000616  -0.024097   0.057850
   64  H  6  S    0.918717  -0.795664   1.191710   0.026754   1.122507
   65  H  7  S   -0.035284   0.062437   0.000616  -0.024097  -0.097531
   66  H  7  S   -1.148424   0.397800  -1.191710   0.026754  -0.633239
   67  H  8  S    0.071714  -0.000662   0.000616  -0.024097   0.057850
   68  H  8  S    0.918717   0.795664  -1.191710   0.026754   1.122507
   69  H  9  S   -0.036430  -0.061775   0.000616  -0.024097   0.039682
   70  H  9  S    0.229707  -1.193464  -1.191710   0.026754  -0.489268
   71  H 10  S   -0.035284  -0.062437  -0.000616  -0.024097  -0.097531
   72  H 10  S   -1.148424  -0.397800   1.191710   0.026754  -0.633239

                     26         27         28         29         30
                    0.5329     0.6846     0.7152     0.7152     0.7690
                     E'         A2"        E'         E'         E'' 
    1  C  1  S    0.000000   0.000000  -0.000000  -0.000000   0.000000
    2  C  1  S    0.000000   0.000000  -0.000000  -0.000000   0.000000
    3  C  1  X    0.000000   0.000000  -0.074687  -0.000000   0.000000
    4  C  1  Y    0.357032   0.000000  -0.000000  -0.074687   0.000000
    5  C  1  Z    0.000000  -0.235531  -0.000000  -0.000000   0.000000
    6  C  1  S    0.000000   0.000000  -0.000000  -0.000000   0.000000
    7  C  1  X    0.000000   0.000000   0.926425  -0.000000   0.000000
    8  C  1  Y    4.316865   0.000000  -0.000000   0.926425   0.000000
    9  C  1  Z    0.000000  -0.191190  -0.000000  -0.000000   0.000000
   10  C  1 XX    0.000000   0.000000  -0.083644  -0.000000   0.000000
   11  C  1 YY    0.000000   0.000000   0.083644  -0.000000   0.000000
   12  C  1 ZZ    0.000000   0.000000  -0.000000  -0.000000   0.000000
   13  C  1 XY   -0.022432   0.000000  -0.000000   0.096584   0.000000
   14  C  1 XZ    0.000000   0.000000  -0.000000  -0.000000   0.000000
   15  C  1 YZ    0.000000   0.000000  -0.000000  -0.000000   0.064313
   16  C  2  S    0.045732   0.000000  -0.003732   0.006464   0.000000
   17  C  2  S    0.074953   0.000000   0.115074  -0.199314   0.000000
   18  C  2  X    0.018496   0.000000  -0.108593  -0.331937   0.000000
   19  C  2  Y    0.023952   0.000000  -0.331937   0.274695   0.000000
   20  C  2  Z    0.000000  -0.601823  -0.000000  -0.000000   0.756189
   21  C  2  S   -2.549787   0.000000   0.067387  -0.116718   0.000000
   22  C  2  X   -2.013374   0.000000   0.108759   0.086796   0.000000
   23  C  2  Y    1.892069   0.000000   0.086796   0.008535   0.000000
   24  C  2  Z    0.000000   0.624359  -0.000000  -0.000000  -0.866116
   25  C  2 XX   -0.012389   0.000000   0.073488   0.040365   0.000000
   26  C  2 YY    0.009796   0.000000  -0.064185  -0.056478   0.000000
   27  C  2 ZZ    0.003670   0.000000   0.012398  -0.021474   0.000000
   28  C  2 XY   -0.022061   0.000000  -0.055912  -0.014924   0.000000
   29  C  2 XZ    0.000000  -0.006045  -0.000000  -0.000000   0.004505
   30  C  2 YZ    0.000000   0.010471  -0.000000  -0.000000  -0.033758
   31  C  3  S   -0.045732   0.000000  -0.003732  -0.006464   0.000000
   32  C  3  S   -0.074953   0.000000   0.115074   0.199314   0.000000
   33  C  3  X   -0.018496   0.000000  -0.108593   0.331937   0.000000
   34  C  3  Y    0.023952   0.000000   0.331937   0.274695   0.000000
   35  C  3  Z    0.000000  -0.601823  -0.000000  -0.000000  -0.756189
   36  C  3  S    2.549787   0.000000   0.067387   0.116718   0.000000
   37  C  3  X    2.013374   0.000000   0.108759  -0.086796   0.000000
   38  C  3  Y    1.892069   0.000000  -0.086796   0.008535   0.000000
   39  C  3  Z    0.000000   0.624359  -0.000000  -0.000000   0.866116
   40  C  3 XX    0.012389   0.000000   0.073488  -0.040365   0.000000
   41  C  3 YY   -0.009796   0.000000  -0.064185   0.056478   0.000000
   42  C  3 ZZ   -0.003670   0.000000   0.012398   0.021474   0.000000
   43  C  3 XY   -0.022061   0.000000   0.055912  -0.014924   0.000000
   44  C  3 XZ    0.000000  -0.006045  -0.000000  -0.000000  -0.004505
   45  C  3 YZ    0.000000  -0.010471  -0.000000  -0.000000  -0.033758
   46  C  4  S    0.000000   0.000000   0.007464  -0.000000   0.000000
   47  C  4  S    0.000000   0.000000  -0.230148  -0.000000   0.000000
   48  C  4  X    0.000000   0.000000   0.466339  -0.000000   0.000000
   49  C  4  Y    0.055988   0.000000  -0.000000  -0.300237   0.000000
   50  C  4  Z    0.000000  -0.601823  -0.000000  -0.000000   0.000000
   51  C  4  S    0.000000   0.000000  -0.134774  -0.000000   0.000000
   52  C  4  X    0.000000   0.000000  -0.041576  -0.000000   0.000000
   53  C  4  Y   -1.595197   0.000000  -0.000000   0.158870   0.000000
   54  C  4  Z    0.000000   0.624359  -0.000000  -0.000000   0.000000
   55  C  4 XX    0.000000   0.000000  -0.024334  -0.000000   0.000000
   56  C  4 YY    0.000000   0.000000   0.005729  -0.000000   0.000000
   57  C  4 ZZ    0.000000   0.000000  -0.024796  -0.000000   0.000000
   58  C  4 XY    0.000124   0.000000  -0.000000  -0.111766   0.000000
   59  C  4 XZ    0.000000   0.012090  -0.000000  -0.000000   0.000000
   60  C  4 YZ    0.000000   0.000000  -0.000000  -0.000000  -0.025955
   61  H  5  S   -0.089709   0.000000   0.280407   0.193473   0.000000
   62  H  5  S   -1.013681   0.000000  -0.143648  -0.348512   0.000000
   63  H  6  S    0.079220   0.000000  -0.307756   0.146103   0.000000
   64  H  6  S    0.083122   0.000000   0.373644   0.049853   0.000000
   65  H  7  S   -0.010489   0.000000   0.027349   0.339576   0.000000
   66  H  7  S   -0.930559   0.000000  -0.229996  -0.298659   0.000000
   67  H  8  S   -0.079220   0.000000  -0.307756  -0.146103   0.000000
   68  H  8  S   -0.083122   0.000000   0.373644  -0.049853   0.000000
   69  H  9  S    0.089709   0.000000   0.280407  -0.193473   0.000000
   70  H  9  S    1.013681   0.000000  -0.143648   0.348512   0.000000
   71  H 10  S    0.010489   0.000000   0.027349  -0.339576   0.000000
   72  H 10  S    0.930559   0.000000  -0.229996   0.298659   0.000000

                     31         32         33         34         35
                    0.7690     0.7719     0.8411     0.8547     0.8547
                     E''        A1'        A1'        E'         E'  
    1  C  1  S    0.000000  -0.069386   0.109397  -0.000000   0.000000
    2  C  1  S    0.000000  -0.751452  -0.460559  -0.000000   0.000000
    3  C  1  X    0.000000  -0.000000   0.000000  -0.563250   0.000000
    4  C  1  Y    0.000000  -0.000000   0.000000  -0.000000   0.563250
    5  C  1  Z    0.000000  -0.000000   0.000000  -0.000000   0.000000
    6  C  1  S    0.000000   1.450606   0.644555  -0.000000   0.000000
    7  C  1  X    0.000000  -0.000000   0.000000   0.254546   0.000000
    8  C  1  Y    0.000000  -0.000000   0.000000  -0.000000  -0.254546
    9  C  1  Z    0.000000  -0.000000   0.000000  -0.000000   0.000000
   10  C  1 XX    0.000000  -0.139806   0.068153   0.061269   0.000000
   11  C  1 YY    0.000000  -0.139806   0.068153  -0.061269   0.000000
   12  C  1 ZZ    0.000000   0.050388  -0.098400  -0.000000   0.000000
   13  C  1 XY    0.000000  -0.000000   0.000000  -0.000000   0.070747
   14  C  1 XZ   -0.064313  -0.000000   0.000000  -0.000000   0.000000
   15  C  1 YZ    0.000000  -0.000000   0.000000  -0.000000   0.000000
   16  C  2  S    0.000000  -0.001971  -0.052817   0.034049   0.058974
   17  C  2  S    0.000000  -0.576661   0.013844   0.254134   0.440173
   18  C  2  X    0.000000  -0.124569   0.242657  -0.156084  -0.081614
   19  C  2  Y    0.000000   0.215760  -0.420294   0.081614   0.250323
   20  C  2  Z    0.436586  -0.000000   0.000000  -0.000000   0.000000
   21  C  2  S    0.000000   0.616233   0.368725  -0.648203  -1.122720
   22  C  2  X    0.000000  -0.067645  -0.305629   0.371448   0.081487
   23  C  2  Y    0.000000   0.117165   0.529365  -0.081487  -0.465541
   24  C  2  Z   -0.500052  -0.000000   0.000000  -0.000000   0.000000
   25  C  2 XX    0.000000  -0.074749  -0.050500   0.055710   0.127437
   26  C  2 YY    0.000000  -0.065321  -0.066782   0.088195   0.121814
   27  C  2 ZZ    0.000000   0.016855   0.060952  -0.045719  -0.079187
   28  C  2 XY    0.000000  -0.009428   0.016282   0.003247  -0.015006
   29  C  2 XZ    0.028556  -0.000000   0.000000  -0.000000   0.000000
   30  C  2 YZ   -0.004505  -0.000000   0.000000  -0.000000   0.000000
   31  C  3  S    0.000000  -0.001971  -0.052817   0.034049  -0.058974
   32  C  3  S    0.000000  -0.576661   0.013844   0.254134  -0.440173
   33  C  3  X    0.000000  -0.124569   0.242657  -0.156084   0.081614
   34  C  3  Y    0.000000  -0.215760   0.420294  -0.081614   0.250323
   35  C  3  Z    0.436586  -0.000000   0.000000  -0.000000   0.000000
   36  C  3  S    0.000000   0.616233   0.368725  -0.648203   1.122720
   37  C  3  X    0.000000  -0.067645  -0.305629   0.371448  -0.081487
   38  C  3  Y    0.000000  -0.117165  -0.529365   0.081487  -0.465541
   39  C  3  Z   -0.500052  -0.000000   0.000000  -0.000000   0.000000
   40  C  3 XX    0.000000  -0.074749  -0.050500   0.055710  -0.127437
   41  C  3 YY    0.000000  -0.065321  -0.066782   0.088195  -0.121814
   42  C  3 ZZ    0.000000   0.016855   0.060952  -0.045719   0.079187
   43  C  3 XY    0.000000   0.009428  -0.016282  -0.003247  -0.015006
   44  C  3 XZ    0.028556  -0.000000   0.000000  -0.000000   0.000000
   45  C  3 YZ    0.004505  -0.000000   0.000000  -0.000000   0.000000
   46  C  4  S    0.000000  -0.001971  -0.052817  -0.068098   0.000000
   47  C  4  S    0.000000  -0.576661   0.013844  -0.508269   0.000000
   48  C  4  X    0.000000   0.249138  -0.485313  -0.297443   0.000000
   49  C  4  Y    0.000000  -0.000000   0.000000  -0.000000   0.108964
   50  C  4  Z   -0.873172  -0.000000   0.000000  -0.000000   0.000000
   51  C  4  S    0.000000   0.616233   0.368725   1.296405   0.000000
   52  C  4  X    0.000000   0.135291   0.611258   0.512588   0.000000
   53  C  4  Y    0.000000  -0.000000   0.000000  -0.000000  -0.324401
   54  C  4  Z    1.000105  -0.000000   0.000000  -0.000000   0.000000
   55  C  4 XX    0.000000  -0.060607  -0.074923  -0.155277   0.000000
   56  C  4 YY    0.000000  -0.079463  -0.042359  -0.132533   0.000000
   57  C  4 ZZ    0.000000   0.016855   0.060952   0.091437   0.000000
   58  C  4 XY    0.000000  -0.000000   0.000000  -0.000000  -0.020630
   59  C  4 XZ    0.036359  -0.000000   0.000000  -0.000000   0.000000
   60  C  4 YZ    0.000000  -0.000000   0.000000  -0.000000   0.000000
   61  H  5  S    0.000000  -0.151857  -0.254354   0.230906   0.359731
   62  H  5  S    0.000000  -0.166797  -0.063022   0.292816   0.046196
   63  H  6  S    0.000000  -0.151857  -0.254354   0.196083  -0.379835
   64  H  6  S    0.000000  -0.166797  -0.063022  -0.106401  -0.276684
   65  H  7  S    0.000000  -0.151857  -0.254354  -0.426989  -0.020105
   66  H  7  S    0.000000  -0.166797  -0.063022  -0.186415  -0.230488
   67  H  8  S    0.000000  -0.151857  -0.254354   0.196083   0.379835
   68  H  8  S    0.000000  -0.166797  -0.063022  -0.106401   0.276684
   69  H  9  S    0.000000  -0.151857  -0.254354   0.230906  -0.359731
   70  H  9  S    0.000000  -0.166797  -0.063022   0.292816  -0.046196
   71  H 10  S    0.000000  -0.151857  -0.254354  -0.426989   0.020105
   72  H 10  S    0.000000  -0.166797  -0.063022  -0.186415   0.230488

                     36         37         38         39         40
                    0.9621     1.0901     1.0901     1.1485     1.1798
                     A2"        E'         E'         A2'        A1' 
    1  C  1  S    0.000000   0.000000  -0.000000   0.000000   0.008524
    2  C  1  S    0.000000   0.000000  -0.000000   0.000000  -0.225228
    3  C  1  X    0.000000  -0.316798  -0.000000   0.000000  -0.000000
    4  C  1  Y    0.000000   0.000000   0.316798   0.000000  -0.000000
    5  C  1  Z   -1.107870   0.000000  -0.000000   0.000000  -0.000000
    6  C  1  S    0.000000   0.000000  -0.000000   0.000000   0.132391
    7  C  1  X    0.000000   2.461118  -0.000000   0.000000  -0.000000
    8  C  1  Y    0.000000   0.000000  -2.461118   0.000000  -0.000000
    9  C  1  Z    1.916588   0.000000  -0.000000   0.000000  -0.000000
   10  C  1 XX    0.000000  -0.088279  -0.000000   0.000000   0.007915
   11  C  1 YY    0.000000   0.088279  -0.000000   0.000000   0.007915
   12  C  1 ZZ    0.000000   0.000000  -0.000000   0.000000  -0.022060
   13  C  1 XY    0.000000   0.000000  -0.101936   0.000000  -0.000000
   14  C  1 XZ    0.000000   0.000000  -0.000000   0.000000  -0.000000
   15  C  1 YZ    0.000000   0.000000  -0.000000   0.000000  -0.000000
   16  C  2  S    0.000000   0.014350   0.024855   0.000000   0.013558
   17  C  2  S    0.000000  -0.012883  -0.022314   0.000000  -0.642215
   18  C  2  X    0.000000   0.735358  -0.272509   0.546101   0.193566
   19  C  2  Y    0.000000   0.272509  -0.420692   0.315292  -0.335265
   20  C  2  Z    0.159277   0.000000  -0.000000   0.000000  -0.000000
   21  C  2  S    0.000000   0.819524   1.419457   0.000000   1.326481
   22  C  2  X    0.000000  -2.021994   1.094198  -1.181888  -0.220505
   23  C  2  Y    0.000000  -1.094198   0.758523  -0.682363   0.381926
   24  C  2  Z   -0.642925   0.000000  -0.000000   0.000000  -0.000000
   25  C  2 XX    0.000000   0.055843   0.016042   0.092913   0.027098
   26  C  2 YY    0.000000  -0.002852   0.075742  -0.092913  -0.041303
   27  C  2 ZZ    0.000000  -0.041654  -0.072147   0.000000  -0.112818
   28  C  2 XY    0.000000  -0.034468  -0.005912  -0.061942   0.068401
   29  C  2 XZ   -0.008627   0.000000  -0.000000   0.000000  -0.000000
   30  C  2 YZ    0.014942   0.000000  -0.000000   0.000000  -0.000000
   31  C  3  S    0.000000   0.014350  -0.024855   0.000000   0.013558
   32  C  3  S    0.000000  -0.012883   0.022314   0.000000  -0.642215
   33  C  3  X    0.000000   0.735358   0.272509  -0.546101   0.193566
   34  C  3  Y    0.000000  -0.272509  -0.420692   0.315292   0.335265
   35  C  3  Z    0.159277   0.000000  -0.000000   0.000000  -0.000000
   36  C  3  S    0.000000   0.819524  -1.419457   0.000000   1.326481
   37  C  3  X    0.000000  -2.021994  -1.094198   1.181888  -0.220505
   38  C  3  Y    0.000000   1.094198   0.758523  -0.682363  -0.381926
   39  C  3  Z   -0.642925   0.000000  -0.000000   0.000000  -0.000000
   40  C  3 XX    0.000000   0.055843  -0.016042  -0.092913   0.027098
   41  C  3 YY    0.000000  -0.002852  -0.075742   0.092913  -0.041303
   42  C  3 ZZ    0.000000  -0.041654   0.072147   0.000000  -0.112818
   43  C  3 XY    0.000000   0.034468  -0.005912  -0.061942  -0.068401
   44  C  3 XZ   -0.008627   0.000000  -0.000000   0.000000  -0.000000
   45  C  3 YZ   -0.014942   0.000000  -0.000000   0.000000  -0.000000
   46  C  4  S    0.000000  -0.028700  -0.000000   0.000000   0.013558
   47  C  4  S    0.000000   0.025766  -0.000000   0.000000  -0.642215
   48  C  4  X    0.000000   0.263359  -0.000000   0.000000  -0.387131
   49  C  4  Y    0.000000   0.000000  -0.892691  -0.630583  -0.000000
   50  C  4  Z    0.159277   0.000000  -0.000000   0.000000  -0.000000
   51  C  4  S    0.000000  -1.639048  -0.000000   0.000000   1.326481
   52  C  4  X    0.000000  -0.126787  -0.000000   0.000000   0.441010
   53  C  4  Y    0.000000   0.000000   2.653730   1.364726  -0.000000
   54  C  4  Z   -0.642925   0.000000  -0.000000   0.000000  -0.000000
   55  C  4 XX    0.000000  -0.075345  -0.000000   0.000000  -0.075504
   56  C  4 YY    0.000000  -0.030637  -0.000000   0.000000   0.061299
   57  C  4 ZZ    0.000000   0.083308  -0.000000   0.000000  -0.112818
   58  C  4 XY    0.000000   0.000000   0.053788   0.123884  -0.000000
   59  C  4 XZ    0.017254   0.000000  -0.000000   0.000000  -0.000000
   60  C  4 YZ    0.000000   0.000000  -0.000000   0.000000  -0.000000
   61  H  5  S    0.000000   0.187353   0.005061   0.317315   0.364541
   62  H  5  S    0.000000  -1.473389   0.361113  -1.031540  -0.684570
   63  H  6  S    0.000000  -0.089293  -0.164783   0.317315   0.364541
   64  H  6  S    0.000000   1.049427   1.095436  -1.031540  -0.684570
   65  H  7  S    0.000000  -0.098060  -0.159722  -0.317315   0.364541
   66  H  7  S    0.000000   0.423961   1.456549   1.031540  -0.684570
   67  H  8  S    0.000000  -0.089293   0.164783  -0.317315   0.364541
   68  H  8  S    0.000000   1.049427  -1.095436   1.031540  -0.684570
   69  H  9  S    0.000000   0.187353  -0.005061  -0.317315   0.364541
   70  H  9  S    0.000000  -1.473389  -0.361113   1.031540  -0.684570
   71  H 10  S    0.000000  -0.098060   0.159722   0.317315   0.364541
   72  H 10  S    0.000000   0.423961  -1.456549  -1.031540  -0.684570

                     41         42         43         44         45
                    1.2340     1.2340     1.2430     1.2430     1.3768
                     E'         E'         E'         E'         A1' 
    1  C  1  S    0.000000   0.000000  -0.000000   0.000000  -0.076208
    2  C  1  S    0.000000   0.000000  -0.000000   0.000000  -1.908313
    3  C  1  X   -0.514925   0.000000   0.576729   0.000000  -0.000000
    4  C  1  Y    0.000000  -0.514925  -0.000000  -0.576729  -0.000000
    5  C  1  Z    0.000000   0.000000  -0.000000   0.000000  -0.000000
    6  C  1  S    0.000000   0.000000  -0.000000   0.000000   7.587490
    7  C  1  X    2.395660   0.000000  -2.705852   0.000000  -0.000000
    8  C  1  Y    0.000000   2.395660  -0.000000   2.705852  -0.000000
    9  C  1  Z    0.000000   0.000000  -0.000000   0.000000  -0.000000
   10  C  1 XX    0.041163   0.000000  -0.115769   0.000000  -0.103511
   11  C  1 YY   -0.041163   0.000000   0.115769   0.000000  -0.103511
   12  C  1 ZZ    0.000000   0.000000  -0.000000   0.000000   0.013877
   13  C  1 XY    0.000000  -0.047531  -0.000000  -0.133679  -0.000000
   14  C  1 XZ    0.000000   0.000000  -0.000000   0.000000  -0.000000
   15  C  1 YZ    0.000000   0.000000  -0.000000   0.000000  -0.000000
   16  C  2  S   -0.010846   0.018785   0.009486   0.016429   0.027846
   17  C  2  S    0.200953  -0.348060   0.746456   1.292899   0.728159
   18  C  2  X   -0.028296   0.343427   0.069727   0.072127   0.018730
   19  C  2  Y    0.343427  -0.424851  -0.072127  -0.153012  -0.032442
   20  C  2  Z    0.000000   0.000000  -0.000000   0.000000  -0.000000
   21  C  2  S    0.143063  -0.247793  -2.216013  -3.838248  -3.295854
   22  C  2  X   -0.111285  -1.108626  -0.372453  -0.618974  -0.479092
   23  C  2  Y   -1.108626   1.168847   0.618974   1.087182   0.829812
   24  C  2  Z    0.000000   0.000000  -0.000000   0.000000  -0.000000
   25  C  2 XX   -0.030115   0.079779   0.061719   0.097856   0.046653
   26  C  2 YY    0.018916  -0.060382   0.030722   0.062256  -0.030024
   27  C  2 ZZ    0.062032  -0.107443   0.025963   0.044968   0.080416
   28  C  2 XY   -0.080922   0.121749   0.020554   0.041630   0.076677
   29  C  2 XZ    0.000000   0.000000  -0.000000   0.000000  -0.000000
   30  C  2 YZ    0.000000   0.000000  -0.000000   0.000000  -0.000000
   31  C  3  S   -0.010846  -0.018785   0.009486  -0.016429   0.027846
   32  C  3  S    0.200953   0.348060   0.746456  -1.292899   0.728159
   33  C  3  X   -0.028296  -0.343427   0.069727  -0.072127   0.018730
   34  C  3  Y   -0.343427  -0.424851   0.072127  -0.153012   0.032442
   35  C  3  Z    0.000000   0.000000  -0.000000   0.000000  -0.000000
   36  C  3  S    0.143063   0.247793  -2.216013   3.838248  -3.295854
   37  C  3  X   -0.111285   1.108626  -0.372453   0.618974  -0.479092
   38  C  3  Y    1.108626   1.168847  -0.618974   1.087182  -0.829812
   39  C  3  Z    0.000000   0.000000  -0.000000   0.000000  -0.000000
   40  C  3 XX   -0.030115  -0.079779   0.061719  -0.097856   0.046653
   41  C  3 YY    0.018916   0.060382   0.030722  -0.062256  -0.030024
   42  C  3 ZZ    0.062032   0.107443   0.025963  -0.044968   0.080416
   43  C  3 XY    0.080922   0.121749  -0.020554   0.041630  -0.076677
   44  C  3 XZ    0.000000   0.000000  -0.000000   0.000000  -0.000000
   45  C  3 YZ    0.000000   0.000000  -0.000000   0.000000  -0.000000
   46  C  4  S    0.021692   0.000000  -0.018971   0.000000   0.027846
   47  C  4  S   -0.401905   0.000000  -1.492911   0.000000   0.728159
   48  C  4  X   -0.623129   0.000000   0.194655   0.000000  -0.037460
   49  C  4  Y    0.000000   0.169982  -0.000000  -0.028084  -0.000000
   50  C  4  Z    0.000000   0.000000  -0.000000   0.000000  -0.000000
   51  C  4  S   -0.286126   0.000000   4.432027   0.000000  -3.295854
   52  C  4  X    1.808913   0.000000  -1.444547   0.000000   0.958185
   53  C  4  Y    0.000000  -0.751351  -0.000000   0.015088  -0.000000
   54  C  4  Z    0.000000   0.000000  -0.000000   0.000000  -0.000000
   55  C  4 XX   -0.134700   0.000000  -0.046112   0.000000  -0.068363
   56  C  4 YY    0.157097   0.000000  -0.138770   0.000000   0.084991
   57  C  4 ZZ   -0.124065   0.000000  -0.051925   0.000000   0.080416
   58  C  4 XY    0.000000  -0.018412  -0.000000   0.006029  -0.000000
   59  C  4 XZ    0.000000   0.000000  -0.000000   0.000000  -0.000000
   60  C  4 YZ    0.000000   0.000000  -0.000000   0.000000  -0.000000
   61  H  5  S   -0.114432   0.518513  -0.222576   0.008637   0.163289
   62  H  5  S    0.102074  -1.257962   0.229517   0.370465   0.309857
   63  H  6  S   -0.391830  -0.358357   0.118767   0.188438   0.163289
   64  H  6  S    1.038390   0.717380   0.206074  -0.384000   0.309857
   65  H  7  S    0.506261   0.160156   0.103808   0.197074   0.163289
   66  H  7  S   -1.140464  -0.540582  -0.435591  -0.013534   0.309857
   67  H  8  S   -0.391830   0.358357   0.118767  -0.188438   0.163289
   68  H  8  S    1.038390  -0.717380   0.206074   0.384000   0.309857
   69  H  9  S   -0.114432  -0.518513  -0.222576  -0.008637   0.163289
   70  H  9  S    0.102074   1.257962   0.229517  -0.370465   0.309857
   71  H 10  S    0.506261  -0.160156   0.103808  -0.197074   0.163289
   72  H 10  S   -1.140464   0.540582  -0.435591   0.013534   0.309857

                     46         47         48         49         50
                    1.3785     1.5767     1.5767     1.6326     1.6326
                     A2'        E''        E''        E'         E'  
    1  C  1  S    0.000000  -0.000000   0.000000   0.000000   0.000000
    2  C  1  S    0.000000  -0.000000   0.000000   0.000000   0.000000
    3  C  1  X    0.000000  -0.000000   0.000000  -0.691067   0.000000
    4  C  1  Y    0.000000  -0.000000   0.000000   0.000000  -0.691067
    5  C  1  Z    0.000000  -0.000000   0.000000   0.000000   0.000000
    6  C  1  S    0.000000  -0.000000   0.000000   0.000000   0.000000
    7  C  1  X    0.000000  -0.000000   0.000000   7.681547   0.000000
    8  C  1  Y    0.000000  -0.000000   0.000000   0.000000   7.681547
    9  C  1  Z    0.000000  -0.000000   0.000000   0.000000   0.000000
   10  C  1 XX    0.000000  -0.000000   0.000000  -0.021993   0.000000
   11  C  1 YY    0.000000  -0.000000   0.000000   0.021993   0.000000
   12  C  1 ZZ    0.000000  -0.000000   0.000000   0.000000   0.000000
   13  C  1 XY    0.000000  -0.000000   0.000000   0.000000   0.025396
   14  C  1 XZ    0.000000  -0.000000   0.562125   0.000000   0.000000
   15  C  1 YZ    0.000000   0.562125   0.000000   0.000000   0.000000
   16  C  2  S    0.000000  -0.000000   0.000000  -0.017833   0.030888
   17  C  2  S    0.000000  -0.000000   0.000000  -0.135044   0.233904
   18  C  2  X    0.362530  -0.000000   0.000000  -0.087545  -0.251494
   19  C  2  Y    0.209307  -0.000000   0.000000  -0.251494   0.202855
   20  C  2  Z    0.000000  -0.121333   0.070051   0.000000   0.000000
   21  C  2  S    0.000000  -0.000000   0.000000   2.936841  -5.086758
   22  C  2  X   -1.814291  -0.000000   0.000000  -1.630288  -2.146763
   23  C  2  Y   -1.047481  -0.000000   0.000000  -2.146763   0.848580
   24  C  2  Z    0.000000   0.001903  -0.001099   0.000000   0.000000
   25  C  2 XX   -0.098469  -0.000000   0.000000  -0.118211   0.008605
   26  C  2 YY    0.098469  -0.000000   0.000000   0.118901  -0.009801
   27  C  2 ZZ    0.000000  -0.000000   0.000000  -0.006173   0.010692
   28  C  2 XY    0.065646  -0.000000   0.000000  -0.010627   0.149167
   29  C  2 XZ    0.000000   0.307341   0.036818   0.000000   0.000000
   30  C  2 YZ    0.000000  -0.318068   0.307341   0.000000   0.000000
   31  C  3  S    0.000000  -0.000000   0.000000  -0.017833  -0.030888
   32  C  3  S    0.000000  -0.000000   0.000000  -0.135044  -0.233904
   33  C  3  X   -0.362530  -0.000000   0.000000  -0.087545   0.251494
   34  C  3  Y    0.209307  -0.000000   0.000000   0.251494   0.202855
   35  C  3  Z    0.000000   0.121333   0.070051   0.000000   0.000000
   36  C  3  S    0.000000  -0.000000   0.000000   2.936841   5.086758
   37  C  3  X    1.814291  -0.000000   0.000000  -1.630288   2.146763
   38  C  3  Y   -1.047481  -0.000000   0.000000   2.146763   0.848580
   39  C  3  Z    0.000000  -0.001903  -0.001099   0.000000   0.000000
   40  C  3 XX    0.098469  -0.000000   0.000000  -0.118211  -0.008605
   41  C  3 YY   -0.098469  -0.000000   0.000000   0.118901   0.009801
   42  C  3 ZZ    0.000000  -0.000000   0.000000  -0.006173  -0.010692
   43  C  3 XY    0.065646  -0.000000   0.000000   0.010627   0.149167
   44  C  3 XZ    0.000000  -0.307341   0.036818   0.000000   0.000000
   45  C  3 YZ    0.000000  -0.318068  -0.307341   0.000000   0.000000
   46  C  4  S    0.000000  -0.000000   0.000000   0.035667   0.000000
   47  C  4  S    0.000000  -0.000000   0.000000   0.270089   0.000000
   48  C  4  X    0.000000  -0.000000   0.000000   0.348055   0.000000
   49  C  4  Y   -0.418613  -0.000000   0.000000   0.000000  -0.232746
   50  C  4  Z    0.000000  -0.000000  -0.140103   0.000000   0.000000
   51  C  4  S    0.000000  -0.000000   0.000000  -5.873683   0.000000
   52  C  4  X    0.000000  -0.000000   0.000000   2.088014   0.000000
   53  C  4  Y    2.094963  -0.000000   0.000000   0.000000  -2.869723
   54  C  4  Z    0.000000  -0.000000   0.002197   0.000000   0.000000
   55  C  4 XX    0.000000  -0.000000   0.000000  -0.135186   0.000000
   56  C  4 YY    0.000000  -0.000000   0.000000   0.133805   0.000000
   57  C  4 ZZ    0.000000  -0.000000   0.000000   0.012346   0.000000
   58  C  4 XY   -0.131292  -0.000000   0.000000   0.000000   0.130761
   59  C  4 XZ    0.000000  -0.000000  -0.495512   0.000000   0.000000
   60  C  4 YZ    0.000000   0.214262   0.000000   0.000000   0.000000
   61  H  5  S   -0.393716  -0.000000   0.000000  -0.626448  -0.229887
   62  H  5  S   -0.695469  -0.000000   0.000000  -0.761822  -0.251597
   63  H  6  S   -0.393716  -0.000000   0.000000   0.512312  -0.427577
   64  H  6  S   -0.695469  -0.000000   0.000000   0.598800  -0.533959
   65  H  7  S    0.393716  -0.000000   0.000000   0.114136  -0.657464
   66  H  7  S    0.695469  -0.000000   0.000000   0.163022  -0.785556
   67  H  8  S    0.393716  -0.000000   0.000000   0.512312   0.427577
   68  H  8  S    0.695469  -0.000000   0.000000   0.598800   0.533959
   69  H  9  S    0.393716  -0.000000   0.000000  -0.626448   0.229887
   70  H  9  S    0.695469  -0.000000   0.000000  -0.761822   0.251597
   71  H 10  S   -0.393716  -0.000000   0.000000   0.114136   0.657464
   72  H 10  S   -0.695469  -0.000000   0.000000   0.163022   0.785556

                     51         52         53         54         55
                    1.9117     1.9150     1.9150     2.1110     2.2111
                     A1"        E''        E''        A1'        E'  
    1  C  1  S    0.000000  -0.000000   0.000000  -0.041062   0.000000
    2  C  1  S    0.000000  -0.000000   0.000000  -0.783726   0.000000
    3  C  1  X    0.000000  -0.000000   0.000000   0.000000  -0.345198
    4  C  1  Y    0.000000  -0.000000   0.000000   0.000000   0.000000
    5  C  1  Z    0.000000  -0.000000   0.000000   0.000000   0.000000
    6  C  1  S    0.000000  -0.000000   0.000000   2.254508   0.000000
    7  C  1  X    0.000000  -0.000000   0.000000   0.000000   2.233822
    8  C  1  Y    0.000000  -0.000000   0.000000   0.000000   0.000000
    9  C  1  Z    0.000000  -0.000000   0.000000   0.000000   0.000000
   10  C  1 XX    0.000000  -0.000000   0.000000   0.211741   0.518578
   11  C  1 YY    0.000000  -0.000000   0.000000   0.211741  -0.518578
   12  C  1 ZZ    0.000000  -0.000000   0.000000  -0.587293   0.000000
   13  C  1 XY    0.000000  -0.000000   0.000000   0.000000   0.000000
   14  C  1 XZ    0.000000  -0.000000  -0.035668   0.000000   0.000000
   15  C  1 YZ    0.000000  -0.035668   0.000000   0.000000   0.000000
   16  C  2  S    0.000000  -0.000000   0.000000  -0.017316  -0.002765
   17  C  2  S    0.000000  -0.000000   0.000000   0.000678   0.159680
   18  C  2  X    0.000000  -0.000000   0.000000  -0.084088   0.239004
   19  C  2  Y    0.000000  -0.000000   0.000000   0.145644  -0.081179
   20  C  2  Z    0.000000   0.067145  -0.038766   0.000000   0.000000
   21  C  2  S    0.000000  -0.000000   0.000000  -0.381009   0.578907
   22  C  2  X    0.000000  -0.000000   0.000000  -0.164371  -0.499561
   23  C  2  Y    0.000000  -0.000000   0.000000   0.284699  -0.398672
   24  C  2  Z    0.000000  -0.090901   0.052482   0.000000   0.000000
   25  C  2 XX    0.000000  -0.000000   0.000000   0.211768  -0.218268
   26  C  2 YY    0.000000  -0.000000   0.000000   0.182154   0.189065
   27  C  2 ZZ    0.000000  -0.000000   0.000000  -0.507333   0.093214
   28  C  2 XY    0.000000  -0.000000   0.000000   0.029614   0.344233
   29  C  2 XZ   -0.500518   0.221333   0.644463   0.000000   0.000000
   30  C  2 YZ   -0.288974   0.388889   0.221333   0.000000   0.000000
   31  C  3  S    0.000000  -0.000000   0.000000  -0.017316  -0.002765
   32  C  3  S    0.000000  -0.000000   0.000000   0.000678   0.159680
   33  C  3  X    0.000000  -0.000000   0.000000  -0.084088   0.239004
   34  C  3  Y    0.000000  -0.000000   0.000000  -0.145644   0.081179
   35  C  3  Z    0.000000  -0.067145  -0.038766   0.000000   0.000000
   36  C  3  S    0.000000  -0.000000   0.000000  -0.381009   0.578907
   37  C  3  X    0.000000  -0.000000   0.000000  -0.164371  -0.499561
   38  C  3  Y    0.000000  -0.000000   0.000000  -0.284699   0.398672
   39  C  3  Z    0.000000   0.090901   0.052482   0.000000   0.000000
   40  C  3 XX    0.000000  -0.000000   0.000000   0.211768  -0.218268
   41  C  3 YY    0.000000  -0.000000   0.000000   0.182154   0.189065
   42  C  3 ZZ    0.000000  -0.000000   0.000000  -0.507333   0.093214
   43  C  3 XY    0.000000  -0.000000   0.000000  -0.029614  -0.344233
   44  C  3 XZ    0.500518  -0.221333   0.644463   0.000000   0.000000
   45  C  3 YZ   -0.288974   0.388889  -0.221333   0.000000   0.000000
   46  C  4  S    0.000000  -0.000000   0.000000  -0.017316   0.005530
[...]
   16  C  2  S    0.079795   0.138210   0.058778  -0.012779   0.022133
   17  C  2  S   -0.154971  -0.268417  -0.112119   0.024184  -0.041888
   18  C  2  X    0.043001  -0.026794   0.104000   0.149571   0.217525
   19  C  2  Y    0.026794  -0.012062  -0.180134   0.217525  -0.101605
   20  C  2  Z    0.000000  -0.000000   0.000000   0.000000   0.000000
   21  C  2  S   -0.143187  -0.248007  -0.141665   0.023877  -0.041357
   22  C  2  X    0.021743  -0.007121   0.032296   0.078874   0.105405
   23  C  2  Y    0.007121  -0.013521  -0.055938   0.105405  -0.042837
   24  C  2  Z    0.000000  -0.000000   0.000000   0.000000   0.000000
   25  C  2 XX   -0.006642  -0.013307  -0.013600  -0.002647  -0.013893
   26  C  2 YY   -0.006974  -0.010277   0.000738   0.007220   0.005973
   27  C  2 ZZ    0.006514   0.011283   0.005345  -0.001159   0.002007
   28  C  2 XY   -0.001749  -0.001828  -0.014338   0.011470  -0.007547
   29  C  2 XZ    0.000000  -0.000000   0.000000   0.000000   0.000000
   30  C  2 YZ    0.000000  -0.000000   0.000000   0.000000   0.000000
   31  C  3  S    0.079795  -0.138210   0.058778  -0.012779  -0.022133
   32  C  3  S   -0.154971   0.268417  -0.112119   0.024184   0.041888
   33  C  3  X    0.043001   0.026794   0.104000   0.149571  -0.217525
   34  C  3  Y   -0.026794  -0.012062   0.180134  -0.217525  -0.101605
   35  C  3  Z    0.000000  -0.000000   0.000000   0.000000   0.000000
   36  C  3  S   -0.143187   0.248007  -0.141665   0.023877   0.041357
   37  C  3  X    0.021743   0.007121   0.032296   0.078874  -0.105405
   38  C  3  Y   -0.007121  -0.013521   0.055938  -0.105405  -0.042837
   39  C  3  Z    0.000000  -0.000000   0.000000   0.000000   0.000000
   40  C  3 XX   -0.006642   0.013307  -0.013600  -0.002647   0.013893
   41  C  3 YY   -0.006974   0.010277   0.000738   0.007220  -0.005973
   42  C  3 ZZ    0.006514  -0.011283   0.005345  -0.001159  -0.002007
   43  C  3 XY    0.001749  -0.001828   0.014338  -0.011470  -0.007547
   44  C  3 XZ    0.000000  -0.000000   0.000000   0.000000   0.000000
   45  C  3 YZ    0.000000  -0.000000   0.000000   0.000000   0.000000
   46  C  4  S   -0.159591  -0.000000   0.058778   0.025557   0.000000
   47  C  4  S    0.309941  -0.000000  -0.112119  -0.048368   0.000000
   48  C  4  X   -0.003408  -0.000000  -0.208001  -0.227193   0.000000
   49  C  4  Y    0.000000  -0.058470   0.000000   0.000000   0.275159
   50  C  4  Z    0.000000  -0.000000   0.000000   0.000000   0.000000
   51  C  4  S    0.286374  -0.000000  -0.141665  -0.047755   0.000000
   52  C  4  X    0.009410  -0.000000  -0.064592  -0.103692   0.000000
   53  C  4  Y    0.000000  -0.025854   0.000000   0.000000   0.139729
   54  C  4  Z    0.000000  -0.000000   0.000000   0.000000   0.000000
   55  C  4 XX    0.011158  -0.000000   0.007908   0.007698   0.000000
   56  C  4 YY    0.016074  -0.000000  -0.020769  -0.016844   0.000000
   57  C  4 ZZ   -0.013028  -0.000000   0.005345   0.002318   0.000000
   58  C  4 XY    0.000000   0.001202   0.000000   0.000000   0.012319
   59  C  4 XZ    0.000000  -0.000000   0.000000   0.000000   0.000000
   60  C  4 YZ    0.000000  -0.000000   0.000000   0.000000   0.000000
   61  H  5  S   -0.081093  -0.093657  -0.113415  -0.072546  -0.148928
   62  H  5  S   -0.027695  -0.029041  -0.066685  -0.043594  -0.091865
   63  H  6  S   -0.040563   0.117058  -0.113415   0.165248   0.011638
   64  H  6  S   -0.011302   0.038505  -0.066685   0.101355   0.008179
   65  H  7  S    0.121656   0.023400  -0.113415  -0.092703  -0.137290
   66  H  7  S    0.038997   0.009464  -0.066685  -0.057761  -0.083686
   67  H  8  S   -0.040563  -0.117058  -0.113415   0.165248  -0.011638
   68  H  8  S   -0.011302  -0.038505  -0.066685   0.101355  -0.008179
   69  H  9  S   -0.081093   0.093657  -0.113415  -0.072546   0.148928
   70  H  9  S   -0.027695   0.029041  -0.066685  -0.043594   0.091865
   71  H 10  S    0.121656  -0.023400  -0.113415  -0.092703   0.137290
   72  H 10  S    0.038997  -0.009464  -0.066685  -0.057761   0.083686

                     11         12         13         14         15
                    2.0000     2.0000     2.0000     2.0000     1.0000
                     A          A          A          A          A   
    1  C  1  S    0.000000   0.000000   0.000000  -0.000000  -0.000000
    2  C  1  S    0.000000   0.000000   0.000000  -0.000000  -0.000000
    3  C  1  X    0.000000   0.319916   0.000000  -0.000000  -0.000000
    4  C  1  Y    0.000000   0.000000   0.319916  -0.000000  -0.000000
    5  C  1  Z    0.000000   0.000000   0.000000   0.368780  -0.000000
    6  C  1  S    0.000000   0.000000   0.000000  -0.000000  -0.000000
    7  C  1  X    0.000000   0.143125   0.000000  -0.000000  -0.000000
    8  C  1  Y    0.000000   0.000000   0.143125  -0.000000  -0.000000
    9  C  1  Z    0.000000   0.000000   0.000000   0.251597  -0.000000
   10  C  1 XX    0.000000   0.024783   0.000000  -0.000000  -0.000000
   11  C  1 YY    0.000000  -0.024783   0.000000  -0.000000  -0.000000
   12  C  1 ZZ    0.000000   0.000000   0.000000  -0.000000  -0.000000
   13  C  1 XY    0.000000   0.000000  -0.028617  -0.000000  -0.000000
   14  C  1 XZ    0.000000   0.000000   0.000000  -0.000000  -0.000000
   15  C  1 YZ    0.000000   0.000000   0.000000  -0.000000  -0.036081
   16  C  2  S    0.000000   0.015496  -0.026840  -0.000000  -0.000000
   17  C  2  S    0.000000  -0.033524   0.058065  -0.000000  -0.000000
   18  C  2  X   -0.229181  -0.241611   0.038096  -0.000000  -0.000000
   19  C  2  Y   -0.132318   0.038096  -0.285600  -0.000000  -0.000000
   20  C  2  Z    0.000000   0.000000   0.000000   0.210169  -0.415218
   21  C  2  S    0.000000  -0.030304   0.052488  -0.000000  -0.000000
   22  C  2  X   -0.125395  -0.123678   0.001977  -0.000000  -0.000000
   23  C  2  Y   -0.072397   0.001977  -0.125961  -0.000000  -0.000000
   24  C  2  Z    0.000000   0.000000   0.000000   0.156286  -0.407911
   25  C  2 XX    0.016494   0.022614   0.000551  -0.000000  -0.000000
   26  C  2 YY   -0.016494  -0.018967  -0.006869  -0.000000  -0.000000
   27  C  2 ZZ    0.000000   0.000299  -0.000517  -0.000000  -0.000000
   28  C  2 XY   -0.010996  -0.004283  -0.019061  -0.000000  -0.000000
   29  C  2 XZ    0.000000   0.000000   0.000000   0.008443  -0.003451
   30  C  2 YZ    0.000000   0.000000   0.000000  -0.014624   0.002541
   31  C  3  S    0.000000   0.015496   0.026840  -0.000000  -0.000000
   32  C  3  S    0.000000  -0.033524  -0.058065  -0.000000  -0.000000
   33  C  3  X    0.229181  -0.241611  -0.038096  -0.000000  -0.000000
   34  C  3  Y   -0.132318  -0.038096  -0.285600  -0.000000  -0.000000
   35  C  3  Z    0.000000   0.000000   0.000000   0.210169   0.415218
   36  C  3  S    0.000000  -0.030304  -0.052488  -0.000000  -0.000000
   37  C  3  X    0.125395  -0.123678  -0.001977  -0.000000  -0.000000
   38  C  3  Y   -0.072397  -0.001977  -0.125961  -0.000000  -0.000000
   39  C  3  Z    0.000000   0.000000   0.000000   0.156286   0.407911
   40  C  3 XX   -0.016494   0.022614  -0.000551  -0.000000  -0.000000
   41  C  3 YY    0.016494  -0.018967   0.006869  -0.000000  -0.000000
   42  C  3 ZZ    0.000000   0.000299   0.000517  -0.000000  -0.000000
   43  C  3 XY   -0.010996   0.004283  -0.019061  -0.000000  -0.000000
   44  C  3 XZ    0.000000   0.000000   0.000000   0.008443   0.003451
   45  C  3 YZ    0.000000   0.000000   0.000000   0.014624   0.002541
   46  C  4  S    0.000000  -0.030992   0.000000  -0.000000  -0.000000
   47  C  4  S    0.000000   0.067048   0.000000  -0.000000  -0.000000
   48  C  4  X    0.000000  -0.307595   0.000000  -0.000000  -0.000000
   49  C  4  Y    0.264635   0.000000  -0.219616  -0.000000  -0.000000
   50  C  4  Z    0.000000   0.000000   0.000000   0.210169  -0.000000
   51  C  4  S    0.000000   0.060608   0.000000  -0.000000  -0.000000
   52  C  4  X    0.000000  -0.127102   0.000000  -0.000000  -0.000000
   53  C  4  Y    0.144793   0.000000  -0.122536  -0.000000  -0.000000
   54  C  4  Z    0.000000   0.000000   0.000000   0.156286  -0.000000
   55  C  4 XX    0.000000   0.010718   0.000000  -0.000000  -0.000000
   56  C  4 YY    0.000000  -0.018013   0.000000  -0.000000  -0.000000
   57  C  4 ZZ    0.000000  -0.000597   0.000000  -0.000000  -0.000000
   58  C  4 XY    0.021991   0.000000  -0.026480  -0.000000  -0.000000
   59  C  4 XZ    0.000000   0.000000   0.000000  -0.016886  -0.000000
   60  C  4 YZ    0.000000   0.000000   0.000000  -0.000000  -0.003436
   61  H  5  S    0.148093   0.158203   0.000568  -0.000000  -0.000000
   62  H  5  S    0.109871   0.140874  -0.007662  -0.000000  -0.000000
   63  H  6  S    0.148093  -0.079593   0.136724  -0.000000  -0.000000
   64  H  6  S    0.109871  -0.063801   0.125831  -0.000000  -0.000000
   65  H  7  S   -0.148093  -0.078610   0.137292  -0.000000  -0.000000
   66  H  7  S   -0.109871  -0.077073   0.118169  -0.000000  -0.000000
   67  H  8  S   -0.148093  -0.079593  -0.136724  -0.000000  -0.000000
   68  H  8  S   -0.109871  -0.063801  -0.125831  -0.000000  -0.000000
   69  H  9  S   -0.148093   0.158203  -0.000568  -0.000000  -0.000000
   70  H  9  S   -0.109871   0.140874   0.007662  -0.000000  -0.000000
   71  H 10  S    0.148093  -0.078610  -0.137292  -0.000000  -0.000000
   72  H 10  S    0.109871  -0.077073  -0.118169  -0.000000  -0.000000

                     16
                    1.0000
                     A   
    1  C  1  S   -0.000000
    2  C  1  S   -0.000000
    3  C  1  X   -0.000000
    4  C  1  Y   -0.000000
    5  C  1  Z   -0.000000
    6  C  1  S   -0.000000
    7  C  1  X   -0.000000
    8  C  1  Y   -0.000000
    9  C  1  Z   -0.000000
   10  C  1 XX   -0.000000
   11  C  1 YY   -0.000000
   12  C  1 ZZ   -0.000000
   13  C  1 XY   -0.000000
   14  C  1 XZ    0.036081
   15  C  1 YZ   -0.000000
   16  C  2  S   -0.000000
   17  C  2  S   -0.000000
   18  C  2  X   -0.000000
   19  C  2  Y   -0.000000
   20  C  2  Z   -0.239726
   21  C  2  S   -0.000000
   22  C  2  X   -0.000000
   23  C  2  Y   -0.000000
   24  C  2  Z   -0.235507
   25  C  2 XX   -0.000000
   26  C  2 YY   -0.000000
   27  C  2 ZZ   -0.000000
   28  C  2 XY   -0.000000
   29  C  2 XZ    0.001443
   30  C  2 YZ    0.003451
   31  C  3  S   -0.000000
   32  C  3  S   -0.000000
   33  C  3  X   -0.000000
   34  C  3  Y   -0.000000
   35  C  3  Z   -0.239726
   36  C  3  S   -0.000000
   37  C  3  X   -0.000000
   38  C  3  Y   -0.000000
   39  C  3  Z   -0.235507
   40  C  3 XX   -0.000000
   41  C  3 YY   -0.000000
   42  C  3 ZZ   -0.000000
   43  C  3 XY   -0.000000
   44  C  3 XZ    0.001443
   45  C  3 YZ   -0.003451
   46  C  4  S   -0.000000
   47  C  4  S   -0.000000
   48  C  4  X   -0.000000
   49  C  4  Y   -0.000000
   50  C  4  Z    0.479452
   51  C  4  S   -0.000000
   52  C  4  X   -0.000000
   53  C  4  Y   -0.000000
   54  C  4  Z    0.471015
   55  C  4 XX   -0.000000
   56  C  4 YY   -0.000000
   57  C  4 ZZ   -0.000000
   58  C  4 XY   -0.000000
   59  C  4 XZ   -0.004534
   60  C  4 YZ   -0.000000
   61  H  5  S   -0.000000
   62  H  5  S   -0.000000
   63  H  6  S   -0.000000
   64  H  6  S   -0.000000
   65  H  7  S   -0.000000
   66  H  7  S   -0.000000
   67  H  8  S   -0.000000
   68  H  8  S   -0.000000
   69  H  9  S   -0.000000
   70  H  9  S   -0.000000
   71  H 10  S   -0.000000
   72  H 10  S   -0.000000
 ..... DONE WITH ONE PARTICLE DENSITY MATRIX .....
 STEP CPU TIME =     0.00 TOTAL CPU TIME =        0.4 (    0.0 MIN)
 TOTAL WALL CLOCK TIME=        0.4 SECONDS, CPU UTILIZATION IS  97.67%

     --------------------------------------------------------
     ALDET CI PROPERTIES...FOR THE WAVEFUNCTION OF STATE    1
               USING THE EXPECTATION VALUE DENSITY
     --------------------------------------------------------

          -----------------
          ENERGY COMPONENTS
          -----------------

         WAVEFUNCTION NORMALIZATION =       1.0000000000

                ONE ELECTRON ENERGY =    -417.9698271987
                TWO ELECTRON ENERGY =     156.8250908872
           NUCLEAR REPULSION ENERGY =     106.2800437606
                                      ------------------
                       TOTAL ENERGY =    -154.8646925509

 ELECTRON-ELECTRON POTENTIAL ENERGY =     156.8250908872
  NUCLEUS-ELECTRON POTENTIAL ENERGY =    -572.7454084439
   NUCLEUS-NUCLEUS POTENTIAL ENERGY =     106.2800437606
                                      ------------------
             TOTAL POTENTIAL ENERGY =    -309.6402737961
               TOTAL KINETIC ENERGY =     154.7755812452
                 VIRIAL RATIO (V/T) =       2.0005757452

          ---------------------------------------
          MULLIKEN AND LOWDIN POPULATION ANALYSES
          ---------------------------------------

               ----- POPULATIONS IN EACH AO -----
                             MULLIKEN      LOWDIN
              1  C  1  S      1.99666     1.97913
              2  C  1  S      0.67427     0.34350
              3  C  1  X      0.74769     0.65776
              4  C  1  Y      0.74769     0.65467
              5  C  1  Z      0.50723     0.44870
              6  C  1  S      0.43412     0.27272
              7  C  1  X      0.12468     0.32735
              8  C  1  Y      0.12468     0.32716
              9  C  1  Z      0.43836     0.48072
             10  C  1 XX      0.02123     0.17533
             11  C  1 YY      0.02123     0.17443
             12  C  1 ZZ     -0.01870     0.09637
             13  C  1 XY      0.01764     0.03299
             14  C  1 XZ      0.00943     0.01970
             15  C  1 YZ      0.00943     0.01970
             16  C  2  S      1.99644     1.98127
             17  C  2  S      0.66226     0.36367
             18  C  2  X      0.72129     0.64577
             19  C  2  Y      0.72742     0.65051
             20  C  2  Z      0.52266     0.50629
             21  C  2  S      0.60593     0.33663
             22  C  2  X      0.35558     0.44524
             23  C  2  Y      0.27892     0.39721
             24  C  2  Z      0.48490     0.49693
             25  C  2 XX      0.03342     0.18365
             26  C  2 YY      0.02933     0.18531
             27  C  2 ZZ     -0.01975     0.10580
             28  C  2 XY      0.01261     0.02058
             29  C  2 XZ      0.00111     0.00185
             30  C  2 YZ      0.00319     0.00532
             31  C  3  S      1.99644     1.98127
             32  C  3  S      0.66226     0.36367
             33  C  3  X      0.72129     0.64577
             34  C  3  Y      0.72742     0.65051
             35  C  3  Z      0.52266     0.50629
             36  C  3  S      0.60593     0.33663
             37  C  3  X      0.35558     0.44524
             38  C  3  Y      0.27892     0.39721
             39  C  3  Z      0.48490     0.49693
             40  C  3 XX      0.03342     0.18365
             41  C  3 YY      0.02933     0.18531
             42  C  3 ZZ     -0.01975     0.10580
             43  C  3 XY      0.01261     0.02058
             44  C  3 XZ      0.00111     0.00185
             45  C  3 YZ      0.00319     0.00532
             46  C  4  S      1.99644     1.98129
             47  C  4  S      0.66226     0.36407
             48  C  4  X      0.73049     0.65438
             49  C  4  Y      0.71822     0.64267
             50  C  4  Z      0.52266     0.50629
             51  C  4  S      0.60593     0.33672
             52  C  4  X      0.24059     0.37199
             53  C  4  Y      0.39391     0.46970
             54  C  4  Z      0.48490     0.49693
             55  C  4 XX      0.02520     0.18303
             56  C  4 YY      0.03338     0.17843
             57  C  4 ZZ     -0.01975     0.10586
             58  C  4 XY      0.01678     0.03086
             59  C  4 XZ      0.00422     0.00705
             60  C  4 YZ      0.00008     0.00012
             61  H  5  S      0.52651     0.48639
             62  H  5  S      0.28990     0.34992
             63  H  6  S      0.52651     0.48437
             64  H  6  S      0.28990     0.34975
             65  H  7  S      0.52651     0.48401
             66  H  7  S      0.28990     0.34971
             67  H  8  S      0.52651     0.48437
             68  H  8  S      0.28990     0.34975
             69  H  9  S      0.52651     0.48639
             70  H  9  S      0.28990     0.34992
             71  H 10  S      0.52651     0.48401
             72  H 10  S      0.28990     0.34971

          ----- MULLIKEN ATOMIC OVERLAP POPULATIONS -----
          (OFF-DIAGONAL ELEMENTS NEED TO BE MULTIPLIED BY 2)

             1           2           3           4           5

    1    4.6149110
    2    0.4911138   5.2611908
    3    0.4911138  -0.0622463   5.2611908
    4    0.4911138  -0.0622463  -0.0622463   5.2611908
    5   -0.0387701   0.3932361  -0.0026980   0.0032060   0.4842248
    6   -0.0387701   0.0032060   0.3932361  -0.0026980   0.0000287
    7   -0.0387701   0.0032060  -0.0026980   0.3932361  -0.0001037
    8   -0.0387701   0.3932361   0.0032060  -0.0026980  -0.0250586
    9   -0.0387701  -0.0026980   0.3932361   0.0032060   0.0023174
   10   -0.0387701  -0.0026980   0.0032060   0.3932361   0.0000287

             6           7           8           9          10

    6    0.4842248
    7    0.0023174   0.4842248
    8   -0.0001037   0.0000287   0.4842248
    9   -0.0250586   0.0000287   0.0000287   0.4842248
   10    0.0000287  -0.0250586   0.0023174  -0.0001037   0.4842248

          TOTAL MULLIKEN AND LOWDIN ATOMIC POPULATIONS
       ATOM         MULL.POP.    CHARGE          LOW.POP.     CHARGE
    1 C             5.855632    0.144368         6.010235   -0.010235
    2 C             6.415300   -0.415300         6.326036   -0.326036
    3 C             6.415300   -0.415300         6.326036   -0.326036
    4 C             6.415300   -0.415300         6.329377   -0.329377
    5 H             0.816411    0.183589         0.836312    0.163688
    6 H             0.816411    0.183589         0.834120    0.165880
    7 H             0.816411    0.183589         0.833726    0.166274
    8 H             0.816411    0.183589         0.834120    0.165880
    9 H             0.816411    0.183589         0.836312    0.163688
   10 H             0.816411    0.183589         0.833726    0.166274

          ---------------------
          ELECTROSTATIC MOMENTS
          ---------------------

 POINT   1           X           Y           Z (BOHR)    CHARGE
                -0.000000    0.000000    0.000000       -0.00 (A.U.)
         DX          DY          DZ         /D/  (DEBYE)
    -0.000000    0.000000    0.000000    0.000000
 ...... END OF PROPERTY EVALUATION ......
 STEP CPU TIME =     0.01 TOTAL CPU TIME =        0.4 (    0.0 MIN)
 TOTAL WALL CLOCK TIME=        0.4 SECONDS, CPU UTILIZATION IS  97.73%
               580000  WORDS OF DYNAMIC MEMORY USED
 EXECUTION OF GAMESS TERMINATED NORMALLY Wed Aug  9 22:29:27 2017
 DDI: 263640 bytes (0.3 MB / 0 MWords) used by master data server.

 ----------------------------------------
 CPU timing information for all processes
 ========================================
 0: 0.393 + 0.41 = 0.435
 ----------------------------------------
 ddikick.x: exited gracefully.
unset echo
----- accounting info -----
Files used on the master node compute-1-1.local were:
-rw-rw-r-- 1 sarom sarom 1.2K Aug  9 22:29 /scratch/aldet-tmm.F05
-rw-rw-r-- 1 sarom sarom  21M Aug  9 22:29 /scratch/aldet-tmm.F08
-rw-rw-r-- 1 sarom sarom 176K Aug  9 22:29 /scratch/aldet-tmm.F09
-rw-rw-r-- 1 sarom sarom 2.0M Aug  9 22:29 /scratch/aldet-tmm.F10
-rw-rw-r-- 1 sarom sarom  184 Aug  9 22:29 /scratch/aldet-tmm.F12
rm: cannot remove `/scratch/tmp': Is a directory
ls: No match.
ls: No match.
ls: No match.
Wed Aug  9 22:29:30 CDT 2017
0.248u 0.177s 0:03.94 10.4%	0+0k 0+360io 0pf+0w
/opt/gridengine/default/spool/compute-1-1/active_jobs/36248.1/pe_hostfile compute-1-1.local
