-catch_rsh /opt/gridengine/default/spool/compute-1-1/active_jobs/36244.1/pe_hostfile
compute-1-1
The primary node assigned by SGE to this run is compute-1-1
Warning: no access to tty (Bad file descriptor).
Thus no job control in this shell.
source /home/sarom/dir.git.branch.saromleang-travis-ci/install.info
setenv GMS_PATH /home/sarom/dir.git.branch.saromleang-travis-ci
setenv GMS_BUILD_DIR /home/sarom/dir.git.branch.saromleang-travis-ci
setenv GMS_TARGET linux64
setenv GMS_FORTRAN gfortran
setenv GMS_GFORTRAN_VERNO 4.4
setenv GMS_MATHLIB mkl-so
setenv GMS_MATHLIB none
setenv GMS_MATHLIB_PATH /share/apps/intel/compilers_and_libraries_2017.1.132/linux/mkl/lib/intel64
setenv GMS_MKL_VERNO 12
setenv GMS_DDI_COMM sockets
setenv GMS_LIBCCHEM false
setenv GMS_EIGEN_PATH
setenv GMS_PHI false
setenv GMS_SHMTYPE sysv
setenv GMS_OPENMP false
unset echo
aldet-ch3sih2-vci
/home/sarom/dir.git.branch.saromleang-travis-ci/tests/ci/parallel
----- GAMESS execution script 'rungms' -----
This job is running on host compute-1-1.local
under operating system Linux at Wed Aug 9 22:27:26 CDT 2017
Available scratch disk space (Kbyte units) at beginning of the job is
Filesystem           1K-blocks      Used Available Use% Mounted on
/dev/sda1             16126920   9109384   6198336  60% /
GAMESS temporary binary files will be written to /scratch
GAMESS supplementary output files will be written to /home/sarom/restart
Copying input file aldet-ch3sih2-vci.inp to your run's scratch directory...
cp /home/sarom/dir.git.branch.saromleang-travis-ci/tests/ci/parallel/aldet-ch3sih2-vci.inp /scratch/aldet-ch3sih2-vci.F05
unset echo
The generated host list is
compute-1-1.local
/home/sarom/dir.git.branch.saromleang-travis-ci/ddikick.x /home/sarom/dir.git.branch.saromleang-travis-ci/gamess.00.x aldet-ch3sih2-vci -ddi 1 1 compute-1-1.local -scr /scratch

 Distributed Data Interface kickoff program.
 Initiating 1 compute processes on 1 nodes to run the following command:
 /home/sarom/dir.git.branch.saromleang-travis-ci/gamess.00.x aldet-ch3sih2-vci 

          ******************************************************
          *         GAMESS VERSION = 20 APR 2017 (R1)          *
          *             FROM IOWA STATE UNIVERSITY             *
          * M.W.SCHMIDT, K.K.BALDRIDGE, J.A.BOATZ, S.T.ELBERT, *
          *   M.S.GORDON, J.H.JENSEN, S.KOSEKI, N.MATSUNAGA,   *
          *          K.A.NGUYEN, S.J.SU, T.L.WINDUS,           *
          *       TOGETHER WITH M.DUPUIS, J.A.MONTGOMERY       *
          *         J.COMPUT.CHEM.  14, 1347-1363(1993)        *
          **************** 64 BIT LINUX VERSION ****************

  SINCE 1993, STUDENTS AND POSTDOCS WORKING AT IOWA STATE UNIVERSITY
  AND ALSO IN THEIR VARIOUS JOBS AFTER LEAVING ISU HAVE MADE IMPORTANT
  CONTRIBUTIONS TO THE CODE:
     IVANA ADAMOVIC, CHRISTINE AIKENS, YURI ALEXEEV, POOJA ARORA,
     ANDREY ASADCHEV, ROB BELL, PRADIPTA BANDYOPADHYAY, JONATHAN BENTZ,
     BRETT BODE, KURT BRORSEN, CALEB CARLIN, GALINA CHABAN, WEI CHEN,
     CHEOL HO CHOI, PAUL DAY, ALBERT DEFUSCO, NUWAN DESILVA, TIM DUDLEY,
     DMITRI FEDOROV, GRAHAM FLETCHER, MARK FREITAG, KURT GLAESEMANN,
     DAN KEMP, GRANT MERRILL, NORIYUKI MINEZAWA, JONATHAN MULLIN,
     TAKESHI NAGATA, SEAN NEDD, HEATHER NETZLOFF, BOSILJKA NJEGIC, RYAN OLSON,
     MIKE PAK, SPENCER PRUITT, LUKE ROSKOP, JIM SHOEMAKER, LYUDMILA SLIPCHENKO,
     TONY SMITH, SAROM SOK LEANG, JIE SONG, TETSUYA TAKETSUGU, SIMON WEBB,
     PENG XU, SOOHAENG YOO, FEDERICO ZAHARIEV

  ADDITIONAL CODE HAS BEEN PROVIDED BY COLLABORATORS IN OTHER GROUPS:
     IOWA STATE UNIVERSITY:
          JOE IVANIC, AARON WEST, LAIMUTIS BYTAUTAS, KLAUS RUEDENBERG
     UNIVERSITY OF TOKYO: KIMIHIKO HIRAO, TAKAHITO NAKAJIMA,
          TAKAO TSUNEDA, MUNEAKI KAMIYA, SUSUMU YANAGISAWA,
          KIYOSHI YAGI, MAHITO CHIBA, SEIKEN TOKURA, NAOAKI KAWAKAMI
     UNIVERSITY OF AARHUS: FRANK JENSEN
     UNIVERSITY OF IOWA: VISVALDAS KAIRYS, HUI LI
     NATIONAL INST. OF STANDARDS AND TECHNOLOGY: WALT STEVENS, DAVID GARMER
     UNIVERSITY OF PISA: BENEDETTA MENNUCCI, JACOPO TOMASI
     UNIVERSITY OF MEMPHIS: HENRY KURTZ, PRAKASHAN KORAMBATH
     UNIVERSITY OF ALBERTA: TOBY ZENG, MARIUSZ KLOBUKOWSKI
     UNIVERSITY OF NEW ENGLAND: MARK SPACKMAN
     MIE UNIVERSITY: HIROAKI UMEDA
     NAT. INST. OF ADVANCED INDUSTRIAL SCIENCE AND TECHNOLOGY: KAZUO KITAURA
     MICHIGAN STATE UNIVERSITY:
          KAROL KOWALSKI, MARTA WLOCH, JEFFREY GOUR, JESSE LUTZ,
          WEI LI, PIOTR PIECUCH
     UNIVERSITY OF SILESIA: MONIKA MUSIAL, STANISLAW KUCHARSKI
     FACULTES UNIVERSITAIRES NOTRE-DAME DE LA PAIX:
          OLIVIER QUINET, BENOIT CHAMPAGNE
     UNIVERSITY OF CALIFORNIA - SANTA BARBARA: BERNARD KIRTMAN
     INSTITUTE FOR MOLECULAR SCIENCE:
          KAZUYA ISHIMURA, MICHIO KATOUDA, AND SHIGERU NAGASE
     UNIVERSITY OF NOTRE DAME: ANNA POMOGAEVA, DAN CHIPMAN
     KYUSHU UNIVERSITY:
          HARUYUKI NAKANO,
          FENG LONG GU, JACEK KORCHOWIEC, MARCIN MAKOWSKI, AND YURIKO AOKI,
          HIROTOSHI MORI AND EISAKU MIYOSHI
     PENNSYLVANIA STATE UNIVERSITY:
          TZVETELIN IORDANOV, CHET SWALINA, JONATHAN SKONE,
          SHARON HAMMES-SCHIFFER
     WASEDA UNIVERSITY:
          MASATO KOBAYASHI, TOMOKO AKAMA, TSUGUKI TOUMA,
          TAKESHI YOSHIKAWA, YASUHIRO IKABATA, JUNJI SEINO,
          YUYA NAKAJIMA, HIROMI NAKAI
     NANJING UNIVERSITY: SHUHUA LI
     UNIVERSITY OF NEBRASKA:
          PEIFENG SU, DEJUN SI, NANDUN THELLAMUREGE, YALI WANG, HUI LI
     UNIVERSITY OF ZURICH: ROBERTO PEVERATI, KIM BALDRIDGE
     N. COPERNICUS UNIVERSITY AND JACKSON STATE UNIVERSITY:
          MARIA BARYSZ
     UNIVERSITY OF COPENHAGEN: Jimmy Kromann, CASPER STEINMANN
     TOKYO INSTITUTE OF TECHNOLOGY: HIROYA NAKATA
     NAGOYA UNIVERSITY: YOSHIO NISHIMOTO, STEPHAN IRLE
     MOSCOW STATE UNIVERSITY: VLADIMIR MIRONOV

 EXECUTION OF GAMESS BEGUN Wed Aug  9 22:27:26 2017

            ECHO OF THE FIRST FEW INPUT CARDS -
 INPUT CARD>!   H3C-SiH2 full valence CI, doublet state...1,472,976 determinants            
 INPUT CARD>!   the valence orbital space used is ROHF occupied plus VVOs.                  
 INPUT CARD>!                                                                               
 INPUT CARD>!   E(ROHF) = -329.6500679178 (not computed in this run)                        
 INPUT CARD>!   E(FCI)  = -329.7480150284                                                   
 INPUT CARD>!                                                                               
 INPUT CARD>!   this run takes 176 seconds on 2.66 GHz Cloverton (13 Apr 2015)              
 INPUT CARD>!                                                                               
 INPUT CARD> $contrl mult=2 scftyp=none cityp=aldet runtyp=energy $end                      
 INPUT CARD> $system mwords=33 $end                                                         
 INPUT CARD> $basis  gbasis=n31 ngauss=6 ndfunc=1 $end                                      
 INPUT CARD> $guess  guess=moread norb=19 $end                                              
 INPUT CARD> $cidet  group=Cs stsym=Ap ncore=6 nact=13 nels=13 $end                         
 INPUT CARD> $data                                                                          
 INPUT CARD>methysilyl radical...full valence space CI...ROHF/6-31G(d) geometry             
 INPUT CARD>Cs                                                                              
 INPUT CARD>                                                                                
 INPUT CARD>H           1.0  -1.6220655135  -0.7931202033   1.2094292862                    
 INPUT CARD>SI         14.0  -1.1181646596  -0.0927907231   0.0000000000                    
 INPUT CARD>C           6.0   0.7760109675   0.0060356575   0.0000000000                    
 INPUT CARD>H           1.0   1.1367387057   0.5321088078   0.8778933731                    
 INPUT CARD>H           1.0   1.2148451837  -0.9879873139   0.0000000000                    
 INPUT CARD> $end                                                                           
 INPUT CARD>                                                                                
 INPUT CARD>xxx $contrl scftyp=rohf cityp=none $end                                         
 INPUT CARD>xxx $scf    vvos=.true. $end                                                    
 INPUT CARD>--- OPEN SHELL ORBITALS --- GENERATED AT Mon Apr 13 13:50:51 2015               
 INPUT CARD>E(ROHF)=     -329.6500679178...includes VVOs made by input just above.          
 INPUT CARD> $VEC                                                                           
 INPUT CARD> 1  1-4.41184014E-05 1.95613051E-04-4.41184014E-05 1.95613051E-04 9.96871735E-01
 INPUT CARD> 1  2 1.24243982E-02 1.11280066E-05-6.24287960E-06 0.00000000E+00-1.68869254E-02
 INPUT CARD> 1  3-9.59254783E-05 1.58776530E-05 0.00000000E+00 1.77514435E-03 6.17953304E-05
 INPUT CARD> 1  4 1.03379436E-04 0.00000000E+00 5.92480592E-03 5.94042332E-03 5.90479363E-03
 INPUT CARD> 1  5-1.05445330E-05 0.00000000E+00 0.00000000E+00-1.23038404E-05 3.30294494E-05
 INPUT CARD> 1  6 6.97934616E-05 7.51692075E-06 0.00000000E+00 6.69426421E-04-9.12776991E-05
 INPUT CARD> 1  7-2.46160664E-05 0.00000000E+00-2.11509637E-04-2.27299264E-05-2.61398771E-05
 INPUT CARD> 1  8-1.08991732E-05 0.00000000E+00 0.00000000E+00-6.91741928E-06-2.02419026E-04
 INPUT CARD> 1  9-6.91741928E-06-2.02419026E-04-2.02367795E-05-1.75864120E-04               
 INPUT CARD> 2  1-4.83959994E-05-2.09677968E-04-4.83959994E-05-2.09677968E-04 1.97650067E-05
 INPUT CARD> 2  2 3.11648192E-05-5.03724019E-05-4.05410635E-06 0.00000000E+00 9.32061883E-04
 INPUT CARD> 2  3 8.90620787E-04 2.47012589E-05 0.00000000E+00 1.12714730E-03 4.55868840E-04
 INPUT CARD> 2  4-8.84342929E-05 0.00000000E+00 5.26982731E-06-7.34440247E-05-8.80360368E-06
 INPUT CARD> 2  5 2.81789754E-05 0.00000000E+00 0.00000000E+00 9.95670964E-01 2.82704639E-02
 INPUT CARD> 2  6 1.39968601E-04 1.53790642E-05 0.00000000E+00-1.25447226E-02-1.82013540E-04
 INPUT CARD> 2  7 2.28047588E-05 0.00000000E+00-2.14393635E-03-1.94418268E-03-1.93430020E-03
 INPUT CARD> 2  8-6.20737177E-06 0.00000000E+00 0.00000000E+00 1.94098979E-05 2.27793594E-03
 INPUT CARD> 2  9 1.94098979E-05 2.27793594E-03 2.94176255E-05 2.24092935E-03               
 INPUT CARD> 3  1 2.92479198E-04-1.20680362E-04 2.92479198E-04-1.20680362E-04-2.68220859E-01
 INPUT CARD> 3  2 1.03070939E+00 1.50433138E-03-4.10187917E-03 0.00000000E+00 6.53265455E-03
 INPUT CARD> 3  3 3.65872164E-04-2.38413592E-04 0.00000000E+00-2.18018772E-03-1.56517360E-04
   33000000 WORDS OF MEMORY AVAILABLE

     BASIS OPTIONS
     -------------
     GBASIS=N31          IGAUSS=       6      POLAR=POPN31  
     NDFUNC=       1     NFFUNC=       0     DIFFSP=       F
     NPFUNC=       0      DIFFS=       F     BASNAM=        


     RUN TITLE
     ---------
 methysilyl radical...full valence space CI...ROHF/6-31G(d) geometry             

 THE POINT GROUP OF THE MOLECULE IS CS      
 THE ORDER OF THE PRINCIPAL AXIS IS     0

 ATOM      ATOMIC                      COORDINATES (BOHR)
           CHARGE         X                   Y                   Z
 H           1.0    -3.0652593546       -1.4987798596       -2.2854899524
 H           1.0    -3.0652593546       -1.4987798596        2.2854899524
 SI         14.0    -2.1130248158       -0.1753490409        0.0000000000
 C           6.0     1.4664480920        0.0114057388        0.0000000000
 H           1.0     2.1481246734        1.0055398424       -1.6589779216
 H           1.0     2.1481246734        1.0055398424        1.6589779216
 H           1.0     2.2957245147       -1.8670253026        0.0000000000

          INTERNUCLEAR DISTANCES (ANGS.)
          ------------------------------

                1 H          2 H          3 SI         4 C          5 H     

   1 H       0.0000000    2.4188586 *  1.4856301 *  2.8021670 *  3.0784978  
   2 H       2.4188586 *  0.0000000    1.4856301 *  2.8021670 *  3.7046118  
   3 SI      1.4856301 *  1.4856301 *  0.0000000    1.8967519 *  2.4991569 *
   4 C       2.8021670 *  2.8021670 *  1.8967519 *  0.0000000    1.0851609 *
   5 H       3.0784978    3.7046118    2.4991569 *  1.0851609 *  0.0000000  
   6 H       3.7046118    3.0784978    2.4991569 *  1.0851609 *  1.7557867 *
   7 H       3.0901059    3.0901059    2.4988621 *  1.0865805 *  1.7571254 *

                6 H          7 H     

   1 H       3.7046118    3.0901059  
   2 H       3.0784978    3.0901059  
   3 SI      2.4991569 *  2.4988621 *
   4 C       1.0851609 *  1.0865805 *
   5 H       1.7557867 *  1.7571254 *
   6 H       0.0000000    1.7571254 *
   7 H       1.7571254 *  0.0000000  

  * ... LESS THAN  3.000


     ATOMIC BASIS SET
     ----------------
 THE CONTRACTED PRIMITIVE FUNCTIONS HAVE BEEN UNNORMALIZED
 THE CONTRACTED BASIS FUNCTIONS ARE NOW NORMALIZED TO UNITY

  SHELL TYPE  PRIMITIVE        EXPONENT          CONTRACTION COEFFICIENT(S)

 H         

      3   S       1            18.7311370    0.033494604338
      3   S       2             2.8253944    0.234726953484
      3   S       3             0.6401217    0.813757326146

      4   S       4             0.1612778    1.000000000000

 SI        

      5   S       5         16192.1000000    0.001949239405
      5   S       6          2436.0900000    0.014855895466
      5   S       7           556.0010000    0.072568877851
      5   S       8           156.8130000    0.245654925022
      5   S       9            50.1692000    0.486059851646
      5   S      10            17.0300000    0.325719900585

      6   L      11           293.3500000   -0.002829912441    0.004433341604
      6   L      12            70.1173000   -0.036073731114    0.032440211739
      6   L      13            22.4301000   -0.116808100749    0.133719048387
      6   L      14             8.1942500    0.093576880711    0.326780118247
      6   L      15             3.1476800    0.601705518979    0.451139163247
      6   L      16             1.2151500    0.422072364043    0.264105095568

      7   L      17             1.6537000   -0.240599186106   -0.015177406538
      7   L      18             0.5407600    0.073795050368    0.275139118516
      7   L      19             0.2044060    1.040936478740    0.783008337279

      8   L      20             0.0723837    1.000000000000    1.000000000000

      9   D      21             0.3950000    1.000000000000

 C         

     10   S      22          3047.5248800    0.001834737132
     10   S      23           457.3695180    0.014037322813
     10   S      24           103.9486850    0.068842622264
     10   S      25            29.2101553    0.232184443216
     10   S      26             9.2866630    0.467941348435
     10   S      27             3.1639270    0.362311985337

     11   L      28             7.8682723   -0.119332419775    0.068999066591
     11   L      29             1.8812885   -0.160854151696    0.316423960957
     11   L      30             0.5442493    1.143456437840    0.744308290898

     12   L      31             0.1687145    1.000000000000    1.000000000000

     13   D      32             0.8000000    1.000000000000

 H         

     16   S      33            18.7311370    0.033494604338
     16   S      34             2.8253944    0.234726953484
     16   S      35             0.6401217    0.813757326146

     17   S      36             0.1612778    1.000000000000

 H         

     18   S      37            18.7311370    0.033494604338
     18   S      38             2.8253944    0.234726953484
     18   S      39             0.6401217    0.813757326146

     19   S      40             0.1612778    1.000000000000

 TOTAL NUMBER OF BASIS SET SHELLS             =   19
 NUMBER OF CARTESIAN GAUSSIAN BASIS FUNCTIONS =   44
 NUMBER OF ELECTRONS                          =   25
 CHARGE OF MOLECULE                           =    0
 SPIN MULTIPLICITY                            =    2
 NUMBER OF OCCUPIED ORBITALS (ALPHA)          =   13
 NUMBER OF OCCUPIED ORBITALS (BETA )          =   12
 TOTAL NUMBER OF ATOMS                        =    7
 THE NUCLEAR REPULSION ENERGY IS       55.4367729428

     $CONTRL OPTIONS
     ---------------
 SCFTYP=NONE         RUNTYP=ENERGY       EXETYP=RUN     
 MPLEVL=       0     CITYP =ALDET        CCTYP =NONE         VBTYP =NONE    
 DFTTYP=NONE         TDDFT =NONE    
 MULT  =       2     ICHARG=       0     NZVAR =       0     COORD =UNIQUE  
 PP    =NONE         RELWFN=NONE         LOCAL =NONE         NUMGRD=       F
 ISPHER=      -1     NOSYM =       0     MAXIT =      30     UNITS =ANGS    
 PLTORB=       F     MOLPLT=       F     AIMPAC=       F     FRIEND=        
 NPRINT=       7     IREST =       0     GEOM  =INPUT   
 NORMF =       0     NORMP =       0     ITOL  =      20     ICUT  =       9
 INTTYP=BEST         GRDTYP=BEST         QMTTOL= 1.0E-06

     $SYSTEM OPTIONS
     ---------------
  REPLICATED MEMORY=    33000000 WORDS (ON EVERY NODE).
 DISTRIBUTED MEMDDI=           0 MILLION WORDS IN AGGREGATE,
 MEMDDI DISTRIBUTED OVER   1 PROCESSORS IS           0 WORDS/PROCESSOR.
 TOTAL MEMORY REQUESTED ON EACH PROCESSOR=    33000000 WORDS.
 TIMLIM=      525600.00 MINUTES, OR     365.0 DAYS.
 PARALL= F  BALTYP=  DLB     KDIAG=    0  COREFL= F
 MXSEQ2=     300 MXSEQ3=     150  mem10=         0

          ----------------
          PROPERTIES INPUT
          ----------------

     MOMENTS            FIELD           POTENTIAL          DENSITY
 IEMOM =       1   IEFLD =       0   IEPOT =       0   IEDEN =       0
 WHERE =COMASS     WHERE =NUCLEI     WHERE =NUCLEI     WHERE =NUCLEI  
 OUTPUT=BOTH       OUTPUT=BOTH       OUTPUT=BOTH       OUTPUT=BOTH    
 IEMINT=       0   IEFINT=       0                     IEDINT=       0
                                                       MORB  =       0
          EXTRAPOLATION IN EFFECT
          SOSCF IN EFFECT
 ORBITAL PRINTING OPTION: NPREO=     1    44     2     1

     -------------------------------
     INTEGRAL TRANSFORMATION OPTIONS
     -------------------------------
     NWORD  =            0
     CUTOFF = 1.0E-09     MPTRAN =       0
     DIRTRF =       F     AOINTS =DUP     

          ----------------------
          INTEGRAL INPUT OPTIONS
          ----------------------
 NOPK  =       1 NORDER=       0 SCHWRZ=       T

     ------------------------------------------
     THE POINT GROUP IS CS , NAXIS= 0, ORDER= 2
     ------------------------------------------

     DIMENSIONS OF THE SYMMETRY SUBSPACES ARE
 A'  =   31     A'' =   13

 ..... DONE SETTING UP THE RUN .....
 STEP CPU TIME =     0.02 TOTAL CPU TIME =        0.0 (    0.0 MIN)
 TOTAL WALL CLOCK TIME=        0.0 SECONDS, CPU UTILIZATION IS  66.67%

          ********************
          1 ELECTRON INTEGRALS
          ********************
 ...... END OF ONE-ELECTRON INTEGRALS ......
 STEP CPU TIME =     0.00 TOTAL CPU TIME =        0.0 (    0.0 MIN)
 TOTAL WALL CLOCK TIME=        0.0 SECONDS, CPU UTILIZATION IS  66.67%

          -------------
          GUESS OPTIONS
          -------------
          GUESS =MOREAD            NORB  =      19          NORDER=       0
          MIX   =       F          PRTMO =       F          PUNMO =       F
          TOLZ  = 1.0E-08          TOLE  = 1.0E-05
          SYMDEN=       F          PURIFY=       F

 INITIAL GUESS ORBITALS GENERATED BY MOREAD   ROUTINE.

 SYMMETRIES FOR INITIAL GUESS ORBITALS FOLLOW.   BOTH SET(S).
    13 ORBITALS ARE OCCUPIED (    6 CORE ORBITALS).
     1=A'       2=A'       3=A'       4=A''      5=A'       6=A'       7=A'  
     8=A'       9=A''     10=A'      11=A''     12=A'      13=A'      14=A'  
    15=A''     16=A'      17=A'      18=A'      19=A''     20=A'      21=A'  
    22=A'      23=A'      24=A'      25=A'      26=A'      27=A'      28=A'  
    29=A'      30=A'      31=A'      32=A'      33=A'      34=A'      35=A'  
    36=A'      37=A''     38=A''     39=A''     40=A''     41=A''     42=A'' 
    43=A''     44=A'' 
 ...... END OF INITIAL ORBITAL SELECTION ......
 STEP CPU TIME =     0.00 TOTAL CPU TIME =        0.0 (    0.0 MIN)
 TOTAL WALL CLOCK TIME=        0.0 SECONDS, CPU UTILIZATION IS  66.67%

                    ----------------------
                    AO INTEGRAL TECHNOLOGY
                    ----------------------
     S,P,L SHELL ROTATED AXIS INTEGRALS, REPROGRAMMED BY
        KAZUYA ISHIMURA (IMS) AND JOSE SIERRA (SYNSTAR).
     S,P,D,L SHELL ROTATED AXIS INTEGRALS PROGRAMMED BY
        KAZUYA ISHIMURA (INSTITUTE FOR MOLECULAR SCIENCE).
     S,P,D,F,G SHELL TO TOTAL QUARTET ANGULAR MOMENTUM SUM 5,
        ERIC PROGRAM BY GRAHAM FLETCHER (ELORET AND NASA ADVANCED
        SUPERCOMPUTING DIVISION, AMES RESEARCH CENTER).
     S,P,D,F,G,L SHELL GENERAL RYS QUADRATURE PROGRAMMED BY
        MICHEL DUPUIS (PACIFIC NORTHWEST NATIONAL LABORATORY).

          --------------------
          2 ELECTRON INTEGRALS
          --------------------

 THE -PK- OPTION IS OFF, THE INTEGRALS ARE NOT IN SUPERMATRIX FORM.
 STORING   15000 INTEGRALS/RECORD ON DISK, USING 12 BYTES/INTEGRAL.
 TWO ELECTRON INTEGRAL EVALUATION REQUIRES   90586 WORDS OF MEMORY.
 SCHWARZ INEQUALITY OVERHEAD:       990 INTEGRALS, T=        0.00
 II,JST,KST,LST =  1  1  1  1 NREC =         1 INTLOC =    1
 II,JST,KST,LST =  2  1  1  1 NREC =         1 INTLOC =    1
 II,JST,KST,LST =  3  1  1  1 NREC =         1 INTLOC =    1
 II,JST,KST,LST =  4  1  1  1 NREC =         1 INTLOC =    5
 II,JST,KST,LST =  5  1  1  1 NREC =         1 INTLOC =   32
 II,JST,KST,LST =  6  1  1  1 NREC =         1 INTLOC =   67
 II,JST,KST,LST =  7  1  1  1 NREC =         1 INTLOC =  519
 II,JST,KST,LST =  8  1  1  1 NREC =         1 INTLOC = 1843
 II,JST,KST,LST =  9  1  1  1 NREC =         1 INTLOC = 4657
 II,JST,KST,LST = 10  1  1  1 NREC =         1 INTLOC =13043
 II,JST,KST,LST = 11  1  1  1 NREC =         2 INTLOC = 1361
 II,JST,KST,LST = 12  1  1  1 NREC =         3 INTLOC = 5795
 II,JST,KST,LST = 13  1  1  1 NREC =         5 INTLOC = 5266
 II,JST,KST,LST = 14  1  1  1 NREC =         9 INTLOC =12040
 II,JST,KST,LST = 15  1  1  1 NREC =         9 INTLOC =12040
 II,JST,KST,LST = 16  1  1  1 NREC =         9 INTLOC =12040
 II,JST,KST,LST = 17  1  1  1 NREC =        11 INTLOC =12110
 II,JST,KST,LST = 18  1  1  1 NREC =        14 INTLOC = 2903
 II,JST,KST,LST = 19  1  1  1 NREC =        15 INTLOC = 8706
 SCHWARZ INEQUALITY TEST SKIPPED         246 INTEGRAL BLOCKS.
 TOTAL NUMBER OF NONZERO TWO-ELECTRON INTEGRALS =              241511
         17 INTEGRAL RECORDS WERE STORED ON DISK FILE  8.
  ...... END OF TWO-ELECTRON INTEGRALS .....
 STEP CPU TIME =     0.05 TOTAL CPU TIME =        0.1 (    0.0 MIN)
 TOTAL WALL CLOCK TIME=        0.1 SECONDS, CPU UTILIZATION IS  87.50%

 DETERMINANT CI OPTIONS   NRNFG   NPFLG
 INTEGRAL TRANSFORMATION    1       0
 DIAGONALIZE HAMILTONIAN    1       0
 FORM 1E- DENSITY MATRIX    1       0
 FORM 2E- DENSITY MATRIX    0       0

     --------------------------------------------------
          AMES LABORATORY DETERMINANTAL FULL CI
     PROGRAM WRITTEN BY JOE IVANIC AND KLAUS RUEDENBERG
     --------------------------------------------------

 THE POINT GROUP                  =   CS      
 THE STATE SYMMETRY               =   A'      
 NUMBER OF CORE ORBITALS          =    6
 NUMBER OF ACTIVE ORBITALS        =   13
 NUMBER OF ALPHA ELECTRONS        =   13 (   7 ACTIVE)
 NUMBER OF BETA ELECTRONS         =   12 (   6 ACTIVE)
 NUMBER OF OCCUPIED ORBITALS      =   19
 NUMBER OF CI STATES REQUESTED    =    1
 NUMBER OF CI STARTING VECTORS    =    1
 MAX. NO. OF CI EXPANSION VECTORS =   10
 SIZE OF INITIAL CI GUESS MATRIX  =  300
 MAX. NO. OF CI ITERS/STATE       =  100
 CI DIAGONALIZATION CRITERION     = 1.00E-06
 CI PROPERTIES WILL BE FOUND FOR ROOT NUMBER   1
 1E- DENSITY MATRIX OPTIONS ARE 1

 CORRELATION ENERGY ANALYSIS      =    F

 SYMMETRIES FOR THE   6 CORE,  13 ACTIVE ARE

     CORE= A'    A'    A'    A''   A'    A'  

   ACTIVE= A'    A'    A''   A'    A''   A'    A'    A'    A''   A'  
           A'    A'    A'' 

     --------------------------------------------
     PARTIAL TWO ELECTRON INTEGRAL TRANSFORMATION
     --------------------------------------------

 NUMBER OF CORE MOLECULAR ORBITALS     =    6
 NUMBER OF OCCUPIED MOLECULAR ORBITALS =   19
 TOTAL NUMBER OF MOLECULAR ORBITALS    =   19
 TOTAL NUMBER OF ATOMIC ORBITALS       =   44
 THRESHOLD FOR KEEPING TRANSFORMED 2E- INTEGRALS = 1.000E-09
 AO INTEGRALS WILL BE READ IN FROM DISK...
 EVALUATING THE FROZEN CORE ENERGY...
 ----- FROZEN CORE ENERGY =      -353.6367692172

 PLAN A: REQUIREMENTS FOR FULLY IN-MEMORY TRANSFORMATION:
 # OF WORDS AVAILABLE =             33000000
 # OF WORDS NEEDED    =               636050

 CHOOSING IN MEMORY PARTIAL TRANSFORMATION...
 TOTAL NUMBER OF TRANSFORMED 2E- INTEGRALS KEPT =         2206
 ... END OF INTEGRAL TRANSFORMATION ...
 STEP CPU TIME =     0.02 TOTAL CPU TIME =        0.1 (    0.0 MIN)
 TOTAL WALL CLOCK TIME=        0.1 SECONDS, CPU UTILIZATION IS  90.00%

     --------------------------------------------------
          AMES LABORATORY DETERMINANTAL FULL CI
     PROGRAM WRITTEN BY JOE IVANIC AND KLAUS RUEDENBERG
     --------------------------------------------------

 THE NUMBER OF DETERMINANTS HAVING SPACE SYMMETRY A' 
 IN POINT GROUP CS   WITH SZ=  0.5 IS        1472976
 THE DETERMINANT FULL CI REQUIRES        31201173 WORDS
 INITIAL CI VECTOR GUESS TIME  :          0.3
 INITIAL FULL CI ITERATION TIME:          7.2

 ITERATION      ENERGY           GRADIENT
     0     -329.6683459126     0.36449762
     1     -329.7417014306     0.12279379
     2     -329.7475101351     0.03711617
     3     -329.7479709462     0.01113547
     4     -329.7480099718     0.00375697
     5     -329.7480144580     0.00123924
     6     -329.7480149475     0.00046611
     7     -329.7480150169     0.00017159
     8     -329.7480150268     0.00006630
     9     -329.7480150282     0.00002443
    10     -329.7480150283     0.00000977
    11     -329.7480150283     0.00000432
    12     -329.7480150284     0.00000168
    13     -329.7480150284     0.00000066

 CONVERGED STATE    1 ENERGY=     -329.7480150284 IN   13 ITERS

 ALL STATES CONVERGED.

 CI EIGENVECTORS WILL BE LABELED IN GROUP=CS      
 PRINTING CI COEFFICIENTS LARGER THAN 5.000E-02

 STATE   1  ENERGY=      -329.7480150284  S=  0.50  SZ=  0.50  SPACE SYM=A'  

    ALPHA      |    BETA       | CI COEFFICIENT
---------------|---------------|---------------
 1111111000000 | 1111110000000 |   0.9663920735
 1110111000010 | 1110110000010 |   0.0650525198
 1101111000001 | 1101110000001 |   0.0586716042
 1111011001000 | 1111010001000 |   0.0518396204
 1111011010000 | 1111010010000 |   0.0516498733
 ..... DONE WITH DETERMINANT CI COMPUTATION .....
 STEP CPU TIME =    84.28 TOTAL CPU TIME =       84.4 (    1.4 MIN)
 TOTAL WALL CLOCK TIME=       84.4 SECONDS, CPU UTILIZATION IS  99.94%

     ---------------------------
     ONE PARTICLE DENSITY MATRIX
     ---------------------------

 DENSITY MATRIX WILL BE SAVED FOR   1-TH STATE WITH S= 0.50

 CI EIGENSTATE   1 TOTAL ENERGY =     -329.7480150284

          NATURAL ORBITALS IN ATOMIC ORBITAL BASIS
          ----------------------------------------

                      1          2          3          4          5
                    2.0000     2.0000     2.0000     2.0000     2.0000
                     A'         A'         A'         A''        A'  
    1  H  1  S   -0.000044  -0.000048   0.000292  -0.000687  -0.000458
    2  H  1  S    0.000196  -0.000210  -0.000121   0.001020   0.000657
    3  H  2  S   -0.000044  -0.000048   0.000292   0.000687  -0.000458
    4  H  2  S    0.000196  -0.000210  -0.000121  -0.001020   0.000657
    5  SI 3  S    0.996872   0.000020  -0.268221   0.000000  -0.000030
    6  SI 3  S    0.012424   0.000031   1.030709   0.000000   0.000221
    7  SI 3  X    0.000011  -0.000050   0.001504   0.000000   0.916452
    8  SI 3  Y   -0.000006  -0.000004  -0.004102   0.000000   0.387274
    9  SI 3  Z    0.000000   0.000000   0.000000   0.994986   0.000000
   10  SI 3  S   -0.016887   0.000932   0.006533   0.000000   0.000663
   11  SI 3  X   -0.000096   0.000891   0.000366   0.000000   0.018319
   12  SI 3  Y    0.000016   0.000025  -0.000238   0.000000   0.007517
   13  SI 3  Z    0.000000   0.000000   0.000000   0.019190   0.000000
   14  SI 3  S    0.001775   0.001127  -0.002180   0.000000  -0.000538
   15  SI 3  X    0.000062   0.000456  -0.000157   0.000000  -0.004199
   16  SI 3  Y    0.000103  -0.000088  -0.000102   0.000000  -0.001459
   17  SI 3  Z    0.000000   0.000000   0.000000  -0.003676   0.000000
   18  SI 3 XX    0.005925   0.000005   0.001760   0.000000   0.000846
   19  SI 3 YY    0.005940  -0.000073   0.001691   0.000000  -0.000044
   20  SI 3 ZZ    0.005905  -0.000009   0.001782   0.000000  -0.000567
   21  SI 3 XY   -0.000011   0.000028   0.000040   0.000000   0.000045
   22  SI 3 XZ    0.000000   0.000000   0.000000  -0.000292   0.000000
   23  SI 3 YZ    0.000000   0.000000   0.000000  -0.000610   0.000000
   24  C  4  S   -0.000012   0.995671  -0.000092   0.000000  -0.000370
   25  C  4  S    0.000033   0.028270   0.000206   0.000000   0.000517
   26  C  4  X    0.000070   0.000140  -0.000262   0.000000  -0.000839
   27  C  4  Y    0.000008   0.000015  -0.000017   0.000000   0.000020
   28  C  4  Z    0.000000   0.000000   0.000000   0.000237   0.000000
   29  C  4  S    0.000669  -0.012545  -0.001349   0.000000  -0.004370
   30  C  4  X   -0.000091  -0.000182   0.000098   0.000000   0.000821
   31  C  4  Y   -0.000025   0.000023   0.000064   0.000000  -0.000520
   32  C  4  Z    0.000000   0.000000   0.000000  -0.001627   0.000000
   33  C  4 XX   -0.000212  -0.002144   0.000391   0.000000   0.001188
   34  C  4 YY   -0.000023  -0.001944   0.000057   0.000000   0.000040
   35  C  4 ZZ   -0.000026  -0.001934   0.000060   0.000000  -0.000027
   36  C  4 XY   -0.000011  -0.000006   0.000020   0.000000   0.000080
   37  C  4 XZ    0.000000   0.000000   0.000000   0.000042   0.000000
   38  C  4 YZ    0.000000   0.000000   0.000000  -0.000096   0.000000
   39  H  5  S   -0.000007   0.000019   0.000078  -0.000118   0.000252
   40  H  5  S   -0.000202   0.002278   0.000416  -0.001115   0.001521
   41  H  6  S   -0.000007   0.000019   0.000078   0.000118   0.000252
   42  H  6  S   -0.000202   0.002278   0.000416   0.001115   0.001521
   43  H  7  S   -0.000020   0.000029   0.000080   0.000000   0.000198
   44  H  7  S   -0.000176   0.002241   0.000416   0.000000   0.000879

                      6          7          8          9         10
                    2.0000     1.9866     1.9827     1.9769     1.9761
                     A'         A'         A'         A''        A'  
    1  H  1  S   -0.000428   0.118849   0.114935  -0.132124  -0.003993
    2  H  1  S    0.000586   0.101506   0.105163  -0.149203   0.001179
    3  H  2  S   -0.000428   0.118849   0.114935   0.132124  -0.003993
    4  H  2  S    0.000586   0.101506   0.105163   0.149203   0.001179
    5  SI 3  S   -0.001234   0.042346   0.029377  -0.000000   0.003509
    6  SI 3  S    0.004770  -0.207370  -0.143385  -0.000000  -0.017017
    7  SI 3  X   -0.387286  -0.019418   0.034068  -0.000000  -0.009010
    8  SI 3  Y    0.916598   0.032878   0.037193  -0.000000  -0.025888
    9  SI 3  Z    0.000000  -0.000000   0.000000  -0.108442   0.000000
   10  SI 3  S    0.000096   0.409686   0.302209  -0.000000   0.037635
   11  SI 3  X   -0.007628   0.033426  -0.076265  -0.000000   0.023574
   12  SI 3  Y    0.017357  -0.081080  -0.091766  -0.000000   0.055978
   13  SI 3  Z    0.000000  -0.000000   0.000000   0.269582   0.000000
   14  SI 3  S   -0.001317   0.076048   0.074568  -0.000000   0.002114
   15  SI 3  X    0.001866  -0.004088   0.003630  -0.000000   0.002518
   16  SI 3  Y   -0.004022  -0.007842  -0.008121  -0.000000   0.009693
   17  SI 3  Z    0.000000  -0.000000   0.000000   0.039664   0.000000
   18  SI 3 XX   -0.000606   0.023850  -0.019343  -0.000000   0.004431
   19  SI 3 YY   -0.000010  -0.011203   0.002866  -0.000000  -0.001732
   20  SI 3 ZZ   -0.000564   0.023752   0.039678  -0.000000  -0.001998
   21  SI 3 XY   -0.000044   0.017041   0.013531  -0.000000   0.020006
   22  SI 3 XZ    0.000000  -0.000000   0.000000  -0.018717   0.000000
   23  SI 3 YZ    0.000000  -0.000000   0.000000  -0.045564   0.000000
   24  C  4  S    0.000146  -0.130006   0.140047  -0.000000   0.001174
   25  C  4  S   -0.000313   0.235446  -0.259682  -0.000000  -0.002858
   26  C  4  X    0.000472  -0.066665  -0.153830  -0.000000  -0.061643
   27  C  4  Y    0.000237  -0.008351  -0.022490  -0.000000   0.425430
   28  C  4  Z    0.000000  -0.000000   0.000000   0.340616   0.000000
   29  C  4  S    0.001758   0.236693  -0.262463  -0.000000   0.001238
   30  C  4  X   -0.000505  -0.035754  -0.078009  -0.000000  -0.038544
   31  C  4  Y   -0.001349  -0.001388  -0.008461  -0.000000   0.237485
   32  C  4  Z    0.000000  -0.000000   0.000000   0.180592   0.000000
   33  C  4 XX   -0.000456   0.010265   0.008340  -0.000000  -0.000002
   34  C  4 YY    0.000042   0.006510  -0.012858  -0.000000  -0.024248
   35  C  4 ZZ   -0.000105   0.006365  -0.014153  -0.000000   0.023539
   36  C  4 XY    0.000007   0.000899   0.001348  -0.000000   0.021319
   37  C  4 XZ    0.000000  -0.000000   0.000000   0.012107   0.000000
   38  C  4 YZ    0.000000  -0.000000   0.000000   0.022472   0.000000
   39  H  5  S   -0.000056   0.074154  -0.135243  -0.179453   0.123467
   40  H  5  S    0.000328   0.012731  -0.057178  -0.137019   0.099099
   41  H  6  S   -0.000056   0.074154  -0.135243   0.179453   0.123467
   42  H  6  S    0.000328   0.012731  -0.057178   0.137019   0.099099
   43  H  7  S   -0.000197   0.075684  -0.124248  -0.000000  -0.277315
   44  H  7  S   -0.001587   0.012293  -0.050485  -0.000000  -0.219996

                     11         12         13         14         15
                    1.9740     1.9724     1.0007     0.0268     0.0228
                     A''        A'         A'         A'         A'' 
    1  H  1  S   -0.189829   0.112440  -0.063553  -0.331278   0.149046
    2  H  1  S   -0.243343   0.142069  -0.157286  -0.453454   0.217671
    3  H  2  S    0.189829   0.112440  -0.063553  -0.331278  -0.149046
    4  H  2  S    0.243343   0.142069  -0.157286  -0.453454  -0.217671
    5  SI 3  S   -0.000000  -0.006995   0.023924   0.053823  -0.000000
    6  SI 3  S   -0.000000   0.032920  -0.114968  -0.192932  -0.000000
    7  SI 3  X   -0.000000   0.148765   0.076988  -0.052899  -0.000000
    8  SI 3  Y   -0.000000   0.052301  -0.188602   0.103376  -0.000000
    9  SI 3  Z   -0.122964  -0.000000  -0.000000   0.000000  -0.076789
   10  SI 3  S   -0.000000  -0.085523   0.280993   1.015838  -0.000000
   11  SI 3  X   -0.000000  -0.376039  -0.224657   0.201159  -0.000000
   12  SI 3  Y   -0.000000  -0.135567   0.553300  -0.412005  -0.000000
   13  SI 3  Z    0.321461  -0.000000  -0.000000   0.000000   0.288601
   14  SI 3  S   -0.000000   0.007373   0.368280   0.280911  -0.000000
   15  SI 3  X   -0.000000  -0.035984  -0.104315   0.133146  -0.000000
   16  SI 3  Y   -0.000000  -0.021260   0.305827  -0.246928  -0.000000
   17  SI 3  Z    0.042412  -0.000000  -0.000000   0.000000   0.197060
   18  SI 3 XX   -0.000000  -0.081591  -0.011024   0.003953  -0.000000
   19  SI 3 YY   -0.000000   0.023445   0.063883   0.006420  -0.000000
   20  SI 3 ZZ   -0.000000   0.067043  -0.029370  -0.002987  -0.000000
   21  SI 3 XY   -0.000000   0.013629  -0.051400  -0.004314  -0.000000
   22  SI 3 XZ   -0.063166  -0.000000  -0.000000   0.000000   0.005575
   23  SI 3 YZ   -0.072069  -0.000000  -0.000000   0.000000   0.002561
   24  C  4  S   -0.000000   0.030615   0.019242   0.057388  -0.000000
   25  C  4  S   -0.000000  -0.052260  -0.031677  -0.223340  -0.000000
   26  C  4  X   -0.000000   0.388021   0.090056   0.412556  -0.000000
   27  C  4  Y   -0.000000   0.065313  -0.040503  -0.074242  -0.000000
   28  C  4  Z   -0.267359  -0.000000  -0.000000   0.000000   0.704105
   29  C  4  S   -0.000000  -0.114481  -0.098216  -0.228476  -0.000000
   30  C  4  X   -0.000000   0.257989   0.105145   0.273975  -0.000000
   31  C  4  Y   -0.000000   0.041000  -0.040289  -0.057869  -0.000000
   32  C  4  Z   -0.160755  -0.000000  -0.000000   0.000000   0.491788
   33  C  4 XX   -0.000000  -0.015381   0.000187  -0.001586  -0.000000
   34  C  4 YY   -0.000000   0.005434   0.005209   0.000263  -0.000000
   35  C  4 ZZ   -0.000000   0.011380  -0.004254   0.000619  -0.000000
   36  C  4 XY   -0.000000   0.002377  -0.012714   0.000267  -0.000000
   37  C  4 XZ   -0.015481  -0.000000  -0.000000   0.000000   0.000524
   38  C  4 YZ   -0.020217  -0.000000  -0.000000   0.000000  -0.000887
   39  H  5  S    0.151465   0.083249  -0.015721   0.041832   0.467110
   40  H  5  S    0.130889   0.083152  -0.042492   0.065985   0.615634
   41  H  6  S   -0.151465   0.083249  -0.015721   0.041832  -0.467110
   42  H  6  S   -0.130889   0.083152  -0.042492   0.065985  -0.615634
   43  H  7  S   -0.000000   0.036648   0.057100  -0.146133  -0.000000
   44  H  7  S   -0.000000   0.037880   0.109190  -0.189973  -0.000000

                     16         17         18         19
                    0.0222     0.0206     0.0192     0.0191
                     A'         A'         A''        A'  
    1  H  1  S   -0.010885   0.078160   0.381754   0.259737
    2  H  1  S   -0.005308   0.113330   0.532692   0.363436
    3  H  2  S   -0.010885   0.078160  -0.381754   0.259737
    4  H  2  S   -0.005308   0.113330  -0.532692   0.363436
    5  SI 3  S    0.008575   0.001224   0.000000  -0.006219
    6  SI 3  S   -0.030413   0.001738   0.000000   0.015122
    7  SI 3  X   -0.053115  -0.049819   0.000000  -0.199321
    8  SI 3  Y    0.017738  -0.030656   0.000000  -0.095702
    9  SI 3  Z   -0.000000   0.000000  -0.223006   0.000000
   10  SI 3  S    0.162550   0.041506   0.000000  -0.155045
   11  SI 3  X    0.210441   0.226764   0.000000   0.790238
   12  SI 3  Y   -0.088686   0.126019   0.000000   0.391295
   13  SI 3  Z   -0.000000   0.000000   0.914200   0.000000
   14  SI 3  S    0.029045  -0.076352   0.000000  -0.021409
   15  SI 3  X    0.126504   0.092244   0.000000   0.485571
   16  SI 3  Y   -0.031410   0.073527   0.000000   0.230904
   17  SI 3  Z   -0.000000   0.000000   0.536232   0.000000
   18  SI 3 XX    0.000849   0.005790   0.000000  -0.001625
   19  SI 3 YY    0.002542   0.005210   0.000000  -0.000728
   20  SI 3 ZZ    0.000444   0.005893   0.000000   0.006348
   21  SI 3 XY    0.003547  -0.000039   0.000000   0.001765
   22  SI 3 XZ   -0.000000   0.000000   0.004867   0.000000
   23  SI 3 YZ   -0.000000   0.000000   0.010871   0.000000
   24  C  4  S    0.014369  -0.139536   0.000000   0.092241
   25  C  4  S   -0.054727   0.647938   0.000000  -0.402071
   26  C  4  X    0.136030   0.520370   0.000000   0.302799
   27  C  4  Y    0.788794  -0.056364   0.000000  -0.166143
   28  C  4  Z   -0.000000   0.000000  -0.413450   0.000000
   29  C  4  S   -0.058080   0.904099   0.000000  -0.554916
   30  C  4  X    0.088301   0.353246   0.000000   0.205833
   31  C  4  Y    0.546807  -0.039120   0.000000  -0.111770
   32  C  4  Z   -0.000000   0.000000  -0.275840   0.000000
   33  C  4 XX   -0.000075  -0.014807   0.000000   0.009828
   34  C  4 YY    0.001401  -0.015984   0.000000   0.012269
   35  C  4 ZZ    0.000023  -0.016040   0.000000   0.012337
   36  C  4 XY    0.000924  -0.000158   0.000000  -0.000746
   37  C  4 XZ   -0.000000   0.000000  -0.001526   0.000000
   38  C  4 YZ   -0.000000   0.000000  -0.000005   0.000000
   39  H  5  S   -0.300863  -0.339008  -0.148426   0.079940
   40  H  5  S   -0.388506  -0.519215  -0.178356   0.143555
   41  H  6  S   -0.300863  -0.339008   0.148426   0.079940
   42  H  6  S   -0.388506  -0.519215   0.178356   0.143555
   43  H  7  S    0.510828  -0.404544   0.000000  -0.043363
   44  H  7  S    0.668507  -0.600200   0.000000  -0.007090
 ..... DONE WITH ONE PARTICLE DENSITY MATRIX .....
 STEP CPU TIME =     0.09 TOTAL CPU TIME =       84.5 (    1.4 MIN)
 TOTAL WALL CLOCK TIME=       84.5 SECONDS, CPU UTILIZATION IS  99.95%

     --------------------------------------------------------
     ALDET CI PROPERTIES...FOR THE WAVEFUNCTION OF STATE    1
               USING THE EXPECTATION VALUE DENSITY
     --------------------------------------------------------

          -----------------
          ENERGY COMPONENTS
          -----------------

         WAVEFUNCTION NORMALIZATION =       1.0000000000

                ONE ELECTRON ENERGY =    -564.9186331419
                TWO ELECTRON ENERGY =     179.7338451708
           NUCLEAR REPULSION ENERGY =      55.4367729428
                                      ------------------
                       TOTAL ENERGY =    -329.7480150284

 ELECTRON-ELECTRON POTENTIAL ENERGY =     179.7338451708
  NUCLEUS-ELECTRON POTENTIAL ENERGY =    -894.5738814504
   NUCLEUS-NUCLEUS POTENTIAL ENERGY =      55.4367729428
                                      ------------------
             TOTAL POTENTIAL ENERGY =    -659.4032633369
               TOTAL KINETIC ENERGY =     329.6552483085
                 VIRIAL RATIO (V/T) =       2.0002814053

          ---------------------------------------
          MULLIKEN AND LOWDIN POPULATION ANALYSES
          ---------------------------------------

               ----- POPULATIONS IN EACH AO -----
                             MULLIKEN      LOWDIN
              1  H  1  S      0.48681     0.48298
              2  H  1  S      0.59828     0.52642
              3  H  2  S      0.48681     0.48298
              4  H  2  S      0.59828     0.52642
              5  SI 3  S      1.99913     1.99871
              6  SI 3  S      2.00042     1.97461
              7  SI 3  X      1.99350     1.96749
              8  SI 3  Y      1.99290     1.96615
              9  SI 3  Z      1.99366     1.96877
             10  SI 3  S      0.95716     0.43530
             11  SI 3  X      0.62404     0.56742
             12  SI 3  Y      0.58252     0.55622
             13  SI 3  Z      0.66822     0.59469
             14  SI 3  S      0.26292     0.31384
             15  SI 3  X      0.04958     0.18775
             16  SI 3  Y      0.23591     0.32911
             17  SI 3  Z      0.08823     0.27716
             18  SI 3 XX      0.06048     0.22489
             19  SI 3 YY      0.00924     0.16500
             20  SI 3 ZZ      0.06388     0.22572
             21  SI 3 XY      0.01650     0.02265
             22  SI 3 XZ      0.03263     0.04230
             23  SI 3 YZ      0.04694     0.05563
             24  C  4  S      1.99643     1.98167
             25  C  4  S      0.61972     0.35356
             26  C  4  X      0.68185     0.63547
             27  C  4  Y      0.68908     0.62643
             28  C  4  Z      0.69131     0.62848
             29  C  4  S      0.67507     0.34962
             30  C  4  X      0.45433     0.54738
             31  C  4  Y      0.41082     0.51008
             32  C  4  Z      0.40844     0.50935
             33  C  4 XX      0.00752     0.14263
             34  C  4 YY      0.02140     0.15784
             35  C  4 ZZ      0.02215     0.15902
             36  C  4 XY      0.00609     0.01023
             37  C  4 XZ      0.00430     0.00726
             38  C  4 YZ      0.00957     0.01443
             39  H  5  S      0.51640     0.47833
             40  H  5  S      0.30230     0.34600
             41  H  6  S      0.51640     0.47833
             42  H  6  S      0.30230     0.34600
             43  H  7  S      0.51505     0.47854
             44  H  7  S      0.30142     0.34713

          ----- MULLIKEN ATOMIC OVERLAP POPULATIONS -----
          (OFF-DIAGONAL ELEMENTS NEED TO BE MULTIPLIED BY 2)

             1           2           3           4           5

    1    0.7824416
    2   -0.0130490   0.7824416
    3    0.3309716   0.3309716  12.7748446
    4   -0.0149340  -0.0149340   0.3195967   5.3746412
    5   -0.0001636   0.0008490  -0.0284175   0.3464300   0.5480815
    6    0.0008490  -0.0001636  -0.0284175   0.3464300  -0.0224822
    7   -0.0010274  -0.0010274  -0.0216478   0.3408407  -0.0256056

             6           7

    6    0.5480815
    7   -0.0256056   0.5505414

          TOTAL MULLIKEN AND LOWDIN ATOMIC POPULATIONS
       ATOM         MULL.POP.    CHARGE          LOW.POP.     CHARGE
    1 H             1.085088   -0.085088         1.009401   -0.009401
    2 H             1.085088   -0.085088         1.009401   -0.009401
    3 SI           13.677902    0.322098        13.873417    0.126583
    4 C             6.698071   -0.698071         6.633455   -0.633455
    5 H             0.818692    0.181308         0.824325    0.175675
    6 H             0.818692    0.181308         0.824325    0.175675
    7 H             0.816468    0.183532         0.825676    0.174324

          ---------------------
          ELECTROSTATIC MOMENTS
          ---------------------

 POINT   1           X           Y           Z (BOHR)    CHARGE
                -0.911975   -0.169821    0.000000        0.00 (A.U.)
         DX          DY          DZ         /D/  (DEBYE)
     0.726141    0.055505    0.000000    0.728260
 ...... END OF PROPERTY EVALUATION ......
 STEP CPU TIME =     0.01 TOTAL CPU TIME =       84.5 (    1.4 MIN)
 TOTAL WALL CLOCK TIME=       84.5 SECONDS, CPU UTILIZATION IS  99.95%
             31202055  WORDS OF DYNAMIC MEMORY USED
 EXECUTION OF GAMESS TERMINATED NORMALLY Wed Aug  9 22:28:51 2017
 DDI: 263640 bytes (0.3 MB / 0 MWords) used by master data server.

 ----------------------------------------
 CPU timing information for all processes
 ========================================
 0: 84.402 + 0.74 = 84.477
 ----------------------------------------
 ddikick.x: exited gracefully.
unset echo
----- accounting info -----
Files used on the master node compute-1-1.local were:
-rw-rw-r-- 1 sarom sarom  15K Aug  9 22:27 /scratch/aldet-ch3sih2-vci.F05
-rw-rw-r-- 1 sarom sarom 3.0M Aug  9 22:27 /scratch/aldet-ch3sih2-vci.F08
-rw-rw-r-- 1 sarom sarom 177K Aug  9 22:27 /scratch/aldet-ch3sih2-vci.F09
-rw-rw-r-- 1 sarom sarom 1.7M Aug  9 22:28 /scratch/aldet-ch3sih2-vci.F10
-rw-rw-r-- 1 sarom sarom  12M Aug  9 22:28 /scratch/aldet-ch3sih2-vci.F12
rm: cannot remove `/scratch/tmp': Is a directory
ls: No match.
ls: No match.
ls: No match.
Wed Aug  9 22:28:54 CDT 2017
0.247u 0.194s 1:28.02 0.4%	0+0k 0+384io 0pf+0w
/opt/gridengine/default/spool/compute-1-1/active_jobs/36244.1/pe_hostfile compute-1-1.local
