-catch_rsh /opt/gridengine/default/spool/compute-1-0/active_jobs/36245.1/pe_hostfile
compute-1-0
The primary node assigned by SGE to this run is compute-1-0
Warning: no access to tty (Bad file descriptor).
Thus no job control in this shell.
source /home/sarom/dir.git.branch.saromleang-travis-ci/install.info
setenv GMS_PATH /home/sarom/dir.git.branch.saromleang-travis-ci
setenv GMS_BUILD_DIR /home/sarom/dir.git.branch.saromleang-travis-ci
setenv GMS_TARGET linux64
setenv GMS_FORTRAN gfortran
setenv GMS_GFORTRAN_VERNO 4.4
setenv GMS_MATHLIB mkl-so
setenv GMS_MATHLIB none
setenv GMS_MATHLIB_PATH /share/apps/intel/compilers_and_libraries_2017.1.132/linux/mkl/lib/intel64
setenv GMS_MKL_VERNO 12
setenv GMS_DDI_COMM sockets
setenv GMS_LIBCCHEM false
setenv GMS_EIGEN_PATH
setenv GMS_PHI false
setenv GMS_SHMTYPE sysv
setenv GMS_OPENMP false
unset echo
aldet-ch3sih3-vci
/home/sarom/dir.git.branch.saromleang-travis-ci/tests/ci/parallel
----- GAMESS execution script 'rungms' -----
This job is running on host compute-1-0.local
under operating system Linux at Wed Aug 9 22:27:26 CDT 2017
Available scratch disk space (Kbyte units) at beginning of the job is
Filesystem           1K-blocks      Used Available Use% Mounted on
/dev/sda1             16126920   9111844   6195876  60% /
GAMESS temporary binary files will be written to /scratch
GAMESS supplementary output files will be written to /home/sarom/restart
Copying input file aldet-ch3sih3-vci.inp to your run's scratch directory...
cp /home/sarom/dir.git.branch.saromleang-travis-ci/tests/ci/parallel/aldet-ch3sih3-vci.inp /scratch/aldet-ch3sih3-vci.F05
unset echo
The generated host list is
compute-1-0.local
/home/sarom/dir.git.branch.saromleang-travis-ci/ddikick.x /home/sarom/dir.git.branch.saromleang-travis-ci/gamess.00.x aldet-ch3sih3-vci -ddi 1 1 compute-1-0.local -scr /scratch

 Distributed Data Interface kickoff program.
 Initiating 1 compute processes on 1 nodes to run the following command:
 /home/sarom/dir.git.branch.saromleang-travis-ci/gamess.00.x aldet-ch3sih3-vci 

          ******************************************************
          *         GAMESS VERSION = 20 APR 2017 (R1)          *
          *             FROM IOWA STATE UNIVERSITY             *
          * M.W.SCHMIDT, K.K.BALDRIDGE, J.A.BOATZ, S.T.ELBERT, *
          *   M.S.GORDON, J.H.JENSEN, S.KOSEKI, N.MATSUNAGA,   *
          *          K.A.NGUYEN, S.J.SU, T.L.WINDUS,           *
          *       TOGETHER WITH M.DUPUIS, J.A.MONTGOMERY       *
          *         J.COMPUT.CHEM.  14, 1347-1363(1993)        *
          **************** 64 BIT LINUX VERSION ****************

  SINCE 1993, STUDENTS AND POSTDOCS WORKING AT IOWA STATE UNIVERSITY
  AND ALSO IN THEIR VARIOUS JOBS AFTER LEAVING ISU HAVE MADE IMPORTANT
  CONTRIBUTIONS TO THE CODE:
     IVANA ADAMOVIC, CHRISTINE AIKENS, YURI ALEXEEV, POOJA ARORA,
     ANDREY ASADCHEV, ROB BELL, PRADIPTA BANDYOPADHYAY, JONATHAN BENTZ,
     BRETT BODE, KURT BRORSEN, CALEB CARLIN, GALINA CHABAN, WEI CHEN,
     CHEOL HO CHOI, PAUL DAY, ALBERT DEFUSCO, NUWAN DESILVA, TIM DUDLEY,
     DMITRI FEDOROV, GRAHAM FLETCHER, MARK FREITAG, KURT GLAESEMANN,
     DAN KEMP, GRANT MERRILL, NORIYUKI MINEZAWA, JONATHAN MULLIN,
     TAKESHI NAGATA, SEAN NEDD, HEATHER NETZLOFF, BOSILJKA NJEGIC, RYAN OLSON,
     MIKE PAK, SPENCER PRUITT, LUKE ROSKOP, JIM SHOEMAKER, LYUDMILA SLIPCHENKO,
     TONY SMITH, SAROM SOK LEANG, JIE SONG, TETSUYA TAKETSUGU, SIMON WEBB,
     PENG XU, SOOHAENG YOO, FEDERICO ZAHARIEV

  ADDITIONAL CODE HAS BEEN PROVIDED BY COLLABORATORS IN OTHER GROUPS:
     IOWA STATE UNIVERSITY:
          JOE IVANIC, AARON WEST, LAIMUTIS BYTAUTAS, KLAUS RUEDENBERG
     UNIVERSITY OF TOKYO: KIMIHIKO HIRAO, TAKAHITO NAKAJIMA,
          TAKAO TSUNEDA, MUNEAKI KAMIYA, SUSUMU YANAGISAWA,
          KIYOSHI YAGI, MAHITO CHIBA, SEIKEN TOKURA, NAOAKI KAWAKAMI
     UNIVERSITY OF AARHUS: FRANK JENSEN
     UNIVERSITY OF IOWA: VISVALDAS KAIRYS, HUI LI
     NATIONAL INST. OF STANDARDS AND TECHNOLOGY: WALT STEVENS, DAVID GARMER
     UNIVERSITY OF PISA: BENEDETTA MENNUCCI, JACOPO TOMASI
     UNIVERSITY OF MEMPHIS: HENRY KURTZ, PRAKASHAN KORAMBATH
     UNIVERSITY OF ALBERTA: TOBY ZENG, MARIUSZ KLOBUKOWSKI
     UNIVERSITY OF NEW ENGLAND: MARK SPACKMAN
     MIE UNIVERSITY: HIROAKI UMEDA
     NAT. INST. OF ADVANCED INDUSTRIAL SCIENCE AND TECHNOLOGY: KAZUO KITAURA
     MICHIGAN STATE UNIVERSITY:
          KAROL KOWALSKI, MARTA WLOCH, JEFFREY GOUR, JESSE LUTZ,
          WEI LI, PIOTR PIECUCH
     UNIVERSITY OF SILESIA: MONIKA MUSIAL, STANISLAW KUCHARSKI
     FACULTES UNIVERSITAIRES NOTRE-DAME DE LA PAIX:
          OLIVIER QUINET, BENOIT CHAMPAGNE
     UNIVERSITY OF CALIFORNIA - SANTA BARBARA: BERNARD KIRTMAN
     INSTITUTE FOR MOLECULAR SCIENCE:
          KAZUYA ISHIMURA, MICHIO KATOUDA, AND SHIGERU NAGASE
     UNIVERSITY OF NOTRE DAME: ANNA POMOGAEVA, DAN CHIPMAN
     KYUSHU UNIVERSITY:
          HARUYUKI NAKANO,
          FENG LONG GU, JACEK KORCHOWIEC, MARCIN MAKOWSKI, AND YURIKO AOKI,
          HIROTOSHI MORI AND EISAKU MIYOSHI
     PENNSYLVANIA STATE UNIVERSITY:
          TZVETELIN IORDANOV, CHET SWALINA, JONATHAN SKONE,
          SHARON HAMMES-SCHIFFER
     WASEDA UNIVERSITY:
          MASATO KOBAYASHI, TOMOKO AKAMA, TSUGUKI TOUMA,
          TAKESHI YOSHIKAWA, YASUHIRO IKABATA, JUNJI SEINO,
          YUYA NAKAJIMA, HIROMI NAKAI
     NANJING UNIVERSITY: SHUHUA LI
     UNIVERSITY OF NEBRASKA:
          PEIFENG SU, DEJUN SI, NANDUN THELLAMUREGE, YALI WANG, HUI LI
     UNIVERSITY OF ZURICH: ROBERTO PEVERATI, KIM BALDRIDGE
     N. COPERNICUS UNIVERSITY AND JACKSON STATE UNIVERSITY:
          MARIA BARYSZ
     UNIVERSITY OF COPENHAGEN: Jimmy Kromann, CASPER STEINMANN
     TOKYO INSTITUTE OF TECHNOLOGY: HIROYA NAKATA
     NAGOYA UNIVERSITY: YOSHIO NISHIMOTO, STEPHAN IRLE
     MOSCOW STATE UNIVERSITY: VLADIMIR MIRONOV

 EXECUTION OF GAMESS BEGUN Wed Aug  9 22:27:26 2017

            ECHO OF THE FIRST FEW INPUT CARDS -
 INPUT CARD>!   H3C-SiH3 full valence CI, on a triplet state...4,509,369 determinants       
 INPUT CARD>!   the valence orbital space used is ROHF occupied plus VVOs.                  
 INPUT CARD>!   deliberately run in Cs rather than C3v symmetry to have Abelian group.      
 INPUT CARD>!                                                                               
 INPUT CARD>!   E(ROHF)= -329.9562790392 (not computed in this run)                         
 INPUT CARD>!   E(FCI) = -330.0561271603 in 19 Davidson iterations                          
 INPUT CARD>!                                                                               
 INPUT CARD>!   this run takes 1063 seconds on 2.66 GHz Cloverton (14 Apr 2015)             
 INPUT CARD>!                                                                               
 INPUT CARD> $contrl mult=3 scftyp=none cityp=aldet runtyp=energy $end                      
 INPUT CARD> $system mwords=100 $end                                                        
 INPUT CARD> $basis  gbasis=n31 ngauss=6 ndfunc=1 $end                                      
 INPUT CARD> $guess  guess=moread norb=20 $end                                              
 INPUT CARD> $cidet  group=Cs stsym=Ap ncore=6 nact=14 nels=14 $end                         
 INPUT CARD>                                                                                
 INPUT CARD> $data                                                                          
 INPUT CARD>methysilane...full valence space CI...RHF/6-31G(d) geometry                     
 INPUT CARD>Cs                                                                              
 INPUT CARD>                                                                                
 INPUT CARD>H    1.0  -1.6097657777  -0.7967347640   1.2027129604                           
 INPUT CARD>H    1.0  -1.7037743498   1.2844627215   0.0000000000                           
 INPUT CARD>SI  14.0  -1.1197775532  -0.0794294143   0.0000000000                           
 INPUT CARD>C    6.0   0.7685718441   0.0058513105   0.0000000000                           
 INPUT CARD>H    1.0   1.1347162371   0.5297098227   0.8778208804                           
 INPUT CARD>H    1.0   1.2033426664  -0.9891371840   0.0000000000                           
 INPUT CARD> $end                                                                           
 INPUT CARD>                                                                                
 INPUT CARD>xxx $contrl scftyp=rohf cityp=none $end                                         
 INPUT CARD>xxx $scf    vvos=.true. $end                                                    
 INPUT CARD>--- OPEN SHELL ORBITALS --- GENERATED AT Mon Apr 13 11:14:07 2015               
 INPUT CARD>E(ROHF)= -329.9562790392...VVOs made by input just above                        
 INPUT CARD> $VEC                                                                           
 INPUT CARD> 1  1-5.79496526E-05 2.66731665E-04-5.79496526E-05 2.66731665E-04-5.79280126E-05
 INPUT CARD> 1  2 2.66675596E-04 9.96872509E-01 1.24248092E-02 6.26806913E-05 2.83580711E-06
 INPUT CARD> 1  3 0.00000000E+00-1.68794642E-02-1.15673089E-04-5.21772107E-06 0.00000000E+00
 INPUT CARD> 1  4 1.47010980E-03 8.66545786E-05 3.95202108E-06 0.00000000E+00 5.92496537E-03
 INPUT CARD> 1  5 5.92286420E-03 5.92286524E-03 1.09176825E-07 0.00000000E+00 0.00000000E+00
 INPUT CARD> 1  6-1.53114055E-05 1.87357357E-05 7.66577453E-05 3.46295678E-06 0.00000000E+00
 INPUT CARD> 1  7 7.21341103E-04-1.63168035E-04-7.37855990E-06 0.00000000E+00-2.06529643E-04
 INPUT CARD> 1  8-2.97636681E-05-2.94039249E-05-9.23795554E-06 0.00000000E+00 0.00000000E+00
 INPUT CARD> 1  9-1.62482690E-05-1.63266436E-04-1.62482690E-05-1.63266436E-04-1.62544079E-05
 INPUT CARD> 1 10-1.63262741E-04                                                            
 INPUT CARD> 2  1-2.84405891E-05-2.93082520E-04-2.84405891E-05-2.93082520E-04-2.84404942E-05
 INPUT CARD> 2  2-2.93017453E-04 6.23524454E-06 9.00057940E-05 3.94950258E-05 1.78745407E-06
 INPUT CARD> 2  3 0.00000000E+00 7.64590622E-04 4.95428017E-04 2.23501910E-05 0.00000000E+00
 INPUT CARD> 2  4 1.73553680E-03 7.20942095E-04 3.25017470E-05 0.00000000E+00-2.95363915E-04
 INPUT CARD> 2  5 4.72872481E-07 1.07336554E-06-1.54598960E-05 0.00000000E+00 0.00000000E+00
 INPUT CARD> 2  6 9.95887187E-01 2.81569750E-02-4.73606836E-05-2.17323380E-06 0.00000000E+00
 INPUT CARD> 2  7-1.30344086E-02 1.52890194E-04 6.95323338E-06 0.00000000E+00-2.46338084E-03
 INPUT CARD> 2  8-2.08685209E-03-2.08610239E-03-1.97071848E-05 0.00000000E+00 0.00000000E+00
  100000000 WORDS OF MEMORY AVAILABLE

     BASIS OPTIONS
     -------------
     GBASIS=N31          IGAUSS=       6      POLAR=POPN31  
     NDFUNC=       1     NFFUNC=       0     DIFFSP=       F
     NPFUNC=       0      DIFFS=       F     BASNAM=        


     RUN TITLE
     ---------
 methysilane...full valence space CI...RHF/6-31G(d) geometry                     

 THE POINT GROUP OF THE MOLECULE IS CS      
 THE ORDER OF THE PRINCIPAL AXIS IS     0

 ATOM      ATOMIC                      COORDINATES (BOHR)
           CHARGE         X                   Y                   Z
 H           1.0    -3.0420162243       -1.5056103889       -2.2727979370
 H           1.0    -3.0420162243       -1.5056103889        2.2727979370
 H           1.0    -3.2196666660        2.4272825851        0.0000000000
 SI         14.0    -2.1160727427       -0.1500998284        0.0000000000
 C           6.0     1.4523901872        0.0110573735        0.0000000000
 H           1.0     2.1443027619        1.0010064179       -1.6588409303
 H           1.0     2.1443027619        1.0010064179        1.6588409303
 H           1.0     2.2739879088       -1.8691982420        0.0000000000

          INTERNUCLEAR DISTANCES (ANGS.)
          ------------------------------

                1 H          2 H          3 H          4 SI         5 C     

   1 H       0.0000000    2.4054259 *  2.4055642 *  1.4836219 *  2.7833707 *
   2 H       2.4054259 *  0.0000000    2.4055642 *  1.4836219 *  2.7833707 *
   3 H       2.4055642 *  2.4055642 *  0.0000000    1.4836624 *  2.7834049 *
   4 SI      1.4836219 *  1.4836219 *  1.4836624 *  0.0000000    1.8902741 *
   5 C       2.7833707 *  2.7833707 *  2.7834049 *  1.8902741 *  0.0000000  
   6 H       3.0654839    3.6905633    3.0654935    2.4948672 *  1.0858448 *
   7 H       3.6905633    3.0654839    3.0654935    2.4948672 *  1.0858448 *
   8 H       3.0654716    3.0654716    3.6906078    2.4948859 *  1.0858305 *

                6 H          7 H          8 H     

   1 H       3.0654839    3.6905633    3.0654716  
   2 H       3.6905633    3.0654839    3.0654716  
   3 H       3.0654935    3.0654935    3.6906078  
   4 SI      2.4948672 *  2.4948672 *  2.4948859 *
   5 C       1.0858448 *  1.0858448 *  1.0858305 *
   6 H       0.0000000    1.7556418 *  1.7556125 *
   7 H       1.7556418 *  0.0000000    1.7556125 *
   8 H       1.7556125 *  1.7556125 *  0.0000000  

  * ... LESS THAN  3.000


     ATOMIC BASIS SET
     ----------------
 THE CONTRACTED PRIMITIVE FUNCTIONS HAVE BEEN UNNORMALIZED
 THE CONTRACTED BASIS FUNCTIONS ARE NOW NORMALIZED TO UNITY

  SHELL TYPE  PRIMITIVE        EXPONENT          CONTRACTION COEFFICIENT(S)

 H         

      3   S       1            18.7311370    0.033494604338
      3   S       2             2.8253944    0.234726953484
      3   S       3             0.6401217    0.813757326146

      4   S       4             0.1612778    1.000000000000

 H         

      5   S       5            18.7311370    0.033494604338
      5   S       6             2.8253944    0.234726953484
      5   S       7             0.6401217    0.813757326146

      6   S       8             0.1612778    1.000000000000

 SI        

      7   S       9         16192.1000000    0.001949239405
      7   S      10          2436.0900000    0.014855895466
      7   S      11           556.0010000    0.072568877851
      7   S      12           156.8130000    0.245654925022
      7   S      13            50.1692000    0.486059851646
      7   S      14            17.0300000    0.325719900585

      8   L      15           293.3500000   -0.002829912441    0.004433341604
      8   L      16            70.1173000   -0.036073731114    0.032440211739
      8   L      17            22.4301000   -0.116808100749    0.133719048387
      8   L      18             8.1942500    0.093576880711    0.326780118247
      8   L      19             3.1476800    0.601705518979    0.451139163247
      8   L      20             1.2151500    0.422072364043    0.264105095568

      9   L      21             1.6537000   -0.240599186106   -0.015177406538
      9   L      22             0.5407600    0.073795050368    0.275139118516
      9   L      23             0.2044060    1.040936478740    0.783008337279

     10   L      24             0.0723837    1.000000000000    1.000000000000

     11   D      25             0.3950000    1.000000000000

 C         

     12   S      26          3047.5248800    0.001834737132
     12   S      27           457.3695180    0.014037322813
     12   S      28           103.9486850    0.068842622264
     12   S      29            29.2101553    0.232184443216
     12   S      30             9.2866630    0.467941348435
     12   S      31             3.1639270    0.362311985337

     13   L      32             7.8682723   -0.119332419775    0.068999066591
     13   L      33             1.8812885   -0.160854151696    0.316423960957
     13   L      34             0.5442493    1.143456437840    0.744308290898

     14   L      35             0.1687145    1.000000000000    1.000000000000

     15   D      36             0.8000000    1.000000000000

 H         

     18   S      37            18.7311370    0.033494604338
     18   S      38             2.8253944    0.234726953484
     18   S      39             0.6401217    0.813757326146

     19   S      40             0.1612778    1.000000000000

 H         

     20   S      41            18.7311370    0.033494604338
     20   S      42             2.8253944    0.234726953484
     20   S      43             0.6401217    0.813757326146

     21   S      44             0.1612778    1.000000000000

 TOTAL NUMBER OF BASIS SET SHELLS             =   21
 NUMBER OF CARTESIAN GAUSSIAN BASIS FUNCTIONS =   46
 NUMBER OF ELECTRONS                          =   26
 CHARGE OF MOLECULE                           =    0
 SPIN MULTIPLICITY                            =    3
 NUMBER OF OCCUPIED ORBITALS (ALPHA)          =   14
 NUMBER OF OCCUPIED ORBITALS (BETA )          =   12
 TOTAL NUMBER OF ATOMS                        =    8
 THE NUCLEAR REPULSION ENERGY IS       62.6288838017

     $CONTRL OPTIONS
     ---------------
 SCFTYP=NONE         RUNTYP=ENERGY       EXETYP=RUN     
 MPLEVL=       0     CITYP =ALDET        CCTYP =NONE         VBTYP =NONE    
 DFTTYP=NONE         TDDFT =NONE    
 MULT  =       3     ICHARG=       0     NZVAR =       0     COORD =UNIQUE  
 PP    =NONE         RELWFN=NONE         LOCAL =NONE         NUMGRD=       F
 ISPHER=      -1     NOSYM =       0     MAXIT =      30     UNITS =ANGS    
 PLTORB=       F     MOLPLT=       F     AIMPAC=       F     FRIEND=        
 NPRINT=       7     IREST =       0     GEOM  =INPUT   
 NORMF =       0     NORMP =       0     ITOL  =      20     ICUT  =       9
 INTTYP=BEST         GRDTYP=BEST         QMTTOL= 1.0E-06

     $SYSTEM OPTIONS
     ---------------
  REPLICATED MEMORY=   100000000 WORDS (ON EVERY NODE).
 DISTRIBUTED MEMDDI=           0 MILLION WORDS IN AGGREGATE,
 MEMDDI DISTRIBUTED OVER   1 PROCESSORS IS           0 WORDS/PROCESSOR.
 TOTAL MEMORY REQUESTED ON EACH PROCESSOR=   100000000 WORDS.
 TIMLIM=      525600.00 MINUTES, OR     365.0 DAYS.
 PARALL= F  BALTYP=  DLB     KDIAG=    0  COREFL= F
 MXSEQ2=     300 MXSEQ3=     150  mem10=         0

          ----------------
          PROPERTIES INPUT
          ----------------

     MOMENTS            FIELD           POTENTIAL          DENSITY
 IEMOM =       1   IEFLD =       0   IEPOT =       0   IEDEN =       0
 WHERE =COMASS     WHERE =NUCLEI     WHERE =NUCLEI     WHERE =NUCLEI  
 OUTPUT=BOTH       OUTPUT=BOTH       OUTPUT=BOTH       OUTPUT=BOTH    
 IEMINT=       0   IEFINT=       0                     IEDINT=       0
                                                       MORB  =       0
          EXTRAPOLATION IN EFFECT
          SOSCF IN EFFECT
 ORBITAL PRINTING OPTION: NPREO=     1    46     2     1

     -------------------------------
     INTEGRAL TRANSFORMATION OPTIONS
     -------------------------------
     NWORD  =            0
     CUTOFF = 1.0E-09     MPTRAN =       0
     DIRTRF =       F     AOINTS =DUP     

          ----------------------
          INTEGRAL INPUT OPTIONS
          ----------------------
 NOPK  =       1 NORDER=       0 SCHWRZ=       T

     ------------------------------------------
     THE POINT GROUP IS CS , NAXIS= 0, ORDER= 2
     ------------------------------------------

     DIMENSIONS OF THE SYMMETRY SUBSPACES ARE
 A'  =   33     A'' =   13

 ..... DONE SETTING UP THE RUN .....
 STEP CPU TIME =     0.03 TOTAL CPU TIME =        0.0 (    0.0 MIN)
 TOTAL WALL CLOCK TIME=        0.0 SECONDS, CPU UTILIZATION IS 100.00%

          ********************
          1 ELECTRON INTEGRALS
          ********************
 ...... END OF ONE-ELECTRON INTEGRALS ......
 STEP CPU TIME =     0.00 TOTAL CPU TIME =        0.0 (    0.0 MIN)
 TOTAL WALL CLOCK TIME=        0.0 SECONDS, CPU UTILIZATION IS 100.00%

          -------------
          GUESS OPTIONS
          -------------
          GUESS =MOREAD            NORB  =      20          NORDER=       0
          MIX   =       F          PRTMO =       F          PUNMO =       F
          TOLZ  = 1.0E-08          TOLE  = 1.0E-05
          SYMDEN=       F          PURIFY=       F

 INITIAL GUESS ORBITALS GENERATED BY MOREAD   ROUTINE.

 SYMMETRIES FOR INITIAL GUESS ORBITALS FOLLOW.   BOTH SET(S).
    14 ORBITALS ARE OCCUPIED (    6 CORE ORBITALS).
     1=A'       2=A'       3=A'       4=A''      5=A'       6=A'       7=A'  
     8=A'       9=A''     10=A'      11=A'      12=A''     13=A'      14=A'  
    15=A''     16=A'      17=A'      18=A'      19=A''     20=A'      21=A'  
    22=A'      23=A'      24=A'      25=A'      26=A'      27=A'      28=A'  
    29=A'      30=A'      31=A'      32=A'      33=A'      34=A'      35=A'  
    36=A'      37=A'      38=A'      39=A''     40=A''     41=A''     42=A'' 
    43=A''     44=A''     45=A''     46=A'' 
 ...... END OF INITIAL ORBITAL SELECTION ......
 STEP CPU TIME =     0.00 TOTAL CPU TIME =        0.0 (    0.0 MIN)
 TOTAL WALL CLOCK TIME=        0.0 SECONDS, CPU UTILIZATION IS  75.00%

                    ----------------------
                    AO INTEGRAL TECHNOLOGY
                    ----------------------
     S,P,L SHELL ROTATED AXIS INTEGRALS, REPROGRAMMED BY
        KAZUYA ISHIMURA (IMS) AND JOSE SIERRA (SYNSTAR).
     S,P,D,L SHELL ROTATED AXIS INTEGRALS PROGRAMMED BY
        KAZUYA ISHIMURA (INSTITUTE FOR MOLECULAR SCIENCE).
     S,P,D,F,G SHELL TO TOTAL QUARTET ANGULAR MOMENTUM SUM 5,
        ERIC PROGRAM BY GRAHAM FLETCHER (ELORET AND NASA ADVANCED
        SUPERCOMPUTING DIVISION, AMES RESEARCH CENTER).
     S,P,D,F,G,L SHELL GENERAL RYS QUADRATURE PROGRAMMED BY
        MICHEL DUPUIS (PACIFIC NORTHWEST NATIONAL LABORATORY).

          --------------------
          2 ELECTRON INTEGRALS
          --------------------

 THE -PK- OPTION IS OFF, THE INTEGRALS ARE NOT IN SUPERMATRIX FORM.
 STORING   15000 INTEGRALS/RECORD ON DISK, USING 12 BYTES/INTEGRAL.
 TWO ELECTRON INTEGRAL EVALUATION REQUIRES   90627 WORDS OF MEMORY.
 SCHWARZ INEQUALITY OVERHEAD:      1081 INTEGRALS, T=        0.00
 II,JST,KST,LST =  1  1  1  1 NREC =         1 INTLOC =    1
 II,JST,KST,LST =  2  1  1  1 NREC =         1 INTLOC =    1
 II,JST,KST,LST =  3  1  1  1 NREC =         1 INTLOC =    1
 II,JST,KST,LST =  4  1  1  1 NREC =         1 INTLOC =    5
 II,JST,KST,LST =  5  1  1  1 NREC =         1 INTLOC =   32
 II,JST,KST,LST =  6  1  1  1 NREC =         1 INTLOC =   67
 II,JST,KST,LST =  7  1  1  1 NREC =         1 INTLOC =  128
 II,JST,KST,LST =  8  1  1  1 NREC =         1 INTLOC =  227
 II,JST,KST,LST =  9  1  1  1 NREC =         1 INTLOC = 1173
 II,JST,KST,LST = 10  1  1  1 NREC =         1 INTLOC = 3553
 II,JST,KST,LST = 11  1  1  1 NREC =         1 INTLOC = 8201
 II,JST,KST,LST = 12  1  1  1 NREC =         2 INTLOC = 6086
 II,JST,KST,LST = 13  1  1  1 NREC =         2 INTLOC =10395
 II,JST,KST,LST = 14  1  1  1 NREC =         4 INTLOC = 4833
 II,JST,KST,LST = 15  1  1  1 NREC =         6 INTLOC =10907
 II,JST,KST,LST = 16  1  1  1 NREC =        12 INTLOC =  434
 II,JST,KST,LST = 17  1  1  1 NREC =        12 INTLOC =  434
 II,JST,KST,LST = 18  1  1  1 NREC =        12 INTLOC =  434
 II,JST,KST,LST = 19  1  1  1 NREC =        14 INTLOC = 5320
 II,JST,KST,LST = 20  1  1  1 NREC =        17 INTLOC = 1529
 II,JST,KST,LST = 21  1  1  1 NREC =        18 INTLOC =10517
 SCHWARZ INEQUALITY TEST SKIPPED         384 INTEGRAL BLOCKS.
 TOTAL NUMBER OF NONZERO TWO-ELECTRON INTEGRALS =              291893
         20 INTEGRAL RECORDS WERE STORED ON DISK FILE  8.
  ...... END OF TWO-ELECTRON INTEGRALS .....
 STEP CPU TIME =     0.05 TOTAL CPU TIME =        0.1 (    0.0 MIN)
 TOTAL WALL CLOCK TIME=        0.1 SECONDS, CPU UTILIZATION IS  88.89%

 DETERMINANT CI OPTIONS   NRNFG   NPFLG
 INTEGRAL TRANSFORMATION    1       0
 DIAGONALIZE HAMILTONIAN    1       0
 FORM 1E- DENSITY MATRIX    1       0
 FORM 2E- DENSITY MATRIX    0       0

     --------------------------------------------------
          AMES LABORATORY DETERMINANTAL FULL CI
     PROGRAM WRITTEN BY JOE IVANIC AND KLAUS RUEDENBERG
     --------------------------------------------------

 THE POINT GROUP                  =   CS      
 THE STATE SYMMETRY               =   A'      
 NUMBER OF CORE ORBITALS          =    6
 NUMBER OF ACTIVE ORBITALS        =   14
 NUMBER OF ALPHA ELECTRONS        =   14 (   8 ACTIVE)
 NUMBER OF BETA ELECTRONS         =   12 (   6 ACTIVE)
 NUMBER OF OCCUPIED ORBITALS      =   20
 NUMBER OF CI STATES REQUESTED    =    1
 NUMBER OF CI STARTING VECTORS    =    1
 MAX. NO. OF CI EXPANSION VECTORS =   10
 SIZE OF INITIAL CI GUESS MATRIX  =  300
 MAX. NO. OF CI ITERS/STATE       =  100
 CI DIAGONALIZATION CRITERION     = 1.00E-06
 CI PROPERTIES WILL BE FOUND FOR ROOT NUMBER   1
 1E- DENSITY MATRIX OPTIONS ARE 1

 CORRELATION ENERGY ANALYSIS      =    F

 SYMMETRIES FOR THE   6 CORE,  14 ACTIVE ARE

     CORE= A'    A'    A'    A''   A'    A'  

   ACTIVE= A'    A'    A''   A'    A'    A''   A'    A'    A''   A'  
           A'    A'    A''   A'  

     --------------------------------------------
     PARTIAL TWO ELECTRON INTEGRAL TRANSFORMATION
     --------------------------------------------

 NUMBER OF CORE MOLECULAR ORBITALS     =    6
 NUMBER OF OCCUPIED MOLECULAR ORBITALS =   20
 TOTAL NUMBER OF MOLECULAR ORBITALS    =   20
 TOTAL NUMBER OF ATOMIC ORBITALS       =   46
 THRESHOLD FOR KEEPING TRANSFORMED 2E- INTEGRALS = 1.000E-09
 AO INTEGRALS WILL BE READ IN FROM DISK...
 EVALUATING THE FROZEN CORE ENERGY...
 ----- FROZEN CORE ENERGY =      -357.6747304550

 PLAN A: REQUIREMENTS FOR FULLY IN-MEMORY TRANSFORMATION:
 # OF WORDS AVAILABLE =            100000000
 # OF WORDS NEEDED    =               766838

 CHOOSING IN MEMORY PARTIAL TRANSFORMATION...
 TOTAL NUMBER OF TRANSFORMED 2E- INTEGRALS KEPT =         2965
 ... END OF INTEGRAL TRANSFORMATION ...
 STEP CPU TIME =     0.02 TOTAL CPU TIME =        0.1 (    0.0 MIN)
 TOTAL WALL CLOCK TIME=        0.1 SECONDS, CPU UTILIZATION IS  90.91%

     --------------------------------------------------
          AMES LABORATORY DETERMINANTAL FULL CI
     PROGRAM WRITTEN BY JOE IVANIC AND KLAUS RUEDENBERG
     --------------------------------------------------

 THE NUMBER OF DETERMINANTS HAVING SPACE SYMMETRY A' 
 IN POINT GROUP CS   WITH SZ=  1.0 IS        4509369
 THE DETERMINANT FULL CI REQUIRES        95050938 WORDS
 INITIAL CI VECTOR GUESS TIME  :          0.7
 INITIAL FULL CI ITERATION TIME:         32.2

 ITERATION      ENERGY           GRADIENT
     0     -329.9653700327     0.36964080
     1     -330.0488558091     0.12658015
     2     -330.0554700983     0.04009935
     3     -330.0560387895     0.01333163
     4     -330.0561092953     0.00494466
     5     -330.0561211631     0.00243702
     6     -330.0561248015     0.00164323
     7     -330.0561263307     0.00101458
     8     -330.0561269021     0.00060411
     9     -330.0561270753     0.00032579
    10     -330.0561271154     0.00016418
    11     -330.0561271400     0.00014316
    12     -330.0561271513     0.00009287
    13     -330.0561271565     0.00006408
    14     -330.0561271590     0.00004329
    15     -330.0561271599     0.00002122
    16     -330.0561271601     0.00000890
    17     -330.0561271601     0.00000342
    18     -330.0561271601     0.00000133
    19     -330.0561271601     0.00000060

 CONVERGED STATE    1 ENERGY=     -330.0561271601 IN   19 ITERS

 ALL STATES CONVERGED.

 CI EIGENVECTORS WILL BE LABELED IN GROUP=CS      
 PRINTING CI COEFFICIENTS LARGER THAN 5.000E-02

 STATE   1  ENERGY=      -330.0561271601  S=  1.00  SZ=  1.00  SPACE SYM=A'  

     ALPHA      |     BETA       | CI COEFFICIENT
----------------|----------------|---------------
 11111111000000 | 11111100000000 |   0.9588911149
 11101111000001 | 11101100000001 |  -0.0584822015
 11011111000010 | 11011100000010 |  -0.0584743109
 11110111010000 | 11110100010000 |  -0.0552064361
 11111011100000 | 11111000100000 |  -0.0551770165
 ..... DONE WITH DETERMINANT CI COMPUTATION .....
 STEP CPU TIME =   522.86 TOTAL CPU TIME =      523.0 (    8.7 MIN)
 TOTAL WALL CLOCK TIME=      524.9 SECONDS, CPU UTILIZATION IS  99.64%

     ---------------------------
     ONE PARTICLE DENSITY MATRIX
     ---------------------------

 DENSITY MATRIX WILL BE SAVED FOR   1-TH STATE WITH S= 1.00

 CI EIGENSTATE   1 TOTAL ENERGY =     -330.0561271601

          NATURAL ORBITALS IN ATOMIC ORBITAL BASIS
          ----------------------------------------

                      1          2          3          4          5
                    2.0000     2.0000     2.0000     2.0000     2.0000
                     A'         A'         A'         A''        A'  
    1  H  1  S   -0.000058  -0.000028   0.000377  -0.000832  -0.000480
    2  H  1  S    0.000267  -0.000293  -0.000249   0.000959   0.000554
    3  H  2  S   -0.000058  -0.000028   0.000377   0.000832  -0.000480
    4  H  2  S    0.000267  -0.000293  -0.000249  -0.000959   0.000554
    5  H  3  S   -0.000058  -0.000028   0.000377   0.000000   0.000960
    6  H  3  S    0.000267  -0.000293  -0.000249   0.000000  -0.001107
    7  SI 4  S    0.996873   0.000006  -0.268221   0.000000   0.000000
    8  SI 4  S    0.012425   0.000090   1.030756   0.000000  -0.000001
    9  SI 4  X    0.000063   0.000039   0.008489   0.000000  -0.044901
   10  SI 4  Y    0.000003   0.000002   0.000384   0.000000   0.994143
   11  SI 4  Z    0.000000   0.000000   0.000000   0.995157   0.000000
   12  SI 4  S   -0.016879   0.000765   0.006191   0.000000   0.000000
   13  SI 4  X   -0.000116   0.000495   0.002027   0.000000  -0.000836
   14  SI 4  Y   -0.000005   0.000022   0.000092   0.000000   0.018520
   15  SI 4  Z    0.000000   0.000000   0.000000   0.018539   0.000000
   16  SI 4  S    0.001470   0.001736  -0.001205   0.000000  -0.000001
   17  SI 4  X    0.000087   0.000721  -0.000206   0.000000   0.000158
   18  SI 4  Y    0.000004   0.000033  -0.000009   0.000000  -0.003487
   19  SI 4  Z    0.000000   0.000000   0.000000  -0.003490   0.000000
   20  SI 4 XX    0.005925  -0.000295   0.002749   0.000000  -0.000098
   21  SI 4 YY    0.005923   0.000000   0.001599   0.000000   0.000645
   22  SI 4 ZZ    0.005923   0.000001   0.001597   0.000000  -0.000547
   23  SI 4 XY    0.000000  -0.000015   0.000060   0.000000   0.001236
   24  SI 4 XZ    0.000000   0.000000   0.000000   0.001297   0.000000
   25  SI 4 YZ    0.000000   0.000000   0.000000  -0.000574   0.000000
   26  C  5  S   -0.000015   0.995887   0.000067   0.000000  -0.000000
   27  C  5  S    0.000019   0.028157   0.000436   0.000000  -0.000000
   28  C  5  X    0.000077  -0.000047   0.000210   0.000000  -0.000008
   29  C  5  Y    0.000003  -0.000002   0.000009   0.000000   0.000174
   30  C  5  Z    0.000000   0.000000   0.000000   0.000174   0.000000
   31  C  5  S    0.000721  -0.013034  -0.003089   0.000000   0.000000
   32  C  5  X   -0.000163   0.000153   0.001024   0.000000   0.000093
   33  C  5  Y   -0.000007   0.000007   0.000046   0.000000  -0.002052
   34  C  5  Z    0.000000   0.000000   0.000000  -0.002054   0.000000
   35  C  5 XX   -0.000207  -0.002463  -0.000012   0.000000  -0.000013
   36  C  5 YY   -0.000030  -0.002087   0.000129   0.000000   0.000123
   37  C  5 ZZ   -0.000029  -0.002086   0.000130   0.000000  -0.000110
   38  C  5 XY   -0.000009  -0.000020  -0.000007   0.000000   0.000166
   39  C  5 XZ    0.000000   0.000000   0.000000   0.000178   0.000000
   40  C  5 YZ    0.000000   0.000000   0.000000  -0.000119   0.000000
   41  H  6  S   -0.000016  -0.000071   0.000151  -0.000142   0.000082
   42  H  6  S   -0.000163   0.002116   0.000520  -0.001280   0.000739
   43  H  7  S   -0.000016  -0.000071   0.000151   0.000142   0.000082
   44  H  7  S   -0.000163   0.002116   0.000520   0.001280   0.000739
   45  H  8  S   -0.000016  -0.000071   0.000151   0.000000  -0.000164
   46  H  8  S   -0.000163   0.002116   0.000520   0.000000  -0.001478

                      6          7          8          9         10
                    2.0000     1.9865     1.9789     1.9764     1.9764
                     A'         A'         A'         A'         A'' 
    1  H  1  S   -0.000162   0.027763   0.136146  -0.023377  -0.040509
    2  H  1  S    0.000514   0.020885   0.107722  -0.020833  -0.036103
    3  H  2  S   -0.000162   0.027763   0.136146  -0.023377   0.040509
    4  H  2  S    0.000514   0.020885   0.107722  -0.020833   0.036103
    5  H  3  S   -0.000162   0.027756   0.136085   0.046773  -0.000000
    6  H  3  S    0.000514   0.020879   0.107662   0.041685  -0.000000
    7  SI 4  S    0.002603   0.016145   0.051757   0.000003  -0.000000
    8  SI 4  S   -0.010085  -0.080034  -0.251870  -0.000017  -0.000000
    9  SI 4  X    0.993417  -0.025035   0.020165   0.002132  -0.000000
   10  SI 4  Y    0.044868  -0.001127   0.000939  -0.047288  -0.000000
   11  SI 4  Z    0.000000   0.000000   0.000000   0.000000  -0.047341
   12  SI 4  S    0.008519   0.143107   0.523216   0.000034  -0.000000
   13  SI 4  X    0.022207   0.041944  -0.036225  -0.005081  -0.000000
   14  SI 4  Y    0.001003   0.001886  -0.001709   0.112660  -0.000000
   15  SI 4  Z    0.000000   0.000000   0.000000   0.000000   0.112789
   16  SI 4  S   -0.000580   0.026231   0.132150   0.000006  -0.000000
   17  SI 4  X   -0.003763   0.017251   0.036817  -0.000403  -0.000000
   18  SI 4  Y   -0.000170   0.000779   0.001655   0.008984  -0.000000
   19  SI 4  Z    0.000000   0.000000   0.000000   0.000000   0.008996
   20  SI 4 XX    0.001251   0.017097  -0.018475  -0.000988  -0.000000
   21  SI 4 YY   -0.003951  -0.001794   0.031001   0.012546  -0.000000
   22  SI 4 ZZ   -0.003961  -0.001831   0.031119  -0.011556  -0.000000
   23  SI 4 XY    0.000272   0.000988  -0.002579   0.012325  -0.000000
   24  SI 4 XZ    0.000000   0.000000   0.000000   0.000000   0.013567
   25  SI 4 YZ    0.000000   0.000000   0.000000   0.000000  -0.012749
   26  C  5  S   -0.000133  -0.186198   0.044802  -0.000003  -0.000000
   27  C  5  S    0.000965   0.361257  -0.088583   0.000005  -0.000000
   28  C  5  X   -0.000130   0.060220  -0.121574  -0.020130  -0.000000
   29  C  5  Y   -0.000006   0.002709  -0.005501   0.445241  -0.000000
   30  C  5  Z    0.000000   0.000000   0.000000   0.000000   0.445690
   31  C  5  S   -0.008073   0.331083  -0.144723   0.000004  -0.000000
   32  C  5  X    0.002639   0.040872  -0.042250  -0.010879  -0.000000
   33  C  5  Y    0.000119   0.001842  -0.001914   0.240663  -0.000000
   34  C  5  Z    0.000000   0.000000   0.000000   0.000000   0.240907
   35  C  5 XX    0.000663   0.001995   0.012586  -0.001384  -0.000000
   36  C  5 YY    0.000117   0.014947  -0.007472  -0.023957  -0.000000
   37  C  5 ZZ    0.000116   0.014973  -0.007514   0.025342  -0.000000
   38  C  5 XY    0.000029  -0.000678   0.001049   0.018330  -0.000000
   39  C  5 XZ    0.000000   0.000000   0.000000   0.000000   0.015741
   40  C  5 YZ    0.000000   0.000000   0.000000   0.000000   0.030003
   41  H  6  S    0.000380   0.141771  -0.056074   0.131140  -0.227140
   42  H  6  S    0.001486   0.034185  -0.023108   0.085423  -0.147952
   43  H  7  S    0.000380   0.141771  -0.056074   0.131140   0.227140
   44  H  7  S    0.001486   0.034185  -0.023108   0.085423   0.147952
   45  H  8  S    0.000380   0.141782  -0.056069  -0.262283  -0.000000
   46  H  8  S    0.001486   0.034190  -0.023107  -0.170843  -0.000000

                     11         12         13         14         15
                    1.9670     1.9670     1.0109     0.9947     0.0318
                     A''        A'         A'         A'         A'  
    1  H  1  S   -0.225571  -0.130216   0.070156   0.010966  -0.357106
    2  H  1  S   -0.256176  -0.147880   0.037516   0.097958  -0.482762
    3  H  2  S    0.225571  -0.130216   0.070156   0.010966  -0.357106
    4  H  2  S    0.256176  -0.147880   0.037516   0.097958  -0.482762
    5  H  3  S    0.000000   0.260485   0.070160   0.010967  -0.357316
    6  H  3  S    0.000000   0.295822   0.037530   0.097941  -0.483064
    7  SI 4  S    0.000000   0.000007  -0.005619   0.002902   0.061842
    8  SI 4  S    0.000000  -0.000036   0.026446  -0.036234  -0.218707
    9  SI 4  X    0.000000   0.007396   0.164326  -0.079144   0.063469
   10  SI 4  Y    0.000000  -0.163728   0.007421  -0.003575   0.002797
   11  SI 4  Z   -0.163894   0.000000   0.000000   0.000000   0.000000
   12  SI 4  S    0.000000   0.000076  -0.060690  -0.043221   1.187002
   13  SI 4  X    0.000000  -0.019639  -0.428731   0.267114  -0.283934
   14  SI 4  Y    0.000000   0.434822  -0.019362   0.012065  -0.012561
   15  SI 4  Z    0.435262   0.000000   0.000000   0.000000   0.000000
   16  SI 4  S    0.000000   0.000022   0.005902   0.554897   0.334166
   17  SI 4  X    0.000000  -0.003284  -0.240289   1.140082  -0.127859
   18  SI 4  Y    0.000000   0.072865  -0.010857   0.051508  -0.005613
   19  SI 4  Z    0.072940   0.000000   0.000000   0.000000   0.000000
   20  SI 4 XX    0.000000   0.003551  -0.079252  -0.139386   0.000074
   21  SI 4 YY    0.000000   0.074224   0.038454   0.071530   0.001555
   22  SI 4 ZZ    0.000000  -0.077766   0.038689   0.071962   0.001564
   23  SI 4 XY    0.000000  -0.047332  -0.006149  -0.011020  -0.000076
   24  SI 4 XZ   -0.039364   0.000000   0.000000   0.000000   0.000000
   25  SI 4 YZ   -0.091681   0.000000   0.000000   0.000000   0.000000
   26  C  5  S    0.000000   0.000004   0.027884   0.102842   0.041510
   27  C  5  S    0.000000  -0.000008  -0.103323  -0.190568  -0.167687
   28  C  5  X    0.000000   0.005025   0.448076   0.254284   0.149501
   29  C  5  Y    0.000000  -0.111640   0.020252   0.011485   0.006762
   30  C  5  Z   -0.111767   0.000000   0.000000   0.000000   0.000000
   31  C  5  S    0.000000  -0.000019   0.113125  -1.082312  -0.156417
   32  C  5  X    0.000000   0.002731   0.179453   0.368380   0.094252
   33  C  5  Y    0.000000  -0.060632   0.008117   0.016636   0.004266
   34  C  5  Z   -0.060699   0.000000   0.000000   0.000000   0.000000
   35  C  5 XX    0.000000   0.000836  -0.035096  -0.009698  -0.004275
   36  C  5 YY    0.000000   0.007224   0.012459   0.011563  -0.002999
   37  C  5 ZZ    0.000000  -0.008060   0.012557   0.011606  -0.002997
   38  C  5 XY    0.000000  -0.010853  -0.002486  -0.001112  -0.000067
   39  C  5 XZ   -0.010047   0.000000   0.000000   0.000000   0.000000
   40  C  5 YZ   -0.009770   0.000000   0.000000   0.000000   0.000000
   41  H  6  S    0.067403  -0.038918   0.060208   0.027854   0.036870
   42  H  6  S    0.065651  -0.037903   0.037691   0.079108   0.050178
   43  H  7  S   -0.067403  -0.038918   0.060208   0.027854   0.036870
   44  H  7  S   -0.065651  -0.037903   0.037691   0.079108   0.050178
   45  H  8  S    0.000000   0.077815   0.060201   0.027854   0.036935
   46  H  8  S    0.000000   0.075796   0.037685   0.079109   0.050272

                     16         17         18         19         20
                    0.0252     0.0252     0.0212     0.0212     0.0174
                     A''        A'         A''        A'         A'  
    1  H  1  S    0.361426   0.208784  -0.205526  -0.118727   0.007760
    2  H  1  S    0.511741   0.295608  -0.282156  -0.162988   0.022279
    3  H  2  S   -0.361426   0.208784   0.205526  -0.118727   0.007760
    4  H  2  S   -0.511741   0.295608   0.282156  -0.162988   0.022279
    5  H  3  S   -0.000000  -0.417211  -0.000000   0.237319   0.007756
    6  H  3  S   -0.000000  -0.590736  -0.000000   0.325805   0.022272
    7  SI 4  S   -0.000000  -0.000019  -0.000000   0.000008   0.013505
    8  SI 4  S   -0.000000   0.000064  -0.000000  -0.000027  -0.042117
    9  SI 4  X   -0.000000   0.008771  -0.000000  -0.005620  -0.083326
   10  SI 4  Y   -0.000000  -0.194683  -0.000000   0.124415  -0.003766
   11  SI 4  Z   -0.194885   0.000000   0.124522   0.000000  -0.000000
   12  SI 4  S   -0.000000  -0.000384  -0.000000   0.000169   0.274230
   13  SI 4  X   -0.000000  -0.035409  -0.000000   0.023856   0.349244
   14  SI 4  Y   -0.000000   0.786264  -0.000000  -0.528293   0.015787
   15  SI 4  Z    0.787077   0.000000  -0.528747   0.000000  -0.000000
   16  SI 4  S   -0.000000  -0.000106  -0.000000   0.000035  -0.018563
   17  SI 4  X   -0.000000  -0.021661  -0.000000   0.013282   0.179280
   18  SI 4  Y   -0.000000   0.480730  -0.000000  -0.294065   0.008105
   19  SI 4  Z    0.481230   0.000000  -0.294319   0.000000  -0.000000
   20  SI 4 XX   -0.000000  -0.000603  -0.000000   0.000034   0.005852
   21  SI 4 YY   -0.000000  -0.006922  -0.000000   0.005840   0.006483
   22  SI 4 ZZ   -0.000000   0.007524  -0.000000  -0.005872   0.006485
   23  SI 4 XY   -0.000000   0.007881  -0.000000  -0.000576  -0.000033
   24  SI 4 XZ    0.007120   0.000000   0.000036   0.000000  -0.000000
   25  SI 4 YZ    0.009020   0.000000  -0.006786   0.000000  -0.000000
   26  C  5  S   -0.000000  -0.000017  -0.000000  -0.000003  -0.113237
   27  C  5  S   -0.000000   0.000073  -0.000000   0.000009   0.542311
   28  C  5  X   -0.000000  -0.013120  -0.000000  -0.033829   0.620226
   29  C  5  Y   -0.000000   0.289749  -0.000000   0.750157   0.027945
   30  C  5  Z    0.289992   0.000000   0.750940   0.000000  -0.000000
   31  C  5  S   -0.000000   0.000073  -0.000000   0.000028   0.775388
   32  C  5  X   -0.000000  -0.009540  -0.000000  -0.023199   0.418112
   33  C  5  Y   -0.000000   0.210813  -0.000000   0.514409   0.018837
   34  C  5  Z    0.210991   0.000000   0.514949   0.000000  -0.000000
   35  C  5 XX   -0.000000   0.000054  -0.000000  -0.000121  -0.014250
   36  C  5 YY   -0.000000   0.000513  -0.000000   0.000600  -0.014815
   37  C  5 ZZ   -0.000000  -0.000565  -0.000000  -0.000485  -0.014816
   38  C  5 XY   -0.000000  -0.000693  -0.000000   0.001506   0.000029
   39  C  5 XZ   -0.000636   0.000000   0.001561   0.000000  -0.000000
   40  C  5 YZ   -0.000682   0.000000  -0.000488   0.000000  -0.000000
   41  H  6  S    0.271048  -0.156533   0.411907  -0.237823  -0.356626
   42  H  6  S    0.368688  -0.212922   0.531544  -0.306902  -0.532994
   43  H  7  S   -0.271048  -0.156533  -0.411907  -0.237823  -0.356626
   44  H  7  S   -0.368688  -0.212922  -0.531544  -0.306902  -0.532994
   45  H  8  S   -0.000000   0.312992  -0.000000   0.475590  -0.356704
   46  H  8  S   -0.000000   0.425737  -0.000000   0.613718  -0.533096
 ..... DONE WITH ONE PARTICLE DENSITY MATRIX .....
 STEP CPU TIME =     0.37 TOTAL CPU TIME =      523.3 (    8.7 MIN)
 TOTAL WALL CLOCK TIME=      525.2 SECONDS, CPU UTILIZATION IS  99.64%

     --------------------------------------------------------
     ALDET CI PROPERTIES...FOR THE WAVEFUNCTION OF STATE    1
               USING THE EXPECTATION VALUE DENSITY
     --------------------------------------------------------

          -----------------
          ENERGY COMPONENTS
          -----------------

         WAVEFUNCTION NORMALIZATION =       1.0000000000

                ONE ELECTRON ENERGY =    -578.3989437790
                TWO ELECTRON ENERGY =     185.7139328171
           NUCLEAR REPULSION ENERGY =      62.6288838017
                                      ------------------
                       TOTAL ENERGY =    -330.0561271601

 ELECTRON-ELECTRON POTENTIAL ENERGY =     185.7139328171
  NUCLEUS-ELECTRON POTENTIAL ENERGY =    -908.8182722748
   NUCLEUS-NUCLEUS POTENTIAL ENERGY =      62.6288838017
                                      ------------------
             TOTAL POTENTIAL ENERGY =    -660.4754556559
               TOTAL KINETIC ENERGY =     330.4193284958
                 VIRIAL RATIO (V/T) =       1.9989007867

          ---------------------------------------
          MULLIKEN AND LOWDIN POPULATION ANALYSES
          ---------------------------------------

               ----- POPULATIONS IN EACH AO -----
                             MULLIKEN      LOWDIN
              1  H  1  S      0.46812     0.45802
              2  H  1  S      0.52461     0.49157
              3  H  2  S      0.46812     0.45802
              4  H  2  S      0.52461     0.49157
              5  H  3  S      0.46811     0.46035
              6  H  3  S      0.52463     0.49298
              7  SI 4  S      1.99913     1.99868
              8  SI 4  S      2.00050     1.97430
              9  SI 4  X      1.99118     1.96081
             10  SI 4  Y      1.99408     1.97003
             11  SI 4  Z      1.99408     1.97006
             12  SI 4  S      0.96209     0.41966
             13  SI 4  X      0.44621     0.40169
             14  SI 4  Y      0.72561     0.63542
             15  SI 4  Z      0.72617     0.63731
             16  SI 4  S      0.25233     0.29545
             17  SI 4  X      0.76549     0.65103
             18  SI 4  Y      0.10633     0.28139
             19  SI 4  Z      0.10498     0.28179
             20  SI 4 XX      0.05830     0.24085
             21  SI 4 YY      0.07522     0.24168
             22  SI 4 ZZ      0.07808     0.24479
             23  SI 4 XY      0.02447     0.03562
             24  SI 4 XZ      0.01886     0.02857
             25  SI 4 YZ      0.05134     0.05824
             26  C  5  S      1.99687     1.98222
             27  C  5  S      0.70353     0.42768
             28  C  5  X      0.49593     0.45968
             29  C  5  Y      0.74687     0.67821
             30  C  5  Z      0.74738     0.67898
             31  C  5  S      0.56291     0.35409
             32  C  5  X      0.20919     0.30726
             33  C  5  Y      0.41823     0.49742
             34  C  5  Z      0.41866     0.49851
             35  C  5 XX      0.00903     0.15954
             36  C  5 YY      0.02257     0.18772
             37  C  5 ZZ      0.02319     0.18852
             38  C  5 XY      0.00540     0.00939
             39  C  5 XZ      0.00424     0.00762
             40  C  5 YZ      0.00990     0.01437
             41  H  6  S      0.50761     0.46442
             42  H  6  S      0.25020     0.32478
             43  H  7  S      0.50761     0.46442
             44  H  7  S      0.25020     0.32478
             45  H  8  S      0.50762     0.46561
             46  H  8  S      0.25019     0.32491

          ----- MULLIKEN ATOMIC OVERLAP POPULATIONS -----
          (OFF-DIAGONAL ELEMENTS NEED TO BE MULTIPLIED BY 2)

             1           2           3           4           5

    1    0.6863449
    2   -0.0133886   0.6863449
    3   -0.0133831  -0.0133831   0.6863482
    4    0.3562836   0.3562836   0.3562751  14.4321634
    5   -0.0221558  -0.0221558  -0.0221517  -1.2620049   6.8618971
    6   -0.0008286   0.0006921  -0.0008286   0.0451519   0.2801601
    7    0.0006921  -0.0008286  -0.0008286   0.0451519   0.2801601
    8   -0.0008284  -0.0008284   0.0006920   0.0451549   0.2801599

             6           7           8

    6    0.4764243
    7   -0.0214815   0.4764243
    8   -0.0214833  -0.0214833   0.4764231

          TOTAL MULLIKEN AND LOWDIN ATOMIC POPULATIONS
       ATOM         MULL.POP.    CHARGE          LOW.POP.     CHARGE
    1 H             0.992736    0.007264         0.949592    0.050408
    2 H             0.992736    0.007264         0.949592    0.050408
    3 H             0.992740    0.007260         0.953331    0.046669
    4 SI           14.374459   -0.374459        14.327371   -0.327371
    5 C             6.373909   -0.373909         6.451190   -0.451190
    6 H             0.757806    0.242194         0.789199    0.210801
    7 H             0.757806    0.242194         0.789199    0.210801
    8 H             0.757807    0.242193         0.790525    0.209475

          ---------------------
          ELECTROSTATIC MOMENTS
          ---------------------

 POINT   1           X           Y           Z (BOHR)    CHARGE
                -0.967652   -0.098238    0.000000        0.00 (A.U.)
         DX          DY          DZ         /D/  (DEBYE)
     4.414482    0.199423    0.000000    4.418984
 ...... END OF PROPERTY EVALUATION ......
 STEP CPU TIME =     0.00 TOTAL CPU TIME =      523.3 (    8.7 MIN)
 TOTAL WALL CLOCK TIME=      525.2 SECONDS, CPU UTILIZATION IS  99.64%
             95051832  WORDS OF DYNAMIC MEMORY USED
 EXECUTION OF GAMESS TERMINATED NORMALLY Wed Aug  9 22:36:12 2017
 DDI: 263640 bytes (0.3 MB / 0 MWords) used by master data server.

 ----------------------------------------
 CPU timing information for all processes
 ========================================
 0: 523.110 + 0.235 = 523.346
 ----------------------------------------
 ddikick.x: exited gracefully.
unset echo
----- accounting info -----
Files used on the master node compute-1-0.local were:
-rw-rw-r-- 1 sarom sarom  16K Aug  9 22:27 /scratch/aldet-ch3sih3-vci.F05
-rw-rw-r-- 1 sarom sarom 3.5M Aug  9 22:27 /scratch/aldet-ch3sih3-vci.F08
-rw-rw-r-- 1 sarom sarom 177K Aug  9 22:27 /scratch/aldet-ch3sih3-vci.F09
-rw-rw-r-- 1 sarom sarom 1.7M Aug  9 22:36 /scratch/aldet-ch3sih3-vci.F10
-rw-rw-r-- 1 sarom sarom  35M Aug  9 22:36 /scratch/aldet-ch3sih3-vci.F12
rm: cannot remove `/scratch/tmp': Is a directory
ls: No match.
ls: No match.
ls: No match.
Wed Aug  9 22:36:15 CDT 2017
0.261u 0.185s 8:48.85 0.0%	0+0k 0+384io 0pf+0w
/opt/gridengine/default/spool/compute-1-0/active_jobs/36245.1/pe_hostfile compute-1-0.local
