-catch_rsh /opt/gridengine/default/spool/compute-0-5/active_jobs/36253.1/pe_hostfile
compute-0-5
The primary node assigned by SGE to this run is compute-0-5
Warning: no access to tty (Bad file descriptor).
Thus no job control in this shell.
source /home/sarom/dir.git.branch.saromleang-travis-ci/install.info
setenv GMS_PATH /home/sarom/dir.git.branch.saromleang-travis-ci
setenv GMS_BUILD_DIR /home/sarom/dir.git.branch.saromleang-travis-ci
setenv GMS_TARGET linux64
setenv GMS_FORTRAN gfortran
setenv GMS_GFORTRAN_VERNO 4.4
setenv GMS_MATHLIB mkl-so
setenv GMS_MATHLIB none
setenv GMS_MATHLIB_PATH /share/apps/intel/compilers_and_libraries_2017.1.132/linux/mkl/lib/intel64
setenv GMS_MKL_VERNO 12
setenv GMS_DDI_COMM sockets
setenv GMS_LIBCCHEM false
setenv GMS_EIGEN_PATH
setenv GMS_PHI false
setenv GMS_SHMTYPE sysv
setenv GMS_OPENMP false
unset echo
guga-hf-edecomp
/home/sarom/dir.git.branch.saromleang-travis-ci/tests/ci/parallel
----- GAMESS execution script 'rungms' -----
This job is running on host compute-0-5.local
under operating system Linux at Wed Aug 9 22:30:56 CDT 2017
Available scratch disk space (Kbyte units) at beginning of the job is
Filesystem           1K-blocks      Used Available Use% Mounted on
/dev/sda1             16126920   3962036  11345684  26% /
GAMESS temporary binary files will be written to /scratch
GAMESS supplementary output files will be written to /home/sarom/restart
Copying input file guga-hf-edecomp.inp to your run's scratch directory...
cp /home/sarom/dir.git.branch.saromleang-travis-ci/tests/ci/parallel/guga-hf-edecomp.inp /scratch/guga-hf-edecomp.F05
unset echo
The generated host list is
compute-0-5.local
/home/sarom/dir.git.branch.saromleang-travis-ci/ddikick.x /home/sarom/dir.git.branch.saromleang-travis-ci/gamess.00.x guga-hf-edecomp -ddi 1 1 compute-0-5.local -scr /scratch

 Distributed Data Interface kickoff program.
 Initiating 1 compute processes on 1 nodes to run the following command:
 /home/sarom/dir.git.branch.saromleang-travis-ci/gamess.00.x guga-hf-edecomp 

          ******************************************************
          *         GAMESS VERSION = 20 APR 2017 (R1)          *
          *             FROM IOWA STATE UNIVERSITY             *
          * M.W.SCHMIDT, K.K.BALDRIDGE, J.A.BOATZ, S.T.ELBERT, *
          *   M.S.GORDON, J.H.JENSEN, S.KOSEKI, N.MATSUNAGA,   *
          *          K.A.NGUYEN, S.J.SU, T.L.WINDUS,           *
          *       TOGETHER WITH M.DUPUIS, J.A.MONTGOMERY       *
          *         J.COMPUT.CHEM.  14, 1347-1363(1993)        *
          **************** 64 BIT LINUX VERSION ****************

  SINCE 1993, STUDENTS AND POSTDOCS WORKING AT IOWA STATE UNIVERSITY
  AND ALSO IN THEIR VARIOUS JOBS AFTER LEAVING ISU HAVE MADE IMPORTANT
  CONTRIBUTIONS TO THE CODE:
     IVANA ADAMOVIC, CHRISTINE AIKENS, YURI ALEXEEV, POOJA ARORA,
     ANDREY ASADCHEV, ROB BELL, PRADIPTA BANDYOPADHYAY, JONATHAN BENTZ,
     BRETT BODE, KURT BRORSEN, CALEB CARLIN, GALINA CHABAN, WEI CHEN,
     CHEOL HO CHOI, PAUL DAY, ALBERT DEFUSCO, NUWAN DESILVA, TIM DUDLEY,
     DMITRI FEDOROV, GRAHAM FLETCHER, MARK FREITAG, KURT GLAESEMANN,
     DAN KEMP, GRANT MERRILL, NORIYUKI MINEZAWA, JONATHAN MULLIN,
     TAKESHI NAGATA, SEAN NEDD, HEATHER NETZLOFF, BOSILJKA NJEGIC, RYAN OLSON,
     MIKE PAK, SPENCER PRUITT, LUKE ROSKOP, JIM SHOEMAKER, LYUDMILA SLIPCHENKO,
     TONY SMITH, SAROM SOK LEANG, JIE SONG, TETSUYA TAKETSUGU, SIMON WEBB,
     PENG XU, SOOHAENG YOO, FEDERICO ZAHARIEV

  ADDITIONAL CODE HAS BEEN PROVIDED BY COLLABORATORS IN OTHER GROUPS:
     IOWA STATE UNIVERSITY:
          JOE IVANIC, AARON WEST, LAIMUTIS BYTAUTAS, KLAUS RUEDENBERG
     UNIVERSITY OF TOKYO: KIMIHIKO HIRAO, TAKAHITO NAKAJIMA,
          TAKAO TSUNEDA, MUNEAKI KAMIYA, SUSUMU YANAGISAWA,
          KIYOSHI YAGI, MAHITO CHIBA, SEIKEN TOKURA, NAOAKI KAWAKAMI
     UNIVERSITY OF AARHUS: FRANK JENSEN
     UNIVERSITY OF IOWA: VISVALDAS KAIRYS, HUI LI
     NATIONAL INST. OF STANDARDS AND TECHNOLOGY: WALT STEVENS, DAVID GARMER
     UNIVERSITY OF PISA: BENEDETTA MENNUCCI, JACOPO TOMASI
     UNIVERSITY OF MEMPHIS: HENRY KURTZ, PRAKASHAN KORAMBATH
     UNIVERSITY OF ALBERTA: TOBY ZENG, MARIUSZ KLOBUKOWSKI
     UNIVERSITY OF NEW ENGLAND: MARK SPACKMAN
     MIE UNIVERSITY: HIROAKI UMEDA
     NAT. INST. OF ADVANCED INDUSTRIAL SCIENCE AND TECHNOLOGY: KAZUO KITAURA
     MICHIGAN STATE UNIVERSITY:
          KAROL KOWALSKI, MARTA WLOCH, JEFFREY GOUR, JESSE LUTZ,
          WEI LI, PIOTR PIECUCH
     UNIVERSITY OF SILESIA: MONIKA MUSIAL, STANISLAW KUCHARSKI
     FACULTES UNIVERSITAIRES NOTRE-DAME DE LA PAIX:
          OLIVIER QUINET, BENOIT CHAMPAGNE
     UNIVERSITY OF CALIFORNIA - SANTA BARBARA: BERNARD KIRTMAN
     INSTITUTE FOR MOLECULAR SCIENCE:
          KAZUYA ISHIMURA, MICHIO KATOUDA, AND SHIGERU NAGASE
     UNIVERSITY OF NOTRE DAME: ANNA POMOGAEVA, DAN CHIPMAN
     KYUSHU UNIVERSITY:
          HARUYUKI NAKANO,
          FENG LONG GU, JACEK KORCHOWIEC, MARCIN MAKOWSKI, AND YURIKO AOKI,
          HIROTOSHI MORI AND EISAKU MIYOSHI
     PENNSYLVANIA STATE UNIVERSITY:
          TZVETELIN IORDANOV, CHET SWALINA, JONATHAN SKONE,
          SHARON HAMMES-SCHIFFER
     WASEDA UNIVERSITY:
          MASATO KOBAYASHI, TOMOKO AKAMA, TSUGUKI TOUMA,
          TAKESHI YOSHIKAWA, YASUHIRO IKABATA, JUNJI SEINO,
          YUYA NAKAJIMA, HIROMI NAKAI
     NANJING UNIVERSITY: SHUHUA LI
     UNIVERSITY OF NEBRASKA:
          PEIFENG SU, DEJUN SI, NANDUN THELLAMUREGE, YALI WANG, HUI LI
     UNIVERSITY OF ZURICH: ROBERTO PEVERATI, KIM BALDRIDGE
     N. COPERNICUS UNIVERSITY AND JACKSON STATE UNIVERSITY:
          MARIA BARYSZ
     UNIVERSITY OF COPENHAGEN: Jimmy Kromann, CASPER STEINMANN
     TOKYO INSTITUTE OF TECHNOLOGY: HIROYA NAKATA
     NAGOYA UNIVERSITY: YOSHIO NISHIMOTO, STEPHAN IRLE
     MOSCOW STATE UNIVERSITY: VLADIMIR MIRONOV

 EXECUTION OF GAMESS BEGUN Wed Aug  9 22:30:56 2017

            ECHO OF THE FIRST FEW INPUT CARDS -
 INPUT CARD>!     HF, 215 AOs and 167 MOs...only 6 total occupied in the CI                 
 INPUT CARD>!     This run adds up the CI energy components from integrals/density.         
 INPUT CARD>!     Should work for GUGA, ALDET, and ORMAS runs.  GUGA results shown.         
 INPUT CARD>!                                                                               
 INPUT CARD>!     energies from MO basis integrals                                          
 INPUT CARD>!        one-electron:          -150.469404359                                  
 INPUT CARD>!        two-electron:            45.227718523                                  
 INPUT CARD>!        Vnn+constant:             5.148751614                                  
 INPUT CARD>!        Total energy:          -100.092934221                                  
 INPUT CARD>!                                                                               
 INPUT CARD>!     this run takes 43 seconds on 2.66 GHz Cloverton (17 Jun 2014)             
 INPUT CARD>!          answers unchanged since 2011.                                        
 INPUT CARD>!                                                                               
 INPUT CARD> $contrl scftyp=none cityp=guga ispher=1 $end                                   
 INPUT CARD> $system mwords=32 $end                                                         
 INPUT CARD> $basis  basnam(1)=haaccq,faaccq $end                                           
 INPUT CARD> $GUESS  GUESS=MOREAD NORB=167 PRTMO=.F. PURIFY=.T. $END                        
 INPUT CARD> $trans  dirtrf=.t. $end                                                        
 INPUT CARD>                                                                                
 INPUT CARD> $ciinp  nrnfg(8)=1 npflg(8)=1 nrnfg(5)=1 nrnfg(6)=1 $end                       
 INPUT CARD>                                                                                
 INPUT CARD> $cidet  group=c2v stsym=a1 ncore=1 nact=5 nels=8 nstate=2 sz=0 $end            
 INPUT CARD>                                                                                
 INPUT CARD> $cidrt  group=c2v stsym=a1 fors=.true. nfzc=1 ndoc=4 nval=1 $end               
 INPUT CARD> $gugdia nstate=2 $end                                                          
 INPUT CARD>                                                                                
 INPUT CARD> $data                                                                          
 INPUT CARD>HF experimental bond distance                                                   
 INPUT CARD>Cnv 2                                                                           
 INPUT CARD>                                                                                
 INPUT CARD>H 1                                                                             
 INPUT CARD>F 9 0 0 0.925                                                                   
 INPUT CARD> $end                                                                           
 INPUT CARD>!                                                                               
 INPUT CARD>!   basis sets are aug-cc-pVQZ plus one more diffuse augmentation               
 INPUT CARD>!   set intended to cover molecular polarizabilities very well.                 
 INPUT CARD> $haaccq                                                                        
 INPUT CARD>S   3                                                                           
 INPUT CARD>  1     82.6400000              0.0020060                                       
 INPUT CARD>  2     12.4100000              0.0153430                                       
 INPUT CARD>  3      2.8240000              0.0755790                                       
 INPUT CARD>S   1                                                                           
 INPUT CARD>  1      0.7977000              1.0000000                                       
 INPUT CARD>S   1                                                                           
 INPUT CARD>  1      0.2581000              1.0000000                                       
 INPUT CARD>S   1                                                                           
 INPUT CARD>  1      0.0898900              1.0000000                                       
 INPUT CARD>S   1                                                                           
 INPUT CARD>  1      0.0236300              1.0000000                                       
 INPUT CARD>P   1                                                                           
   32000000 WORDS OF MEMORY AVAILABLE

     BASIS OPTIONS
     -------------
     GBASIS=             IGAUSS=       0      POLAR=NONE    
     NDFUNC=       0     NFFUNC=       0     DIFFSP=       F
     NPFUNC=       0      DIFFS=       F     BASNAM=HAACCQ  

 USING BASNAM FOR ATOM CUSTOMIZED BASIS CONSTRUCTION
     ----------------
     ATOM  BASIS NAME
     ----------------
       1   HAACCQ  
       2   FAACCQ  
 NOW LOCATING ALL    2 BASIS SETS IN YOUR INPUT FILE...
 FOUND BASIS SET  $HAACCQ
 S   3                         
   1     82.6400000            
   2     12.4100000            
   3      2.8240000            
 S   1                         
   1      0.7977000            
 S   1                         
   1      0.2581000            
 S   1                         
   1      0.0898900            
 S   1                         
   1      0.0236300            
 P   1                         
   1      2.2920000            
 P   1                         
   1      0.8380000            
 P   1                         
   1      0.2920000            
 P   1                         
   1      0.0848000            
 D   1                         
   1      2.0620000            
 D   1                         
   1      0.6620000            
 D   1                         
   1      0.1900000            
 F   1                         
   1      1.3970000            
 F   1                         
   1      0.3600000            
 s 1 ; 1 0.006212 1.0          
 p 1 ; 1 0.024627 1.0          
 d 1 ; 1 0.054532 1.0          
 f 1 ; 1 0.092770 1.0          
                               
  $end                         
 FOUND BASIS SET  $FAACCQ
 S   9                         
   1  74530.0000000            
   2  11170.0000000            
   3   2543.0000000            
   4    721.0000000            
   5    235.9000000            
   6     85.6000000            
   7     33.5500000            
   8     13.9300000            
   9      5.9150000            
 S   9                         
   1  74530.0000000            
   2  11170.0000000            
   3   2543.0000000            
   4    721.0000000            
   5    235.9000000            
   6     85.6000000            
   7     33.5500000            
   8     13.9300000            
   9      5.9150000            
 S   1                         
   1      1.8430000            
 S   1                         
   1      0.7124000            
 S   1                         
   1      0.2637000            
 S   1                         
   1      0.0859400            
 P   3                         
   1     80.3900000            
   2     18.6300000            
   3      5.6940000            
 P   1                         
   1      1.9530000            
 P   1                         
   1      0.6702000            
 P   1                         
   1      0.2166000            
 P   1                         
   1      0.0656800            
 D   1                         
   1      5.0140000            
 D   1                         
   1      1.7250000            
 D   1                         
   1      0.5860000            
 D   1                         
   1      0.2070000            
 F   1                         
   1      3.5620000            
 F   1                         
   1      1.1480000            
 F   1                         
   1      0.4600000            
 G   1                         
   1      2.3760000            
 G   1                         
   1      0.9240000            
 s 1 ; 1 0.028 1.0             
 p 1 ; 1 0.020 1.0             
 d 1 ; 1 0.073 1.0             
 f 1 ; 1 0.18  1.0             
 g 1 ; 1 0.36  1.0             
                               
  $end                         
    2 UNIQUE ATOM CUSTOMIZED BASIS SETS WERE FOUND.

     SEARCHING FOR $MCP
     $MCP GROUP NOT FOUND


     RUN TITLE
     ---------
 HF experimental bond distance                                                   

 THE POINT GROUP OF THE MOLECULE IS CNV     
 THE ORDER OF THE PRINCIPAL AXIS IS     2
 *** WARNING! ATOM   1 SHELL    1 TYPE S HAS NORMALIZATION  11.44105573
 *** WARNING! ATOM   2 SHELL   19 TYPE S HAS NORMALIZATION   1.00816163
 *** WARNING! ATOM   2 SHELL   20 TYPE S HAS NORMALIZATION   2.76697824
 *** WARNING! ATOM   2 SHELL   25 TYPE P HAS NORMALIZATION   4.94472805

 ATOM      ATOMIC                      COORDINATES (BOHR)
           CHARGE         X                   Y                   Z
 H           1.0     0.0000000000        0.0000000000        0.0000000000
 F           9.0     0.0000000000        0.0000000000        1.7479965386

          INTERNUCLEAR DISTANCES (ANGS.)
          ------------------------------

                1 H          2 F     

   1 H       0.0000000    0.9250000 *
   2 F       0.9250000 *  0.0000000  

  * ... LESS THAN  3.000


     ATOMIC BASIS SET
     ----------------
 THE CONTRACTED PRIMITIVE FUNCTIONS HAVE BEEN UNNORMALIZED
 THE CONTRACTED BASIS FUNCTIONS ARE NOW NORMALIZED TO UNITY

  SHELL TYPE  PRIMITIVE        EXPONENT          CONTRACTION COEFFICIENT(S)

 H         

      1   S       1            82.6400000    0.022950757793
      1   S       2            12.4100000    0.175540118054
      1   S       3             2.8240000    0.864703550962

      2   S       4             0.7977000    1.000000000000

      3   S       5             0.2581000    1.000000000000

      4   S       6             0.0898900    1.000000000000

      5   S       7             0.0236300    1.000000000000

      6   P       8             2.2920000    1.000000000000

      7   P       9             0.8380000    1.000000000000

      8   P      10             0.2920000    1.000000000000

      9   P      11             0.0848000    1.000000000000

     10   D      12             2.0620000    1.000000000000

     11   D      13             0.6620000    1.000000000000

     12   D      14             0.1900000    1.000000000000

     13   F      15             1.3970000    1.000000000000

     14   F      16             0.3600000    1.000000000000

     15   S      17             0.0062120    1.000000000000

     16   P      18             0.0246270    1.000000000000

     17   D      19             0.0545320    1.000000000000

     18   F      20             0.0927700    1.000000000000

 F         

     19   S      21         74530.0000000    0.000095775355
     19   S      22         11170.0000000    0.000744023285
     19   S      23          2543.0000000    0.003889487580
     19   S      24           721.0000000    0.016055982166
     19   S      25           235.9000000    0.054732086890
     19   S      26            85.6000000    0.150733270224
     19   S      27            33.5500000    0.310767839672
     19   S      28            13.9300000    0.398075645245
     19   S      29             5.9150000    0.212753357558

     20   S      30         74530.0000000   -0.000060873521
     20   S      31         11170.0000000   -0.000475920257
     20   S      32          2543.0000000   -0.002465377610
     20   S      33           721.0000000   -0.010370634436
     20   S      34           235.9000000   -0.035588874097
     20   S      35            85.6000000   -0.105313958717
     20   S      36            33.5500000   -0.238621436267
     20   S      37            13.9300000   -0.431275063066
     20   S      38             5.9150000   -0.306896624290

     21   S      39             1.8430000    1.000000000000

     22   S      40             0.7124000    1.000000000000

     23   S      41             0.2637000    1.000000000000

     24   S      42             0.0859400    1.000000000000

     25   P      43            80.3900000    0.031384188922
     25   P      44            18.6300000    0.218576758645
     25   P      45             5.6940000    0.833255902325

     26   P      46             1.9530000    1.000000000000

     27   P      47             0.6702000    1.000000000000

     28   P      48             0.2166000    1.000000000000

     29   P      49             0.0656800    1.000000000000

     30   D      50             5.0140000    1.000000000000

     31   D      51             1.7250000    1.000000000000

     32   D      52             0.5860000    1.000000000000

     33   D      53             0.2070000    1.000000000000

     34   F      54             3.5620000    1.000000000000

     35   F      55             1.1480000    1.000000000000

     36   F      56             0.4600000    1.000000000000

     37   G      57             2.3760000    1.000000000000

     38   G      58             0.9240000    1.000000000000

     39   S      59             0.0280000    1.000000000000

     40   P      60             0.0200000    1.000000000000

     41   D      61             0.0730000    1.000000000000

     42   F      62             0.1800000    1.000000000000

     43   G      63             0.3600000    1.000000000000

 TOTAL NUMBER OF BASIS SET SHELLS             =   43
 NUMBER OF CARTESIAN GAUSSIAN BASIS FUNCTIONS =  215
 NOTE: THIS RUN WILL RESTRICT THE MO VARIATION SPACE TO SPHERICAL HARMONICS.
 THE NUMBER OF ORBITALS KEPT IN THE VARIATIONAL SPACE WILL BE PRINTED LATER.
 NUMBER OF ELECTRONS                          =   10
 CHARGE OF MOLECULE                           =    0
 SPIN MULTIPLICITY                            =    1
 NUMBER OF OCCUPIED ORBITALS (ALPHA)          =    5
 NUMBER OF OCCUPIED ORBITALS (BETA )          =    5
 TOTAL NUMBER OF ATOMS                        =    2
 THE NUCLEAR REPULSION ENERGY IS        5.1487516142

 THIS MOLECULE IS RECOGNIZED AS BEING LINEAR,
 ORBITAL LZ DEGENERACY TOLERANCE ETOLLZ= 1.00E-06

     $CONTRL OPTIONS
     ---------------
 SCFTYP=NONE         RUNTYP=ENERGY       EXETYP=RUN     
 MPLEVL=       0     CITYP =GUGA         CCTYP =NONE         VBTYP =NONE    
 DFTTYP=NONE         TDDFT =NONE    
 MULT  =       1     ICHARG=       0     NZVAR =       0     COORD =UNIQUE  
 PP    =NONE         RELWFN=NONE         LOCAL =NONE         NUMGRD=       F
 ISPHER=       1     NOSYM =       0     MAXIT =      30     UNITS =ANGS    
 PLTORB=       F     MOLPLT=       F     AIMPAC=       F     FRIEND=        
 NPRINT=       7     IREST =       0     GEOM  =INPUT   
 NORMF =       0     NORMP =       0     ITOL  =      20     ICUT  =       9
 INTTYP=BEST         GRDTYP=BEST         QMTTOL= 1.0E-06

     $SYSTEM OPTIONS
     ---------------
  REPLICATED MEMORY=    32000000 WORDS (ON EVERY NODE).
 DISTRIBUTED MEMDDI=           0 MILLION WORDS IN AGGREGATE,
 MEMDDI DISTRIBUTED OVER   1 PROCESSORS IS           0 WORDS/PROCESSOR.
 TOTAL MEMORY REQUESTED ON EACH PROCESSOR=    32000000 WORDS.
 TIMLIM=      525600.00 MINUTES, OR     365.0 DAYS.
 PARALL= F  BALTYP=  DLB     KDIAG=    0  COREFL= F
 MXSEQ2=     300 MXSEQ3=     150  mem10=         0

          ----------------
          PROPERTIES INPUT
          ----------------

     MOMENTS            FIELD           POTENTIAL          DENSITY
 IEMOM =       1   IEFLD =       0   IEPOT =       0   IEDEN =       0
 WHERE =COMASS     WHERE =NUCLEI     WHERE =NUCLEI     WHERE =NUCLEI  
 OUTPUT=BOTH       OUTPUT=BOTH       OUTPUT=BOTH       OUTPUT=BOTH    
 IEMINT=       0   IEFINT=       0                     IEDINT=       0
                                                       MORB  =       0
          EXTRAPOLATION IN EFFECT
          SOSCF IN EFFECT
 ORBITAL PRINTING OPTION: NPREO=     1   215     2     1

     -------------------------------
     INTEGRAL TRANSFORMATION OPTIONS
     -------------------------------
     NWORD  =            0
     CUTOFF = 1.0E-09     MPTRAN =       0
     DIRTRF =       T     AOINTS =DUP     

          ----------------------
          INTEGRAL INPUT OPTIONS
          ----------------------
 NOPK  =       1 NORDER=       0 SCHWRZ=       T

     ------------------------------------------
     THE POINT GROUP IS CNV, NAXIS= 2, ORDER= 4
     ------------------------------------------

 -- VARIATIONAL SPACE WILL BE RESTRICTED TO PURE SPHERICAL HARMONICS ONLY --
 AFTER EXCLUDING CONTAMINANT COMBINATIONS FROM THE CARTESIAN GAUSSIAN BASIS
 SET, THE NUMBER OF SPHERICAL HARMONICS KEPT IN THE VARIATION SPACE IS  167

     DIMENSIONS OF THE SYMMETRY SUBSPACES ARE
 A1  =   65     A2  =   22     B1  =   40     B2  =   40

 ..... DONE SETTING UP THE RUN .....
 STEP CPU TIME =     0.40 TOTAL CPU TIME =        0.4 (    0.0 MIN)
 TOTAL WALL CLOCK TIME=        0.4 SECONDS, CPU UTILIZATION IS 100.00%

          ********************
          1 ELECTRON INTEGRALS
          ********************
 ...... END OF ONE-ELECTRON INTEGRALS ......
 STEP CPU TIME =     0.00 TOTAL CPU TIME =        0.4 (    0.0 MIN)
 TOTAL WALL CLOCK TIME=        0.4 SECONDS, CPU UTILIZATION IS 100.00%

          -------------
          GUESS OPTIONS
          -------------
          GUESS =MOREAD            NORB  =     167          NORDER=       0
          MIX   =       F          PRTMO =       F          PUNMO =       F
          TOLZ  = 1.0E-08          TOLE  = 1.0E-05
          SYMDEN=       F          PURIFY=       T

 INITIAL GUESS ORBITALS GENERATED BY MOREAD   ROUTINE.

 STATISTICS FOR GENERATION OF SYMMETRY ORBITAL -Q- MATRIX
 NUMBER OF CARTESIAN ATOMIC ORBITALS=        215
 NUMBER OF SPHERICAL CONTAMINANTS DROPPED=    48
 NUMBER OF LINEARLY DEPENDENT MOS DROPPED=     0
 TOTAL NUMBER OF MOS IN VARIATION SPACE=     167
 ORBITAL PURIFICATION WILL OCCUR

 SYMMETRIES FOR INITIAL GUESS ORBITALS FOLLOW.   BOTH SET(S).
     5 ORBITALS ARE OCCUPIED (    1 CORE ORBITALS).
     1=A1       2=A1       3=A1       4=B2       5=B1       6=A1       7=A1  
     8=A1       9=B2      10=B1      11=A1      12=A1      13=B2      14=B1  
    15=A1      16=A2      17=A1      18=B2      19=B1      20=A1      21=A1  
    22=B1      23=B2      24=B2      25=B1      26=A1      27=A2      28=A1  
    29=A1      30=B1      31=B2      32=B1      33=B2      34=A2      35=A1  
    36=A1      37=A1      38=B1      39=B2      40=A1      41=B2      42=B1  
    43=A1      44=A2      45=A1      46=B2      47=B1      48=A2      49=A1  
    50=A1      51=B2      52=B1      53=A1      54=B1      55=B2      56=B2  
    57=B1      58=A2      59=A1      60=A1      61=A1      62=B2      63=B1  
    64=B2      65=B1      66=A1      67=A1      68=A2      69=A1      70=A2  
    71=A1      72=A1      73=A2      74=B2      75=B1      76=B1      77=B2  
    78=B2      79=B1      80=A1      81=A1      82=B2      83=B1      84=A2  
    85=A1      86=A1      87=A2      88=A1      89=B1      90=B2      91=B2  
    92=B1      93=B2      94=B1      95=A1      96=A1      97=B2      98=B1  
    99=A2     100=A1     101=A1     102=A1     103=B2     104=B1     105=B1  
   106=B2     107=A1     108=A2     109=A1     110=A2     111=A1     112=B2  
   113=B1     114=A2     115=A1     116=B2     117=B1     118=A1     119=B2  
   120=B1     121=A2     122=A1     123=A1     124=B2     125=B1     126=B1  
   127=B2     128=A1     129=A1     130=A2     131=B2     132=B1     133=A1  
   134=A1     135=B2     136=B1     137=A2     138=A1     139=A1     140=B2  
   141=B1     142=A1     143=B2     144=B1     145=A2     146=A1     147=B1  
   148=B2     149=A1     150=A2     151=A1     152=B2     153=B1     154=A1  
   155=B2     156=B1     157=A1     158=A2     159=B2     160=B1     161=A1  
   162=A2     163=A1     164=B2     165=B1     166=A1     167=A1  
 ...... END OF INITIAL ORBITAL SELECTION ......
 STEP CPU TIME =     0.15 TOTAL CPU TIME =        0.6 (    0.0 MIN)
 TOTAL WALL CLOCK TIME=        0.5 SECONDS, CPU UTILIZATION IS 100.00%

                    ----------------------
                    AO INTEGRAL TECHNOLOGY
                    ----------------------
     S,P,L SHELL ROTATED AXIS INTEGRALS, REPROGRAMMED BY
        KAZUYA ISHIMURA (IMS) AND JOSE SIERRA (SYNSTAR).
     S,P,D,L SHELL ROTATED AXIS INTEGRALS PROGRAMMED BY
        KAZUYA ISHIMURA (INSTITUTE FOR MOLECULAR SCIENCE).
     S,P,D,F,G SHELL TO TOTAL QUARTET ANGULAR MOMENTUM SUM 5,
        ERIC PROGRAM BY GRAHAM FLETCHER (ELORET AND NASA ADVANCED
        SUPERCOMPUTING DIVISION, AMES RESEARCH CENTER).
     S,P,D,F,G,L SHELL GENERAL RYS QUADRATURE PROGRAMMED BY
        MICHEL DUPUIS (PACIFIC NORTHWEST NATIONAL LABORATORY).

          --------------------
          2 ELECTRON INTEGRALS
          --------------------

 DIRECT SCF METHOD SKIPS INTEGRAL STORAGE ON DISK.
 DIRECT TRANSFORMATION SKIPS AO INTEGRAL STORAGE ON DISK.
  ...... END OF TWO-ELECTRON INTEGRALS .....
 STEP CPU TIME =     0.02 TOTAL CPU TIME =        0.6 (    0.0 MIN)
 TOTAL WALL CLOCK TIME=        0.6 SECONDS, CPU UTILIZATION IS  98.28%

 GUGA CI OPTIONS      NRNFG     NPFLG
 ------------------------------------

 -DRT- TABLE          1         0
 TRANSFORMATION       1         0
 ENERGY MATRIX        1         0
 DIAGONALIZATION      1         0
 1E-DENSITY MATRIX    1         0
 2E-DENSITY MATRIX    1         0
 LAGRANGIAN MATRIX    0         0
------------------------------------

 -DRT- TABLE          1         1
 TRANSFORMATION   

          -----------------------     ----------------------------
          GUGA DISTINCT ROW TABLE     WRITTEN BY B.R.BROOKS,P.SAXE
          -----------------------     ----------------------------

      GROUP=C2V          NPRT=       0
       FORS=       T   INTACT=       F
       FOCI=       F   MXNINT=   50000
       SOCI=       F   MXNEME=   10000
     IEXCIT=       0

      -CORE-    -INTERNAL-  -EXTERNAL-
     NFZC=   1   NDOC=   4   NEXT=   0
     NMCC=   0   NAOS=   0   NFZV=   0
                 NBOS=   0
                 NALP=   0
                 NVAL=   1

 THE MAXIMUM ELECTRON EXCITATION WILL BE   2

 SYMMETRIES FOR THE   1 CORE,   5 ACTIVE,   0 EXTERNAL MO-S ARE
     CORE= A1  
   ACTIVE= A1    A1    B2    B1    A1  
           DOC   DOC   DOC   DOC   VAL 

 MOLECULAR CHARGE          =    0
 NUMBER OF ALPHA ELECTRONS =    5
 NUMBER OF  BETA ELECTRONS =    5

 THE ELECTRONIC STATE IS  1-A1  

 THE DISTINCT ROW TABLE HAS        14 ROWS.
  THE WAVEFUNCTION CONTAINS         8 WALKS (CSF-S).

 TOTAL NUMBER OF INTEGRALS =         63
 NUMBER OF INTEGRALS/GROUP =         63
 NUMBER OF INTEGRAL GROUPS =          1
 MAXIMUM RECORD SIZES ARE     500 FOR UNIT 11      22 FOR UNIT 12
                            30001 FOR UNIT 15   30001 FOR UNIT 16
 ...... END OF -DRT- GENERATION ...... 
 STEP CPU TIME =     0.08 TOTAL CPU TIME =        0.6 (    0.0 MIN)
 TOTAL WALL CLOCK TIME=        0.7 SECONDS, CPU UTILIZATION IS  98.48%

     --------------------------------------------
     PARTIAL TWO ELECTRON INTEGRAL TRANSFORMATION
     --------------------------------------------

 NUMBER OF CORE MOLECULAR ORBITALS     =    1
 NUMBER OF OCCUPIED MOLECULAR ORBITALS =    6
 TOTAL NUMBER OF MOLECULAR ORBITALS    =    6
 TOTAL NUMBER OF ATOMIC ORBITALS       =  215
 THRESHOLD FOR KEEPING TRANSFORMED 2E- INTEGRALS = 1.000E-09
 AO INTEGRALS WILL BE CALCULATED IN DIRECT MODE...
 DIRECT TRANSFORMATION SKIPS AO INTEGRAL STORAGE ON DISK.
 SCHWARZ INEQUALITY OVERHEAD:     23220 INTEGRALS, T=        0.01
 EVALUATING THE FROZEN CORE ENERGY...
 ----- FROZEN CORE ENERGY =       -76.3384812232

 PLAN A: REQUIREMENTS FOR FULLY IN-MEMORY TRANSFORMATION:
 # OF WORDS AVAILABLE =             32000000
 # OF WORDS NEEDED    =             25349674

 CHOOSING IN MEMORY PARTIAL TRANSFORMATION...
 DIRECT TRANSFORMATION SKIPS AO INTEGRAL STORAGE ON DISK.
 TOTAL NUMBER OF TRANSFORMED 2E- INTEGRALS KEPT =           49
 ... END OF INTEGRAL TRANSFORMATION ...
 STEP CPU TIME =    11.54 TOTAL CPU TIME =       12.2 (    0.2 MIN)
 TOTAL WALL CLOCK TIME=       12.2 SECONDS, CPU UTILIZATION IS  99.92%

          ------------------------
          GUGA-CI INTEGRAL SORTING
          ------------------------

     80101 WORDS NEEDED TO SORT             63 GUGA INTEGRALS IN MEMORY
  32000000 WORDS ARE AVAILABLE
 CHOOSING IN-MEMORY SORTING...
 IN CORE ALGORITHM SORTED              8 NON-ZERO 1E- INTEGRALS
 IN CORE ALGORITHM SORTED             49 NON-ZERO 2E- INTEGRALS
 ...... END OF INTEGRAL SORTING ...... 
 STEP CPU TIME =     0.00 TOTAL CPU TIME =       12.2 (    0.2 MIN)
 TOTAL WALL CLOCK TIME=       12.2 SECONDS, CPU UTILIZATION IS  99.84%

 -------------------------     ---------------------------------------
 ENERGY MATRIX CALCULATION     WRITTEN BY B.R.BROOKS,W.D.LAIDIG,P.SAXE
 -------------------------     ---------------------------------------

 COMPUTING THE HAMILTONIAN FOR THE         8 CSF-S...

         116 IS THE TOTAL NUMBER OF GENERATED LOOPS
         116 WERE CREATED BY THE LOOP-DRIVEN ALGORITHM
           0 WERE CREATED IMPLICITLY

         116 IS THE TOTAL NUMBER OF PROCESSED LOOPS
          61     DIAGONAL LOOPS ARE STORED ON WORK15 IN     1 BUFFERS OF  10000 ELEMENTS.
          55 OFF DIAGONAL LOOPS ARE STORED ON WORK16 IN     1 BUFFERS OF  10000 ELEMENTS.
 ...... END OF ENERGY MATRIX CALCULATION ...... 
 STEP CPU TIME =     0.01 TOTAL CPU TIME =       12.2 (    0.2 MIN)
 TOTAL WALL CLOCK TIME=       12.2 SECONDS, CPU UTILIZATION IS  99.84%

          -----------------------------------------
          DAVIDSON METHOD CI-MATRIX DIAGONALIZATION
                   WRITTEN BY STEVE ELBERT
          -----------------------------------------
 NUMBER OF STATES REQUESTED =     2
 MAX. NUMB. OF EXPAN. VEC   =    30
 MAX. NUMB. IMPROVED STATES =     2
 MAX. NUMB. OF ITERATIONS   =    50
 CONVERGENCE CRITERION      =    1.0E-06

 CHOOSING TO SOLVE SECULAR EQUATION IN MEMORY
 NUMBER OF WORDS AVAILABLE =   32000000
 NUMBER OF WORDS USED      =      31094
 ENERGY MATRIX BUFFER SIZE =      10000
 SOLUTION FOUND WITH DIRECT METHOD

 STATE #    1  ENERGY =    -100.092934221

      CSF      COEF    OCCUPANCY (IGNORING CORE)
      ---      ----    --------- --------- -----
        1    0.994517  22220
        6   -0.087354  20222

 STATE #    2  ENERGY =     -98.860763260

      CSF      COEF    OCCUPANCY (IGNORING CORE)
      ---      ----    --------- --------- -----
        2    0.992705  21221
        6    0.110310  20222

 RENORMALIZED DAVIDSON CORRECTION FOR     1-REFERENCE CI.
 C0SQ= 0.989064 EREF=     -100.067582 E-E(REF)=   0.025353 E(Q)=   0.000280
 GIVES A E(SD+Q) ESTIMATE OF     -100.0932145467
 ...... END OF CI-MATRIX DIAGONALIZATION ......
 STEP CPU TIME =     0.01 TOTAL CPU TIME =       12.2 (    0.2 MIN)
 TOTAL WALL CLOCK TIME=       12.2 SECONDS, CPU UTILIZATION IS  99.84%

          --------------------------------------
          CI DENSITY MATRIX AND NATURAL ORBITALS
          --------------------------------------
 PROPERTIES WILL BE COMPUTED FOR STATE -IROOT-   1 WITH E=     -100.0929342214
 NFLGDM=   1   0
 NWORD=         0  IBLOCK=   0
 NUMBER OF STATES         =      2
 NUMBER OF CONFIGURATIONS =      8

          CI EIGENSTATE    1 TOTAL ENERGY =     -100.0929342214
          DENSITY MATRIX OF STATE   1 SAVED FOR PROPERTY ANALYSIS

          NATURAL ORBITALS IN ATOMIC ORBITAL BASIS
          ----------------------------------------

                      1          2          3          4          5
                    2.0000     1.9998     1.9998     1.9998     1.9795
                     A1         A1         B1         B2         A1  
    1  H  1  S   -0.000632   0.006484   0.000000  -0.000000  -0.069659
    2  H  1  S   -0.000861   0.006217   0.000000  -0.000000  -0.167414
    3  H  1  S    0.000183  -0.109507   0.000000  -0.000000  -0.163368
    4  H  1  S    0.000660  -0.025084   0.000000  -0.000000  -0.019959
    5  H  1  S   -0.000798   0.006507   0.000000  -0.000000   0.025372
    6  H  1  X    0.000000   0.000000   0.003841  -0.000000   0.000000
    7  H  1  Y    0.000000   0.000000   0.000000   0.003841   0.000000
    8  H  1  Z   -0.000296   0.003348   0.000000  -0.000000  -0.009936
    9  H  1  X    0.000000   0.000000   0.014587  -0.000000   0.000000
   10  H  1  Y    0.000000   0.000000   0.000000   0.014587   0.000000
   11  H  1  Z   -0.000259   0.003706   0.000000  -0.000000  -0.013161
   12  H  1  X    0.000000   0.000000   0.001281  -0.000000   0.000000
   13  H  1  Y    0.000000   0.000000   0.000000   0.001281   0.000000
   14  H  1  Z    0.000616  -0.025993   0.000000  -0.000000  -0.043751
   15  H  1  X    0.000000   0.000000  -0.041116  -0.000000   0.000000
   16  H  1  Y    0.000000   0.000000   0.000000  -0.041116   0.000000
   17  H  1  Z    0.001552  -0.004559   0.000000  -0.000000  -0.033337
   18  H  1 XX    0.000048  -0.000536   0.000000  -0.000000   0.002058
   19  H  1 YY    0.000048  -0.000536   0.000000  -0.000000   0.002058
   20  H  1 ZZ   -0.000095   0.001073   0.000000  -0.000000  -0.004115
   21  H  1 XY    0.000000   0.000000   0.000000  -0.000000   0.000000
   22  H  1 XZ    0.000000   0.000000   0.002334  -0.000000   0.000000
   23  H  1 YZ    0.000000   0.000000   0.000000   0.002334   0.000000
   24  H  1 XX   -0.000156   0.000800   0.000000  -0.000000   0.003356
   25  H  1 YY   -0.000156   0.000800   0.000000  -0.000000   0.003356
   26  H  1 ZZ    0.000311  -0.001600   0.000000  -0.000000  -0.006712
   27  H  1 XY    0.000000   0.000000   0.000000  -0.000000   0.000000
   28  H  1 XZ    0.000000   0.000000   0.004741  -0.000000   0.000000
   29  H  1 YZ    0.000000   0.000000   0.000000   0.004741   0.000000
   30  H  1 XX   -0.000310   0.001948   0.000000  -0.000000   0.008420
   31  H  1 YY   -0.000310   0.001948   0.000000  -0.000000   0.008420
   32  H  1 ZZ    0.000620  -0.003896   0.000000  -0.000000  -0.016839
   33  H  1 XY    0.000000   0.000000   0.000000  -0.000000   0.000000
   34  H  1 XZ    0.000000   0.000000  -0.003949  -0.000000   0.000000
   35  H  1 YZ    0.000000   0.000000   0.000000  -0.003949   0.000000
   36  H  1 XXX   0.000000   0.000000  -0.000869  -0.000000   0.000000
   37  H  1 YYY   0.000000   0.000000   0.000000  -0.000869   0.000000
   38  H  1 ZZZ   0.000012   0.000227   0.000000  -0.000000  -0.002333
   39  H  1 XXY   0.000000   0.000000   0.000000  -0.000389   0.000000
   40  H  1 XXZ  -0.000008  -0.000153   0.000000  -0.000000   0.001565
   41  H  1 YYX   0.000000   0.000000  -0.000389  -0.000000   0.000000
   42  H  1 YYZ  -0.000008  -0.000153   0.000000  -0.000000   0.001565
   43  H  1 ZZX   0.000000   0.000000   0.001555  -0.000000   0.000000
   44  H  1 ZZY   0.000000   0.000000   0.000000   0.001555   0.000000
   45  H  1 XYZ   0.000000   0.000000   0.000000  -0.000000   0.000000
   46  H  1 XXX   0.000000   0.000000  -0.000485  -0.000000   0.000000
   47  H  1 YYY   0.000000   0.000000   0.000000  -0.000485   0.000000
   48  H  1 ZZZ   0.000187  -0.000132   0.000000  -0.000000  -0.000845
   49  H  1 XXY   0.000000   0.000000   0.000000  -0.000217   0.000000
   50  H  1 XXZ  -0.000126   0.000089   0.000000  -0.000000   0.000567
   51  H  1 YYX   0.000000   0.000000  -0.000217  -0.000000   0.000000
   52  H  1 YYZ  -0.000126   0.000089   0.000000  -0.000000   0.000567
   53  H  1 ZZX   0.000000   0.000000   0.000867  -0.000000   0.000000
   54  H  1 ZZY   0.000000   0.000000   0.000000   0.000867   0.000000
   55  H  1 XYZ   0.000000   0.000000   0.000000  -0.000000   0.000000
   56  H  1  S    0.000031  -0.000238   0.000000  -0.000000  -0.001073
   57  H  1  X    0.000000   0.000000  -0.012298  -0.000000   0.000000
   58  H  1  Y    0.000000   0.000000   0.000000  -0.012298   0.000000
   59  H  1  Z    0.000112   0.000105   0.000000  -0.000000  -0.001670
   60  H  1 XX   -0.000159   0.000567   0.000000  -0.000000   0.003805
   61  H  1 YY   -0.000159   0.000567   0.000000  -0.000000   0.003805
   62  H  1 ZZ    0.000317  -0.001134   0.000000  -0.000000  -0.007610
   63  H  1 XY    0.000000   0.000000   0.000000  -0.000000   0.000000
   64  H  1 XZ    0.000000   0.000000  -0.009448  -0.000000   0.000000
   65  H  1 YZ    0.000000   0.000000   0.000000  -0.009448   0.000000
   66  H  1 XXX   0.000000   0.000000   0.000391  -0.000000   0.000000
   67  H  1 YYY   0.000000   0.000000   0.000000   0.000391   0.000000
   68  H  1 ZZZ   0.000044  -0.001090   0.000000  -0.000000  -0.002701
   69  H  1 XXY   0.000000   0.000000   0.000000   0.000175   0.000000
   70  H  1 XXZ  -0.000029   0.000731   0.000000  -0.000000   0.001812
   71  H  1 YYX   0.000000   0.000000   0.000175  -0.000000   0.000000
   72  H  1 YYZ  -0.000029   0.000731   0.000000  -0.000000   0.001812
   73  H  1 ZZX   0.000000   0.000000  -0.000699  -0.000000   0.000000
   74  H  1 ZZY   0.000000   0.000000   0.000000  -0.000699   0.000000
   75  H  1 XYZ   0.000000   0.000000   0.000000  -0.000000   0.000000
   76  F  2  S    0.989131   0.078747   0.000000  -0.000000   0.000315
   77  F  2  S   -0.027369   0.346416   0.000000  -0.000000  -0.054987
   78  F  2  S   -0.004888   0.285227   0.000000  -0.000000  -0.043404
   79  F  2  S   -0.049135   0.554433   0.000000  -0.000000  -0.057571
   80  F  2  S   -0.020645   0.350884   0.000000  -0.000000   0.074857
   81  F  2  S   -0.000983   0.036915   0.000000  -0.000000   0.012960
   82  F  2  X    0.000000   0.000000   0.194497  -0.000000   0.000000
   83  F  2  Y    0.000000   0.000000   0.000000   0.194497   0.000000
   84  F  2  Z   -0.004651   0.047803   0.000000  -0.000000   0.158042
   85  F  2  X    0.000000   0.000000   0.345979  -0.000000   0.000000
   86  F  2  Y    0.000000   0.000000   0.000000   0.345979   0.000000
   87  F  2  Z   -0.005802   0.084021   0.000000  -0.000000   0.282376
   88  F  2  X    0.000000   0.000000   0.428243  -0.000000   0.000000
   89  F  2  Y    0.000000   0.000000   0.000000   0.428243   0.000000
   90  F  2  Z   -0.007080   0.092899   0.000000  -0.000000   0.332386
   91  F  2  X    0.000000   0.000000   0.272199  -0.000000   0.000000
   92  F  2  Y    0.000000   0.000000   0.000000   0.272199   0.000000
   93  F  2  Z   -0.006300   0.018659   0.000000  -0.000000   0.181869
   94  F  2  X    0.000000   0.000000   0.060770  -0.000000   0.000000
   95  F  2  Y    0.000000   0.000000   0.000000   0.060770   0.000000
   96  F  2  Z   -0.001707   0.002653   0.000000  -0.000000   0.041178
   97  F  2 XX   -0.000060   0.000295   0.000000  -0.000000   0.001638
   98  F  2 YY   -0.000060   0.000295   0.000000  -0.000000   0.001638
   99  F  2 ZZ    0.000121  -0.000591   0.000000  -0.000000  -0.003275
  100  F  2 XY    0.000000   0.000000   0.000000  -0.000000   0.000000
  101  F  2 XZ    0.000000   0.000000  -0.001280  -0.000000   0.000000
  102  F  2 YZ    0.000000   0.000000   0.000000  -0.001280   0.000000
  103  F  2 XX    0.000143  -0.000070   0.000000  -0.000000   0.005862
  104  F  2 YY    0.000143  -0.000070   0.000000  -0.000000   0.005862
  105  F  2 ZZ   -0.000287   0.000141   0.000000  -0.000000  -0.011724
  106  F  2 XY    0.000000   0.000000   0.000000  -0.000000   0.000000
  107  F  2 XZ    0.000000   0.000000  -0.005794  -0.000000   0.000000
  108  F  2 YZ    0.000000   0.000000   0.000000  -0.005794   0.000000
  109  F  2 XX   -0.000122  -0.000455   0.000000  -0.000000   0.011953
  110  F  2 YY   -0.000122  -0.000455   0.000000  -0.000000   0.011953
  111  F  2 ZZ    0.000245   0.000910   0.000000  -0.000000  -0.023905
  112  F  2 XY    0.000000   0.000000   0.000000  -0.000000   0.000000
  113  F  2 XZ    0.000000   0.000000  -0.010427  -0.000000   0.000000
  114  F  2 YZ    0.000000   0.000000   0.000000  -0.010427   0.000000
  115  F  2 XX   -0.000593  -0.003978   0.000000  -0.000000   0.012139
  116  F  2 YY   -0.000593  -0.003978   0.000000  -0.000000   0.012139
  117  F  2 ZZ    0.001186   0.007955   0.000000  -0.000000  -0.024277
  118  F  2 XY    0.000000   0.000000   0.000000  -0.000000   0.000000
  119  F  2 XZ    0.000000   0.000000  -0.018238  -0.000000   0.000000
  120  F  2 YZ    0.000000   0.000000   0.000000  -0.018238   0.000000
  121  F  2 XXX   0.000000   0.000000  -0.000590  -0.000000   0.000000
  122  F  2 YYY   0.000000   0.000000   0.000000  -0.000590   0.000000
  123  F  2 ZZZ  -0.000025   0.000096   0.000000  -0.000000   0.001651
  124  F  2 XXY   0.000000   0.000000   0.000000  -0.000264   0.000000
  125  F  2 XXZ   0.000017  -0.000065   0.000000  -0.000000  -0.001108
  126  F  2 YYX   0.000000   0.000000  -0.000264  -0.000000   0.000000
  127  F  2 YYZ   0.000017  -0.000065   0.000000  -0.000000  -0.001108
  128  F  2 ZZX   0.000000   0.000000   0.001056  -0.000000   0.000000
  129  F  2 ZZY   0.000000   0.000000   0.000000   0.001056   0.000000
  130  F  2 XYZ   0.000000   0.000000   0.000000  -0.000000   0.000000
  131  F  2 XXX   0.000000   0.000000  -0.001281  -0.000000   0.000000
  132  F  2 YYY   0.000000   0.000000   0.000000  -0.001281   0.000000
  133  F  2 ZZZ   0.000047  -0.000685   0.000000  -0.000000   0.004169
  134  F  2 XXY   0.000000   0.000000   0.000000  -0.000573   0.000000
  135  F  2 XXZ  -0.000032   0.000459   0.000000  -0.000000  -0.002797
  136  F  2 YYX   0.000000   0.000000  -0.000573  -0.000000   0.000000
  137  F  2 YYZ  -0.000032   0.000459   0.000000  -0.000000  -0.002797
  138  F  2 ZZX   0.000000   0.000000   0.002292  -0.000000   0.000000
  139  F  2 ZZY   0.000000   0.000000   0.000000   0.002292   0.000000
  140  F  2 XYZ   0.000000   0.000000   0.000000  -0.000000   0.000000
  141  F  2 XXX   0.000000   0.000000  -0.001845  -0.000000   0.000000
  142  F  2 YYY   0.000000   0.000000   0.000000  -0.001845   0.000000
  143  F  2 ZZZ  -0.000185   0.000571   0.000000  -0.000000   0.007653
  144  F  2 XXY   0.000000   0.000000   0.000000  -0.000825   0.000000
  145  F  2 XXZ   0.000124  -0.000383   0.000000  -0.000000  -0.005133
  146  F  2 YYX   0.000000   0.000000  -0.000825  -0.000000   0.000000
  147  F  2 YYZ   0.000124  -0.000383   0.000000  -0.000000  -0.005133
  148  F  2 ZZX   0.000000   0.000000   0.003300  -0.000000   0.000000
  149  F  2 ZZY   0.000000   0.000000   0.000000   0.003300   0.000000
  150  F  2 XYZ   0.000000   0.000000   0.000000  -0.000000   0.000000
  151  F  2XXXX   0.000003   0.000037   0.000000  -0.000000  -0.000096
  152  F  2YYYY   0.000003   0.000037   0.000000  -0.000000  -0.000096
  153  F  2ZZZZ   0.000007   0.000099   0.000000  -0.000000  -0.000256
  154  F  2XXXY   0.000000   0.000000   0.000000  -0.000000   0.000000
  155  F  2XXXZ   0.000000   0.000000   0.000279  -0.000000   0.000000
  156  F  2YYYX   0.000000   0.000000   0.000000  -0.000000   0.000000
  157  F  2YYYZ   0.000000   0.000000   0.000000   0.000279   0.000000
  158  F  2ZZZX   0.000000   0.000000  -0.000372  -0.000000   0.000000
  159  F  2ZZZY   0.000000   0.000000   0.000000  -0.000372   0.000000
  160  F  2XXYY   0.000002   0.000022   0.000000  -0.000000  -0.000056
  161  F  2XXZZ  -0.000006  -0.000087   0.000000  -0.000000   0.000225
  162  F  2YYZZ  -0.000006  -0.000087   0.000000  -0.000000   0.000225
  163  F  2XXYZ   0.000000   0.000000   0.000000   0.000125   0.000000
  164  F  2YYXZ   0.000000   0.000000   0.000125  -0.000000   0.000000
  165  F  2ZZXY   0.000000   0.000000   0.000000  -0.000000   0.000000
  166  F  2XXXX  -0.000004   0.000048   0.000000  -0.000000  -0.000554
  167  F  2YYYY  -0.000004   0.000048   0.000000  -0.000000  -0.000554
  168  F  2ZZZZ  -0.000011   0.000128   0.000000  -0.000000  -0.001477
  169  F  2XXXY   0.000000   0.000000   0.000000  -0.000000   0.000000
  170  F  2XXXZ   0.000000   0.000000  -0.000145  -0.000000   0.000000
  171  F  2YYYX   0.000000   0.000000   0.000000  -0.000000   0.000000
  172  F  2YYYZ   0.000000   0.000000   0.000000  -0.000145   0.000000
  173  F  2ZZZX   0.000000   0.000000   0.000193  -0.000000   0.000000
  174  F  2ZZZY   0.000000   0.000000   0.000000   0.000193   0.000000
  175  F  2XXYY  -0.000002   0.000028   0.000000  -0.000000  -0.000324
  176  F  2XXZZ   0.000010  -0.000113   0.000000  -0.000000   0.001297
  177  F  2YYZZ   0.000010  -0.000113   0.000000  -0.000000   0.001297
  178  F  2XXYZ   0.000000   0.000000   0.000000  -0.000065   0.000000
  179  F  2YYXZ   0.000000   0.000000  -0.000065  -0.000000   0.000000
  180  F  2ZZXY   0.000000   0.000000   0.000000  -0.000000   0.000000
  181  F  2  S    0.001205  -0.008609   0.000000  -0.000000  -0.034990
  182  F  2  X    0.000000   0.000000   0.006112  -0.000000   0.000000
  183  F  2  Y    0.000000   0.000000   0.000000   0.006112   0.000000
  184  F  2  Z   -0.000180   0.001058   0.000000  -0.000000   0.004650
  185  F  2 XX   -0.000183  -0.000301   0.000000  -0.000000   0.003577
  186  F  2 YY   -0.000183  -0.000301   0.000000  -0.000000   0.003577
  187  F  2 ZZ    0.000367   0.000602   0.000000  -0.000000  -0.007154
  188  F  2 XY    0.000000   0.000000   0.000000  -0.000000   0.000000
  189  F  2 XZ    0.000000   0.000000  -0.011462  -0.000000   0.000000
  190  F  2 YZ    0.000000   0.000000   0.000000  -0.011462   0.000000
  191  F  2 XXX   0.000000   0.000000  -0.003199  -0.000000   0.000000
  192  F  2 YYY   0.000000   0.000000   0.000000  -0.003199   0.000000
  193  F  2 ZZZ  -0.000206  -0.002072   0.000000  -0.000000   0.004708
  194  F  2 XXY   0.000000   0.000000   0.000000  -0.001431   0.000000
  195  F  2 XXZ   0.000138   0.001390   0.000000  -0.000000  -0.003158
  196  F  2 YYX   0.000000   0.000000  -0.001431  -0.000000   0.000000
  197  F  2 YYZ   0.000138   0.001390   0.000000  -0.000000  -0.003158
  198  F  2 ZZX   0.000000   0.000000   0.005723  -0.000000   0.000000
  199  F  2 ZZY   0.000000   0.000000   0.000000   0.005723   0.000000
  200  F  2 XYZ   0.000000   0.000000   0.000000  -0.000000   0.000000
  201  F  2XXXX   0.000025  -0.000200   0.000000  -0.000000  -0.000576
  202  F  2YYYY   0.000025  -0.000200   0.000000  -0.000000  -0.000576
  203  F  2ZZZZ   0.000067  -0.000534   0.000000  -0.000000  -0.001535
  204  F  2XXXY   0.000000   0.000000   0.000000  -0.000000   0.000000
  205  F  2XXXZ   0.000000   0.000000   0.001203  -0.000000   0.000000
  206  F  2YYYX   0.000000   0.000000   0.000000  -0.000000   0.000000
  207  F  2YYYZ   0.000000   0.000000   0.000000   0.001203   0.000000
  208  F  2ZZZX   0.000000   0.000000  -0.001604  -0.000000   0.000000
  209  F  2ZZZY   0.000000   0.000000   0.000000  -0.001604   0.000000
  210  F  2XXYY   0.000015  -0.000117   0.000000  -0.000000  -0.000337
  211  F  2XXZZ  -0.000059   0.000469   0.000000  -0.000000   0.001348
  212  F  2YYZZ  -0.000059   0.000469   0.000000  -0.000000   0.001348
  213  F  2XXYZ   0.000000   0.000000   0.000000   0.000538   0.000000
  214  F  2YYXZ   0.000000   0.000000   0.000538  -0.000000   0.000000
  215  F  2ZZXY   0.000000   0.000000   0.000000  -0.000000   0.000000

                      6
                    0.0212
                     A1  
    1  H  1  S    0.122566
    2  H  1  S    0.583648
    3  H  1  S    0.637457
    4  H  1  S    0.046377
    5  H  1  S   -0.132129
    6  H  1  X    0.000000
    7  H  1  Y    0.000000
    8  H  1  Z    0.004719
    9  H  1  X    0.000000
   10  H  1  Y    0.000000
   11  H  1  Z    0.110836
   12  H  1  X    0.000000
   13  H  1  Y    0.000000
   14  H  1  Z    0.144794
   15  H  1  X    0.000000
   16  H  1  Y    0.000000
   17  H  1  Z    0.063808
   18  H  1 XX   -0.002050
   19  H  1 YY   -0.002050
   20  H  1 ZZ    0.004101
   21  H  1 XY    0.000000
   22  H  1 XZ    0.000000
   23  H  1 YZ    0.000000
   24  H  1 XX   -0.015509
   25  H  1 YY   -0.015509
   26  H  1 ZZ    0.031018
   27  H  1 XY    0.000000
   28  H  1 XZ    0.000000
   29  H  1 YZ    0.000000
   30  H  1 XX   -0.012975
   31  H  1 YY   -0.012975
   32  H  1 ZZ    0.025950
   33  H  1 XY    0.000000
   34  H  1 XZ    0.000000
   35  H  1 YZ    0.000000
   36  H  1 XXX   0.000000
   37  H  1 YYY   0.000000
   38  H  1 ZZZ   0.002634
   39  H  1 XXY   0.000000
   40  H  1 XXZ  -0.001767
   41  H  1 YYX   0.000000
   42  H  1 YYZ  -0.001767
   43  H  1 ZZX   0.000000
   44  H  1 ZZY   0.000000
   45  H  1 XYZ   0.000000
   46  H  1 XXX   0.000000
   47  H  1 YYY   0.000000
   48  H  1 ZZZ   0.002680
   49  H  1 XXY   0.000000
   50  H  1 XXZ  -0.001798
   51  H  1 YYX   0.000000
   52  H  1 YYZ  -0.001798
   53  H  1 ZZX   0.000000
   54  H  1 ZZY   0.000000
   55  H  1 XYZ   0.000000
   56  H  1  S    0.003993
   57  H  1  X    0.000000
   58  H  1  Y    0.000000
   59  H  1  Z   -0.016593
   60  H  1 XX   -0.004616
   61  H  1 YY   -0.004616
   62  H  1 ZZ    0.009232
   63  H  1 XY    0.000000
   64  H  1 XZ    0.000000
   65  H  1 YZ    0.000000
   66  H  1 XXX   0.000000
   67  H  1 YYY   0.000000
   68  H  1 ZZZ   0.001738
   69  H  1 XXY   0.000000
   70  H  1 XXZ  -0.001166
   71  H  1 YYX   0.000000
   72  H  1 YYZ  -0.001166
   73  H  1 ZZX   0.000000
   74  H  1 ZZY   0.000000
   75  H  1 XYZ   0.000000
   76  F  2  S   -0.018725
   77  F  2  S   -0.156032
   78  F  2  S   -0.176908
   79  F  2  S   -0.317192
   80  F  2  S   -0.371205
   81  F  2  S   -0.100075
   82  F  2  X    0.000000
   83  F  2  Y    0.000000
   84  F  2  Z    0.220682
   85  F  2  X    0.000000
   86  F  2  Y    0.000000
   87  F  2  Z    0.447907
   88  F  2  X    0.000000
   89  F  2  Y    0.000000
   90  F  2  Z    0.338930
   91  F  2  X    0.000000
   92  F  2  Y    0.000000
   93  F  2  Z    0.025841
   94  F  2  X    0.000000
   95  F  2  Y    0.000000
   96  F  2  Z   -0.063553
   97  F  2 XX    0.004261
   98  F  2 YY    0.004261
   99  F  2 ZZ   -0.008521
  100  F  2 XY    0.000000
  101  F  2 XZ    0.000000
  102  F  2 YZ    0.000000
  103  F  2 XX    0.013221
  104  F  2 YY    0.013221
  105  F  2 ZZ   -0.026443
  106  F  2 XY    0.000000
  107  F  2 XZ    0.000000
  108  F  2 YZ    0.000000
  109  F  2 XX    0.012969
  110  F  2 YY    0.012969
  111  F  2 ZZ   -0.025938
  112  F  2 XY    0.000000
  113  F  2 XZ    0.000000
  114  F  2 YZ    0.000000
  115  F  2 XX   -0.000835
  116  F  2 YY   -0.000835
  117  F  2 ZZ    0.001669
  118  F  2 XY    0.000000
  119  F  2 XZ    0.000000
  120  F  2 YZ    0.000000
  121  F  2 XXX   0.000000
  122  F  2 YYY   0.000000
  123  F  2 ZZZ   0.012697
  124  F  2 XXY   0.000000
  125  F  2 XXZ  -0.008518
  126  F  2 YYX   0.000000
  127  F  2 YYZ  -0.008518
  128  F  2 ZZX   0.000000
  129  F  2 ZZY   0.000000
  130  F  2 XYZ   0.000000
  131  F  2 XXX   0.000000
  132  F  2 YYY   0.000000
  133  F  2 ZZZ   0.017116
  134  F  2 XXY   0.000000
  135  F  2 XXZ  -0.011482
  136  F  2 YYX   0.000000
  137  F  2 YYZ  -0.011482
  138  F  2 ZZX   0.000000
  139  F  2 ZZY   0.000000
  140  F  2 XYZ   0.000000
  141  F  2 XXX   0.000000
  142  F  2 YYY   0.000000
  143  F  2 ZZZ   0.006386
  144  F  2 XXY   0.000000
  145  F  2 XXZ  -0.004284
  146  F  2 YYX   0.000000
  147  F  2 YYZ  -0.004284
  148  F  2 ZZX   0.000000
  149  F  2 ZZY   0.000000
  150  F  2 XYZ   0.000000
  151  F  2XXXX  -0.000208
  152  F  2YYYY  -0.000208
  153  F  2ZZZZ  -0.000554
  154  F  2XXXY   0.000000
  155  F  2XXXZ   0.000000
  156  F  2YYYX   0.000000
  157  F  2YYYZ   0.000000
  158  F  2ZZZX   0.000000
  159  F  2ZZZY   0.000000
  160  F  2XXYY  -0.000122
  161  F  2XXZZ   0.000487
  162  F  2YYZZ   0.000487
  163  F  2XXYZ   0.000000
  164  F  2YYXZ   0.000000
  165  F  2ZZXY   0.000000
  166  F  2XXXX  -0.000486
  167  F  2YYYY  -0.000486
  168  F  2ZZZZ  -0.001297
  169  F  2XXXY   0.000000
  170  F  2XXXZ   0.000000
  171  F  2YYYX   0.000000
  172  F  2YYYZ   0.000000
  173  F  2ZZZX   0.000000
  174  F  2ZZZY   0.000000
  175  F  2XXYY  -0.000285
  176  F  2XXZZ   0.001139
  177  F  2YYZZ   0.001139
  178  F  2XXYZ   0.000000
  179  F  2YYXZ   0.000000
  180  F  2ZZXY   0.000000
  181  F  2  S    0.168133
  182  F  2  X    0.000000
  183  F  2  Y    0.000000
  184  F  2  Z   -0.013375
  185  F  2 XX   -0.006172
  186  F  2 YY   -0.006172
  187  F  2 ZZ    0.012345
  188  F  2 XY    0.000000
  189  F  2 XZ    0.000000
  190  F  2 YZ    0.000000
  191  F  2 XXX   0.000000
  192  F  2 YYY   0.000000
  193  F  2 ZZZ  -0.004647
  194  F  2 XXY   0.000000
  195  F  2 XXZ   0.003117
  196  F  2 YYX   0.000000
  197  F  2 YYZ   0.003117
  198  F  2 ZZX   0.000000
  199  F  2 ZZY   0.000000
  200  F  2 XYZ   0.000000
  201  F  2XXXX  -0.000133
  202  F  2YYYY  -0.000133
  203  F  2ZZZZ  -0.000355
  204  F  2XXXY   0.000000
  205  F  2XXXZ   0.000000
  206  F  2YYYX   0.000000
  207  F  2YYYZ   0.000000
  208  F  2ZZZX   0.000000
  209  F  2ZZZY   0.000000
  210  F  2XXYY  -0.000078
  211  F  2XXZZ   0.000312
  212  F  2YYZZ   0.000312
  213  F  2XXYZ   0.000000
  214  F  2YYXZ   0.000000
  215  F  2ZZXY   0.000000
 ...... END OF DENSITY MATRIX CALCULATION ...... 
 STEP CPU TIME =     0.05 TOTAL CPU TIME =       12.3 (    0.2 MIN)
 TOTAL WALL CLOCK TIME=       12.3 SECONDS, CPU UTILIZATION IS 100.00%

          -------------------------------------
          2-PARTICLE DENSITY MATRIX CALCULATION
          -------------------------------------
 2 BODY DENSITY IS AN AVERAGE OF  1 STATE(S).
   STATE    WEIGHT          ENERGY
     1    1.000000     -100.0929342214
          116 -DM2- LOOPS WERE GENERATED
          116 WERE CREATED BY THE LOOP-DRIVEN ALGORITHM
            0 WERE CREATED IMPLICITLY
          1 RECORDS OF LENGTH 50000 WRITTEN TO FILE 15
 ...... END OF 2-PARTICLE DENSITY MATRIX CALCULATION ......
 STEP CPU TIME =     0.00 TOTAL CPU TIME =       12.3 (    0.2 MIN)
 TOTAL WALL CLOCK TIME=       12.3 SECONDS, CPU UTILIZATION IS  99.92%

          ----------------------------------
          2-PARTICLE DENSITY MATRIX LABELING
          ----------------------------------
      96479 WORDS NEEDED TO LABEL DM2 MATRIX
          1 RECORDS OF LENGTH 50000  READ FROM FILE 15
          1 RECORDS OF LENGTH 15000 WRITTEN TO FILE 16
 ...... END OF 2-PARTICLE DENSITY MATRIX LABELING ......
 STEP CPU TIME =     0.00 TOTAL CPU TIME =       12.3 (    0.2 MIN)
 TOTAL WALL CLOCK TIME=       12.3 SECONDS, CPU UTILIZATION IS  99.92%

          --------------
          -DM2- ORDERING
          --------------
      30136 WORDS NEEDED (  32000000 AVAILABLE) TO ORDER DM2 IN MEMORY
 CHOOSING IN MEMORY ORDERING...
                               1 RECORDS OF LENGTH 15000  READ FROM FILE 16
         49 DM2 VALUES IN      1 RECORDS OF LENGTH 15000 WRITTEN TO FILE 15
 ...... END OF -DM2- ORDERING ...... 
 STEP CPU TIME =     0.00 TOTAL CPU TIME =       12.3 (    0.2 MIN)
 TOTAL WALL CLOCK TIME=       12.3 SECONDS, CPU UTILIZATION IS  99.92%

 CI ENERGY ANALYSIS

     --------------------------------------------
     PARTIAL TWO ELECTRON INTEGRAL TRANSFORMATION
     --------------------------------------------

 NUMBER OF CORE MOLECULAR ORBITALS     =    0
 NUMBER OF OCCUPIED MOLECULAR ORBITALS =    6
 TOTAL NUMBER OF MOLECULAR ORBITALS    =    6
 TOTAL NUMBER OF ATOMIC ORBITALS       =  215
 THRESHOLD FOR KEEPING TRANSFORMED 2E- INTEGRALS = 1.000E-09
 AO INTEGRALS WILL BE CALCULATED IN DIRECT MODE...

 PLAN A: REQUIREMENTS FOR FULLY IN-MEMORY TRANSFORMATION:
 # OF WORDS AVAILABLE =             32000000
 # OF WORDS NEEDED    =             30341974

 CHOOSING IN MEMORY PARTIAL TRANSFORMATION...
 DIRECT TRANSFORMATION SKIPS AO INTEGRAL STORAGE ON DISK.
 TOTAL NUMBER OF TRANSFORMED 2E- INTEGRALS KEPT =           99
 ... END OF INTEGRAL TRANSFORMATION ...
 STEP CPU TIME =     7.17 TOTAL CPU TIME =       19.4 (    0.3 MIN)
 TOTAL WALL CLOCK TIME=       19.4 SECONDS, CPU UTILIZATION IS  99.95%

 ONE-ELECTRON ENERGY FROM AO BASIS INTEGRALS:  -150.46940435894757     

 ENERGIES FROM MO BASIS INTEGRALS
 ONE-ELECTRON:          -150.4694043589468322
 TWO-ELECTRON:            45.2277185232507790
 VNN+CONSTANT:             5.1487516142270255
 TOTAL ENERGY:          -100.0929342214690223

     --------------------------------------------------------
     GUGA  CI PROPERTIES...FOR THE WAVEFUNCTION OF STATE    1
               USING THE EXPECTATION VALUE DENSITY
     --------------------------------------------------------

          -----------------
          ENERGY COMPONENTS
          -----------------

         WAVEFUNCTION NORMALIZATION =       1.0000000000

                ONE ELECTRON ENERGY =    -150.4694043589
                TWO ELECTRON ENERGY =      45.2277185233
           NUCLEAR REPULSION ENERGY =       5.1487516142
                                      ------------------
                       TOTAL ENERGY =    -100.0929342214

 ELECTRON-ELECTRON POTENTIAL ENERGY =      45.2277185233
  NUCLEUS-ELECTRON POTENTIAL ENERGY =    -250.5369673529
   NUCLEUS-NUCLEUS POTENTIAL ENERGY =       5.1487516142
                                      ------------------
             TOTAL POTENTIAL ENERGY =    -200.1604972154
               TOTAL KINETIC ENERGY =     100.0675629940
                 VIRIAL RATIO (V/T) =       2.0002535410

          ---------------------------------------
          MULLIKEN AND LOWDIN POPULATION ANALYSES
          ---------------------------------------

               ----- POPULATIONS IN EACH AO -----
                             MULLIKEN      LOWDIN
              1  H  1  S      0.06358     0.06793
              2  H  1  S      0.25097     0.11983
              3  H  1  S      0.12860     0.08298
              4  H  1  S     -0.00471     0.02754
              5  H  1  S     -0.00437     0.00377
              6  H  1  X      0.00101     0.00174
              7  H  1  Y      0.00101     0.00174
              8  H  1  Z      0.00498     0.00864
              9  H  1  X      0.00936     0.01513
             10  H  1  Y      0.00936     0.01513
             11  H  1  Z      0.00972     0.03247
             12  H  1  X      0.00121     0.03669
             13  H  1  Y      0.00121     0.03669
             14  H  1  Z     -0.02482     0.05244
             15  H  1  X     -0.02769     0.01374
             16  H  1  Y     -0.02769     0.01374
             17  H  1  Z     -0.01188     0.02340
             18  H  1 XX      0.00141     0.03526
             19  H  1 YY      0.00000     0.03526
             20  H  1 ZZ      0.00000     0.07808
             21  H  1 XY      0.00070     0.00000
             22  H  1 XZ      0.00070     0.00301
             23  H  1 YZ      0.00000     0.00301
             24  H  1 XX     -0.00021     0.02615
             25  H  1 YY      0.00000     0.02615
             26  H  1 ZZ      0.00000     0.09697
             27  H  1 XY      0.00422     0.00000
             28  H  1 XZ      0.00422     0.05080
             29  H  1 YZ      0.00000     0.05080
             30  H  1 XX     -0.00957     0.00225
             31  H  1 YY      0.00000     0.00225
             32  H  1 ZZ      0.00000     0.05227
             33  H  1 XY     -0.00346     0.00000
             34  H  1 XZ     -0.00346     0.04795
             35  H  1 YZ      0.00000     0.04795
             36  H  1 XXX     0.00000     0.00613
             37  H  1 YYY     0.00000     0.00613
             38  H  1 ZZZ     0.00069     0.04338
             39  H  1 XXY     0.00051     0.00275
             40  H  1 XXZ     0.00069     0.00549
             41  H  1 YYX     0.00000     0.00275
             42  H  1 YYZ     0.00000     0.00549
             43  H  1 ZZX     0.00000     0.02734
             44  H  1 ZZY     0.00000     0.02734
             45  H  1 XYZ     0.00000     0.00000
             46  H  1 XXX     0.00000     0.01300
             47  H  1 YYY     0.00000     0.01300
             48  H  1 ZZZ     0.00067     0.07971
             49  H  1 XXY    -0.00032     0.00556
             50  H  1 XXZ     0.00067     0.00582
             51  H  1 YYX     0.00000     0.00556
             52  H  1 YYZ     0.00000     0.00582
             53  H  1 ZZX     0.00000     0.07637
             54  H  1 ZZY     0.00000     0.07637
             55  H  1 XYZ     0.00000     0.00000
             56  H  1  S      0.00006     0.00036
             57  H  1  X     -0.00316     0.00085
             58  H  1  Y     -0.00316     0.00085
             59  H  1  Z     -0.00018     0.00159
             60  H  1 XX     -0.00193     0.00002
             61  H  1 YY      0.00000     0.00002
             62  H  1 ZZ      0.00000     0.00417
             63  H  1 XY     -0.00303     0.00000
             64  H  1 XZ     -0.00303     0.00319
             65  H  1 YZ      0.00000     0.00319
             66  H  1 XXX     0.00000     0.00065
             67  H  1 YYY     0.00000     0.00065
             68  H  1 ZZZ    -0.00018     0.00760
             69  H  1 XXY    -0.00078     0.00029
             70  H  1 XXZ    -0.00018     0.00019
             71  H  1 YYX     0.00000     0.00029
             72  H  1 YYZ     0.00000     0.00019
             73  H  1 ZZX     0.00000     0.00547
             74  H  1 ZZY     0.00000     0.00547
             75  H  1 XYZ     0.00000     0.00000
             76  F  2  S      1.98435     1.05024
             77  F  2  S     -0.02383     0.86291
             78  F  2  S      0.43936     0.20671
             79  F  2  S      1.05038     0.19257
             80  F  2  S      0.55351     0.11135
             81  F  2  S      0.03426     0.03108
             82  F  2  X      0.21593     0.21126
             83  F  2  Y      0.21593     0.21126
             84  F  2  Z      0.16069     0.15671
             85  F  2  X      0.59329     0.29540
             86  F  2  Y      0.59329     0.29540
             87  F  2  Z      0.45925     0.22062
             88  F  2  X      0.78950     0.25182
             89  F  2  Y      0.78950     0.25182
             90  F  2  Z      0.62110     0.22284
             91  F  2  X      0.37615     0.09942
             92  F  2  Y      0.37615     0.09942
             93  F  2  Z      0.26372     0.11458
             94  F  2  X      0.04035     0.01253
             95  F  2  Y      0.04035     0.01253
             96  F  2  Z      0.02949     0.01545
             97  F  2 XX      0.00018     0.08646
             98  F  2 YY      0.00000     0.08646
             99  F  2 ZZ      0.00000     0.08566
            100  F  2 XY      0.00002     0.00000
            101  F  2 XZ      0.00002     0.00002
            102  F  2 YZ      0.00000     0.00002
            103  F  2 XX      0.00207     0.09411
            104  F  2 YY      0.00000     0.09411
            105  F  2 ZZ      0.00000     0.09318
            106  F  2 XY      0.00026     0.00000
            107  F  2 XZ      0.00026     0.00000
            108  F  2 YZ      0.00000     0.00000
            109  F  2 XX      0.00834     0.03563
            110  F  2 YY      0.00000     0.03563
            111  F  2 ZZ      0.00000     0.04448
            112  F  2 XY      0.00076     0.00000
            113  F  2 XZ      0.00076     0.00006
            114  F  2 YZ      0.00000     0.00006
            115  F  2 XX      0.00738     0.00313
            116  F  2 YY      0.00000     0.00313
            117  F  2 ZZ      0.00000     0.01002
            118  F  2 XY      0.00117     0.00000
            119  F  2 XZ      0.00117     0.00001
            120  F  2 YZ      0.00000     0.00001
            121  F  2 XXX     0.00000     0.18947
            122  F  2 YYY     0.00000     0.18947
            123  F  2 ZZZ     0.00001     0.14220
            124  F  2 XXY     0.00005     0.08235
            125  F  2 XXZ     0.00001     0.06126
            126  F  2 YYX     0.00000     0.08235
            127  F  2 YYZ     0.00000     0.06126
            128  F  2 ZZX     0.00000     0.08143
            129  F  2 ZZY     0.00000     0.08143
            130  F  2 XYZ     0.00000     0.00000
            131  F  2 XXX     0.00000     0.17863
            132  F  2 YYY     0.00000     0.17863
            133  F  2 ZZZ     0.00006     0.16704
            134  F  2 XXY     0.00057     0.07485
            135  F  2 XXZ     0.00006     0.06046
            136  F  2 YYX     0.00000     0.07485
            137  F  2 YYZ     0.00000     0.06046
            138  F  2 ZZX     0.00000     0.06737
            139  F  2 ZZY     0.00000     0.06737
            140  F  2 XYZ     0.00000     0.00000
            141  F  2 XXX     0.00000     0.06727
            142  F  2 YYY     0.00000     0.06727
            143  F  2 ZZZ     0.00010     0.10168
            144  F  2 XXY     0.00150     0.02852
            145  F  2 XXZ     0.00010     0.02892
            146  F  2 YYX     0.00000     0.02852
            147  F  2 YYZ     0.00000     0.02892
            148  F  2 ZZX     0.00000     0.02858
            149  F  2 ZZY     0.00000     0.02858
            150  F  2 XYZ     0.00000     0.00000
            151  F  2XXXX     0.00000     0.05220
            152  F  2YYYY     0.00000     0.05220
            153  F  2ZZZZ     0.00000     0.05107
            154  F  2XXXY     0.00000     0.00000
            155  F  2XXXZ     0.00001     0.00000
            156  F  2YYYX     0.00000     0.00000
            157  F  2YYYZ     0.00000     0.00000
            158  F  2ZZZX     0.00000     0.00003
            159  F  2ZZZY     0.00000     0.00003
            160  F  2XXYY     0.00000     0.05610
            161  F  2XXZZ     0.00000     0.05462
            162  F  2YYZZ     0.00000     0.05462
            163  F  2XXYZ     0.00000     0.00000
            164  F  2YYXZ     0.00000     0.00000
            165  F  2ZZXY     0.00000     0.00000
            166  F  2XXXX     0.00000     0.01880
            167  F  2YYYY     0.00000     0.01880
            168  F  2ZZZZ     0.00000     0.02841
            169  F  2XXXY    -0.00000     0.00000
            170  F  2XXXZ     0.00016     0.00005
            171  F  2YYYX    -0.00000     0.00000
            172  F  2YYYZ     0.00000     0.00005
            173  F  2ZZZX     0.00000     0.00013
            174  F  2ZZZY     0.00000     0.00013
            175  F  2XXYY     0.00000     0.01966
            176  F  2XXZZ     0.00000     0.01993
            177  F  2YYZZ     0.00000     0.01993
            178  F  2XXYZ     0.00000     0.00002
            179  F  2YYXZ     0.00000     0.00002
            180  F  2ZZXY     0.00000     0.00000
            181  F  2  S      0.00395     0.00537
            182  F  2  X      0.00135     0.00057
            183  F  2  Y      0.00135     0.00057
            184  F  2  Z      0.00116     0.00072
            185  F  2 XX      0.00104     0.00001
            186  F  2 YY      0.00000     0.00001
            187  F  2 ZZ      0.00000     0.00101
            188  F  2 XY      0.00036     0.00000
            189  F  2 XZ      0.00036     0.00003
            190  F  2 YZ      0.00000     0.00003
            191  F  2 XXX     0.00000     0.01004
            192  F  2 YYY     0.00000     0.01004
            193  F  2 ZZZ     0.00011     0.01881
            194  F  2 XXY     0.00057     0.00436
            195  F  2 XXZ     0.00011     0.00447
            196  F  2 YYX     0.00000     0.00436
            197  F  2 YYZ     0.00000     0.00447
            198  F  2 ZZX     0.00000     0.00491
            199  F  2 ZZY     0.00000     0.00491
            200  F  2 XYZ     0.00000     0.00000
            201  F  2XXXX     0.00000     0.00105
            202  F  2YYYY     0.00000     0.00105
            203  F  2ZZZZ     0.00000     0.00897
            204  F  2XXXY     0.00002     0.00000
            205  F  2XXXZ     0.00014     0.00001
            206  F  2YYYX     0.00002     0.00000
            207  F  2YYYZ     0.00000     0.00001
            208  F  2ZZZX     0.00000     0.00000
            209  F  2ZZZY     0.00000     0.00000
            210  F  2XXYY     0.00000     0.00120
            211  F  2XXZZ     0.00000     0.00211
            212  F  2YYZZ     0.00000     0.00211
            213  F  2XXYZ     0.00000     0.00000
            214  F  2YYXZ     0.00000     0.00000
            215  F  2ZZXY     0.00000     0.00000

          ----- MULLIKEN ATOMIC OVERLAP POPULATIONS -----
          (OFF-DIAGONAL ELEMENTS NEED TO BE MULTIPLIED BY 2)

             1           2

    1    0.3518039
    2    0.0099202   9.6283557

          TOTAL MULLIKEN AND LOWDIN ATOMIC POPULATIONS
       ATOM         MULL.POP.    CHARGE          LOW.POP.     CHARGE
    1 H             0.361724    0.638276         1.554781   -0.554781
    2 F             9.638276   -0.638276         8.445219    0.554781

          MULLIKEN SPHERICAL HARMONIC POPULATIONS
       ATOM           S       P       D      F      G      H      I    TOTAL
    1 H             0.43   -0.06   -0.01   0.00   0.00   0.00   0.00    0.36
    2 F             4.04    5.57    0.02   0.00   0.00   0.00   0.00    9.64

          ---------------------
          ELECTROSTATIC MOMENTS
          ---------------------

 POINT   1           X           Y           Z (BOHR)    CHARGE
                 0.000000    0.000000    1.659940       -0.00 (A.U.)
         DX          DY          DZ         /D/  (DEBYE)
    -0.000000   -0.000000   -1.803006    1.803006
 ...... END OF PROPERTY EVALUATION ......
 STEP CPU TIME =     0.08 TOTAL CPU TIME =       19.5 (    0.3 MIN)
 TOTAL WALL CLOCK TIME=       19.5 SECONDS, CPU UTILIZATION IS  99.95%
             30386074  WORDS OF DYNAMIC MEMORY USED
 EXECUTION OF GAMESS TERMINATED NORMALLY Wed Aug  9 22:31:16 2017
 DDI: 263640 bytes (0.3 MB / 0 MWords) used by master data server.

 ----------------------------------------
 CPU timing information for all processes
 ========================================
 0: 19.481 + 0.45 = 19.527
 ----------------------------------------
 ddikick.x: exited gracefully.
unset echo
----- accounting info -----
Files used on the master node compute-0-5.local were:
-rw-rw-r-- 1 sarom sarom 573K Aug  9 22:30 /scratch/guga-hf-edecomp.F05
-rw-rw-r-- 1 sarom sarom 176K Aug  9 22:31 /scratch/guga-hf-edecomp.F09
-rw-rw-r-- 1 sarom sarom 5.7M Aug  9 22:31 /scratch/guga-hf-edecomp.F10
-rw-rw-r-- 1 sarom sarom 271K Aug  9 22:31 /scratch/guga-hf-edecomp.F11
-rw-rw-r-- 1 sarom sarom  328 Aug  9 22:31 /scratch/guga-hf-edecomp.F12
-rw-rw-r-- 1 sarom sarom 391K Aug  9 22:31 /scratch/guga-hf-edecomp.F14
-rw-rw-r-- 1 sarom sarom 176K Aug  9 22:31 /scratch/guga-hf-edecomp.F15
-rw-rw-r-- 1 sarom sarom 176K Aug  9 22:31 /scratch/guga-hf-edecomp.F16
-rw-rw-r-- 1 sarom sarom 2.0K Aug  9 22:31 /scratch/guga-hf-edecomp.F23
rm: No match.
ls: No match.
ls: No match.
ls: No match.
Wed Aug  9 22:31:19 CDT 2017
0.284u 0.147s 0:23.05 1.8%	0+0k 1152+1504io 0pf+0w
/opt/gridengine/default/spool/compute-0-5/active_jobs/36253.1/pe_hostfile compute-0-5.local
