-catch_rsh /opt/gridengine/default/spool/compute-1-1/active_jobs/36197.1/pe_hostfile
compute-1-1
The primary node assigned by SGE to this run is compute-1-1
Warning: no access to tty (Bad file descriptor).
Thus no job control in this shell.
source /home/sarom/dir.git.branch.saromleang-travis-ci/install.info
setenv GMS_PATH /home/sarom/dir.git.branch.saromleang-travis-ci
setenv GMS_BUILD_DIR /home/sarom/dir.git.branch.saromleang-travis-ci
setenv GMS_TARGET linux64
setenv GMS_FORTRAN gfortran
setenv GMS_GFORTRAN_VERNO 4.4
setenv GMS_MATHLIB mkl-so
setenv GMS_MATHLIB none
setenv GMS_MATHLIB_PATH /share/apps/intel/compilers_and_libraries_2017.1.132/linux/mkl/lib/intel64
setenv GMS_MKL_VERNO 12
setenv GMS_DDI_COMM sockets
setenv GMS_LIBCCHEM false
setenv GMS_EIGEN_PATH
setenv GMS_PHI false
setenv GMS_SHMTYPE sysv
setenv GMS_OPENMP false
unset echo
hco-uhf
/home/sarom/dir.git.branch.saromleang-travis-ci/tests/uhf/parallel
----- GAMESS execution script 'rungms' -----
This job is running on host compute-1-1.local
under operating system Linux at Wed Aug 9 22:17:26 CDT 2017
Available scratch disk space (Kbyte units) at beginning of the job is
Filesystem           1K-blocks      Used Available Use% Mounted on
/dev/sda1             16126920   9109384   6198336  60% /
GAMESS temporary binary files will be written to /scratch
GAMESS supplementary output files will be written to /home/sarom/restart
Copying input file hco-uhf.inp to your run's scratch directory...
cp /home/sarom/dir.git.branch.saromleang-travis-ci/tests/uhf/parallel/hco-uhf.inp /scratch/hco-uhf.F05
unset echo
The generated host list is
compute-1-1.local
/home/sarom/dir.git.branch.saromleang-travis-ci/ddikick.x /home/sarom/dir.git.branch.saromleang-travis-ci/gamess.00.x hco-uhf -ddi 1 1 compute-1-1.local -scr /scratch

 Distributed Data Interface kickoff program.
 Initiating 1 compute processes on 1 nodes to run the following command:
 /home/sarom/dir.git.branch.saromleang-travis-ci/gamess.00.x hco-uhf 

          ******************************************************
          *         GAMESS VERSION = 20 APR 2017 (R1)          *
          *             FROM IOWA STATE UNIVERSITY             *
          * M.W.SCHMIDT, K.K.BALDRIDGE, J.A.BOATZ, S.T.ELBERT, *
          *   M.S.GORDON, J.H.JENSEN, S.KOSEKI, N.MATSUNAGA,   *
          *          K.A.NGUYEN, S.J.SU, T.L.WINDUS,           *
          *       TOGETHER WITH M.DUPUIS, J.A.MONTGOMERY       *
          *         J.COMPUT.CHEM.  14, 1347-1363(1993)        *
          **************** 64 BIT LINUX VERSION ****************

  SINCE 1993, STUDENTS AND POSTDOCS WORKING AT IOWA STATE UNIVERSITY
  AND ALSO IN THEIR VARIOUS JOBS AFTER LEAVING ISU HAVE MADE IMPORTANT
  CONTRIBUTIONS TO THE CODE:
     IVANA ADAMOVIC, CHRISTINE AIKENS, YURI ALEXEEV, POOJA ARORA,
     ANDREY ASADCHEV, ROB BELL, PRADIPTA BANDYOPADHYAY, JONATHAN BENTZ,
     BRETT BODE, KURT BRORSEN, CALEB CARLIN, GALINA CHABAN, WEI CHEN,
     CHEOL HO CHOI, PAUL DAY, ALBERT DEFUSCO, NUWAN DESILVA, TIM DUDLEY,
     DMITRI FEDOROV, GRAHAM FLETCHER, MARK FREITAG, KURT GLAESEMANN,
     DAN KEMP, GRANT MERRILL, NORIYUKI MINEZAWA, JONATHAN MULLIN,
     TAKESHI NAGATA, SEAN NEDD, HEATHER NETZLOFF, BOSILJKA NJEGIC, RYAN OLSON,
     MIKE PAK, SPENCER PRUITT, LUKE ROSKOP, JIM SHOEMAKER, LYUDMILA SLIPCHENKO,
     TONY SMITH, SAROM SOK LEANG, JIE SONG, TETSUYA TAKETSUGU, SIMON WEBB,
     PENG XU, SOOHAENG YOO, FEDERICO ZAHARIEV

  ADDITIONAL CODE HAS BEEN PROVIDED BY COLLABORATORS IN OTHER GROUPS:
     IOWA STATE UNIVERSITY:
          JOE IVANIC, AARON WEST, LAIMUTIS BYTAUTAS, KLAUS RUEDENBERG
     UNIVERSITY OF TOKYO: KIMIHIKO HIRAO, TAKAHITO NAKAJIMA,
          TAKAO TSUNEDA, MUNEAKI KAMIYA, SUSUMU YANAGISAWA,
          KIYOSHI YAGI, MAHITO CHIBA, SEIKEN TOKURA, NAOAKI KAWAKAMI
     UNIVERSITY OF AARHUS: FRANK JENSEN
     UNIVERSITY OF IOWA: VISVALDAS KAIRYS, HUI LI
     NATIONAL INST. OF STANDARDS AND TECHNOLOGY: WALT STEVENS, DAVID GARMER
     UNIVERSITY OF PISA: BENEDETTA MENNUCCI, JACOPO TOMASI
     UNIVERSITY OF MEMPHIS: HENRY KURTZ, PRAKASHAN KORAMBATH
     UNIVERSITY OF ALBERTA: TOBY ZENG, MARIUSZ KLOBUKOWSKI
     UNIVERSITY OF NEW ENGLAND: MARK SPACKMAN
     MIE UNIVERSITY: HIROAKI UMEDA
     NAT. INST. OF ADVANCED INDUSTRIAL SCIENCE AND TECHNOLOGY: KAZUO KITAURA
     MICHIGAN STATE UNIVERSITY:
          KAROL KOWALSKI, MARTA WLOCH, JEFFREY GOUR, JESSE LUTZ,
          WEI LI, PIOTR PIECUCH
     UNIVERSITY OF SILESIA: MONIKA MUSIAL, STANISLAW KUCHARSKI
     FACULTES UNIVERSITAIRES NOTRE-DAME DE LA PAIX:
          OLIVIER QUINET, BENOIT CHAMPAGNE
     UNIVERSITY OF CALIFORNIA - SANTA BARBARA: BERNARD KIRTMAN
     INSTITUTE FOR MOLECULAR SCIENCE:
          KAZUYA ISHIMURA, MICHIO KATOUDA, AND SHIGERU NAGASE
     UNIVERSITY OF NOTRE DAME: ANNA POMOGAEVA, DAN CHIPMAN
     KYUSHU UNIVERSITY:
          HARUYUKI NAKANO,
          FENG LONG GU, JACEK KORCHOWIEC, MARCIN MAKOWSKI, AND YURIKO AOKI,
          HIROTOSHI MORI AND EISAKU MIYOSHI
     PENNSYLVANIA STATE UNIVERSITY:
          TZVETELIN IORDANOV, CHET SWALINA, JONATHAN SKONE,
          SHARON HAMMES-SCHIFFER
     WASEDA UNIVERSITY:
          MASATO KOBAYASHI, TOMOKO AKAMA, TSUGUKI TOUMA,
          TAKESHI YOSHIKAWA, YASUHIRO IKABATA, JUNJI SEINO,
          YUYA NAKAJIMA, HIROMI NAKAI
     NANJING UNIVERSITY: SHUHUA LI
     UNIVERSITY OF NEBRASKA:
          PEIFENG SU, DEJUN SI, NANDUN THELLAMUREGE, YALI WANG, HUI LI
     UNIVERSITY OF ZURICH: ROBERTO PEVERATI, KIM BALDRIDGE
     N. COPERNICUS UNIVERSITY AND JACKSON STATE UNIVERSITY:
          MARIA BARYSZ
     UNIVERSITY OF COPENHAGEN: Jimmy Kromann, CASPER STEINMANN
     TOKYO INSTITUTE OF TECHNOLOGY: HIROYA NAKATA
     NAGOYA UNIVERSITY: YOSHIO NISHIMOTO, STEPHAN IRLE
     MOSCOW STATE UNIVERSITY: VLADIMIR MIRONOV

 EXECUTION OF GAMESS BEGUN Wed Aug  9 22:17:26 2017

            ECHO OF THE FIRST FEW INPUT CARDS -
 INPUT CARD>!   tough UHF case from Galya                                                   
 INPUT CARD>!   This has a somewhat stretched HC bond, and the lowest energy                
 INPUT CARD>!   solution is more spin-contaminated due to partial triplet                   
 INPUT CARD>!   instability in that bond pair.  If DIIS stays on throughout,                
 INPUT CARD>!   it doesn't converge, but this shows that switching DIIS off                 
 INPUT CARD>!   for a while is great, as it converges correctly:                            
 INPUT CARD>!                                                                               
 INPUT CARD>!   DIIS finds FINAL E= -113.2418193786, 61 iters, <S**2>= 1.266                
 INPUT CARD>!   DIIS switches itself off and on 5 times during this run!                    
 INPUT CARD>!   SOSCF will find     -113.2418193785 in just 30 iterations,                  
 INPUT CARD>!   but reports a huge angle rescaled at iteration 10.                          
 INPUT CARD>!                                                                               
 INPUT CARD>!   This job takes 1 second on a 1.5 GHz Power4+ (3 Nov 2009)                   
 INPUT CARD>!                                                                               
 INPUT CARD> $CONTRL SCFTYP=uhf RUNTYP=energy icharg=0 mult=2 maxit=100 $END                
 INPUT CARD> $SYSTEM mwords=1 $END                                                          
 INPUT CARD> $BASIS  GBASIS=TZV NDFUNC=1 NPFUNC=1 $END                                      
 INPUT CARD> $guess  guess=huckel norb=46 $end                                              
 INPUT CARD> $scf    diis=.t. soscf=.f. $end                                                
 INPUT CARD> $DATA                                                                          
 INPUT CARD>HCO tzp                                                                         
 INPUT CARD>Cs                                                                              
 INPUT CARD>                                                                                
 INPUT CARD>H           1.0     -0.5601872414      -1.4584815742                            
 INPUT CARD>C           6.0     -0.6065043286      -0.3239050188                            
 INPUT CARD>O           8.0      0.5236899558       0.4209269591                            
 INPUT CARD> $END                                                                           
 INPUT CARD>                                                                                
    1000000 WORDS OF MEMORY AVAILABLE

     BASIS OPTIONS
     -------------
     GBASIS=TZV          IGAUSS=       0      POLAR=HONDO7  
     NDFUNC=       1     NFFUNC=       0     DIFFSP=       F
     NPFUNC=       1      DIFFS=       F     BASNAM=        


     RUN TITLE
     ---------
 HCO tzp                                                                         

 THE POINT GROUP OF THE MOLECULE IS CS      
 THE ORDER OF THE PRINCIPAL AXIS IS     0

 ATOM      ATOMIC                      COORDINATES (BOHR)
           CHARGE         X                   Y                   Z
 H           1.0    -1.0586003881       -2.7561305334        0.0000000000
 C           6.0    -1.1461269914       -0.6120917316        0.0000000000
 O           8.0     0.9896305190        0.7954366135        0.0000000000

          INTERNUCLEAR DISTANCES (ANGS.)
          ------------------------------

                1 H          2 C          3 O     

   1 H       0.0000000    1.1355216 *  2.1695544 *
   2 C       1.1355216 *  0.0000000    1.3535560 *
   3 O       2.1695544 *  1.3535560 *  0.0000000  

  * ... LESS THAN  3.000


     ATOMIC BASIS SET
     ----------------
 THE CONTRACTED PRIMITIVE FUNCTIONS HAVE BEEN UNNORMALIZED
 THE CONTRACTED BASIS FUNCTIONS ARE NOW NORMALIZED TO UNITY

  SHELL TYPE  PRIMITIVE        EXPONENT          CONTRACTION COEFFICIENT(S)

 H         

      1   S       1            33.6400000    0.025373656982
      1   S       2             5.0580000    0.189681435760
      1   S       3             1.1470000    0.852921469637

      2   S       4             0.3211000    1.000000000000

      3   S       5             0.1013000    1.000000000000

      4   P       6             1.0000000    1.000000000000

 C         

      5   S       7          9471.0000000    0.000776000185
      5   S       8          1398.0000000    0.006218001481
      5   S       9           307.5000000    0.033575007997
      5   S      10            84.5400000    0.134278031981
      5   S      11            26.9100000    0.393668093760
      5   S      12             9.4090000    0.544169129605

      6   S      13             9.4090000    0.248075019298
      6   S      14             3.5000000    0.782844060899

      7   S      15             1.0680000    1.000000000000

      8   S      16             0.4002000    1.000000000000

      9   S      17             0.1351000    1.000000000000

     10   P      18            25.3700000    0.016294995820
     10   P      19             5.7760000    0.102097973810
     10   P      20             1.7870000    0.340227912727
     10   P      21             0.6577000    0.668268828580

     11   P      22             0.2480000    1.000000000000

     12   P      23             0.0910600    1.000000000000

     13   D      24             0.7200000    1.000000000000

 O         

     14   S      25         18050.0000000    0.000756999830
     14   S      26          2660.0000000    0.006065998635
     14   S      27           585.7000000    0.032781992623
     14   S      28           160.9000000    0.132608970160
     14   S      29            51.1600000    0.396838910703
     14   S      30            17.9000000    0.542571877910

     15   S      31            17.9000000    0.262489933687
     15   S      32             6.6390000    0.769827805517

     16   S      33             2.0770000    1.000000000000

     17   S      34             0.7736000    1.000000000000

     18   S      35             0.2558000    1.000000000000

     19   P      36            49.8300000    0.016357993061
     19   P      37            11.4900000    0.106452954840
     19   P      38             3.6090000    0.349301851817
     19   P      39             1.3210000    0.657182721206

     20   P      40             0.4821000    1.000000000000

     21   P      41             0.1651000    1.000000000000

     22   D      42             1.2800000    1.000000000000

 TOTAL NUMBER OF BASIS SET SHELLS             =   22
 NUMBER OF CARTESIAN GAUSSIAN BASIS FUNCTIONS =   46
 NUMBER OF ELECTRONS                          =   15
 CHARGE OF MOLECULE                           =    0
 SPIN MULTIPLICITY                            =    2
 NUMBER OF OCCUPIED ORBITALS (ALPHA)          =    8
 NUMBER OF OCCUPIED ORBITALS (BETA )          =    7
 TOTAL NUMBER OF ATOMS                        =    3
 THE NUCLEAR REPULSION ENERGY IS       23.5131733675

     $CONTRL OPTIONS
     ---------------
 SCFTYP=UHF          RUNTYP=ENERGY       EXETYP=RUN     
 MPLEVL=       0     CITYP =NONE         CCTYP =NONE         VBTYP =NONE    
 DFTTYP=NONE         TDDFT =NONE    
 MULT  =       2     ICHARG=       0     NZVAR =       0     COORD =UNIQUE  
 PP    =NONE         RELWFN=NONE         LOCAL =NONE         NUMGRD=       F
 ISPHER=      -1     NOSYM =       0     MAXIT =     100     UNITS =ANGS    
 PLTORB=       F     MOLPLT=       F     AIMPAC=       F     FRIEND=        
 NPRINT=       7     IREST =       0     GEOM  =INPUT   
 NORMF =       0     NORMP =       0     ITOL  =      20     ICUT  =       9
 INTTYP=BEST         GRDTYP=BEST         QMTTOL= 1.0E-06

     $SYSTEM OPTIONS
     ---------------
  REPLICATED MEMORY=     1000000 WORDS (ON EVERY NODE).
 DISTRIBUTED MEMDDI=           0 MILLION WORDS IN AGGREGATE,
 MEMDDI DISTRIBUTED OVER   1 PROCESSORS IS           0 WORDS/PROCESSOR.
 TOTAL MEMORY REQUESTED ON EACH PROCESSOR=     1000000 WORDS.
 TIMLIM=      525600.00 MINUTES, OR     365.0 DAYS.
 PARALL= F  BALTYP=  DLB     KDIAG=    0  COREFL= F
 MXSEQ2=     300 MXSEQ3=     150  mem10=         0

          ----------------
          PROPERTIES INPUT
          ----------------

     MOMENTS            FIELD           POTENTIAL          DENSITY
 IEMOM =       1   IEFLD =       0   IEPOT =       0   IEDEN =       0
 WHERE =COMASS     WHERE =NUCLEI     WHERE =NUCLEI     WHERE =NUCLEI  
 OUTPUT=BOTH       OUTPUT=BOTH       OUTPUT=BOTH       OUTPUT=BOTH    
 IEMINT=       0   IEFINT=       0                     IEDINT=       0
                                                       MORB  =       0
          EXTRAPOLATION IN EFFECT
          DIIS IN EFFECT
          DIIS or SOSCF will be reset if energy rises
 ORBITAL PRINTING OPTION: NPREO=     1    46     2     1

     -------------------------------
     INTEGRAL TRANSFORMATION OPTIONS
     -------------------------------
     NWORD  =            0
     CUTOFF = 1.0E-09     MPTRAN =       0
     DIRTRF =       F     AOINTS =DUP     

          ----------------------
          INTEGRAL INPUT OPTIONS
          ----------------------
 NOPK  =       1 NORDER=       0 SCHWRZ=       F

     ------------------------------------------
     THE POINT GROUP IS CS , NAXIS= 0, ORDER= 2
     ------------------------------------------

     DIMENSIONS OF THE SYMMETRY SUBSPACES ARE
 A'  =   35     A'' =   11

 ..... DONE SETTING UP THE RUN .....
 STEP CPU TIME =     0.02 TOTAL CPU TIME =        0.0 (    0.0 MIN)
 TOTAL WALL CLOCK TIME=        0.0 SECONDS, CPU UTILIZATION IS  66.67%

          ********************
          1 ELECTRON INTEGRALS
          ********************
 ...... END OF ONE-ELECTRON INTEGRALS ......
 STEP CPU TIME =     0.00 TOTAL CPU TIME =        0.0 (    0.0 MIN)
 TOTAL WALL CLOCK TIME=        0.0 SECONDS, CPU UTILIZATION IS  66.67%

          -------------
          GUESS OPTIONS
          -------------
          GUESS =HUCKEL            NORB  =      46          NORDER=       0
          MIX   =       F          PRTMO =       F          PUNMO =       F
          TOLZ  = 1.0E-08          TOLE  = 1.0E-05
          SYMDEN=       F          PURIFY=       F

 INITIAL GUESS ORBITALS GENERATED BY HUCKEL   ROUTINE.
 HUCKEL GUESS REQUIRES     18356 WORDS.

 SYMMETRIES FOR INITIAL GUESS ORBITALS FOLLOW.  ALPHA SET(S).
     8 ORBITALS ARE OCCUPIED (    2 CORE ORBITALS).
     3=A'       4=A'       5=A'       6=A''      7=A'       8=A'       9=A'' 
    10=A'      11=A'      12=A'      13=A'      14=A'      15=A'      16=A'  
    17=A'      18=A'  

 SYMMETRIES FOR INITIAL GUESS ORBITALS FOLLOW.   BETA SET(S).
     7 ORBITALS ARE OCCUPIED (    2 CORE ORBITALS).
     3=A'       4=A'       5=A'       6=A''      7=A'       8=A'       9=A'' 
    10=A'      11=A'      12=A'      13=A'      14=A'      15=A'      16=A'  
    17=A'  
 ...... END OF INITIAL ORBITAL SELECTION ......
 STEP CPU TIME =     0.00 TOTAL CPU TIME =        0.0 (    0.0 MIN)
 TOTAL WALL CLOCK TIME=        0.0 SECONDS, CPU UTILIZATION IS  66.67%

                    ----------------------
                    AO INTEGRAL TECHNOLOGY
                    ----------------------
     S,P,L SHELL ROTATED AXIS INTEGRALS, REPROGRAMMED BY
        KAZUYA ISHIMURA (IMS) AND JOSE SIERRA (SYNSTAR).
     S,P,D,L SHELL ROTATED AXIS INTEGRALS PROGRAMMED BY
        KAZUYA ISHIMURA (INSTITUTE FOR MOLECULAR SCIENCE).
     S,P,D,F,G SHELL TO TOTAL QUARTET ANGULAR MOMENTUM SUM 5,
        ERIC PROGRAM BY GRAHAM FLETCHER (ELORET AND NASA ADVANCED
        SUPERCOMPUTING DIVISION, AMES RESEARCH CENTER).
     S,P,D,F,G,L SHELL GENERAL RYS QUADRATURE PROGRAMMED BY
        MICHEL DUPUIS (PACIFIC NORTHWEST NATIONAL LABORATORY).

          --------------------
          2 ELECTRON INTEGRALS
          --------------------

 THE -PK- OPTION IS OFF, THE INTEGRALS ARE NOT IN SUPERMATRIX FORM.
 STORING   15000 INTEGRALS/RECORD ON DISK, USING 12 BYTES/INTEGRAL.
 TWO ELECTRON INTEGRAL EVALUATION REQUIRES   90649 WORDS OF MEMORY.
 II,JST,KST,LST =  1  1  1  1 NREC =         1 INTLOC =    1
 II,JST,KST,LST =  2  1  1  1 NREC =         1 INTLOC =    2
 II,JST,KST,LST =  3  1  1  1 NREC =         1 INTLOC =    7
 II,JST,KST,LST =  4  1  1  1 NREC =         1 INTLOC =   22
 II,JST,KST,LST =  5  1  1  1 NREC =         1 INTLOC =   67
 II,JST,KST,LST =  6  1  1  1 NREC =         1 INTLOC =  190
 II,JST,KST,LST =  7  1  1  1 NREC =         1 INTLOC =  379
 II,JST,KST,LST =  8  1  1  1 NREC =         1 INTLOC =  655
 II,JST,KST,LST =  9  1  1  1 NREC =         1 INTLOC = 1042
 II,JST,KST,LST = 10  1  1  1 NREC =         1 INTLOC = 1567
 II,JST,KST,LST = 11  1  1  1 NREC =         1 INTLOC = 3293
 II,JST,KST,LST = 12  1  1  1 NREC =         1 INTLOC = 6183
 II,JST,KST,LST = 13  1  1  1 NREC =         1 INTLOC =10594
 II,JST,KST,LST = 14  1  1  1 NREC =         2 INTLOC =10548
 II,JST,KST,LST = 15  1  1  1 NREC =         3 INTLOC =  431
 II,JST,KST,LST = 16  1  1  1 NREC =         3 INTLOC = 6397
 II,JST,KST,LST = 17  1  1  1 NREC =         3 INTLOC =13632
 II,JST,KST,LST = 18  1  1  1 NREC =         4 INTLOC = 6786
 II,JST,KST,LST = 19  1  1  1 NREC =         5 INTLOC =  913
 II,JST,KST,LST = 20  1  1  1 NREC =         6 INTLOC =14484
 II,JST,KST,LST = 21  1  1  1 NREC =         9 INTLOC = 6132
 II,JST,KST,LST = 22  1  1  1 NREC =        12 INTLOC = 6948
 TOTAL NUMBER OF NONZERO TWO-ELECTRON INTEGRALS =              295897
         20 INTEGRAL RECORDS WERE STORED ON DISK FILE  8.
  ...... END OF TWO-ELECTRON INTEGRALS .....
 STEP CPU TIME =     0.07 TOTAL CPU TIME =        0.1 (    0.0 MIN)
 TOTAL WALL CLOCK TIME=        0.1 SECONDS, CPU UTILIZATION IS 100.00%

          ---------------------------
                  UHF SCF CALCULATION
          ---------------------------

     NUCLEAR ENERGY =        23.5131733675
     MAXIT =100     NPUNCH=  2     MULT=  2
     EXTRAP=T  DAMP=F  SHIFT=F  RSTRCT=F  DIIS=T  SOSCF=F
     DENSITY MATRIX CONV=  1.00E-05
     MEMORY REQUIRED FOR UHF/ROHF ITERS=     57286 WORDS.

 ITER EX      TOTAL ENERGY        E CHANGE  DENSITY CHANGE    DIIS ERROR
   1  0     -112.8557269407  -112.8557269407   0.643526301   1.298792753
          * * *   INITIATING DIIS PROCEDURE   * * *
   2  1     -113.2128705322    -0.3571435916   0.087068032   0.054114252
   3  2     -113.2277845533    -0.0149140211   0.030267105   0.021945005
   4  3     -113.2297322931    -0.0019477398   0.014149301   0.021696995
   5  4     -113.2306399420    -0.0009076489   0.011768913   0.005612589
   6  5     -113.2308776941    -0.0002377521   0.006573487   0.003535414
   7  6     -113.2309770256    -0.0000993315   0.003620792   0.003073995
   8  7     -113.2310297296    -0.0000527040   0.002440293   0.003116810
   9  8     -113.2310617812    -0.0000320516   0.006104763   0.003207556
 NEXT ENERGY RISES: SWITCHING DIIS OFF FOR  5 ITERS, NEW ETHRSH= 2.89E-03
  10  9     -113.2309832550     0.0000785262   0.008220459   0.012477166
  11 10     -113.2310908769    -0.0001076220   0.002169694   0.003301061
  12 11     -113.2311221545    -0.0000312776   0.002232673   0.003403563
  13  0     -113.2311560335    -0.0000338790   0.040173452   0.003521578
  14  1     -113.2230877982     0.0080682353   0.066886258   0.073320002
          * * *   INITIATING DIIS PROCEDURE   * * *
  15  2     -113.2230923164    -0.0000045182   0.069522266   0.057394238
 NEXT ENERGY RISES: SWITCHING DIIS OFF FOR  5 ITERS, NEW ETHRSH= 5.17E-02
  16  3     -113.2227711062     0.0003212103   0.000000000   0.000000000
  17  4     -113.2227711062     0.0000000000   0.060887682   0.070912051
  18  5     -113.2215425617     0.0012285445   0.071003445   0.070874372
  19  6     -113.2208514959     0.0006910658   0.070022437   0.076124017
  20  0     -113.2191597535     0.0016917424   0.040396353   0.081993604
          * * *   INITIATING DIIS PROCEDURE   * * *
  21  1     -113.2319109946    -0.0127512411   0.003631805   0.005879588
  22  2     -113.2320377020    -0.0001267074   0.001024788   0.005987359
  23  3     -113.2320757857    -0.0000380837   0.015167037   0.006116282
 NEXT ENERGY RISES: SWITCHING DIIS OFF FOR  5 ITERS, NEW ETHRSH= 5.50E-03
  24  4     -113.2315937716     0.0004820141   0.019081272   0.029763914
  25  5     -113.2322211460    -0.0006273744   0.004168051   0.006568953
  26  6     -113.2323845826    -0.0001634366   0.004436144   0.006968178
  27  7     -113.2325685335    -0.0001839509   0.004697398   0.007462891
  28  8     -113.2327756873    -0.0002071538   0.004982097   0.007890776
          * * *   INITIATING DIIS PROCEDURE   * * *
  29  9     -113.2330085518    -0.0002328645   0.005242529   0.008424949
  30 10     -113.2332699161    -0.0002613642   0.002948035   0.008872487
  31 11     -113.2331193958     0.0001505203   0.091329643   0.008568855
 NEXT ENERGY RISES: SWITCHING DIIS OFF FOR  5 ITERS, NEW ETHRSH= 7.71E-03
  32 12     -113.2305773055     0.0025420903   0.099813353   0.154359140
  33 13     -113.2335621373    -0.0029848319   0.005779279   0.009431099
  34 14     -113.2338876041    -0.0003254668   0.006064629   0.009875667
  35 15     -113.2342477824    -0.0003601783   0.006264607   0.010426904
  36 16     -113.2346436637    -0.0003958813   0.006515083   0.010828649
          * * *   INITIATING DIIS PROCEDURE   * * *
  37 17     -113.2350746293    -0.0004309656   0.006634895   0.011320483
  38 18     -113.2355388898    -0.0004642605   0.004297673   0.011621432
  39 19     -113.2352376808     0.0003012090   0.182244703   0.011353365
  40 20     -113.2262439129     0.0089937679   0.008081448   0.037590619
 NEXT ENERGY RISES: SWITCHING DIIS OFF FOR  5 ITERS, NEW ETHRSH= 3.38E-02
  41 21     -113.2256411062     0.0006028068   0.197093997   0.297024060
  42 22     -113.2357130871    -0.0100719810   0.006871406   0.011849206
  43 23     -113.2362161391    -0.0005030519   0.007367307   0.011955450
  44 24     -113.2367397314    -0.0005235923   0.007325149   0.012270760
  45 25     -113.2372753784    -0.0005356471   0.007727089   0.012164222
          * * *   INITIATING DIIS PROCEDURE   * * *
  46 26     -113.2378124071    -0.0005370286   0.007589208   0.012225503
  47 27     -113.2383395167    -0.0005271096   0.002686068   0.011867719
  48 28     -113.2385183270    -0.0001788103   0.232391205   0.011804814
  49 29     -113.2210005763     0.0175177506   0.160561853   0.058526310
  50 30     -113.2417173609    -0.0207167845   0.046109502   0.002995672
  51 31     -113.2398942735     0.0018230873   0.021312088   0.010373879
  52 32     -113.2409593177    -0.0010650442   0.045558060   0.007699934
  53 33     -113.2417854389    -0.0008261211   0.008577930   0.001834398
  54 34     -113.2418176252    -0.0000321864   0.001574146   0.000407100
  55 35     -113.2418193597    -0.0000017345   0.000429550   0.000043166
  56 36     -113.2418192221     0.0000001376   0.000571133   0.000115124
  57 37     -113.2418193721    -0.0000001500   0.000018912   0.000026267
  58 38     -113.2418193696     0.0000000025   0.000160387   0.000029828
  59 39     -113.2418193774    -0.0000000078   0.000040795   0.000010166
  60 40     -113.2418193786    -0.0000000011   0.000000545   0.000000272
  61 41     -113.2418193786    -0.0000000000   0.000000698   0.000000201

          -----------------
          DENSITY CONVERGED
          -----------------
     TIME TO FORM FOCK OPERATORS=       0.2 SECONDS (       0.0 SEC/ITER)
     TIME TO SOLVE SCF EQUATIONS=       0.1 SECONDS (       0.0 SEC/ITER)

 FINAL UHF ENERGY IS     -113.2418193786 AFTER  61 ITERATIONS

          --------------------
          SPIN SZ   =    0.500
          S-SQUARED =    1.266
          --------------------

  ----- ALPHA SET ----- 

          ------------
          EIGENVECTORS
          ------------

                      1          2          3          4          5
                  -20.6203   -11.3721    -1.3273    -0.8834    -0.6632
                     A'         A'         A'         A'         A'  
    1  H  1  S    0.000011   0.000452   0.020193   0.119159   0.112546
    2  H  1  S   -0.000098   0.000224   0.021356   0.160914   0.162500
    3  H  1  S    0.000040   0.000474  -0.012476  -0.004065   0.078051
    4  H  1  X   -0.000035   0.000014   0.001443   0.000915   0.000921
    5  H  1  Y   -0.000003   0.000316   0.004805   0.018809   0.013430
    6  H  1  Z   -0.000000   0.000000  -0.000000  -0.000000   0.000000
    7  C  2  S    0.000009   0.575718  -0.060430  -0.102278   0.019266
    8  C  2  S   -0.000068   0.454918  -0.098118  -0.170228   0.032917
    9  C  2  S    0.000244   0.041650   0.063533   0.048625  -0.013882
   10  C  2  S   -0.000263   0.017821   0.191087   0.511598  -0.113154
   11  C  2  S    0.000770  -0.001531   0.106901   0.255670  -0.046894
   12  C  2  X    0.000135   0.000623   0.098183  -0.071934   0.017716
   13  C  2  Y    0.000079   0.000415   0.066688  -0.092565  -0.311265
   14  C  2  Z   -0.000000   0.000000  -0.000000  -0.000000   0.000000
   15  C  2  X    0.000309  -0.000734   0.042637  -0.041805   0.027950
   16  C  2  Y    0.000129  -0.000014   0.031265  -0.040525  -0.209277
   17  C  2  Z   -0.000000   0.000000  -0.000000  -0.000000   0.000000
   18  C  2  X    0.000230   0.000174   0.001298  -0.015766   0.031326
   19  C  2  Y    0.000160   0.000277  -0.006676  -0.025799  -0.007252
   20  C  2  Z   -0.000000   0.000000  -0.000000  -0.000000   0.000000
   21  C  2 XX    0.000143  -0.006297   0.030083  -0.007404  -0.006838
   22  C  2 YY    0.000070  -0.006843   0.012103   0.000862   0.003725
   23  C  2 ZZ    0.000074  -0.006273   0.006699  -0.005795  -0.002400
   24  C  2 XY    0.000062  -0.000323   0.017990  -0.010828  -0.018127
   25  C  2 XZ   -0.000000   0.000000  -0.000000  -0.000000   0.000000
   26  C  2 YZ   -0.000000   0.000000  -0.000000  -0.000000   0.000000
   27  O  3  S    0.549744  -0.000102  -0.110556   0.056178  -0.024981
   28  O  3  S    0.479144  -0.000167  -0.188929   0.100244  -0.045376
   29  O  3  S    0.033025   0.000901  -0.033034  -0.045365   0.026794
   30  O  3  S    0.037581  -0.001529   0.715139  -0.248768   0.100862
   31  O  3  S   -0.002879   0.000415   0.262402  -0.264516   0.158034
   32  O  3  X   -0.001228  -0.000407  -0.072938  -0.101214   0.336327
   33  O  3  Y   -0.000800  -0.000270  -0.041868  -0.084844  -0.081392
   34  O  3  Z   -0.000000   0.000000  -0.000000  -0.000000   0.000000
   35  O  3  X    0.000759  -0.000245  -0.055151  -0.064296   0.250302
   36  O  3  Y    0.000520  -0.000105  -0.034777  -0.056838  -0.069320
   37  O  3  Z   -0.000000   0.000000  -0.000000  -0.000000   0.000000
   38  O  3  X    0.000029  -0.000032   0.011626  -0.028346   0.112146
   39  O  3  Y    0.000026  -0.000134   0.008039  -0.021436  -0.032184
   40  O  3  Z   -0.000000   0.000000  -0.000000  -0.000000   0.000000
   41  O  3 XX   -0.011072   0.000606  -0.038117  -0.001562  -0.012811
   42  O  3 YY   -0.011060   0.000458  -0.047120  -0.003452   0.014895
   43  O  3 ZZ   -0.012121   0.000456  -0.071084   0.002904   0.005195
   44  O  3 XY   -0.000227   0.000155   0.009130   0.009061  -0.006829
   45  O  3 XZ   -0.000000   0.000000  -0.000000  -0.000000   0.000000
   46  O  3 YZ   -0.000000   0.000000  -0.000000  -0.000000   0.000000

                      6          7          8          9         10
                   -0.5973    -0.4817    -0.4351     0.1051     0.1565
                     A'         A''        A'         A''        A'  
    1  H  1  S    0.025740   0.000000  -0.104793   0.000000   0.038224
    2  H  1  S    0.035543   0.000000  -0.228417   0.000000  -0.244302
    3  H  1  S    0.043524   0.000000  -0.114373   0.000000   2.725882
    4  H  1  X   -0.005293   0.000000  -0.007346   0.000000   0.001471
    5  H  1  Y    0.001044   0.000000  -0.007635   0.000000  -0.030726
    6  H  1  Z    0.000000   0.010983   0.000000  -0.015269   0.000000
    7  C  2  S   -0.015854   0.000000  -0.030127   0.000000   0.039962
    8  C  2  S   -0.027547   0.000000  -0.052326   0.000000   0.074102
    9  C  2  S    0.018045   0.000000   0.042927   0.000000  -0.590682
   10  C  2  S    0.064157   0.000000   0.112487   0.000000   1.210179
   11  C  2  S    0.142284   0.000000   0.309728   0.000000  -2.142335
   12  C  2  X   -0.336890   0.000000  -0.261806   0.000000  -0.006323
   13  C  2  Y   -0.015495   0.000000   0.206447   0.000000   0.164003
   14  C  2  Z    0.000000   0.438484   0.000000  -0.240555   0.000000
   15  C  2  X   -0.243632   0.000000  -0.210832   0.000000   0.006727
   16  C  2  Y    0.000229   0.000000   0.153417   0.000000   0.125915
   17  C  2  Z    0.000000   0.379683   0.000000  -0.242301   0.000000
   18  C  2  X   -0.030168   0.000000  -0.085851   0.000000  -0.353411
   19  C  2  Y    0.041833   0.000000   0.065596   0.000000   1.057638
   20  C  2  Z    0.000000   0.143046   0.000000  -0.441829   0.000000
   21  C  2 XX   -0.024155   0.000000   0.037447   0.000000  -0.266170
   22  C  2 YY    0.016948   0.000000  -0.028477   0.000000  -0.238369
   23  C  2 ZZ    0.011524   0.000000   0.021777   0.000000  -0.276836
   24  C  2 XY   -0.018488   0.000000  -0.021880   0.000000   0.000895
   25  C  2 XZ    0.000000   0.021916   0.000000   0.041811   0.000000
   26  C  2 YZ    0.000000   0.018356   0.000000   0.025019   0.000000
   27  O  3  S   -0.020280   0.000000   0.002601   0.000000  -0.000233
   28  O  3  S   -0.037342   0.000000   0.005080   0.000000  -0.004270
   29  O  3  S    0.024901   0.000000  -0.013696   0.000000   0.109578
   30  O  3  S    0.080682   0.000000   0.010899   0.000000  -0.243016
   31  O  3  S    0.149840   0.000000  -0.021440   0.000000   0.150464
   32  O  3  X    0.102003   0.000000   0.269248   0.000000  -0.012139
   33  O  3  Y    0.377315   0.000000  -0.273835   0.000000  -0.070795
   34  O  3  Z    0.000000   0.197569   0.000000   0.375518   0.000000
   35  O  3  X    0.065110   0.000000   0.212399   0.000000  -0.020334
   36  O  3  Y    0.289666   0.000000  -0.222832   0.000000  -0.025475
   37  O  3  Z    0.000000   0.165201   0.000000   0.269423   0.000000
   38  O  3  X    0.034436   0.000000   0.173420   0.000000   0.010260
   39  O  3  Y    0.141113   0.000000  -0.177597   0.000000  -0.263622
   40  O  3  Z    0.000000   0.094236   0.000000   0.626040   0.000000
   41  O  3 XX    0.004312   0.000000  -0.009765   0.000000   0.056151
   42  O  3 YY   -0.004266   0.000000  -0.004031   0.000000   0.051405
   43  O  3 ZZ    0.007739   0.000000  -0.003962   0.000000   0.053545
   44  O  3 XY   -0.019314   0.000000  -0.000373   0.000000  -0.004618
   45  O  3 XZ    0.000000  -0.019006   0.000000  -0.004363   0.000000
   46  O  3 YZ    0.000000  -0.012592   0.000000  -0.002700   0.000000

                     11         12         13         14         15
                    0.2162     0.2671     0.2717     0.4184     0.5094
                     A'         A'         A''        A'         A'  
    1  H  1  S   -0.002425   0.003954   0.000000   0.058956   0.005776
    2  H  1  S   -0.096677   0.051103   0.000000   1.011154   0.303179
    3  H  1  S    0.840577   0.728164   0.000000   1.431753   0.222691
    4  H  1  X    0.015320   0.001925   0.000000  -0.001815  -0.003709
    5  H  1  Y   -0.009668  -0.011739   0.000000   0.001659   0.007581
    6  H  1  Z    0.000000   0.000000   0.003783  -0.000000   0.000000
    7  C  2  S   -0.013494   0.013083   0.000000  -0.009604  -0.051137
    8  C  2  S   -0.022690   0.026660   0.000000  -0.010334  -0.080447
    9  C  2  S    0.015935   0.086258   0.000000  -1.870041  -1.894374
   10  C  2  S    0.041811  -0.328717   0.000000   4.861820   5.220378
   11  C  2  S    0.400446  -0.211171   0.000000  -4.157794  -0.844672
   12  C  2  X    0.043642   0.143935   0.000000  -0.167186   0.178450
   13  C  2  Y    0.070007  -0.139743   0.000000   0.077645   0.162214
   14  C  2  Z    0.000000   0.000000  -0.251023  -0.000000   0.000000
   15  C  2  X   -0.041000   0.454116   0.000000  -0.637584   0.808814
   16  C  2  Y    0.023950  -0.543898   0.000000  -0.000607   0.652275
   17  C  2  Z    0.000000   0.000000  -0.782513  -0.000000   0.000000
   18  C  2  X    1.227416  -0.758440   0.000000   0.126529  -0.538438
   19  C  2  Y    1.077305   1.660012   0.000000   1.422591  -0.159676
   20  C  2  Z    0.000000   0.000000   1.411783  -0.000000   0.000000
   21  C  2 XX   -0.027534   0.052066   0.000000  -0.888529  -0.907827
   22  C  2 YY    0.014038   0.068750   0.000000  -0.873944  -0.908605
   23  C  2 ZZ    0.022608   0.048768   0.000000  -0.932038  -0.915794
   24  C  2 XY   -0.038933  -0.008890   0.000000  -0.003267  -0.003257
   25  C  2 XZ    0.000000   0.000000  -0.006511  -0.000000   0.000000
   26  C  2 YZ    0.000000   0.000000  -0.007140  -0.000000   0.000000
   27  O  3  S    0.031950   0.006523   0.000000  -0.022135   0.028481
   28  O  3  S    0.099905   0.016291   0.000000  -0.046105   0.051439
   29  O  3  S   -1.162923  -0.120309   0.000000   0.142286   0.051985
   30  O  3  S    2.333750   0.223782   0.000000  -0.199083  -0.279578
   31  O  3  S   -1.551589  -0.238890   0.000000   0.780101  -0.580720
   32  O  3  X    0.067005   0.021274   0.000000   0.026306   0.079761
   33  O  3  Y    0.046192  -0.033015   0.000000  -0.121882   0.003840
   34  O  3  Z    0.000000   0.000000   0.009322  -0.000000   0.000000
   35  O  3  X    0.026260  -0.013380   0.000000   0.088524   0.006457
   36  O  3  Y    0.035778   0.011930   0.000000  -0.117555  -0.096783
   37  O  3  Z    0.000000   0.000000   0.033382  -0.000000   0.000000
   38  O  3  X    0.302930   0.207639   0.000000  -0.627493   1.244097
   39  O  3  Y    0.141414  -0.204556   0.000000  -0.590045   0.926236
   40  O  3  Z    0.000000   0.000000  -0.126782  -0.000000   0.000000
   41  O  3 XX   -0.554126  -0.060997   0.000000   0.066988   0.057314
   42  O  3 YY   -0.554898  -0.050458   0.000000   0.053468   0.039716
   43  O  3 ZZ   -0.550256  -0.054299   0.000000   0.048124   0.034791
   44  O  3 XY   -0.000920  -0.000137   0.000000  -0.002313   0.020725
   45  O  3 XZ    0.000000   0.000000   0.006558  -0.000000   0.000000
   46  O  3 YZ    0.000000   0.000000   0.004259  -0.000000   0.000000

                     16         17         18         19         20
                    0.5654     0.5884     0.6435     0.6683     1.1669
                     A'         A'         A'         A''        A'  
    1  H  1  S   -0.102499   0.010071  -0.034952  -0.000000  -0.000567
    2  H  1  S   -1.548164  -0.196363  -0.102539  -0.000000  -0.192707
    3  H  1  S    2.555948   0.151411   1.883179  -0.000000   0.013065
    4  H  1  X   -0.007076  -0.041994   0.022998  -0.000000   0.030040
    5  H  1  Y   -0.021912  -0.018675   0.024247  -0.000000  -0.011419
    6  H  1  Z   -0.000000   0.000000   0.000000  -0.000349  -0.000000
    7  C  2  S   -0.057672   0.036974  -0.033937  -0.000000   0.008418
    8  C  2  S   -0.084566   0.060477  -0.048326  -0.000000   0.024080
    9  C  2  S   -2.298411   0.255388  -1.579218  -0.000000  -0.420846
   10  C  2  S    6.244372  -0.816718   4.347983  -0.000000   0.905726
   11  C  2  S   -3.532345   0.432815  -3.066889  -0.000000   2.302399
   12  C  2  X   -0.009805  -0.229981   0.029197  -0.000000   0.065436
   13  C  2  Y   -0.251831  -0.162058  -0.129272  -0.000000  -0.006493
   14  C  2  Z   -0.000000   0.000000   0.000000   0.103129  -0.000000
   15  C  2  X   -0.188557  -0.600694  -0.129162  -0.000000   0.680444
   16  C  2  Y   -1.016485  -0.487487  -0.045427  -0.000000   0.416333
   17  C  2  Z   -0.000000   0.000000   0.000000  -0.068736  -0.000000
   18  C  2  X    0.089014   0.391545  -0.455478  -0.000000   0.671011
   19  C  2  Y    0.985930   0.348468   1.571494  -0.000000   0.348623
   20  C  2  Z   -0.000000   0.000000   0.000000  -0.558693  -0.000000
   21  C  2 XX   -1.084863   0.147339  -0.738754  -0.000000  -0.132124
   22  C  2 YY   -1.100846   0.131331  -0.738117  -0.000000  -0.226645
   23  C  2 ZZ   -1.073111   0.079693  -0.757126  -0.000000  -0.205665
   24  C  2 XY   -0.002365   0.051112  -0.003838  -0.000000   0.047556
   25  C  2 XZ   -0.000000   0.000000   0.000000  -0.027126  -0.000000
   26  C  2 YZ   -0.000000   0.000000   0.000000  -0.015357  -0.000000
   27  O  3  S   -0.002507  -0.015194  -0.001382  -0.000000  -0.104889
   28  O  3  S   -0.011283  -0.006793  -0.008953  -0.000000   0.057812
   29  O  3  S    0.174063  -0.514671   0.166353  -0.000000  -6.750994
   30  O  3  S   -0.395671   1.226743  -0.361775  -0.000000  15.865950
   31  O  3  S    0.585282  -0.150268   0.330536  -0.000000  -5.758372
   32  O  3  X    0.044806  -0.321811  -0.104129  -0.000000  -0.000560
   33  O  3  Y   -0.003105  -0.191213   0.219122  -0.000000   0.001891
   34  O  3  Z   -0.000000   0.000000   0.000000  -0.320121  -0.000000
   35  O  3  X    0.135249  -0.724112  -0.322394  -0.000000   0.125874
   36  O  3  Y   -0.120360  -0.420880   0.646792  -0.000000   0.070320
   37  O  3  Z   -0.000000   0.000000   0.000000  -0.867079  -0.000000
   38  O  3  X   -0.684321   0.788856   0.717087  -0.000000   1.016211
   39  O  3  Y    0.192961   0.399932  -1.586817  -0.000000   0.745689
   40  O  3  Z   -0.000000   0.000000   0.000000   1.552697  -0.000000
   41  O  3 XX    0.068761  -0.249299   0.091479  -0.000000  -3.286911
   42  O  3 YY    0.097094  -0.248598   0.071422  -0.000000  -3.296461
   43  O  3 ZZ    0.079271  -0.252993   0.074679  -0.000000  -3.316555
   44  O  3 XY    0.012990  -0.001045  -0.003346  -0.000000   0.027860
   45  O  3 XZ   -0.000000   0.000000   0.000000   0.014187  -0.000000
   46  O  3 YZ   -0.000000   0.000000   0.000000   0.008837  -0.000000

                     21         22         23         24         25
                    1.3657     1.3729     1.3774     1.5412     1.6105
                     A'         A'         A''        A''        A'  
    1  H  1  S   -0.000192   0.017219   0.000000   0.000000  -0.108799
    2  H  1  S   -0.245067   0.587509   0.000000   0.000000   0.017269
    3  H  1  S    0.009338  -0.710348   0.000000   0.000000   0.314794
    4  H  1  X    0.097793   0.075990   0.000000   0.000000   0.281974
    5  H  1  Y   -0.069648   0.225467   0.000000   0.000000  -0.044971
    6  H  1  Z   -0.000000  -0.000000   0.092132  -0.397851  -0.000000
    7  C  2  S   -0.000904   0.027307   0.000000   0.000000   0.039658
    8  C  2  S    0.014978   0.051334   0.000000   0.000000   0.084377
    9  C  2  S   -0.597312  -1.276967   0.000000   0.000000  -2.955757
   10  C  2  S    1.358342   2.472462   0.000000   0.000000   6.200002
   11  C  2  S    0.434879   0.751190   0.000000   0.000000  -1.531808
   12  C  2  X   -1.169807  -0.286921   0.000000   0.000000   0.185205
   13  C  2  Y    0.331056  -1.093623   0.000000   0.000000   0.135559
   14  C  2  Z   -0.000000  -0.000000  -1.233862  -0.249683  -0.000000
   15  C  2  X    2.030786   0.856341   0.000000   0.000000  -0.514207
   16  C  2  Y   -0.373946   2.295499   0.000000   0.000000  -0.403712
   17  C  2  Z   -0.000000  -0.000000   1.712639   0.438463  -0.000000
   18  C  2  X   -0.777067  -0.244224   0.000000   0.000000   0.073411
   19  C  2  Y    0.164022  -1.182032   0.000000   0.000000   0.176086
   20  C  2  Z   -0.000000  -0.000000  -0.841889  -0.101820  -0.000000
   21  C  2 XX   -0.233602  -0.605776   0.000000   0.000000  -0.824948
   22  C  2 YY   -0.272507  -0.613860   0.000000   0.000000  -1.651058
   23  C  2 ZZ   -0.226174  -0.667081   0.000000   0.000000  -1.812032
   24  C  2 XY   -0.042076  -0.081621   0.000000   0.000000  -0.530255
   25  C  2 XZ   -0.000000  -0.000000  -0.036391  -0.228779  -0.000000
   26  C  2 YZ   -0.000000  -0.000000  -0.141840   0.760565  -0.000000
   27  O  3  S   -0.011002  -0.007245   0.000000   0.000000   0.006283
   28  O  3  S   -0.028688  -0.036892   0.000000   0.000000  -0.002593
   29  O  3  S    0.267517   0.676049   0.000000   0.000000   0.365886
   30  O  3  S   -0.397834  -1.332346   0.000000   0.000000  -0.946726
   31  O  3  S   -0.723308  -0.635455   0.000000   0.000000   0.729383
   32  O  3  X   -0.141904  -0.115661   0.000000   0.000000  -0.070881
   33  O  3  Y   -0.047157  -0.150789   0.000000   0.000000   0.093287
   34  O  3  Z   -0.000000  -0.000000  -0.020442  -0.056120  -0.000000
   35  O  3  X    0.109318   0.262691   0.000000   0.000000  -0.054397
   36  O  3  Y    0.185723   0.037174   0.000000   0.000000  -0.046639
   37  O  3  Z   -0.000000  -0.000000  -0.136346  -0.031448  -0.000000
   38  O  3  X    0.403805   0.468708   0.000000   0.000000  -0.206385
   39  O  3  Y    0.281097   0.427422   0.000000   0.000000   0.003683
   40  O  3  Z   -0.000000  -0.000000   0.122699  -0.080556  -0.000000
   41  O  3 XX    0.085395   0.301927   0.000000   0.000000   0.094652
   42  O  3 YY    0.147964   0.327460   0.000000   0.000000   0.282699
   43  O  3 ZZ    0.166699   0.367597   0.000000   0.000000   0.145539
   44  O  3 XY   -0.048263  -0.073508   0.000000   0.000000   0.034626
   45  O  3 XZ   -0.000000  -0.000000   0.016200  -0.060055  -0.000000
   46  O  3 YZ   -0.000000  -0.000000   0.005046   0.010739  -0.000000

                     26         27         28         29         30
                    1.6872     1.7100     1.8653     2.2643     2.4605
                     A'         A''        A'         A'         A'  
    1  H  1  S   -0.157028  -0.000000   0.493797  -0.236172  -0.316106
    2  H  1  S    0.052325  -0.000000  -1.941848   0.349007   0.402514
    3  H  1  S    1.274045  -0.000000   1.451664  -0.288513   0.073711
    4  H  1  X   -0.096575  -0.000000   0.031402  -0.631682   0.698614
    5  H  1  Y   -0.091074  -0.000000   0.081922   0.017819   0.048417
    6  H  1  Z   -0.000000  -0.059613  -0.000000   0.000000  -0.000000
    7  C  2  S    0.096353  -0.000000   0.057720   0.018688   0.011877
    8  C  2  S    0.225443  -0.000000   0.145678   0.055232   0.040884
    9  C  2  S   -8.391833  -0.000000  -4.808348  -2.605745  -1.621206
   10  C  2  S   17.829249  -0.000000  10.224724   5.408684   3.412217
   11  C  2  S   -3.857610  -0.000000  -1.970277   0.494572  -0.704182
   12  C  2  X    0.060916  -0.000000   0.034268  -0.308252   0.037606
   13  C  2  Y    0.051042  -0.000000   0.397122  -0.132303   0.017301
   14  C  2  Z   -0.000000  -0.114477  -0.000000   0.000000  -0.000000
   15  C  2  X    0.034384  -0.000000  -0.030813   1.550630   0.194967
   16  C  2  Y   -0.143858  -0.000000  -1.169202   0.942720   0.220171
   17  C  2  Z   -0.000000   0.152194  -0.000000   0.000000  -0.000000
   18  C  2  X   -0.198475  -0.000000  -0.011014  -0.197878  -0.158313
   19  C  2  Y    0.851696  -0.000000   0.607215  -0.230477   0.150210
   20  C  2  Z   -0.000000   0.067996  -0.000000   0.000000  -0.000000
   21  C  2 XX   -4.227580  -0.000000  -2.601071  -0.600967  -0.489931
   22  C  2 YY   -4.309724  -0.000000  -1.457814  -1.200151  -0.727417
   23  C  2 ZZ   -3.501151  -0.000000  -2.706795  -1.896843  -0.990384
   24  C  2 XY    0.144090  -0.000000  -0.084327   0.475343   0.793795
   25  C  2 XZ   -0.000000   0.940058  -0.000000   0.000000  -0.000000
   26  C  2 YZ   -0.000000   0.180430  -0.000000   0.000000  -0.000000
   27  O  3  S    0.004999  -0.000000  -0.003029   0.018402   0.028589
   28  O  3  S   -0.002411  -0.000000  -0.002768   0.019348   0.028830
   29  O  3  S    0.281164  -0.000000  -0.033313   0.345922   0.543073
   30  O  3  S   -0.783951  -0.000000   0.083961  -0.779816  -1.499658
   31  O  3  S    0.319355  -0.000000   0.028165  -1.401494   0.191598
   32  O  3  X   -0.047266  -0.000000   0.064319   0.014205  -0.049285
   33  O  3  Y    0.045721  -0.000000  -0.053528   0.183474  -0.390778
   34  O  3  Z   -0.000000  -0.174034  -0.000000   0.000000  -0.000000
   35  O  3  X    0.100316  -0.000000  -0.019881   0.718313   0.578090
   36  O  3  Y    0.087653  -0.000000   0.057952   0.307547   0.798185
   37  O  3  Z   -0.000000  -0.023437  -0.000000   0.000000  -0.000000
   38  O  3  X    0.165873  -0.000000  -0.024413   0.272199  -0.183707
   39  O  3  Y   -0.205269  -0.000000  -0.017585   0.273281  -0.406523
   40  O  3  Z   -0.000000  -0.184915  -0.000000   0.000000  -0.000000
   41  O  3 XX    0.111121  -0.000000   0.065933   0.161744   0.454156
   42  O  3 YY    0.113505  -0.000000  -0.056317   0.241334   0.109295
   43  O  3 ZZ    0.165316  -0.000000  -0.045167   0.106713   0.200130
   44  O  3 XY   -0.007710  -0.000000  -0.049784   0.079635   0.084066
   45  O  3 XZ   -0.000000  -0.126630  -0.000000   0.000000  -0.000000
   46  O  3 YZ   -0.000000  -0.112029  -0.000000   0.000000  -0.000000

                     31         32         33         34         35
                    2.4658     2.6428     2.7593     2.7898     2.8282
                     A''        A'         A'         A''        A'  
    1  H  1  S    0.000000  -1.349433   0.312832  -0.000000  -0.248403
    2  H  1  S    0.000000   1.500432  -0.344911  -0.000000   0.407764
    3  H  1  S    0.000000  -0.445446   0.444324  -0.000000   0.100825
    4  H  1  X    0.000000  -0.030769  -0.047207  -0.000000  -0.382257
    5  H  1  Y    0.000000   0.154599  -0.083379  -0.000000   0.195257
    6  H  1  Z    0.992834   0.000000   0.000000  -0.045315   0.000000
    7  C  2  S    0.000000  -0.011501   0.004740  -0.000000   0.005958
    8  C  2  S    0.000000  -0.055375   0.015213  -0.000000   0.024871
    9  C  2  S    0.000000  -0.298832  -0.836886  -0.000000   0.348244
   10  C  2  S    0.000000   0.705301   1.869025  -0.000000  -0.821974
   11  C  2  S    0.000000  -0.186057  -0.482083  -0.000000  -0.302797
   12  C  2  X    0.000000  -0.015201  -0.124992  -0.000000   0.155773
   13  C  2  Y    0.000000   0.154495  -0.117459  -0.000000   0.238511
   14  C  2  Z    0.072845   0.000000   0.000000   0.016507   0.000000
   15  C  2  X    0.000000  -0.255912   0.162110  -0.000000   0.032027
   16  C  2  Y    0.000000  -0.300329  -0.033130  -0.000000  -0.063832
   17  C  2  Z   -0.363172   0.000000   0.000000  -0.124202   0.000000
   18  C  2  X    0.000000  -0.036540  -0.185472  -0.000000  -0.029072
   19  C  2  Y    0.000000   0.246481   0.368490  -0.000000   0.315421
   20  C  2  Z    0.058309   0.000000   0.000000   0.272221   0.000000
   21  C  2 XX    0.000000  -0.576766  -0.232408  -0.000000   0.232737
   22  C  2 YY    0.000000   0.011247  -0.581267  -0.000000   0.159444
   23  C  2 ZZ    0.000000  -0.366935  -0.402582  -0.000000   0.328227
   24  C  2 XY    0.000000  -0.250629   0.016816  -0.000000  -0.293441
   25  C  2 XZ   -0.075305   0.000000   0.000000  -0.114797   0.000000
   26  C  2 YZ    0.641193   0.000000   0.000000  -0.100560   0.000000
   27  O  3  S    0.000000  -0.013416  -0.001000  -0.000000  -0.002602
   28  O  3  S    0.000000  -0.024876  -0.013438  -0.000000   0.017337
   29  O  3  S    0.000000   0.034573   0.392341  -0.000000  -0.712496
   30  O  3  S    0.000000   0.066541  -0.803996  -0.000000   1.525849
   31  O  3  S    0.000000   0.224039  -0.002544  -0.000000  -0.168542
   32  O  3  X    0.000000   0.361626   1.020422  -0.000000  -0.462265
   33  O  3  Y    0.000000   0.036473  -0.510206  -0.000000  -0.963094
   34  O  3  Z   -0.089661   0.000000   0.000000  -1.217280   0.000000
   35  O  3  X    0.000000  -0.747217  -1.435826  -0.000000   0.544775
   36  O  3  Y    0.000000  -0.243990   0.826911  -0.000000   1.373497
   37  O  3  Z    0.073225   0.000000   0.000000   1.706217   0.000000
   38  O  3  X    0.000000   0.320208   0.756853  -0.000000  -0.219815
   39  O  3  Y    0.000000  -0.014328  -0.476477  -0.000000  -0.741304
   40  O  3  Z    0.014353   0.000000   0.000000  -0.874089   0.000000
   41  O  3 XX    0.000000   0.098721  -0.012184  -0.000000  -0.409303
   42  O  3 YY    0.000000  -0.044668   0.346213  -0.000000  -0.210891
   43  O  3 ZZ    0.000000   0.001217   0.265797  -0.000000  -0.457147
   44  O  3 XY    0.000000  -0.214708  -0.000007  -0.000000   0.174801
   45  O  3 XZ   -0.117365   0.000000   0.000000   0.139146   0.000000
   46  O  3 YZ    0.045005   0.000000   0.000000   0.076212   0.000000

                     36         37         38         39         40
                    3.1625     3.1878     3.4179     3.4899     3.6395
                     A'         A''        A'         A''        A'  
    1  H  1  S   -0.121475  -0.000000   0.067057  -0.000000  -0.242740
    2  H  1  S    0.649386  -0.000000  -1.536492  -0.000000  -0.965769
    3  H  1  S   -0.171256  -0.000000   0.630234  -0.000000   0.412815
    4  H  1  X   -0.019652  -0.000000  -0.173905  -0.000000   0.164060
    5  H  1  Y    0.485394  -0.000000  -1.135896  -0.000000  -0.912843
    6  H  1  Z   -0.000000  -0.099337   0.000000   0.052273   0.000000
    7  C  2  S    0.007915  -0.000000  -0.013096  -0.000000  -0.031019
    8  C  2  S   -0.004341  -0.000000   0.025491  -0.000000  -0.046486
    9  C  2  S    0.352965  -0.000000  -1.284632  -0.000000  -1.365222
   10  C  2  S   -0.896669  -0.000000   3.060305  -0.000000   3.535506
   11  C  2  S    0.046256  -0.000000  -0.467947  -0.000000   0.158165
   12  C  2  X   -0.017688  -0.000000   0.012363  -0.000000   0.026801
   13  C  2  Y    0.155339  -0.000000  -0.281790  -0.000000  -0.268148
   14  C  2  Z   -0.000000  -0.006009   0.000000  -0.035416   0.000000
   15  C  2  X   -0.053007  -0.000000   0.184057  -0.000000   0.024736
   16  C  2  Y    0.319582  -0.000000  -1.123852  -0.000000  -0.529736
   17  C  2  Z   -0.000000   0.033172   0.000000   0.280247   0.000000
   18  C  2  X   -0.008986  -0.000000  -0.003943  -0.000000   0.235938
   19  C  2  Y   -0.076497  -0.000000   0.422711  -0.000000   0.371620
   20  C  2  Z   -0.000000  -0.000848   0.000000  -0.094749   0.000000
   21  C  2 XX    0.215821  -0.000000  -0.574982  -0.000000  -1.258678
   22  C  2 YY   -0.082656  -0.000000   0.083621  -0.000000   0.242444
   23  C  2 ZZ    0.163850  -0.000000  -0.836472  -0.000000  -1.038547
   24  C  2 XY   -0.017256  -0.000000  -0.325881  -0.000000   0.113090
   25  C  2 XZ   -0.000000   0.062570   0.000000   0.376719   0.000000
   26  C  2 YZ   -0.000000  -0.134789   0.000000   0.273191   0.000000
   27  O  3  S   -0.002477  -0.000000  -0.004903  -0.000000   0.018449
   28  O  3  S   -0.017060  -0.000000   0.011055  -0.000000   0.311875
   29  O  3  S    0.410990  -0.000000  -0.635477  -0.000000  -8.210881
   30  O  3  S   -0.843858  -0.000000   1.415948  -0.000000  16.766185
   31  O  3  S    0.150102  -0.000000  -0.250751  -0.000000  -2.442084
   32  O  3  X    0.034928  -0.000000  -0.016279  -0.000000  -0.139919
   33  O  3  Y    0.069730  -0.000000  -0.248728  -0.000000   0.043372
   34  O  3  Z   -0.000000  -0.008517   0.000000   0.194736   0.000000
   35  O  3  X   -0.071496  -0.000000  -0.031479  -0.000000   0.221517
   36  O  3  Y   -0.115844  -0.000000   0.392565  -0.000000  -0.123783
   37  O  3  Z   -0.000000   0.014242   0.000000  -0.333932   0.000000
   38  O  3  X    0.036512  -0.000000  -0.067273  -0.000000   0.232931
   39  O  3  Y    0.013949  -0.000000  -0.082739  -0.000000   0.191709
   40  O  3  Z   -0.000000  -0.013789   0.000000   0.017106   0.000000
   41  O  3 XX   -0.107733  -0.000000   0.123768  -0.000000  -4.742194
   42  O  3 YY   -0.293175  -0.000000  -0.992496  -0.000000  -3.603368
   43  O  3 ZZ    1.026363  -0.000000  -0.085623  -0.000000  -3.861305
   44  O  3 XY    0.458488  -0.000000  -0.077743  -0.000000   0.165566
   45  O  3 XZ   -0.000000  -0.539952   0.000000   0.843074   0.000000
   46  O  3 YZ   -0.000000   0.835172   0.000000   0.554170   0.000000

                     41         42         43         44         45
                    3.7030     4.2984     4.8144     7.7566    26.1732
                     A'         A'         A'         A'         A'  
    1  H  1  S    0.161785  -0.125634   0.116906   0.005651   0.037951
    2  H  1  S    0.260675   0.071654  -0.214935  -0.008482  -0.075290
    3  H  1  S   -0.131583  -0.147827   0.749651  -0.012055   0.277101
    4  H  1  X   -0.130210  -0.017046  -0.027001   0.004922  -0.004631
    5  H  1  Y    0.438904  -0.004830   0.180548   0.026933   0.048206
    6  H  1  Z    0.000000  -0.000000  -0.000000   0.000000  -0.000000
    7  C  2  S   -0.016841   0.088445  -0.183429   0.001592   1.837560
    8  C  2  S   -0.054303   0.271060  -0.809241   0.041408  -3.090014
    9  C  2  S    0.345174   3.001471  -5.385675   0.493783  -1.198696
   10  C  2  S   -0.479386  -8.260509  15.988740  -1.347401   7.389959
   11  C  2  S    1.822322   1.210167  -2.133196   0.812075  -0.878919
   12  C  2  X   -0.097683  -0.377925  -0.176353  -0.109135  -0.015995
   13  C  2  Y    0.092108  -0.237149  -0.034811  -0.062396   0.010467
   14  C  2  Z    0.000000  -0.000000  -0.000000   0.000000  -0.000000
   15  C  2  X    0.706078  -0.782550  -0.277327   0.079584  -0.004614
   16  C  2  Y    0.616216  -0.550904  -0.275679   0.055406  -0.031247
   17  C  2  Z    0.000000  -0.000000  -0.000000   0.000000  -0.000000
   18  C  2  X    0.369104   0.408426   0.031397   0.221845  -0.025144
   19  C  2  Y    0.129351   0.192353   0.445533   0.125413   0.140774
   20  C  2  Z    0.000000  -0.000000  -0.000000   0.000000  -0.000000
   21  C  2 XX    0.329483   1.461526  -4.957861   0.290141  -2.330383
   22  C  2 YY   -0.431852   2.051553  -4.869635   0.302518  -2.344682
   23  C  2 ZZ    0.046189   2.380084  -4.578172   0.333872  -2.299907
   24  C  2 XY    0.044382  -0.708563  -0.292975  -0.032307  -0.020642
   25  C  2 XZ    0.000000  -0.000000  -0.000000   0.000000  -0.000000
   26  C  2 YZ    0.000000  -0.000000  -0.000000   0.000000  -0.000000
   27  O  3  S    0.045827   0.027178  -0.004831  -0.212805  -0.002229
   28  O  3  S    0.661274   0.445219   0.074449  -0.413806   0.001555
   29  O  3  S  -16.897303 -11.290097  -2.403890 -13.768303   0.183655
   30  O  3  S   34.417037  22.731978   4.767339  32.105664  -0.441069
   31  O  3  S   -5.474797  -1.771300  -0.065669  -2.846843   0.075143
   32  O  3  X   -0.027601   0.342882   0.072660   0.042353  -0.015682
   33  O  3  Y   -0.084503   0.236577   0.012961   0.028685  -0.016444
   34  O  3  Z    0.000000  -0.000000  -0.000000   0.000000  -0.000000
   35  O  3  X    0.094504  -1.260625  -0.514287  -0.150349  -0.036331
   36  O  3  Y    0.196517  -0.855272  -0.244494  -0.103012  -0.001151
   37  O  3  Z    0.000000  -0.000000  -0.000000   0.000000  -0.000000
   38  O  3  X    0.760015   0.242369   0.144931   0.290115   0.041978
   39  O  3  Y    0.512172   0.197579  -0.030418   0.202299  -0.015705
   40  O  3  Z    0.000000  -0.000000  -0.000000   0.000000  -0.000000
   41  O  3 XX   -8.352470  -5.053285  -0.873681  -8.877190   0.149537
   42  O  3 YY   -8.560690  -5.571541  -1.231855  -8.898842   0.111806
   43  O  3 ZZ   -8.149455  -6.001259  -1.456391  -8.910929   0.089071
   44  O  3 XY   -0.527114   0.719539   0.412534   0.025771   0.043360
   45  O  3 XZ    0.000000  -0.000000  -0.000000   0.000000  -0.000000
   46  O  3 YZ    0.000000  -0.000000  -0.000000   0.000000  -0.000000

                     46
                   47.3764
                     A'  
    1  H  1  S    0.002385
    2  H  1  S    0.024609
    3  H  1  S   -0.006882
    4  H  1  X    0.008711
    5  H  1  Y    0.007404
    6  H  1  Z    0.000000
    7  C  2  S    0.002051
    8  C  2  S    0.001684
    9  C  2  S   -0.008043
   10  C  2  S   -0.021257
   11  C  2  S   -0.095414
   12  C  2  X    0.003883
   13  C  2  Y    0.001719
   14  C  2  Z    0.000000
   15  C  2  X    0.000601
   16  C  2  Y    0.020429
   17  C  2  Z    0.000000
   18  C  2  X   -0.039433
   19  C  2  Y   -0.026488
   20  C  2  Z    0.000000
   21  C  2 XX    0.042812
   22  C  2 YY    0.007957
   23  C  2 ZZ    0.001588
   24  C  2 XY    0.035848
   25  C  2 XZ    0.000000
   26  C  2 YZ    0.000000
   27  O  3  S    1.814224
   28  O  3  S   -2.822052
   29  O  3  S   -0.044523
   30  O  3  S    3.607086
   31  O  3  S    0.107718
   32  O  3  X   -0.002897
   33  O  3  Y   -0.001509
   34  O  3  Z    0.000000
   35  O  3  X    0.034409
   36  O  3  Y    0.021616
   37  O  3  Z    0.000000
   38  O  3  X   -0.048613
   39  O  3  Y   -0.036059
   40  O  3  Z    0.000000
   41  O  3 XX   -1.355936
   42  O  3 YY   -1.348341
   43  O  3 ZZ   -1.344285
   44  O  3 XY   -0.008471
   45  O  3 XZ    0.000000
   46  O  3 YZ    0.000000

  ----- BETA SET ----- 

          ------------
          EIGENVECTORS
          ------------

                      1          2          3          4          5
                  -20.6454   -11.3293    -1.3930    -0.7912    -0.6351
                     A'         A'         A'         A'         A'  
    1  H  1  S    0.000004   0.000249   0.009597   0.121783   0.120687
    2  H  1  S   -0.000097  -0.000128   0.011682   0.178522   0.174226
    3  H  1  S    0.000036   0.000612  -0.005642   0.012234   0.083042
    4  H  1  X   -0.000025   0.000030   0.001176  -0.003611  -0.006695
    5  H  1  Y   -0.000025   0.000136   0.003019   0.019539   0.014702
    6  H  1  Z   -0.000000   0.000000  -0.000000  -0.000000   0.000000
    7  C  2  S    0.000001   0.576446  -0.039839  -0.090229  -0.004501
    8  C  2  S   -0.000059   0.456646  -0.063802  -0.148993  -0.007807
    9  C  2  S    0.000206   0.038296   0.060709   0.036124   0.015258
   10  C  2  S   -0.000217   0.017021   0.061525   0.438945  -0.018235
   11  C  2  S    0.000771  -0.001597   0.051093   0.174317   0.066542
   12  C  2  X    0.000131   0.000898   0.092915   0.062591  -0.139166
   13  C  2  Y    0.000110   0.000153   0.053910  -0.113521  -0.274409
   14  C  2  Z   -0.000000   0.000000  -0.000000  -0.000000   0.000000
   15  C  2  X    0.000373  -0.000059   0.027091   0.035576  -0.085037
   16  C  2  Y    0.000212  -0.000265   0.016092  -0.065263  -0.179230
   17  C  2  Z   -0.000000   0.000000  -0.000000  -0.000000   0.000000
   18  C  2  X    0.000201   0.000010   0.001873  -0.019847   0.010728
   19  C  2  Y    0.000132   0.000402  -0.001483  -0.034378  -0.001939
   20  C  2  Z   -0.000000   0.000000  -0.000000  -0.000000   0.000000
   21  C  2 XX    0.000202  -0.006322   0.032785  -0.005470  -0.016743
   22  C  2 YY    0.000160  -0.005891   0.019948   0.013846   0.021390
   23  C  2 ZZ    0.000032  -0.006830   0.006337  -0.025423   0.007739
   24  C  2 XY    0.000125   0.000652   0.020341   0.013555  -0.026327
   25  C  2 XZ   -0.000000   0.000000  -0.000000  -0.000000   0.000000
   26  C  2 YZ   -0.000000   0.000000  -0.000000  -0.000000   0.000000
   27  O  3  S    0.549188  -0.000093  -0.122129   0.042010  -0.021563
   28  O  3  S    0.478616  -0.000166  -0.209715   0.075672  -0.040609
   29  O  3  S    0.034639   0.000476  -0.025574  -0.033635   0.047945
   30  O  3  S    0.037595  -0.000594   0.778567  -0.197402   0.039462
   31  O  3  S   -0.002765  -0.000018   0.316252  -0.208770   0.166612
   32  O  3  X   -0.001278  -0.000326  -0.055003  -0.166785   0.342843
   33  O  3  Y   -0.000856  -0.000251  -0.046957  -0.181469   0.110474
   34  O  3  Z   -0.000000   0.000000  -0.000000  -0.000000   0.000000
   35  O  3  X    0.000856   0.000059  -0.052121  -0.118401   0.258697
   36  O  3  Y    0.000544  -0.000007  -0.041152  -0.134285   0.074682
   37  O  3  Z   -0.000000   0.000000  -0.000000  -0.000000   0.000000
   38  O  3  X    0.000020   0.000028   0.004442  -0.045932   0.108860
   39  O  3  Y    0.000034  -0.000059   0.002832  -0.043264   0.028938
   40  O  3  Z   -0.000000   0.000000  -0.000000  -0.000000   0.000000
   41  O  3 XX   -0.011647   0.000208  -0.052868   0.008337  -0.006361
   42  O  3 YY   -0.011428   0.000242  -0.058443   0.006252   0.018907
   43  O  3 ZZ   -0.011022   0.000204  -0.047850  -0.011834   0.025942
   44  O  3 XY   -0.000010   0.000051   0.012850   0.012458  -0.012562
   45  O  3 XZ   -0.000000   0.000000  -0.000000  -0.000000   0.000000
   46  O  3 YZ   -0.000000   0.000000  -0.000000  -0.000000   0.000000

                      6          7          8          9         10
                   -0.6307    -0.5421     0.0703     0.1097     0.1708
                     A''        A'         A'         A''        A'  
    1  H  1  S    0.000000   0.041859  -0.077647   0.000000   0.026531
    2  H  1  S    0.000000   0.092034  -0.211252   0.000000  -0.336699
    3  H  1  S    0.000000   0.047084  -0.223030   0.000000   2.802160
    4  H  1  X    0.000000  -0.003534  -0.012165   0.000000   0.000561
    5  H  1  Y    0.000000   0.003003  -0.004088   0.000000  -0.031499
    6  H  1  Z    0.002018  -0.000000   0.000000   0.023388  -0.000000
    7  C  2  S    0.000000  -0.026010  -0.044411   0.000000   0.038077
    8  C  2  S    0.000000  -0.042804  -0.074061   0.000000   0.070829
    9  C  2  S    0.000000   0.011108   0.270252   0.000000  -0.621325
   10  C  2  S    0.000000   0.121805  -0.434485   0.000000   1.317717
   11  C  2  S    0.000000   0.076712   0.794604   0.000000  -2.217381
   12  C  2  X    0.000000  -0.101284  -0.232137   0.000000  -0.015576
   13  C  2  Y    0.000000  -0.000750   0.121619   0.000000   0.149774
   14  C  2  Z    0.097889  -0.000000   0.000000   0.302393  -0.000000
   15  C  2  X    0.000000  -0.071696  -0.109143   0.000000   0.012941
   16  C  2  Y    0.000000   0.014720   0.024172   0.000000   0.076961
   17  C  2  Z    0.069803  -0.000000   0.000000   0.152059  -0.000000
   18  C  2  X    0.000000  -0.023083  -0.471266   0.000000  -0.398106
   19  C  2  Y    0.000000   0.018073   0.307400   0.000000   1.081457
   20  C  2  Z    0.011744  -0.000000   0.000000   0.868712  -0.000000
   21  C  2 XX    0.000000  -0.037086   0.116781   0.000000  -0.281189
   22  C  2 YY    0.000000   0.035806   0.115545   0.000000  -0.261845
   23  C  2 ZZ    0.000000  -0.000294   0.129866   0.000000  -0.282130
   24  C  2 XY    0.000000   0.014801   0.007714   0.000000   0.001965
   25  C  2 XZ    0.027796  -0.000000   0.000000   0.004598  -0.000000
   26  C  2 YZ    0.014332  -0.000000   0.000000  -0.016765  -0.000000
   27  O  3  S    0.000000   0.001744   0.007740   0.000000  -0.000336
   28  O  3  S    0.000000   0.002333   0.011268   0.000000  -0.005964
   29  O  3  S    0.000000   0.020082   0.065747   0.000000   0.149963
   30  O  3  S    0.000000  -0.058280  -0.191848   0.000000  -0.329925
   31  O  3  S    0.000000   0.013224  -0.016607   0.000000   0.199339
   32  O  3  X    0.000000  -0.195910   0.156481   0.000000  -0.009332
   33  O  3  Y    0.000000   0.437176  -0.093900   0.000000  -0.066588
   34  O  3  Z    0.511240  -0.000000   0.000000  -0.171983  -0.000000
   35  O  3  X    0.000000  -0.162628   0.107319   0.000000  -0.021739
   36  O  3  Y    0.000000   0.350966  -0.063232   0.000000  -0.021380
   37  O  3  Z    0.412502  -0.000000   0.000000  -0.108105  -0.000000
   38  O  3  X    0.000000  -0.103475   0.236715   0.000000   0.009788
   39  O  3  Y    0.000000   0.202414  -0.142283   0.000000  -0.262111
   40  O  3  Z    0.199863  -0.000000   0.000000  -0.315256  -0.000000
   41  O  3 XX    0.000000   0.024870   0.038674   0.000000   0.075218
   42  O  3 YY    0.000000  -0.006306   0.029448   0.000000   0.071139
   43  O  3 ZZ    0.000000   0.011925   0.035694   0.000000   0.073523
   44  O  3 XY    0.000000  -0.009438  -0.005419   0.000000  -0.005103
   45  O  3 XZ   -0.017206  -0.000000   0.000000  -0.010093  -0.000000
   46  O  3 YZ   -0.012463  -0.000000   0.000000  -0.006218  -0.000000

                     11         12         13         14         15
                    0.2275     0.3264     0.3558     0.4686     0.5243
                     A'         A'         A''        A'         A'  
    1  H  1  S   -0.007532   0.039023  -0.000000   0.027030   0.006097
    2  H  1  S   -0.152644   0.339151  -0.000000   0.725753   0.344696
    3  H  1  S    0.994930   1.071233  -0.000000   1.399124   0.632550
    4  H  1  X    0.014313   0.003879  -0.000000  -0.007977  -0.014887
    5  H  1  Y   -0.013480  -0.013137  -0.000000   0.001563   0.003135
    6  H  1  Z   -0.000000   0.000000  -0.009779   0.000000   0.000000
    7  C  2  S   -0.015234   0.025839  -0.000000  -0.013408  -0.047441
    8  C  2  S   -0.025083   0.048663  -0.000000  -0.016456  -0.071211
    9  C  2  S    0.080321  -0.478501  -0.000000  -1.684303  -2.373084
   10  C  2  S   -0.109893   1.085411  -0.000000   4.337492   6.376667
   11  C  2  S    0.390680  -1.614215  -0.000000  -3.921063  -1.691100
   12  C  2  X    0.044834   0.145084  -0.000000  -0.241051   0.066870
   13  C  2  Y    0.051407  -0.155760  -0.000000   0.072711   0.125725
   14  C  2  Z   -0.000000   0.000000  -0.342537   0.000000   0.000000
   15  C  2  X   -0.045219   0.413357  -0.000000  -1.000231   0.438091
   16  C  2  Y   -0.095985  -0.625715  -0.000000  -0.008250   0.528052
   17  C  2  Z   -0.000000   0.000000  -1.004304   0.000000   0.000000
   18  C  2  X    1.108361  -0.782318  -0.000000   0.445611  -0.312147
   19  C  2  Y    1.347278   1.785390  -0.000000   1.140830   0.166986
   20  C  2  Z   -0.000000   0.000000   1.188718   0.000000   0.000000
   21  C  2 XX    0.013482  -0.205234  -0.000000  -0.820409  -1.125403
   22  C  2 YY    0.046357  -0.200834  -0.000000  -0.795463  -1.134891
   23  C  2 ZZ    0.044259  -0.229428  -0.000000  -0.814301  -1.153846
   24  C  2 XY   -0.032102  -0.015021  -0.000000   0.011222   0.018189
   25  C  2 XZ   -0.000000   0.000000  -0.020803   0.000000   0.000000
   26  C  2 YZ   -0.000000   0.000000   0.007277   0.000000   0.000000
   27  O  3  S    0.032079  -0.006059  -0.000000  -0.024653   0.017809
   28  O  3  S    0.100522  -0.013787  -0.000000  -0.049190   0.036850
   29  O  3  S   -1.165639   0.078852  -0.000000   0.076366  -0.071455
   30  O  3  S    2.327473  -0.134904  -0.000000  -0.039218   0.050194
   31  O  3  S   -1.520790   0.185724  -0.000000   0.854575  -0.440706
   32  O  3  X    0.061496  -0.022459  -0.000000   0.049305   0.015760
   33  O  3  Y    0.021789  -0.048395  -0.000000  -0.107867  -0.071647
   34  O  3  Z   -0.000000   0.000000   0.031975   0.000000   0.000000
   35  O  3  X   -0.008814  -0.017741  -0.000000   0.140201  -0.113250
   36  O  3  Y    0.012310  -0.015444  -0.000000  -0.094602  -0.223830
   37  O  3  Z   -0.000000   0.000000   0.025694   0.000000   0.000000
   38  O  3  X    0.351662  -0.062244  -0.000000  -0.929334   1.197351
   39  O  3  Y    0.081241  -0.285036  -0.000000  -0.724553   0.888638
   40  O  3  Z   -0.000000   0.000000   0.026763   0.000000   0.000000
   41  O  3 XX   -0.551620   0.027750  -0.000000   0.028435  -0.000489
   42  O  3 YY   -0.552891   0.044775  -0.000000   0.012018  -0.021098
   43  O  3 ZZ   -0.557584   0.035308  -0.000000   0.020473  -0.039603
   44  O  3 XY   -0.002267   0.001947  -0.000000  -0.006607   0.018819
   45  O  3 XZ   -0.000000   0.000000   0.015487   0.000000   0.000000
   46  O  3 YZ   -0.000000   0.000000   0.010345   0.000000   0.000000

                     16         17         18         19         20
                    0.5930     0.6012     0.6212     0.6604     1.1555
                     A''        A'         A'         A'         A'  
    1  H  1  S    0.000000  -0.091838   0.005717  -0.046660   0.002794
    2  H  1  S    0.000000  -1.416187   0.705452  -0.626740  -0.213358
    3  H  1  S    0.000000   1.909296   0.149328   2.233303  -0.006609
    4  H  1  X    0.000000   0.012461   0.047285  -0.000177   0.026870
    5  H  1  Y    0.000000  -0.011811   0.031010   0.009284  -0.014091
    6  H  1  Z   -0.001506  -0.000000  -0.000000   0.000000  -0.000000
    7  C  2  S    0.000000  -0.070499  -0.042102  -0.024099   0.006786
    8  C  2  S    0.000000  -0.106502  -0.066855  -0.030367   0.020627
    9  C  2  S    0.000000  -2.076415  -0.756998  -1.681881  -0.283559
   10  C  2  S    0.000000   5.688417   2.181387   4.542904   0.606313
   11  C  2  S    0.000000  -2.744548  -1.073731  -3.230385   2.415958
   12  C  2  X    0.000000   0.100476   0.242928  -0.075671   0.032506
   13  C  2  Y    0.000000  -0.151120   0.200846  -0.265064   0.008286
   14  C  2  Z    0.086209  -0.000000  -0.000000   0.000000  -0.000000
   15  C  2  X    0.000000   0.148297   0.630628  -0.448159   0.741599
   16  C  2  Y    0.000000  -0.693432   0.830073  -0.567387   0.390828
   17  C  2  Z   -0.017030  -0.000000  -0.000000   0.000000  -0.000000
   18  C  2  X    0.000000  -0.027692  -0.614310  -0.219715   0.654126
   19  C  2  Y    0.000000   0.457985   0.244516   1.696710   0.352393
   20  C  2  Z   -0.661536  -0.000000  -0.000000   0.000000  -0.000000
   21  C  2 XX    0.000000  -0.982214  -0.357524  -0.795980  -0.073909
   22  C  2 YY    0.000000  -0.986626  -0.371647  -0.768205  -0.151287
   23  C  2 ZZ    0.000000  -0.974017  -0.348761  -0.808005  -0.140308
   24  C  2 XY    0.000000  -0.026150  -0.025898   0.016532   0.052581
   25  C  2 XZ   -0.010210  -0.000000  -0.000000   0.000000  -0.000000
   26  C  2 YZ   -0.007983  -0.000000  -0.000000   0.000000  -0.000000
   27  O  3  S    0.000000   0.006744   0.017910  -0.010726  -0.104642
   28  O  3  S    0.000000   0.001029   0.017350  -0.020296   0.054577
   29  O  3  S    0.000000   0.285152   0.386248   0.029072  -6.668344
   30  O  3  S    0.000000  -0.693936  -0.962650  -0.006625  15.706769
   31  O  3  S    0.000000   0.419957  -0.068035   0.471317  -5.782016
   32  O  3  X    0.000000   0.178490   0.214727  -0.213317  -0.001985
   33  O  3  Y    0.000000   0.055505   0.240442   0.128334   0.002909
   34  O  3  Z   -0.258719  -0.000000  -0.000000   0.000000  -0.000000
   35  O  3  X    0.000000   0.433799   0.397598  -0.538168   0.121206
   36  O  3  Y    0.000000  -0.012611   0.631908   0.399949   0.081864
   37  O  3  Z   -0.729754  -0.000000  -0.000000   0.000000  -0.000000
   38  O  3  X    0.000000  -0.875370   0.144117   0.653478   1.034272
   39  O  3  Y    0.000000   0.271083  -0.950468  -1.269749   0.750517
   40  O  3  Z    1.619903  -0.000000  -0.000000   0.000000  -0.000000
   41  O  3 XX    0.000000   0.125864   0.209750   0.015909  -3.252361
   42  O  3 YY    0.000000   0.155155   0.182697   0.005992  -3.260170
   43  O  3 ZZ    0.000000   0.133716   0.182650   0.009220  -3.270850
   44  O  3 XY    0.000000   0.015086   0.000080  -0.001339   0.028752
   45  O  3 XZ    0.010516  -0.000000  -0.000000   0.000000  -0.000000
   46  O  3 YZ    0.007717  -0.000000  -0.000000   0.000000  -0.000000

                     21         22         23         24         25
                    1.3989     1.4628     1.4710     1.6237     1.6859
                     A'         A'         A''        A''        A'  
    1  H  1  S    0.017668  -0.018008   0.000000  -0.000000  -0.178659
    2  H  1  S    0.480206  -0.497948   0.000000  -0.000000   0.109816
    3  H  1  S   -0.655082   0.474861   0.000000  -0.000000   0.810133
    4  H  1  X    0.106618   0.068043   0.000000  -0.000000   0.217664
    5  H  1  Y    0.185033  -0.163637   0.000000  -0.000000  -0.066986
    6  H  1  Z    0.000000   0.000000   0.092960  -0.431548   0.000000
    7  C  2  S    0.023201  -0.004176   0.000000  -0.000000   0.077524
    8  C  2  S    0.048933   0.018378   0.000000  -0.000000   0.169256
    9  C  2  S   -1.362617  -1.218890   0.000000  -0.000000  -6.366929
   10  C  2  S    2.720243   2.807258   0.000000  -0.000000  13.466300
   11  C  2  S    0.857581  -0.519322   0.000000  -0.000000  -3.029976
   12  C  2  X   -0.706942  -0.993906   0.000000  -0.000000   0.249900
   13  C  2  Y   -0.893225   0.748371   0.000000  -0.000000   0.063894
   14  C  2  Z    0.000000   0.000000  -1.275207  -0.244421   0.000000
   15  C  2  X    1.549343   1.468676   0.000000  -0.000000  -0.559192
   16  C  2  Y    2.011308  -1.239908   0.000000  -0.000000  -0.290917
   17  C  2  Z    0.000000   0.000000   1.649918   0.442016   0.000000
   18  C  2  X   -0.514686  -0.622414   0.000000  -0.000000   0.025698
   19  C  2  Y   -1.021421   0.672622   0.000000  -0.000000   0.495536
   20  C  2  Z    0.000000   0.000000  -0.786788  -0.066030   0.000000
   21  C  2 XX   -0.648948  -0.529674   0.000000  -0.000000  -2.651432
   22  C  2 YY   -0.654378  -0.556008   0.000000  -0.000000  -3.415626
   23  C  2 ZZ   -0.666818  -0.480302   0.000000  -0.000000  -3.173549
   24  C  2 XY   -0.073795  -0.008190   0.000000  -0.000000  -0.409710
   25  C  2 XZ    0.000000   0.000000  -0.055835  -0.012750   0.000000
   26  C  2 YZ    0.000000   0.000000  -0.121422   0.760556   0.000000
   27  O  3  S   -0.009581  -0.003213   0.000000  -0.000000   0.005645
   28  O  3  S   -0.043868  -0.014523   0.000000  -0.000000  -0.001862
   29  O  3  S    0.750273   0.247158   0.000000  -0.000000   0.301019
   30  O  3  S   -1.440912  -0.474816   0.000000  -0.000000  -0.851036
   31  O  3  S   -0.856352  -0.205247   0.000000  -0.000000   0.717797
   32  O  3  X   -0.152124  -0.087872   0.000000  -0.000000  -0.084468
   33  O  3  Y   -0.158923   0.016144   0.000000  -0.000000   0.101713
   34  O  3  Z    0.000000   0.000000  -0.017743  -0.095396   0.000000
   35  O  3  X    0.294772   0.029175   0.000000  -0.000000  -0.023627
   36  O  3  Y    0.123232   0.167771   0.000000  -0.000000  -0.020501
   37  O  3  Z    0.000000   0.000000  -0.114997   0.001326   0.000000
   38  O  3  X    0.581887   0.160202   0.000000  -0.000000  -0.083431
   39  O  3  Y    0.476287   0.055840   0.000000  -0.000000  -0.092119
   40  O  3  Z    0.000000   0.000000   0.100335  -0.138971   0.000000
   41  O  3 XX    0.320938   0.085538   0.000000  -0.000000   0.057222
   42  O  3 YY    0.363506   0.136050   0.000000  -0.000000   0.233272
   43  O  3 ZZ    0.422193   0.143421   0.000000  -0.000000   0.128238
   44  O  3 XY   -0.089418  -0.019617   0.000000  -0.000000   0.027058
   45  O  3 XZ    0.000000   0.000000   0.017096  -0.099593   0.000000
   46  O  3 YZ    0.000000   0.000000   0.006644  -0.016176   0.000000

                     26         27         28         29         30
                    1.7715     1.8032     1.9207     2.2983     2.4878
                     A'         A''        A'         A'         A'  
    1  H  1  S   -0.054518  -0.000000   0.534414  -0.204322  -0.348534
    2  H  1  S   -0.137167  -0.000000  -1.896764   0.300157   0.437743
    3  H  1  S    1.054892  -0.000000   1.325612  -0.297263   0.069400
    4  H  1  X   -0.258502  -0.000000   0.069782  -0.646126   0.640153
    5  H  1  Y   -0.043487  -0.000000   0.099016   0.023791   0.053964
    6  H  1  Z   -0.000000   0.053729  -0.000000  -0.000000  -0.000000
    7  C  2  S    0.074794  -0.000000   0.055699   0.020799   0.016236
    8  C  2  S    0.174342  -0.000000   0.135894   0.057285   0.049643
    9  C  2  S   -6.509767  -0.000000  -4.206249  -2.415379  -1.723194
   10  C  2  S   13.830386  -0.000000   8.901650   4.968446   3.591176
   11  C  2  S   -2.749770  -0.000000  -1.707573   0.549371  -0.718399
   12  C  2  X    0.062350  -0.000000   0.072202  -0.312992   0.050756
   13  C  2  Y   -0.027816  -0.000000   0.380653  -0.136047   0.013445
   14  C  2  Z   -0.000000  -0.090141  -0.000000  -0.000000  -0.000000
   15  C  2  X    0.235123  -0.000000  -0.102302   1.498304   0.224659
   16  C  2  Y    0.009153  -0.000000  -1.105305   0.912583   0.229139
   17  C  2  Z   -0.000000   0.037083  -0.000000  -0.000000  -0.000000
   18  C  2  X   -0.165565  -0.000000   0.016419  -0.179379  -0.153225
   19  C  2  Y    0.667649  -0.000000   0.512428  -0.253850   0.161765
   20  C  2  Z   -0.000000   0.092287  -0.000000  -0.000000  -0.000000
   21  C  2 XX   -3.591170  -0.000000  -2.267687  -0.504224  -0.530855
   22  C  2 YY   -3.202868  -0.000000  -1.185956  -1.100092  -0.772901
   23  C  2 ZZ   -2.558669  -0.000000  -2.467387  -1.819086  -1.039118
   24  C  2 XY    0.360492  -0.000000  -0.123109   0.413744   0.789469
   25  C  2 XZ   -0.000000   0.951608  -0.000000  -0.000000  -0.000000
   26  C  2 YZ   -0.000000   0.009221  -0.000000  -0.000000  -0.000000
   27  O  3  S    0.002367  -0.000000  -0.003054   0.015658   0.027631
   28  O  3  S    0.003628  -0.000000  -0.003453   0.014726   0.030113
   29  O  3  S    0.000121  -0.000000  -0.014570   0.352779   0.459544
   30  O  3  S   -0.092703  -0.000000   0.045023  -0.773453  -1.317887
   31  O  3  S   -0.125007  -0.000000   0.073156  -1.350506   0.140324
   32  O  3  X    0.011745  -0.000000   0.067674  -0.007255  -0.113995
   33  O  3  Y    0.007714  -0.000000  -0.059888   0.194650  -0.429458
   34  O  3  Z   -0.000000  -0.165945  -0.000000  -0.000000  -0.000000
   35  O  3  X    0.123519  -0.000000  -0.035823   0.697105   0.677267
   36  O  3  Y    0.096147  -0.000000   0.047664   0.258868   0.861941
   37  O  3  Z   -0.000000   0.050356  -0.000000  -0.000000  -0.000000
   38  O  3  X    0.232268  -0.000000  -0.051030   0.248959  -0.220755
   39  O  3  Y   -0.152786  -0.000000  -0.008485   0.289698  -0.433869
   40  O  3  Z   -0.000000  -0.181222  -0.000000  -0.000000  -0.000000
   41  O  3 XX    0.024864  -0.000000   0.077970   0.168809   0.434188
   42  O  3 YY   -0.079118  -0.000000  -0.040860   0.277156   0.087265
   43  O  3 ZZ    0.043654  -0.000000  -0.045320   0.077344   0.117764
   44  O  3 XY   -0.023152  -0.000000  -0.051557   0.077425   0.095788
   45  O  3 XZ   -0.000000  -0.128037  -0.000000  -0.000000  -0.000000
   46  O  3 YZ   -0.000000  -0.133640  -0.000000  -0.000000  -0.000000

                     31         32         33         34         35
                    2.4993     2.6638     2.6814     2.7690     2.8213
                     A''        A'         A''        A'         A'  
    1  H  1  S   -0.000000  -1.299971   0.000000   0.355999  -0.331701
    2  H  1  S   -0.000000   1.437676   0.000000  -0.381858   0.478578
    3  H  1  S   -0.000000  -0.423481   0.000000   0.466927   0.053934
    4  H  1  X   -0.000000  -0.007963   0.000000  -0.050593  -0.415751
    5  H  1  Y   -0.000000   0.155585   0.000000  -0.083273   0.195377
    6  H  1  Z    0.972423  -0.000000  -0.093733   0.000000  -0.000000
    7  C  2  S   -0.000000  -0.010508   0.000000   0.005625   0.002378
[...]
   13  C  2  Y   -0.000000   0.141080   0.000000  -0.114452   0.258777
   14  C  2  Z    0.082745  -0.000000   0.016266   0.000000  -0.000000
   15  C  2  X   -0.000000  -0.217285   0.000000   0.193910  -0.021828
   16  C  2  Y   -0.000000  -0.282902   0.000000  -0.004662  -0.115562
   17  C  2  Z   -0.376543  -0.000000  -0.113904   0.000000  -0.000000
   18  C  2  X   -0.000000  -0.050975   0.000000  -0.192339  -0.012718
   19  C  2  Y   -0.000000   0.237402   0.000000   0.370187   0.308133
   20  C  2  Z    0.077482  -0.000000   0.279979   0.000000  -0.000000
   21  C  2 XX   -0.000000  -0.589131   0.000000  -0.199291   0.217064
   22  C  2 YY   -0.000000  -0.033106   0.000000  -0.598351   0.238426
   23  C  2 ZZ   -0.000000  -0.432740   0.000000  -0.406693   0.385448
   24  C  2 XY   -0.000000  -0.214636   0.000000   0.047544  -0.370512
   25  C  2 XZ   -0.106989  -0.000000  -0.122287   0.000000  -0.000000
   26  C  2 YZ    0.649178  -0.000000  -0.140530   0.000000  -0.000000
   27  O  3  S   -0.000000  -0.012697   0.000000   0.001225  -0.005837
   28  O  3  S   -0.000000  -0.026897   0.000000  -0.011470   0.011002
   29  O  3  S   -0.000000   0.135540   0.000000   0.439546  -0.707537
   30  O  3  S   -0.000000  -0.148944   0.000000  -0.923923   1.556011
   31  O  3  S   -0.000000   0.218098   0.000000  -0.004409  -0.133769
   32  O  3  X   -0.000000   0.458135   0.000000   0.969635  -0.474092
   33  O  3  Y   -0.000000   0.070559   0.000000  -0.573634  -0.901278
   34  O  3  Z   -0.149721  -0.000000  -1.178326   0.000000  -0.000000
   35  O  3  X   -0.000000  -0.854649   0.000000  -1.328390   0.515941
   36  O  3  Y   -0.000000  -0.279659   0.000000   0.936156   1.258405
   37  O  3  Z    0.175192  -0.000000   1.737921   0.000000  -0.000000
   38  O  3  X   -0.000000   0.382005   0.000000   0.714410  -0.226188
   39  O  3  Y   -0.000000   0.014814   0.000000  -0.525634  -0.695675
   40  O  3  Z   -0.037375  -0.000000  -0.905532   0.000000  -0.000000
   41  O  3 XX   -0.000000   0.143092   0.000000   0.001049  -0.396415
   42  O  3 YY   -0.000000  -0.005344   0.000000   0.375442  -0.188250
   43  O  3 ZZ   -0.000000   0.068471   0.000000   0.289315  -0.490032
   44  O  3 XY   -0.000000  -0.228353   0.000000   0.032845   0.129515
   45  O  3 XZ   -0.135480  -0.000000   0.151324   0.000000  -0.000000
   46  O  3 YZ    0.065225  -0.000000   0.082280   0.000000  -0.000000

                     36         37         38         39         40
                    3.0927     3.1137     3.4231     3.4257     3.6511
                     A'         A''        A'         A''        A'  
    1  H  1  S   -0.134164  -0.000000   0.080020  -0.000000  -0.190483
    2  H  1  S    0.538012  -0.000000  -1.556378  -0.000000  -0.862274
    3  H  1  S   -0.119154  -0.000000   0.630948  -0.000000   0.359445
    4  H  1  X   -0.045216  -0.000000  -0.184296  -0.000000   0.117113
    5  H  1  Y    0.395850  -0.000000  -1.143212  -0.000000  -0.757671
    6  H  1  Z    0.000000  -0.118593  -0.000000   0.064819  -0.000000
    7  C  2  S    0.004877  -0.000000  -0.014564  -0.000000  -0.034002
    8  C  2  S   -0.004264  -0.000000   0.022163  -0.000000  -0.058187
    9  C  2  S    0.114363  -0.000000  -1.331758  -0.000000  -1.232564
   10  C  2  S   -0.325324  -0.000000   3.189203  -0.000000   3.295286
   11  C  2  S    0.017705  -0.000000  -0.435886  -0.000000   0.688842
   12  C  2  X    0.000703  -0.000000   0.016759  -0.000000   0.002993
   13  C  2  Y    0.153285  -0.000000  -0.284949  -0.000000  -0.229770
   14  C  2  Z    0.000000  -0.010774  -0.000000  -0.038445  -0.000000
   15  C  2  X    0.043126  -0.000000   0.220470  -0.000000   0.243153
   16  C  2  Y    0.274196  -0.000000  -1.109437  -0.000000  -0.333009
   17  C  2  Z    0.000000   0.047850  -0.000000   0.287195  -0.000000
   18  C  2  X   -0.017508  -0.000000  -0.001135  -0.000000   0.332203
   19  C  2  Y   -0.038278  -0.000000   0.420760  -0.000000   0.395374
   20  C  2  Z    0.000000  -0.004920  -0.000000  -0.096900  -0.000000
   21  C  2 XX    0.143521  -0.000000  -0.578528  -0.000000  -1.119797
   22  C  2 YY   -0.125560  -0.000000   0.045215  -0.000000   0.114323
   23  C  2 ZZ   -0.014262  -0.000000  -0.880021  -0.000000  -0.999127
   24  C  2 XY   -0.001584  -0.000000  -0.320980  -0.000000   0.129587
   25  C  2 XZ    0.000000   0.085518  -0.000000   0.401469  -0.000000
   26  C  2 YZ    0.000000  -0.150911  -0.000000   0.297645  -0.000000
   27  O  3  S    0.003293  -0.000000  -0.003574  -0.000000   0.032301
   28  O  3  S   -0.001229  -0.000000   0.020636  -0.000000   0.493791
   29  O  3  S    0.230195  -0.000000  -0.852538  -0.000000 -12.766022
   30  O  3  S   -0.504967  -0.000000   1.857710  -0.000000  26.032679
   31  O  3  S   -0.001852  -0.000000  -0.356761  -0.000000  -3.952390
   32  O  3  X   -0.015401  -0.000000  -0.019544  -0.000000  -0.144490
   33  O  3  Y    0.003570  -0.000000  -0.260275  -0.000000   0.013712
   34  O  3  Z    0.000000   0.004478  -0.000000   0.193714  -0.000000
   35  O  3  X    0.052134  -0.000000  -0.008150  -0.000000   0.251768
   36  O  3  Y    0.017164  -0.000000   0.420842  -0.000000  -0.051505
   37  O  3  Z    0.000000  -0.002745  -0.000000  -0.345438  -0.000000
   38  O  3  X    0.023564  -0.000000  -0.054603  -0.000000   0.445306
   39  O  3  Y   -0.009675  -0.000000  -0.073898  -0.000000   0.334634
   40  O  3  Z    0.000000  -0.011215  -0.000000   0.018488  -0.000000
   41  O  3 XX   -0.187386  -0.000000   0.040683  -0.000000  -6.946835
   42  O  3 YY   -0.418077  -0.000000  -1.068687  -0.000000  -5.922745
   43  O  3 ZZ    0.963892  -0.000000  -0.250272  -0.000000  -6.078479
   44  O  3 XY    0.434992  -0.000000  -0.134775  -0.000000  -0.012869
   45  O  3 XZ    0.000000  -0.517640  -0.000000   0.848192  -0.000000
   46  O  3 YZ    0.000000   0.845130  -0.000000   0.530669  -0.000000

                     41         42         43         44         45
                    3.7004     4.2896     4.8547     7.7362    26.1986
                     A'         A'         A'         A'         A'  
    1  H  1  S    0.231577  -0.125269   0.119947   0.005701   0.037955
    2  H  1  S    0.567225   0.057028  -0.209664  -0.008538  -0.075162
    3  H  1  S   -0.268805  -0.117668   0.744229  -0.012593   0.276766
    4  H  1  X   -0.167365  -0.021600  -0.028104   0.004995  -0.004640
    5  H  1  Y    0.711875  -0.005639   0.185198   0.027085   0.048151
    6  H  1  Z   -0.000000   0.000000   0.000000   0.000000  -0.000000
    7  C  2  S   -0.005758   0.083039  -0.186675   0.001707   1.837592
    8  C  2  S   -0.033936   0.248071  -0.821261   0.041990  -3.089801
    9  C  2  S    0.830668   2.829467  -5.387544   0.498613  -1.195668
   10  C  2  S   -1.746400  -7.760831  16.057701  -1.361410   7.382172
   11  C  2  S    1.738966   1.133645  -2.131008   0.818645  -0.877973
   12  C  2  X   -0.107931  -0.383565  -0.175946  -0.109808  -0.015967
   13  C  2  Y    0.170730  -0.240085  -0.020444  -0.062876   0.010436
   14  C  2  Z   -0.000000   0.000000   0.000000   0.000000  -0.000000
   15  C  2  X    0.669475  -0.800329  -0.244852   0.080301  -0.004788
   16  C  2  Y    0.776179  -0.573060  -0.261045   0.055885  -0.031162
   17  C  2  Z   -0.000000   0.000000   0.000000   0.000000  -0.000000
   18  C  2  X    0.285122   0.410556   0.019942   0.223336  -0.025067
   19  C  2  Y    0.001987   0.211984   0.438934   0.125860   0.140578
   20  C  2  Z   -0.000000   0.000000   0.000000   0.000000  -0.000000
   21  C  2 XX    0.757891   1.299327  -4.960663   0.293585  -2.328163
   22  C  2 YY   -0.446703   1.909225  -4.892438   0.305917  -2.342553
   23  C  2 ZZ    0.418544   2.241554  -4.605995   0.337418  -2.297624
   24  C  2 XY    0.019989  -0.733410  -0.275058  -0.032297  -0.020751
   25  C  2 XZ   -0.000000   0.000000   0.000000   0.000000  -0.000000
   26  C  2 YZ   -0.000000   0.000000   0.000000   0.000000  -0.000000
   27  O  3  S    0.038693   0.025844  -0.005803  -0.212705  -0.002234
   28  O  3  S    0.542729   0.444943   0.064769  -0.410479   0.001565
   29  O  3  S  -13.751621 -11.328833  -2.187599 -13.841686   0.183575
   30  O  3  S   27.993416  22.817537   4.341464  32.250985  -0.440858
   31  O  3  S   -4.534218  -1.764114  -0.049908  -2.863861   0.075192
   32  O  3  X    0.017171   0.346013   0.064339   0.042715  -0.015672
   33  O  3  Y   -0.091150   0.231220   0.007215   0.030146  -0.016426
   34  O  3  Z   -0.000000   0.000000   0.000000   0.000000  -0.000000
   35  O  3  X    0.024770  -1.286056  -0.482078  -0.151546  -0.036367
   36  O  3  Y    0.220835  -0.863472  -0.222732  -0.104790  -0.001193
   37  O  3  Z   -0.000000   0.000000   0.000000   0.000000  -0.000000
   38  O  3  X    0.663848   0.247786   0.143896   0.292139   0.041914
   39  O  3  Y    0.435234   0.194500  -0.030738   0.204234  -0.015701
   40  O  3  Z   -0.000000   0.000000   0.000000   0.000000  -0.000000
   41  O  3 XX   -6.603177  -5.067621  -0.786497  -8.913613   0.149490
   42  O  3 YY   -7.097783  -5.607234  -1.130131  -8.935491   0.111767
   43  O  3 ZZ   -6.670913  -5.997837  -1.330488  -8.946220   0.089036
   44  O  3 XY   -0.549466   0.742931   0.389877   0.025793   0.043333
   45  O  3 XZ   -0.000000   0.000000   0.000000   0.000000  -0.000000
   46  O  3 YZ   -0.000000   0.000000   0.000000   0.000000  -0.000000

                     46
                   47.3637
                     A'  
    1  H  1  S    0.002387
    2  H  1  S    0.024615
    3  H  1  S   -0.006877
    4  H  1  X    0.008718
    5  H  1  Y    0.007404
    6  H  1  Z    0.000000
    7  C  2  S    0.002058
    8  C  2  S    0.001682
    9  C  2  S   -0.008098
   10  C  2  S   -0.021167
   11  C  2  S   -0.095519
   12  C  2  X    0.003904
   13  C  2  Y    0.001715
   14  C  2  Z    0.000000
   15  C  2  X    0.000605
   16  C  2  Y    0.020434
   17  C  2  Z    0.000000
   18  C  2  X   -0.039465
   19  C  2  Y   -0.026500
   20  C  2  Z    0.000000
   21  C  2 XX    0.042823
   22  C  2 YY    0.007935
   23  C  2 ZZ    0.001565
   24  C  2 XY    0.035889
   25  C  2 XZ    0.000000
   26  C  2 YZ    0.000000
   27  O  3  S    1.814293
   28  O  3  S   -2.822017
   29  O  3  S   -0.044719
   30  O  3  S    3.607560
   31  O  3  S    0.107889
   32  O  3  X   -0.002883
   33  O  3  Y   -0.001519
   34  O  3  Z    0.000000
   35  O  3  X    0.034428
   36  O  3  Y    0.021661
   37  O  3  Z    0.000000
   38  O  3  X   -0.048656
   39  O  3  Y   -0.036105
   40  O  3  Z    0.000000
   41  O  3 XX   -1.356130
   42  O  3 YY   -1.348547
   43  O  3 ZZ   -1.344626
   44  O  3 XY   -0.008508
   45  O  3 XZ    0.000000
   46  O  3 YZ    0.000000
 ...... END OF UHF CALCULATION ......
 STEP CPU TIME =     0.36 TOTAL CPU TIME =        0.4 (    0.0 MIN)
 TOTAL WALL CLOCK TIME=        0.5 SECONDS, CPU UTILIZATION IS  97.83%

     ----------------------------------------------------------------
     PROPERTY VALUES FOR THE UHF   SELF-CONSISTENT FIELD WAVEFUNCTION
     ----------------------------------------------------------------

          -----------------
          ENERGY COMPONENTS
          -----------------

         WAVEFUNCTION NORMALIZATION =       1.0000000000

                ONE ELECTRON ENERGY =    -201.1628492245
                TWO ELECTRON ENERGY =      64.4078564784
           NUCLEAR REPULSION ENERGY =      23.5131733675
                                      ------------------
                       TOTAL ENERGY =    -113.2418193786

 ELECTRON-ELECTRON POTENTIAL ENERGY =      64.4078564784
  NUCLEUS-ELECTRON POTENTIAL ENERGY =    -313.9689677415
   NUCLEUS-NUCLEUS POTENTIAL ENERGY =      23.5131733675
                                      ------------------
             TOTAL POTENTIAL ENERGY =    -226.0479378955
               TOTAL KINETIC ENERGY =     112.8061185170
                 VIRIAL RATIO (V/T) =       2.0038623868

  ...... PI ENERGY ANALYSIS ......

 ENERGY ANALYSIS:
            FOCK ENERGY=    -72.3471356048
          BARE H ENERGY=   -201.1628492245
     ELECTRONIC ENERGY =   -136.7549924146
         KINETIC ENERGY=    112.8061185170
          N-N REPULSION=     23.5131733675
           TOTAL ENERGY=   -113.2418190471
        SIGMA PART(1+2)=   -128.3177288836
               (K,V1,2)=    109.1946072382   -294.5953153764     57.0829792546
           PI PART(1+2)=     -8.4372635311
               (K,V1,2)=      3.6115112788    -19.3736523651      7.3248775553
  SIGMA SKELETON, ERROR=   -104.8045555160      0.0000000000
             MIXED PART= 0.00000E+00 0.00000E+00 0.00000E+00 0.00000E+00
 ...... END OF PI ENERGY ANALYSIS ......

          ---------------------------------------
          MULLIKEN AND LOWDIN POPULATION ANALYSES
          ---------------------------------------

     ATOMIC MULLIKEN POPULATION IN EACH MOLECULAR ORBITAL
        ALPHA ORBITALS

                      1          2          3          4          5

                  1.000000   1.000000   1.000000   1.000000   1.000000

    1             0.000001   0.000079   0.002060   0.159604   0.143942
    2             0.000088   0.999865   0.277010   0.596105   0.357119
    3             0.999911   0.000056   0.720930   0.244291   0.498939

                      6          7          8

                  1.000000   1.000000   1.000000

    1             0.012431   0.001875   0.128124
    2             0.397029   0.767648   0.408104
    3             0.590540   0.230477   0.463771

     ATOMIC MULLIKEN POPULATION IN EACH MOLECULAR ORBITAL
         BETA ORBITALS

                      1          2          3          4          5

                  1.000000   1.000000   1.000000   1.000000   1.000000

    1             0.000000   0.000052   0.000509   0.185576   0.179008
    2             0.000101   0.999950   0.143348   0.474948   0.331356
    3             0.999899  -0.000002   0.856143   0.339476   0.489635

                      6          7

                  1.000000   1.000000

    1             0.000074   0.029029
    2             0.064372   0.113035
    3             0.935554   0.857936

     ATOMIC SPIN POPULATION (ALPHA MINUS BETA)
       ATOM         MULL.POP.                    LOW.POP.
    1 H             0.053867                     0.060134
    2 C             1.675858                     1.549064
    3 O            -0.729725                    -0.609197


          ********* ALL ELECTRONS ********

               ----- POPULATIONS IN EACH AO -----
                             MULLIKEN      LOWDIN
              1  H  1  S      0.24758     0.25253
              2  H  1  S      0.49543     0.41437
              3  H  1  S      0.08215     0.19041
              4  H  1  X      0.00173     0.00504
              5  H  1  Y      0.01352     0.02599
              6  H  1  Z      0.00195     0.00572
              7  C  2  S      1.11459     1.06862
              8  C  2  S      0.82352     0.79180
              9  C  2  S      0.12705     0.26238
             10  C  2  S      0.83413     0.31709
             11  C  2  S      0.44643     0.31608
             12  C  2  X      0.43976     0.40575
             13  C  2  Y      0.48121     0.41908
             14  C  2  Z      0.35939     0.33274
             15  C  2  X      0.29733     0.34872
             16  C  2  Y      0.36023     0.39408
             17  C  2  Z      0.36321     0.34462
             18  C  2  X      0.04695     0.11469
             19  C  2  Y      0.04999     0.13632
             20  C  2  Z      0.09946     0.13646
             21  C  2 XX      0.03083     0.18536
             22  C  2 YY      0.03585     0.20443
             23  C  2 ZZ     -0.00706     0.13525
             24  C  2 XY      0.01727     0.02865
             25  C  2 XZ      0.00716     0.01034
             26  C  2 YZ      0.00279     0.00441
             27  O  3  S      1.06637     1.04595
             28  O  3  S      0.86681     0.81809
             29  O  3  S      0.03672     0.32534
             30  O  3  S      1.43501     0.42668
             31  O  3  S      0.66514     0.44440
             32  O  3  X      0.67775     0.62238
             33  O  3  Y      0.77773     0.72772
             34  O  3  Z      0.49713     0.46468
             35  O  3  X      0.60145     0.63635
             36  O  3  Y      0.68666     0.71130
             37  O  3  Z      0.46955     0.46393
             38  O  3  X      0.19512     0.28039
             39  O  3  Y      0.24736     0.30182
             40  O  3  Z      0.19591     0.23293
             41  O  3 XX     -0.06438     0.21299
             42  O  3 YY     -0.06603     0.21295
             43  O  3 ZZ     -0.06907     0.21100
             44  O  3 XY      0.00488     0.00599
             45  O  3 XZ      0.00237     0.00287
             46  O  3 YZ      0.00107     0.00128

          ----- MULLIKEN ATOMIC OVERLAP POPULATIONS -----
          (OFF-DIAGONAL ELEMENTS NEED TO BE MULTIPLIED BY 2)

             1           2           3

    1    0.5546859
    2    0.3218330   5.2469813
    3   -0.0341557   0.3612657   7.9004467

          TOTAL MULLIKEN AND LOWDIN ATOMIC POPULATIONS
       ATOM         MULL.POP.    CHARGE          LOW.POP.     CHARGE
    1 H             0.842363    0.157637         0.894067    0.105933
    2 C             5.930080    0.069920         5.956891    0.043109
    3 O             8.227557   -0.227557         8.149042   -0.149042

          -------------------------------
          BOND ORDER AND VALENCE ANALYSIS     BOND ORDER THRESHOLD=0.050
          -------------------------------

                   BOND                       BOND                       BOND
  ATOM PAIR DIST  ORDER      ATOM PAIR DIST  ORDER      ATOM PAIR DIST  ORDER
    1   2  1.136  0.928        2   3  1.354  1.549

                       TOTAL       BONDED        FREE
      ATOM            VALENCE     VALENCE     VALENCE
    1 H                 0.941       0.937       0.004
    2 C                 3.752       2.477       1.274
    3 O                 2.082       1.557       0.525

          -----------------------------------------
          ATOMIC SPIN DENSITY AT THE NUCLEUS (A.U.)
          -----------------------------------------
                            SPIN DENS    ALPHA DENS     BETA DENS
    1  H            1.0     0.0371905       0.21134       0.17415
    2  C            6.0     0.6978310      61.25683      60.55900
    3  O            8.0    -0.0751975     150.37072     150.44591

          ---------------------
          ELECTROSTATIC MOMENTS
          ---------------------

 POINT   1           X           Y           Z (BOHR)    CHARGE
                 0.034778    0.089652    0.000000       -0.00 (A.U.)
         DX          DY          DZ         /D/  (DEBYE)
    -1.299742   -1.788117    0.000000    2.210586
 ...... END OF PROPERTY EVALUATION ......
 STEP CPU TIME =     0.01 TOTAL CPU TIME =        0.5 (    0.0 MIN)
 TOTAL WALL CLOCK TIME=        0.5 SECONDS, CPU UTILIZATION IS 100.00%
               580000  WORDS OF DYNAMIC MEMORY USED
 EXECUTION OF GAMESS TERMINATED NORMALLY Wed Aug  9 22:17:27 2017
 DDI: 263640 bytes (0.3 MB / 0 MWords) used by master data server.

 ----------------------------------------
 CPU timing information for all processes
 ========================================
 0: 0.422 + 0.45 = 0.468
 ----------------------------------------
 ddikick.x: exited gracefully.
unset echo
----- accounting info -----
Files used on the master node compute-1-1.local were:
-rw-rw-r-- 1 sarom sarom 1.1K Aug  9 22:17 /scratch/hco-uhf.F05
-rw-rw-r-- 1 sarom sarom 3.5M Aug  9 22:17 /scratch/hco-uhf.F08
-rw-rw-r-- 1 sarom sarom 1.9M Aug  9 22:17 /scratch/hco-uhf.F10
rm: cannot remove `/scratch/tmp': Is a directory
ls: No match.
ls: No match.
ls: No match.
Wed Aug  9 22:17:30 CDT 2017
0.255u 0.172s 0:03.97 10.5%	0+0k 0+360io 0pf+0w
/opt/gridengine/default/spool/compute-1-1/active_jobs/36197.1/pe_hostfile compute-1-1.local
