-catch_rsh /opt/gridengine/default/spool/compute-1-0/active_jobs/36198.1/pe_hostfile
compute-1-0
The primary node assigned by SGE to this run is compute-1-0
Warning: no access to tty (Bad file descriptor).
Thus no job control in this shell.
source /home/sarom/dir.git.branch.saromleang-travis-ci/install.info
setenv GMS_PATH /home/sarom/dir.git.branch.saromleang-travis-ci
setenv GMS_BUILD_DIR /home/sarom/dir.git.branch.saromleang-travis-ci
setenv GMS_TARGET linux64
setenv GMS_FORTRAN gfortran
setenv GMS_GFORTRAN_VERNO 4.4
setenv GMS_MATHLIB mkl-so
setenv GMS_MATHLIB none
setenv GMS_MATHLIB_PATH /share/apps/intel/compilers_and_libraries_2017.1.132/linux/mkl/lib/intel64
setenv GMS_MKL_VERNO 12
setenv GMS_DDI_COMM sockets
setenv GMS_LIBCCHEM false
setenv GMS_EIGEN_PATH
setenv GMS_PHI false
setenv GMS_SHMTYPE sysv
setenv GMS_OPENMP false
unset echo
o3-uhf
/home/sarom/dir.git.branch.saromleang-travis-ci/tests/uhf/parallel
----- GAMESS execution script 'rungms' -----
This job is running on host compute-1-0.local
under operating system Linux at Wed Aug 9 22:17:26 CDT 2017
Available scratch disk space (Kbyte units) at beginning of the job is
Filesystem           1K-blocks      Used Available Use% Mounted on
/dev/sda1             16126920   9111844   6195876  60% /
GAMESS temporary binary files will be written to /scratch
GAMESS supplementary output files will be written to /home/sarom/restart
Copying input file o3-uhf.inp to your run's scratch directory...
cp /home/sarom/dir.git.branch.saromleang-travis-ci/tests/uhf/parallel/o3-uhf.inp /scratch/o3-uhf.F05
unset echo
The generated host list is
compute-1-0.local
/home/sarom/dir.git.branch.saromleang-travis-ci/ddikick.x /home/sarom/dir.git.branch.saromleang-travis-ci/gamess.00.x o3-uhf -ddi 1 1 compute-1-0.local -scr /scratch

 Distributed Data Interface kickoff program.
 Initiating 1 compute processes on 1 nodes to run the following command:
 /home/sarom/dir.git.branch.saromleang-travis-ci/gamess.00.x o3-uhf 

          ******************************************************
          *         GAMESS VERSION = 20 APR 2017 (R1)          *
          *             FROM IOWA STATE UNIVERSITY             *
          * M.W.SCHMIDT, K.K.BALDRIDGE, J.A.BOATZ, S.T.ELBERT, *
          *   M.S.GORDON, J.H.JENSEN, S.KOSEKI, N.MATSUNAGA,   *
          *          K.A.NGUYEN, S.J.SU, T.L.WINDUS,           *
          *       TOGETHER WITH M.DUPUIS, J.A.MONTGOMERY       *
          *         J.COMPUT.CHEM.  14, 1347-1363(1993)        *
          **************** 64 BIT LINUX VERSION ****************

  SINCE 1993, STUDENTS AND POSTDOCS WORKING AT IOWA STATE UNIVERSITY
  AND ALSO IN THEIR VARIOUS JOBS AFTER LEAVING ISU HAVE MADE IMPORTANT
  CONTRIBUTIONS TO THE CODE:
     IVANA ADAMOVIC, CHRISTINE AIKENS, YURI ALEXEEV, POOJA ARORA,
     ANDREY ASADCHEV, ROB BELL, PRADIPTA BANDYOPADHYAY, JONATHAN BENTZ,
     BRETT BODE, KURT BRORSEN, CALEB CARLIN, GALINA CHABAN, WEI CHEN,
     CHEOL HO CHOI, PAUL DAY, ALBERT DEFUSCO, NUWAN DESILVA, TIM DUDLEY,
     DMITRI FEDOROV, GRAHAM FLETCHER, MARK FREITAG, KURT GLAESEMANN,
     DAN KEMP, GRANT MERRILL, NORIYUKI MINEZAWA, JONATHAN MULLIN,
     TAKESHI NAGATA, SEAN NEDD, HEATHER NETZLOFF, BOSILJKA NJEGIC, RYAN OLSON,
     MIKE PAK, SPENCER PRUITT, LUKE ROSKOP, JIM SHOEMAKER, LYUDMILA SLIPCHENKO,
     TONY SMITH, SAROM SOK LEANG, JIE SONG, TETSUYA TAKETSUGU, SIMON WEBB,
     PENG XU, SOOHAENG YOO, FEDERICO ZAHARIEV

  ADDITIONAL CODE HAS BEEN PROVIDED BY COLLABORATORS IN OTHER GROUPS:
     IOWA STATE UNIVERSITY:
          JOE IVANIC, AARON WEST, LAIMUTIS BYTAUTAS, KLAUS RUEDENBERG
     UNIVERSITY OF TOKYO: KIMIHIKO HIRAO, TAKAHITO NAKAJIMA,
          TAKAO TSUNEDA, MUNEAKI KAMIYA, SUSUMU YANAGISAWA,
          KIYOSHI YAGI, MAHITO CHIBA, SEIKEN TOKURA, NAOAKI KAWAKAMI
     UNIVERSITY OF AARHUS: FRANK JENSEN
     UNIVERSITY OF IOWA: VISVALDAS KAIRYS, HUI LI
     NATIONAL INST. OF STANDARDS AND TECHNOLOGY: WALT STEVENS, DAVID GARMER
     UNIVERSITY OF PISA: BENEDETTA MENNUCCI, JACOPO TOMASI
     UNIVERSITY OF MEMPHIS: HENRY KURTZ, PRAKASHAN KORAMBATH
     UNIVERSITY OF ALBERTA: TOBY ZENG, MARIUSZ KLOBUKOWSKI
     UNIVERSITY OF NEW ENGLAND: MARK SPACKMAN
     MIE UNIVERSITY: HIROAKI UMEDA
     NAT. INST. OF ADVANCED INDUSTRIAL SCIENCE AND TECHNOLOGY: KAZUO KITAURA
     MICHIGAN STATE UNIVERSITY:
          KAROL KOWALSKI, MARTA WLOCH, JEFFREY GOUR, JESSE LUTZ,
          WEI LI, PIOTR PIECUCH
     UNIVERSITY OF SILESIA: MONIKA MUSIAL, STANISLAW KUCHARSKI
     FACULTES UNIVERSITAIRES NOTRE-DAME DE LA PAIX:
          OLIVIER QUINET, BENOIT CHAMPAGNE
     UNIVERSITY OF CALIFORNIA - SANTA BARBARA: BERNARD KIRTMAN
     INSTITUTE FOR MOLECULAR SCIENCE:
          KAZUYA ISHIMURA, MICHIO KATOUDA, AND SHIGERU NAGASE
     UNIVERSITY OF NOTRE DAME: ANNA POMOGAEVA, DAN CHIPMAN
     KYUSHU UNIVERSITY:
          HARUYUKI NAKANO,
          FENG LONG GU, JACEK KORCHOWIEC, MARCIN MAKOWSKI, AND YURIKO AOKI,
          HIROTOSHI MORI AND EISAKU MIYOSHI
     PENNSYLVANIA STATE UNIVERSITY:
          TZVETELIN IORDANOV, CHET SWALINA, JONATHAN SKONE,
          SHARON HAMMES-SCHIFFER
     WASEDA UNIVERSITY:
          MASATO KOBAYASHI, TOMOKO AKAMA, TSUGUKI TOUMA,
          TAKESHI YOSHIKAWA, YASUHIRO IKABATA, JUNJI SEINO,
          YUYA NAKAJIMA, HIROMI NAKAI
     NANJING UNIVERSITY: SHUHUA LI
     UNIVERSITY OF NEBRASKA:
          PEIFENG SU, DEJUN SI, NANDUN THELLAMUREGE, YALI WANG, HUI LI
     UNIVERSITY OF ZURICH: ROBERTO PEVERATI, KIM BALDRIDGE
     N. COPERNICUS UNIVERSITY AND JACKSON STATE UNIVERSITY:
          MARIA BARYSZ
     UNIVERSITY OF COPENHAGEN: Jimmy Kromann, CASPER STEINMANN
     TOKYO INSTITUTE OF TECHNOLOGY: HIROYA NAKATA
     NAGOYA UNIVERSITY: YOSHIO NISHIMOTO, STEPHAN IRLE
     MOSCOW STATE UNIVERSITY: VLADIMIR MIRONOV

 EXECUTION OF GAMESS BEGUN Wed Aug  9 22:17:26 2017

            ECHO OF THE FIRST FEW INPUT CARDS -
 INPUT CARD>!   singlet UHF natural orbitals using spherical harmonics: 45 AOs, 42 MOs.     
 INPUT CARD>!   P.Pulay, T.P.Hamilton, J.Chem.Phys. 88,4926(1988) - Table V.                
 INPUT CARD>!   FINAL E=-224.3309652879, 15 iter, <S**2>= 0.930, Occno=1.9974,1.2934,0.7066 
 INPUT CARD>!   lit=    -224.330965                                    1.9974,1.2934,0.7066 
 INPUT CARD>!   Since the UHF wavefunction loses spatial symmetry, the computation          
 INPUT CARD>!   must have symmetry turned off.  MIX generates unequal alpha/beta orbs.      
 INPUT CARD>!                                                                               
 INPUT CARD>!   This run takes 1 seconds on almost anything ( 8 Nov 2005)                   
 INPUT CARD>!                                                                               
 INPUT CARD> $contrl scftyp=uhf mult=1 runtyp=energy coord=zmt nosym=1 ispher=1 $end        
 INPUT CARD> $system timlim=600 memory=1000000 $end                                         
 INPUT CARD> $basis  gbasis=n31 ngauss=6 ndfunc=1 $end                                      
 INPUT CARD> $guess  guess=moread norb=45 mix=.true. $end                                   
 INPUT CARD> $scf    uhfnos=.true. $end                                                     
 INPUT CARD> $data                                                                          
 INPUT CARD>O3...Pulay's geometry                                                           
 INPUT CARD>Cnv 2                                                                           
 INPUT CARD>                                                                                
 INPUT CARD>O                                                                               
 INPUT CARD>O 1 rOO                                                                         
 INPUT CARD>O 1 rOO 2 aOOO                                                                  
 INPUT CARD>                                                                                
 INPUT CARD>rOO=1.2717                                                                      
 INPUT CARD>aOOO=116.783                                                                    
 INPUT CARD> $end                                                                           
 INPUT CARD>                                                                                
 INPUT CARD>--- RHF ORBITALS --- GENERATED AT 15:04:03 CST  5-FEB-1999                      
 INPUT CARD>O3...Pulay's geometry                                                           
 INPUT CARD>E(RHF)=     -224.2451431976, E(NUC)=   68.8983854026,   15 ITERS                
 INPUT CARD> $VEC                                                                           
 INPUT CARD> 1  1 9.95958493E-01 2.18187894E-02 0.00000000E+00 0.00000000E+00 1.97031790E-03
 INPUT CARD> 1  2-9.77645155E-03 0.00000000E+00 0.00000000E+00-3.20984841E-03-9.55055472E-05
 INPUT CARD> 1  3 1.50014296E-04-5.45087485E-05 0.00000000E+00 0.00000000E+00 0.00000000E+00
 INPUT CARD> 1  4 1.58308971E-03-2.06969786E-04 9.10778744E-05 0.00000000E+00-5.63789781E-05
 INPUT CARD> 1  5 2.96505217E-03 1.50608655E-03 0.00000000E+00-3.76463063E-04-1.62568256E-04
 INPUT CARD> 1  6 3.26631718E-04-1.64063462E-04 0.00000000E+00 4.57334434E-04 0.00000000E+00
 INPUT CARD> 1  7 1.58308971E-03-2.06969786E-04-9.10778744E-05 0.00000000E+00-5.63789781E-05
 INPUT CARD> 1  8 2.96505217E-03-1.50608655E-03 0.00000000E+00-3.76463063E-04-1.62568256E-04
 INPUT CARD> 1  9 3.26631718E-04-1.64063462E-04 0.00000000E+00-4.57334434E-04 0.00000000E+00
 INPUT CARD> 2  1 0.00000000E+00 0.00000000E+00-8.75700317E-05 0.00000000E+00 0.00000000E+00
 INPUT CARD> 2  2 0.00000000E+00-2.23071720E-03 0.00000000E+00 0.00000000E+00 0.00000000E+00
 INPUT CARD> 2  3 0.00000000E+00 0.00000000E+00 0.00000000E+00 6.94528939E-04 0.00000000E+00
 INPUT CARD> 2  4 7.04213786E-01 1.52340473E-02 1.35101302E-03 0.00000000E+00-6.68518598E-04
 INPUT CARD> 2  5-5.62466621E-03-1.98013811E-03 0.00000000E+00 1.10951144E-03-1.75369047E-04
 INPUT CARD> 2  6 1.56112851E-04 1.92561963E-05 0.00000000E+00 2.87475710E-04 0.00000000E+00
 INPUT CARD> 2  7-7.04213786E-01-1.52340473E-02 1.35101302E-03 0.00000000E+00 6.68518598E-04
 INPUT CARD> 2  8 5.62466621E-03-1.98013811E-03 0.00000000E+00-1.10951144E-03 1.75369047E-04
 INPUT CARD> 2  9-1.56112851E-04-1.92561963E-05 0.00000000E+00 2.87475710E-04 0.00000000E+00
 INPUT CARD> 3  1-2.23292900E-03-2.10953651E-05 0.00000000E+00 0.00000000E+00 7.68177363E-05
 INPUT CARD> 3  2 2.23912572E-03 0.00000000E+00 0.00000000E+00 2.69222903E-04-7.36561718E-04
    1000000 WORDS OF MEMORY AVAILABLE

     BASIS OPTIONS
     -------------
     GBASIS=N31          IGAUSS=       6      POLAR=POPN31  
     NDFUNC=       1     NFFUNC=       0     DIFFSP=       F
     NPFUNC=       0      DIFFS=       F     BASNAM=        


     RUN TITLE
     ---------
 O3...Pulay's geometry                                                           

 THE POINT GROUP OF THE MOLECULE IS CNV     
 THE ORDER OF THE PRINCIPAL AXIS IS     2

 YOUR FULLY SUBSTITUTED Z-MATRIX IS
 O   
 O      1   1.2717000
 O      1   1.2717000  2  116.7830

 THE MOMENTS OF INERTIA ARE (AMU-ANGSTROM**2)
 IXX=     4.737   IYY=    37.523   IZZ=    42.260

 ATOM      ATOMIC                      COORDINATES (BOHR)
           CHARGE         X                   Y                   Z
 O           8.0     0.0000000000        0.0000000000       -0.8396853259
 O           8.0    -2.0466531325        0.0000000000        0.4198426630
 O           8.0     2.0466531325        0.0000000000        0.4198426630

          INTERNUCLEAR DISTANCES (ANGS.)
          ------------------------------

                1 O          2 O          3 O     

   1 O       0.0000000    1.2717000 *  1.2717000 *
   2 O       1.2717000 *  0.0000000    2.1660845 *
   3 O       1.2717000 *  2.1660845 *  0.0000000  

  * ... LESS THAN  3.000


     ATOMIC BASIS SET
     ----------------
 THE CONTRACTED PRIMITIVE FUNCTIONS HAVE BEEN UNNORMALIZED
 THE CONTRACTED BASIS FUNCTIONS ARE NOW NORMALIZED TO UNITY

  SHELL TYPE  PRIMITIVE        EXPONENT          CONTRACTION COEFFICIENT(S)

 O         

      1   S       1          5484.6716600    0.001831074430
      1   S       2           825.2349460    0.013950172200
      1   S       3           188.0469580    0.068445078098
      1   S       4            52.9645000    0.232714335992
      1   S       5            16.8975704    0.470192897984
      1   S       6             5.7996353    0.358520852987

      2   L       7            15.5396162   -0.110777549525    0.070874268231
      2   L       8             3.5999336   -0.148026262701    0.339752839147
      2   L       9             1.0137618    1.130767015354    0.727158577316

      3   L      10             0.2700058    1.000000000000    1.000000000000

      4   D      11             0.8000000    1.000000000000

 O         

      9   S      12          5484.6716600    0.001831074430
      9   S      13           825.2349460    0.013950172200
      9   S      14           188.0469580    0.068445078098
      9   S      15            52.9645000    0.232714335992
      9   S      16            16.8975704    0.470192897984
      9   S      17             5.7996353    0.358520852987

     10   L      18            15.5396162   -0.110777549525    0.070874268231
     10   L      19             3.5999336   -0.148026262701    0.339752839147
     10   L      20             1.0137618    1.130767015354    0.727158577316

     11   L      21             0.2700058    1.000000000000    1.000000000000

     12   D      22             0.8000000    1.000000000000

 TOTAL NUMBER OF BASIS SET SHELLS             =   12
 NUMBER OF CARTESIAN GAUSSIAN BASIS FUNCTIONS =   45
 NOTE: THIS RUN WILL RESTRICT THE MO VARIATION SPACE TO SPHERICAL HARMONICS.
 THE NUMBER OF ORBITALS KEPT IN THE VARIATIONAL SPACE WILL BE PRINTED LATER.
 NUMBER OF ELECTRONS                          =   24
 CHARGE OF MOLECULE                           =    0
 SPIN MULTIPLICITY                            =    1
 NUMBER OF OCCUPIED ORBITALS (ALPHA)          =   12
 NUMBER OF OCCUPIED ORBITALS (BETA )          =   12
 TOTAL NUMBER OF ATOMS                        =    3
 THE NUCLEAR REPULSION ENERGY IS       68.8983854026

     $CONTRL OPTIONS
     ---------------
 SCFTYP=UHF          RUNTYP=ENERGY       EXETYP=RUN     
 MPLEVL=       0     CITYP =NONE         CCTYP =NONE         VBTYP =NONE    
 DFTTYP=NONE         TDDFT =NONE    
 MULT  =       1     ICHARG=       0     NZVAR =       0     COORD =ZMT     
 PP    =NONE         RELWFN=NONE         LOCAL =NONE         NUMGRD=       F
 ISPHER=       1     NOSYM =       1     MAXIT =      30     UNITS =ANGS    
 PLTORB=       F     MOLPLT=       F     AIMPAC=       F     FRIEND=        
 NPRINT=       7     IREST =       0     GEOM  =INPUT   
 NORMF =       0     NORMP =       0     ITOL  =      20     ICUT  =       9
 INTTYP=BEST         GRDTYP=BEST         QMTTOL= 1.0E-06

     $SYSTEM OPTIONS
     ---------------
  REPLICATED MEMORY=     1000000 WORDS (ON EVERY NODE).
 DISTRIBUTED MEMDDI=           0 MILLION WORDS IN AGGREGATE,
 MEMDDI DISTRIBUTED OVER   1 PROCESSORS IS           0 WORDS/PROCESSOR.
 TOTAL MEMORY REQUESTED ON EACH PROCESSOR=     1000000 WORDS.
 TIMLIM=         600.00 MINUTES, OR       0.4 DAYS.
 PARALL= F  BALTYP=  DLB     KDIAG=    0  COREFL= F
 MXSEQ2=     300 MXSEQ3=     150  mem10=         0

          ----------------
          PROPERTIES INPUT
          ----------------

     MOMENTS            FIELD           POTENTIAL          DENSITY
 IEMOM =       1   IEFLD =       0   IEPOT =       0   IEDEN =       0
 WHERE =COMASS     WHERE =NUCLEI     WHERE =NUCLEI     WHERE =NUCLEI  
 OUTPUT=BOTH       OUTPUT=BOTH       OUTPUT=BOTH       OUTPUT=BOTH    
 IEMINT=       0   IEFINT=       0                     IEDINT=       0
                                                       MORB  =       0
          EXTRAPOLATION IN EFFECT
          SOSCF IN EFFECT
          DIIS or SOSCF will be reset if energy rises
 ORBITAL PRINTING OPTION: NPREO=     1    45     2     1

     -------------------------------
     INTEGRAL TRANSFORMATION OPTIONS
     -------------------------------
     NWORD  =            0
     CUTOFF = 1.0E-09     MPTRAN =       0
     DIRTRF =       F     AOINTS =DUP     

          ----------------------
          INTEGRAL INPUT OPTIONS
          ----------------------
 NOPK  =       1 NORDER=       0 SCHWRZ=       F

   --- ENCODED Z MATRIX ---
 COORD  TYPE   I   J   K   L   M   N
    1      1    3   1
    2      1    2   1
    3      2    2   1   3

 THE DETERMINANT OF THE G MATRIX IS 10**(    -4)

 THE DETERMINANT OF THE G MATRIX IS 10**(    -4)
 * * * WARNING * * *
 YOUR B MATRIX HAS A SMALL DETERMINANT.
 THIS SUGGESTS YOU MAY HAVE BADLY CHOSEN COORDINATES.

     ------------------------------------------
     THE POINT GROUP IS C1 , NAXIS= 1, ORDER= 1
     ------------------------------------------

 -- VARIATIONAL SPACE WILL BE RESTRICTED TO PURE SPHERICAL HARMONICS ONLY --
 AFTER EXCLUDING CONTAMINANT COMBINATIONS FROM THE CARTESIAN GAUSSIAN BASIS
 SET, THE NUMBER OF SPHERICAL HARMONICS KEPT IN THE VARIATION SPACE IS   42

     DIMENSIONS OF THE SYMMETRY SUBSPACES ARE
 A   =   42

 ..... DONE SETTING UP THE RUN .....
 STEP CPU TIME =     0.06 TOTAL CPU TIME =        0.1 (    0.0 MIN)
 TOTAL WALL CLOCK TIME=        0.1 SECONDS, CPU UTILIZATION IS  85.71%

          ********************
          1 ELECTRON INTEGRALS
          ********************
 ...... END OF ONE-ELECTRON INTEGRALS ......
 STEP CPU TIME =     0.00 TOTAL CPU TIME =        0.1 (    0.0 MIN)
 TOTAL WALL CLOCK TIME=        0.1 SECONDS, CPU UTILIZATION IS  85.71%

          -------------
          GUESS OPTIONS
          -------------
          GUESS =MOREAD            NORB  =      45          NORDER=       0
          MIX   =       T          PRTMO =       F          PUNMO =       F
          TOLZ  = 1.0E-08          TOLE  = 1.0E-05
          SYMDEN=       F          PURIFY=       F

 INITIAL GUESS ORBITALS GENERATED BY MOREAD   ROUTINE.

 STATISTICS FOR GENERATION OF SYMMETRY ORBITAL -Q- MATRIX
 NUMBER OF CARTESIAN ATOMIC ORBITALS=         45
 NUMBER OF SPHERICAL CONTAMINANTS DROPPED=     3
 NUMBER OF LINEARLY DEPENDENT MOS DROPPED=     0
 TOTAL NUMBER OF MOS IN VARIATION SPACE=      42
 HOMO AND LUMO MIXED TO BREAK ALPHA-BETA SYMMETRY

 SYMMETRIES FOR INITIAL GUESS ORBITALS FOLLOW.  ALPHA SET(S).
    12 ORBITALS ARE OCCUPIED (    3 CORE ORBITALS).
     4=A        5=A        6=A        7=A        8=A        9=A       10=A   
    11=A       12=A       13=A       14=A       15=A       16=A       17=A   
    18=A       19=A       20=A       21=A       22=A   

 SYMMETRIES FOR INITIAL GUESS ORBITALS FOLLOW.   BETA SET(S).
    12 ORBITALS ARE OCCUPIED (    3 CORE ORBITALS).
     4=A        5=A        6=A        7=A        8=A        9=A       10=A   
    11=A       12=A       13=A       14=A       15=A       16=A       17=A   
    18=A       19=A       20=A       21=A       22=A   
 ...... END OF INITIAL ORBITAL SELECTION ......
 STEP CPU TIME =     0.01 TOTAL CPU TIME =        0.1 (    0.0 MIN)
 TOTAL WALL CLOCK TIME=        0.1 SECONDS, CPU UTILIZATION IS 100.00%

                    ----------------------
                    AO INTEGRAL TECHNOLOGY
                    ----------------------
     S,P,L SHELL ROTATED AXIS INTEGRALS, REPROGRAMMED BY
        KAZUYA ISHIMURA (IMS) AND JOSE SIERRA (SYNSTAR).
     S,P,D,L SHELL ROTATED AXIS INTEGRALS PROGRAMMED BY
        KAZUYA ISHIMURA (INSTITUTE FOR MOLECULAR SCIENCE).
     S,P,D,F,G SHELL TO TOTAL QUARTET ANGULAR MOMENTUM SUM 5,
        ERIC PROGRAM BY GRAHAM FLETCHER (ELORET AND NASA ADVANCED
        SUPERCOMPUTING DIVISION, AMES RESEARCH CENTER).
     S,P,D,F,G,L SHELL GENERAL RYS QUADRATURE PROGRAMMED BY
        MICHEL DUPUIS (PACIFIC NORTHWEST NATIONAL LABORATORY).

          --------------------
          2 ELECTRON INTEGRALS
          --------------------

 THE -PK- OPTION IS OFF, THE INTEGRALS ARE NOT IN SUPERMATRIX FORM.
 STORING   15000 INTEGRALS/RECORD ON DISK, USING 12 BYTES/INTEGRAL.
 TWO ELECTRON INTEGRAL EVALUATION REQUIRES   90474 WORDS OF MEMORY.
 II,JST,KST,LST =  1  1  1  1 NREC =         1 INTLOC =    1
 II,JST,KST,LST =  2  1  1  1 NREC =         1 INTLOC =    2
 II,JST,KST,LST =  3  1  1  1 NREC =         1 INTLOC =   34
 II,JST,KST,LST =  4  1  1  1 NREC =         1 INTLOC =  214
 II,JST,KST,LST =  5  1  1  1 NREC =         1 INTLOC = 1189
 II,JST,KST,LST =  6  1  1  1 NREC =         1 INTLOC = 2317
 II,JST,KST,LST =  7  1  1  1 NREC =         1 INTLOC = 9186
 II,JST,KST,LST =  8  1  1  1 NREC =         2 INTLOC = 6204
 II,JST,KST,LST =  9  1  1  1 NREC =         4 INTLOC = 6878
 II,JST,KST,LST = 10  1  1  1 NREC =         4 INTLOC =13553
 II,JST,KST,LST = 11  1  1  1 NREC =         7 INTLOC = 4578
 II,JST,KST,LST = 12  1  1  1 NREC =        10 INTLOC = 9441
 TOTAL NUMBER OF NONZERO TWO-ELECTRON INTEGRALS =              246978
         17 INTEGRAL RECORDS WERE STORED ON DISK FILE  8.
  ...... END OF TWO-ELECTRON INTEGRALS .....
 STEP CPU TIME =     0.03 TOTAL CPU TIME =        0.1 (    0.0 MIN)
 TOTAL WALL CLOCK TIME=        0.1 SECONDS, CPU UTILIZATION IS  90.91%

          ---------------------------
                  UHF SCF CALCULATION
          ---------------------------

     NUCLEAR ENERGY =        68.8983854026
     MAXIT = 30     NPUNCH=  2     MULT=  1
     EXTRAP=T  DAMP=F  SHIFT=F  RSTRCT=F  DIIS=F  SOSCF=T
     DENSITY MATRIX CONV=  1.00E-05
     SOSCF WILL OPTIMIZE     360 ALPHA AND     360 BETA ROTATION ANGLES.
     SOGTOL= 2.500E-01
     MEMORY REQUIRED FOR UHF/ROHF ITERS=     56010 WORDS.

 ITER EX      TOTAL ENERGY        E CHANGE  DENSITY CHANGE    ORB. GRAD 
   1  0     -224.2295938272  -224.2295938272   0.147732884   0.000000000
          ---------------START SECOND ORDER SCF---------------
   2  1     -224.3056109204    -0.0760170931   0.126464949   0.070363773
   3  2     -224.3181182553    -0.0125073349   0.047490142   0.043086764
   4  3     -224.3297162512    -0.0115979959   0.012970756   0.006225821
   5  4     -224.3305502071    -0.0008339559   0.016551058   0.004652334
   6  5     -224.3308998500    -0.0003496429   0.005492494   0.002252722
   7  6     -224.3309524768    -0.0000526268   0.001517009   0.000864434
   8  7     -224.3309622478    -0.0000097710   0.000802869   0.000314509
   9  8     -224.3309642782    -0.0000020305   0.000680958   0.000225314
  10  9     -224.3309651395    -0.0000008613   0.000183737   0.000112308
  11 10     -224.3309652681    -0.0000001286   0.000085245   0.000033495
  12 11     -224.3309652858    -0.0000000177   0.000034459   0.000008586
  13 12     -224.3309652876    -0.0000000019   0.000012404   0.000003364
  14 13     -224.3309652878    -0.0000000002   0.000002053   0.000000943
  15 14     -224.3309652879    -0.0000000000   0.000000420   0.000000199

          -----------------
          DENSITY CONVERGED
          -----------------
     TIME TO FORM FOCK OPERATORS=       0.1 SECONDS (       0.0 SEC/ITER)
     TIME TO SOLVE SCF EQUATIONS=       0.0 SECONDS (       0.0 SEC/ITER)

 FINAL UHF ENERGY IS     -224.3309652879 AFTER  15 ITERATIONS

          --------------------
          SPIN SZ   =    0.000
          S-SQUARED =    0.930
          --------------------

  ----- ALPHA SET ----- 

          ------------
          EIGENVECTORS
          ------------

                      1          2          3          4          5
                  -20.7867   -20.7304   -20.6895    -1.7170    -1.4186
                     A          A          A          A          A   
    1  O  1  S    0.995856  -0.004332  -0.003292  -0.166995   0.044996
    2  O  1  S    0.022355  -0.000100  -0.000061   0.378457  -0.104428
    3  O  1  X   -0.000042   0.000093  -0.000007   0.016456   0.246445
    4  O  1  Y   -0.000000   0.000000  -0.000000   0.000000   0.000000
    5  O  1  Z    0.002261   0.000072   0.000023   0.104678  -0.012231
    6  O  1  S   -0.010138   0.001924   0.001251   0.294845  -0.112512
    7  O  1  X   -0.000092   0.001850  -0.001319  -0.003295   0.060498
    8  O  1  Y   -0.000000   0.000000  -0.000000   0.000000   0.000000
    9  O  1  Z   -0.003484   0.000301   0.000095   0.054148  -0.012648
   10  O  1 XX   -0.000236  -0.000499  -0.000538   0.017462  -0.000921
   11  O  1 YY    0.000432   0.000432   0.000505  -0.019577   0.000152
   12  O  1 ZZ   -0.000196   0.000068   0.000033   0.002114   0.000769
   13  O  1 XY   -0.000000   0.000000  -0.000000   0.000000   0.000000
   14  O  1 XZ   -0.000087  -0.000489   0.000499   0.001999   0.037751
   15  O  1 YZ   -0.000000   0.000000  -0.000000   0.000000   0.000000
   16  O  2  S    0.003298  -0.000935   0.996133  -0.076964   0.136966
   17  O  2  S   -0.000170  -0.000548   0.019872   0.174458  -0.307199
   18  O  2  X    0.000095  -0.000221   0.001654   0.086489  -0.077009
   19  O  2  Y   -0.000000   0.000000  -0.000000   0.000000   0.000000
   20  O  2  Z   -0.000062  -0.000043  -0.000917  -0.042881   0.064564
   21  O  2  S    0.003065   0.001384  -0.006167   0.090527  -0.271155
   22  O  2  X    0.001573   0.000856  -0.001753   0.010299  -0.037613
   23  O  2  Y   -0.000000   0.000000  -0.000000   0.000000   0.000000
   24  O  2  Z   -0.000356  -0.000347   0.001078  -0.010299   0.025524
   25  O  2 XX   -0.000172   0.000091   0.000151   0.015206  -0.015904
   26  O  2 YY    0.000336  -0.000209  -0.000544  -0.014567   0.022606
   27  O  2 ZZ   -0.000164   0.000119   0.000393  -0.000639  -0.006703
   28  O  2 XY   -0.000000   0.000000  -0.000000   0.000000   0.000000
   29  O  2 XZ    0.000499  -0.000066   0.000240  -0.014751   0.016765
   30  O  2 YZ   -0.000000   0.000000  -0.000000   0.000000   0.000000
   31  O  3  S    0.004351   0.995582   0.000889  -0.120042  -0.158114
   32  O  3  S   -0.000118   0.022644  -0.000419   0.284168   0.374691
   33  O  3  X   -0.000131  -0.001743   0.000174  -0.103432  -0.028979
   34  O  3  Y   -0.000000   0.000000  -0.000000   0.000000   0.000000
   35  O  3  Z   -0.000077  -0.000962  -0.000043  -0.053771  -0.037106
   36  O  3  S    0.003115  -0.007462   0.001161   0.176559   0.350410
   37  O  3  X   -0.001594   0.002328  -0.000739  -0.020872  -0.032475
   38  O  3  Y   -0.000000   0.000000  -0.000000   0.000000   0.000000
   39  O  3  Z   -0.000385   0.001442  -0.000271  -0.016703  -0.020255
   40  O  3 XX   -0.000149  -0.000397   0.000086   0.010744  -0.001463
   41  O  3 YY    0.000304   0.000461  -0.000185  -0.003767   0.005390
   42  O  3 ZZ   -0.000154  -0.000064   0.000099  -0.006976  -0.003927
   43  O  3 XY   -0.000000   0.000000  -0.000000   0.000000   0.000000
   44  O  3 XZ   -0.000490  -0.000385   0.000063   0.017401   0.009103
   45  O  3 YZ   -0.000000   0.000000  -0.000000   0.000000   0.000000

                      6          7          8          9         10
                   -1.0606    -0.8148    -0.7926    -0.7727    -0.5726
                     A          A          A          A          A   
    1  O  1  S   -0.136680   0.000000   0.027299   0.003674   0.000000
    2  O  1  S    0.332181   0.000000  -0.069433  -0.010787   0.000000
    3  O  1  X    0.080732   0.000000   0.142494   0.355319   0.000000
    4  O  1  Y    0.000000   0.403472  -0.000000  -0.000000  -0.488489
    5  O  1  Z   -0.133884   0.000000   0.409151  -0.135511   0.000000
    6  O  1  S    0.422351   0.000000  -0.106120  -0.015033   0.000000
    7  O  1  X    0.033129   0.000000   0.070038   0.168230   0.000000
    8  O  1  Y    0.000000   0.228459  -0.000000  -0.000000  -0.354795
    9  O  1  Z   -0.036182   0.000000   0.236331  -0.081356   0.000000
   10  O  1 XX    0.000673   0.000000  -0.017235   0.007748   0.000000
   11  O  1 YY    0.005276   0.000000  -0.015370   0.003600   0.000000
   12  O  1 ZZ   -0.005949   0.000000   0.032605  -0.011348   0.000000
   13  O  1 XY    0.000000   0.003885  -0.000000  -0.000000   0.030065
   14  O  1 XZ    0.007883   0.000000   0.012341   0.024667   0.000000
   15  O  1 YZ    0.000000   0.027322  -0.000000  -0.000000  -0.017490
   16  O  2  S    0.139786   0.000000   0.007857  -0.087035   0.000000
   17  O  2  S   -0.325629   0.000000  -0.014592   0.205869   0.000000
   18  O  2  X    0.065433   0.000000   0.162238  -0.289010   0.000000
   19  O  2  Y    0.000000   0.083186  -0.000000  -0.000000  -0.166910
   20  O  2  Z   -0.066028   0.000000   0.211343   0.199670   0.000000
   21  O  2  S   -0.397134   0.000000  -0.041881   0.329649   0.000000
   22  O  2  X    0.009455   0.000000   0.082322  -0.153450   0.000000
   23  O  2  Y    0.000000   0.050505  -0.000000  -0.000000  -0.122115
   24  O  2  Z   -0.022211   0.000000   0.119650   0.103644   0.000000
   25  O  2 XX   -0.005314   0.000000   0.016526  -0.013176   0.000000
   26  O  2 YY    0.011627   0.000000  -0.001598   0.006910   0.000000
   27  O  2 ZZ   -0.006312   0.000000  -0.014929   0.006266   0.000000
   28  O  2 XY    0.000000   0.016644  -0.000000  -0.000000  -0.024547
   29  O  2 XZ   -0.007272   0.000000   0.005962   0.027490   0.000000
   30  O  2 YZ    0.000000  -0.009745  -0.000000  -0.000000   0.015204
   31  O  3  S    0.107687   0.000000   0.048386   0.036798   0.000000
   32  O  3  S   -0.263160   0.000000  -0.117029  -0.093793   0.000000
   33  O  3  X   -0.121898   0.000000  -0.373904  -0.082211   0.000000
   34  O  3  Y    0.000000   0.518434  -0.000000  -0.000000   0.499673
   35  O  3  Z   -0.129962   0.000000   0.059400  -0.331454   0.000000
   36  O  3  S   -0.337300   0.000000  -0.203556  -0.139433   0.000000
   37  O  3  X   -0.031022   0.000000  -0.191260  -0.047002   0.000000
   38  O  3  Y    0.000000   0.280504  -0.000000  -0.000000   0.339318
   39  O  3  Z   -0.046319   0.000000   0.040582  -0.178484   0.000000
   40  O  3 XX    0.010635   0.000000   0.030933   0.003743   0.000000
   41  O  3 YY   -0.018049   0.000000  -0.020248  -0.015778   0.000000
   42  O  3 ZZ    0.007414   0.000000  -0.010685   0.012035   0.000000
   43  O  3 XY    0.000000  -0.025036  -0.000000  -0.000000   0.001453
   44  O  3 XZ    0.016717   0.000000   0.014263   0.024289   0.000000
   45  O  3 YZ    0.000000  -0.013635  -0.000000  -0.000000   0.000935

                     11         12         13         14         15
                   -0.5708    -0.5250     0.1014     0.3263     0.4422
                     A          A          A          A          A   
    1  O  1  S   -0.016862  -0.043115  -0.000000  -0.118474   0.017976
    2  O  1  S    0.039951   0.104523  -0.000000   0.267261  -0.041281
    3  O  1  X    0.098076  -0.010944  -0.000000   0.090865   0.557859
    4  O  1  Y    0.000000  -0.000000  -0.310934  -0.000000   0.000000
    5  O  1  Z   -0.175795  -0.323396  -0.000000   0.381243  -0.042284
    6  O  1  S    0.082703   0.222625  -0.000000   1.389501  -0.242047
    7  O  1  X    0.046924  -0.000175  -0.000000   0.168938   1.283252
    8  O  1  Y    0.000000  -0.000000  -0.301082  -0.000000   0.000000
    9  O  1  Z   -0.120058  -0.223405  -0.000000   0.786407  -0.119478
   10  O  1 XX   -0.009901  -0.032717  -0.000000  -0.027030   0.003026
   11  O  1 YY    0.008894   0.020312  -0.000000   0.010472  -0.002687
   12  O  1 ZZ    0.001008   0.012405  -0.000000   0.016558  -0.000339
   13  O  1 XY    0.000000  -0.000000  -0.026771  -0.000000   0.000000
   14  O  1 XZ    0.031162  -0.012777  -0.000000  -0.001314  -0.014697
   15  O  1 YZ    0.000000  -0.000000   0.009200  -0.000000   0.000000
   16  O  2  S   -0.008280   0.000047  -0.000000   0.049847  -0.075628
   17  O  2  S    0.015004  -0.011350  -0.000000  -0.098799   0.177646
   18  O  2  X   -0.328872   0.162414  -0.000000  -0.314985   0.254242
   19  O  2  Y    0.000000  -0.000000   0.514192  -0.000000   0.000000
   20  O  2  Z   -0.159871   0.528624  -0.000000   0.086117  -0.246438
   21  O  2  S    0.067313   0.039930  -0.000000  -0.551866   0.903128
   22  O  2  X   -0.214800   0.143854  -0.000000  -0.634101   0.721468
   23  O  2  Y    0.000000  -0.000000   0.635973  -0.000000   0.000000
   24  O  2  Z   -0.115817   0.381507  -0.000000   0.187041  -0.571662
   25  O  2 XX   -0.020188   0.003070  -0.000000   0.007666   0.016167
   26  O  2 YY    0.005783   0.003041  -0.000000   0.009553  -0.003698
   27  O  2 ZZ    0.014405  -0.006112  -0.000000  -0.017220  -0.012469
   28  O  2 XY    0.000000  -0.000000   0.010486  -0.000000   0.000000
   29  O  2 XZ    0.006694   0.011763  -0.000000  -0.001349   0.010288
   30  O  2 YZ    0.000000  -0.000000  -0.004389  -0.000000   0.000000
   31  O  3  S    0.001321   0.002736  -0.000000   0.062303   0.054702
   32  O  3  S   -0.006832  -0.019809  -0.000000  -0.140028  -0.155725
   33  O  3  X   -0.336772   0.104958  -0.000000   0.365940   0.171184
   34  O  3  Y    0.000000  -0.000000   0.080378  -0.000000   0.000000
   35  O  3  Z    0.471270   0.267161  -0.000000   0.159000   0.204444
   36  O  3  S    0.000987   0.033686  -0.000000  -0.731222  -0.652182
   37  O  3  X   -0.236058   0.048726  -0.000000   0.761594   0.485773
   38  O  3  Y    0.000000  -0.000000   0.090623  -0.000000   0.000000
   39  O  3  Z    0.318930   0.187592  -0.000000   0.323379   0.468391
   40  O  3 XX    0.014448  -0.011042  -0.000000   0.010737  -0.008837
   41  O  3 YY   -0.002597   0.006816  -0.000000  -0.004718  -0.013923
   42  O  3 ZZ   -0.011851   0.004226  -0.000000  -0.006020   0.022761
   43  O  3 XY    0.000000  -0.000000   0.009525  -0.000000   0.000000
   44  O  3 XZ   -0.004010  -0.011286  -0.000000   0.005528   0.008073
   45  O  3 YZ    0.000000  -0.000000   0.011919  -0.000000   0.000000

                     16         17         18         19         20
                    0.9638     1.0262     1.0326     1.0404     1.1169
                     A          A          A          A          A   
    1  O  1  S   -0.050376   0.000000   0.007350  -0.011370   0.023439
    2  O  1  S    0.136564   0.000000  -0.070362  -0.024496  -0.311538
    3  O  1  X   -0.022681   0.000000  -0.497790   0.054503   0.312486
    4  O  1  Y    0.000000  -0.468315  -0.000000  -0.000000  -0.000000
    5  O  1  Z   -0.448356   0.000000   0.043325  -0.362238   0.211482
    6  O  1  S    1.919146   0.000000   0.013176   0.521956   0.545352
    7  O  1  X    0.132878   0.000000   1.841407  -0.123695  -0.337421
    8  O  1  Y    0.000000   0.344476  -0.000000  -0.000000  -0.000000
    9  O  1  Z    1.415416   0.000000  -0.099489   0.421116  -0.169375
   10  O  1 XX    0.244710   0.000000  -0.010359   0.098077  -0.004886
   11  O  1 YY   -0.207260   0.000000   0.010790  -0.012333  -0.014474
   12  O  1 ZZ   -0.037451   0.000000  -0.000430  -0.085744   0.019359
   13  O  1 XY    0.000000  -0.009365  -0.000000  -0.000000  -0.000000
   14  O  1 XZ    0.013056   0.000000   0.195370   0.001968   0.127070
   15  O  1 YZ    0.000000  -0.048931  -0.000000  -0.000000  -0.000000
   16  O  2  S   -0.008308   0.000000  -0.037750   0.028036   0.017105
   17  O  2  S    0.375289   0.000000   0.174301  -0.254287  -0.285676
   18  O  2  X    0.414657   0.000000  -0.449819  -0.148548   0.165067
   19  O  2  Y    0.000000  -0.234338  -0.000000  -0.000000  -0.000000
   20  O  2  Z   -0.022035   0.000000   0.053139  -0.491736   0.456796
   21  O  2  S   -1.198519   0.000000   0.923200  -0.097810   0.137305
   22  O  2  X   -1.089815   0.000000   1.036481  -0.052914  -0.116224
   23  O  2  Y    0.000000   0.111401  -0.000000  -0.000000  -0.000000
   24  O  2  Z    0.276065   0.000000  -0.534320   0.597083  -0.430719
   25  O  2 XX   -0.108472   0.000000   0.084095  -0.057420  -0.047903
   26  O  2 YY    0.053891   0.000000  -0.079264   0.035164   0.037962
   27  O  2 ZZ    0.054581   0.000000  -0.004831   0.022256   0.009941
   28  O  2 XY    0.000000  -0.016335  -0.000000  -0.000000  -0.000000
   29  O  2 XZ    0.000985   0.000000  -0.149586   0.073406   0.095809
   30  O  2 YZ    0.000000   0.034231  -0.000000  -0.000000  -0.000000
   31  O  3  S    0.000235   0.000000   0.053389   0.024290   0.029790
   32  O  3  S    0.351058   0.000000  -0.395518  -0.233747  -0.229555
   33  O  3  X   -0.475512   0.000000  -0.453497   0.199787  -0.263993
   34  O  3  Y    0.000000  -0.770804  -0.000000  -0.000000  -0.000000
   35  O  3  Z   -0.029939   0.000000  -0.133402  -0.603947  -0.459700
   36  O  3  S   -1.351162   0.000000  -0.649796   0.010379   0.198264
   37  O  3  X    1.278383   0.000000   1.008098  -0.052162   0.459998
   38  O  3  Y    0.000000   0.856083  -0.000000  -0.000000  -0.000000
   39  O  3  Z    0.363389   0.000000   0.626174   0.698570   0.613915
   40  O  3 XX   -0.116050   0.000000  -0.077190  -0.044134   0.048082
   41  O  3 YY    0.063569   0.000000   0.077421   0.021859  -0.027027
   42  O  3 ZZ    0.052481   0.000000  -0.000231   0.022276  -0.021055
   43  O  3 XY    0.000000   0.040042  -0.000000  -0.000000  -0.000000
   44  O  3 XZ   -0.018392   0.000000  -0.166047  -0.041263   0.057626
   45  O  3 YZ    0.000000   0.025419  -0.000000  -0.000000  -0.000000

                     21         22         23         24         25
                    1.1242     1.1648     1.2236     1.2623     1.2639
                     A          A          A          A          A   
    1  O  1  S    0.035724  -0.000000  -0.001664   0.000376  -0.000000
    2  O  1  S   -0.532046  -0.000000  -0.302360  -0.034887  -0.000000
    3  O  1  X   -0.105336  -0.000000   0.043608  -0.438577  -0.000000
    4  O  1  Y    0.000000  -0.676985   0.000000   0.000000   0.421254
    5  O  1  Z    0.241885  -0.000000  -0.561631  -0.025117  -0.000000
    6  O  1  S    1.041550  -0.000000   0.311864   0.076391  -0.000000
    7  O  1  X   -0.153536  -0.000000  -0.159433   1.515158  -0.000000
    8  O  1  Y    0.000000   1.035457   0.000000   0.000000  -0.825396
    9  O  1  Z   -0.119895  -0.000000   1.070828   0.074626  -0.000000
   10  O  1 XX    0.012352  -0.000000  -0.178944  -0.010646  -0.000000
   11  O  1 YY   -0.023560  -0.000000   0.193992   0.009199  -0.000000
   12  O  1 ZZ    0.011208  -0.000000  -0.015049   0.001447  -0.000000
   13  O  1 XY    0.000000   0.050167   0.000000   0.000000   0.052339
   14  O  1 XZ   -0.106697  -0.000000   0.008140  -0.095332  -0.000000
   15  O  1 YZ    0.000000  -0.062128   0.000000   0.000000   0.014830
   16  O  2  S    0.057572  -0.000000   0.023103   0.005172  -0.000000
   17  O  2  S   -0.506748  -0.000000  -0.397371  -0.081795  -0.000000
   18  O  2  X    0.410953  -0.000000  -0.052218   0.367349  -0.000000
   19  O  2  Y    0.000000  -0.415271   0.000000   0.000000  -0.891831
   20  O  2  Z   -0.405157  -0.000000   0.262852   0.344879  -0.000000
   21  O  2  S    0.094823  -0.000000   0.048011   0.700882  -0.000000
   22  O  2  X   -0.755952  -0.000000  -0.128945  -0.329914  -0.000000
   23  O  2  Y    0.000000   0.181254   0.000000   0.000000   1.116195
   24  O  2  Z    0.690884  -0.000000  -0.465920  -0.828303  -0.000000
   25  O  2 XX   -0.011179  -0.000000  -0.076136   0.162317  -0.000000
   26  O  2 YY    0.028416  -0.000000   0.112434  -0.060365  -0.000000
   27  O  2 ZZ   -0.017237  -0.000000  -0.036298  -0.101952  -0.000000
   28  O  2 XY    0.000000  -0.062169   0.000000   0.000000  -0.029625
   29  O  2 XZ    0.029622  -0.000000   0.117647  -0.046431  -0.000000
   30  O  2 YZ    0.000000  -0.003983   0.000000   0.000000   0.038306
   31  O  3  S    0.036040  -0.000000   0.025602   0.000690  -0.000000
   32  O  3  S   -0.505016  -0.000000  -0.451040   0.017960  -0.000000
   33  O  3  X   -0.239424  -0.000000   0.006394   0.327052  -0.000000
   34  O  3  Y    0.000000   0.468745   0.000000   0.000000  -0.012087
   35  O  3  Z    0.188902  -0.000000   0.266029  -0.287194  -0.000000
   36  O  3  S    0.443497  -0.000000   0.251050  -0.710035  -0.000000
   37  O  3  X    0.239384  -0.000000   0.134461  -0.247831  -0.000000
   38  O  3  Y    0.000000  -0.861113   0.000000   0.000000   0.183836
   39  O  3  Z   -0.180843  -0.000000  -0.565038   0.761263  -0.000000
   40  O  3 XX   -0.033541  -0.000000  -0.057881  -0.182989  -0.000000
   41  O  3 YY    0.034439  -0.000000   0.116673   0.092923  -0.000000
   42  O  3 ZZ   -0.000898  -0.000000  -0.058792   0.090066  -0.000000
   43  O  3 XY    0.000000  -0.011093   0.000000   0.000000  -0.037713
   44  O  3 XZ   -0.071171  -0.000000  -0.104496  -0.059299  -0.000000
   45  O  3 YZ    0.000000  -0.014153   0.000000   0.000000   0.040452

                     26         27         28         29         30
                    1.6098     1.6500     1.6512     1.6988     1.7137
                     A          A          A          A          A   
    1  O  1  S   -0.002242   0.007979   0.000000   0.007443  -0.000000
    2  O  1  S    0.122645  -0.924790   0.000000  -0.798667  -0.000000
    3  O  1  X    0.261756   0.013386   0.000000   0.017980  -0.000000
    4  O  1  Y   -0.000000   0.000000  -0.015782  -0.000000  -0.153622
    5  O  1  Z    0.020708   0.097979   0.000000  -0.124908  -0.000000
    6  O  1  S   -0.311825   2.554000   0.000000   2.457737  -0.000000
    7  O  1  X   -2.231693   0.002315   0.000000  -0.146513  -0.000000
    8  O  1  Y   -0.000000   0.000000  -0.030146  -0.000000   0.043433
    9  O  1  Z   -0.102568   0.685855   0.000000   0.663094  -0.000000
   10  O  1 XX    0.025028   0.068918   0.000000  -0.272693  -0.000000
   11  O  1 YY   -0.014218   0.371093   0.000000  -0.116613  -0.000000
   12  O  1 ZZ   -0.010809  -0.440011   0.000000   0.389306  -0.000000
   13  O  1 XY   -0.000000   0.000000   0.563225  -0.000000  -0.137201
   14  O  1 XZ   -0.230372   0.001098   0.000000  -0.018576  -0.000000
   15  O  1 YZ   -0.000000   0.000000   0.145671  -0.000000   0.620346
   16  O  2  S   -0.028259  -0.007535   0.000000  -0.016742  -0.000000
   17  O  2  S    1.030381   0.454653   0.000000   0.615872  -0.000000
   18  O  2  X    0.114030  -0.041364   0.000000   0.031554  -0.000000
   19  O  2  Y   -0.000000   0.000000   0.115632  -0.000000  -0.073691
   20  O  2  Z    0.034093  -0.031790   0.000000  -0.154101  -0.000000
   21  O  2  S   -2.347602  -1.278649   0.000000  -1.489956  -0.000000
   22  O  2  X   -0.948676  -0.511897   0.000000  -0.716287  -0.000000
   23  O  2  Y   -0.000000   0.000000   0.042181  -0.000000  -0.086926
   24  O  2  Z    0.642615   0.393813   0.000000   0.398871  -0.000000
   25  O  2 XX    0.067544  -0.249991   0.000000   0.250808  -0.000000
   26  O  2 YY   -0.146098   0.278498   0.000000   0.011373  -0.000000
   27  O  2 ZZ    0.078554  -0.028507   0.000000  -0.262181  -0.000000
   28  O  2 XY   -0.000000   0.000000  -0.169446  -0.000000   0.426707
   29  O  2 XZ    0.015558  -0.156760   0.000000   0.190359  -0.000000
   30  O  2 YZ   -0.000000   0.000000   0.307755  -0.000000   0.029872
   31  O  3  S    0.027831  -0.001441   0.000000  -0.010710  -0.000000
   32  O  3  S   -1.095988   0.424057   0.000000   0.452002  -0.000000
   33  O  3  X    0.112293   0.032615   0.000000  -0.016006  -0.000000
   34  O  3  Y   -0.000000   0.000000  -0.095068  -0.000000  -0.014405
   35  O  3  Z   -0.012498  -0.025593   0.000000  -0.152624  -0.000000
   36  O  3  S    2.615884  -1.277360   0.000000  -1.142806  -0.000000
   37  O  3  X   -1.101708   0.537934   0.000000   0.578588  -0.000000
   38  O  3  Y   -0.000000   0.000000  -0.059181  -0.000000  -0.053938
   39  O  3  Z   -0.713211   0.393389   0.000000   0.308662  -0.000000
   40  O  3 XX   -0.098540  -0.273686   0.000000   0.237321  -0.000000
   41  O  3 YY    0.159104   0.342263   0.000000   0.046744  -0.000000
   42  O  3 ZZ   -0.060564  -0.068577   0.000000  -0.284065  -0.000000
   43  O  3 XY   -0.000000   0.000000  -0.382349  -0.000000  -0.382493
   44  O  3 XZ    0.056648   0.175556   0.000000  -0.190744  -0.000000
   45  O  3 YZ   -0.000000   0.000000  -0.323804  -0.000000   0.243335

                     31         32         33         34         35
                    2.0269     2.0341     2.0961     2.1338     2.3432
                     A          A          A          A          A   
    1  O  1  S   -0.000000  -0.002315   0.000000  -0.001724   0.000812
    2  O  1  S   -0.000000   0.337131   0.000000  -0.768527   0.019166
    3  O  1  X   -0.000000  -0.152457   0.000000  -0.083907  -0.068483
    4  O  1  Y    0.028712  -0.000000   0.023991   0.000000  -0.000000
    5  O  1  Z   -0.000000   0.039839   0.000000  -0.079030  -0.000065
    6  O  1  S   -0.000000  -0.859392   0.000000   2.101421  -0.077258
    7  O  1  X   -0.000000   0.952349   0.000000   0.319505   1.324487
    8  O  1  Y    0.103877  -0.000000   0.220933   0.000000  -0.000000
    9  O  1  Z   -0.000000  -0.337891   0.000000   0.838526  -0.033211
   10  O  1 XX   -0.000000  -0.045123   0.000000   0.132759   0.003556
   11  O  1 YY   -0.000000  -0.060937   0.000000   0.096904  -0.001590
   12  O  1 ZZ   -0.000000   0.106060   0.000000  -0.229663  -0.001966
   13  O  1 XY    0.047341  -0.000000   0.032022   0.000000  -0.000000
   14  O  1 XZ   -0.000000   0.180263   0.000000   0.076796   0.189922
   15  O  1 YZ   -0.186568  -0.000000  -0.191550   0.000000  -0.000000
   16  O  2  S   -0.000000  -0.003123   0.000000   0.008434  -0.018634
   17  O  2  S   -0.000000  -0.286936   0.000000   0.181952   0.061891
   18  O  2  X   -0.000000   0.061577   0.000000  -0.007167   0.252027
   19  O  2  Y    0.106714  -0.000000   0.050224   0.000000  -0.000000
   20  O  2  Z   -0.000000  -0.064800   0.000000   0.041554   0.045913
   21  O  2  S   -0.000000   1.177728   0.000000  -0.801688   0.694222
   22  O  2  X   -0.000000   0.499609   0.000000  -0.462339   0.051632
   23  O  2  Y   -0.112846  -0.000000  -0.081848   0.000000  -0.000000
   24  O  2  Z   -0.000000  -0.312491   0.000000   0.116954  -0.510441
   25  O  2 XX   -0.000000   0.013345   0.000000   0.035161  -0.528298
   26  O  2 YY   -0.000000  -0.334523   0.000000  -0.687574   0.104040
   27  O  2 ZZ   -0.000000   0.321178   0.000000   0.652413   0.424258
   28  O  2 XY   -0.436909  -0.000000   0.283730   0.000000  -0.000000
   29  O  2 XZ   -0.000000   0.195054   0.000000   0.300939  -0.485899
   30  O  2 YZ   -0.099745  -0.000000   0.851665   0.000000  -0.000000
   31  O  3  S   -0.000000   0.004143   0.000000   0.008638   0.016591
   32  O  3  S   -0.000000   0.082303   0.000000   0.217977  -0.074442
   33  O  3  X   -0.000000   0.023705   0.000000   0.089270   0.247590
   34  O  3  Y   -0.009741  -0.000000   0.081555   0.000000  -0.000000
   35  O  3  Z   -0.000000   0.019622   0.000000   0.075708  -0.045554
   36  O  3  S   -0.000000  -0.367322   0.000000  -1.177879  -0.616002
   37  O  3  X   -0.000000   0.100057   0.000000   0.557177   0.006586
   38  O  3  Y    0.001644  -0.000000  -0.154271   0.000000  -0.000000
   39  O  3  Z   -0.000000   0.163122   0.000000   0.256500   0.494886
   40  O  3 XX   -0.000000  -0.050386   0.000000   0.063993   0.532611
   41  O  3 YY   -0.000000   0.702476   0.000000  -0.316577  -0.064623
   42  O  3 ZZ   -0.000000  -0.652089   0.000000   0.252584  -0.467987
   43  O  3 XY   -0.447509  -0.000000   0.213792   0.000000  -0.000000
   44  O  3 XZ   -0.000000   0.318017   0.000000  -0.104291  -0.458287
   45  O  3 YZ    0.749110  -0.000000   0.355983   0.000000  -0.000000

                     36         37         38         39         40
                    2.6212     2.7390     2.7850     2.8975     2.9707
                     A          A          A          A          A   
    1  O  1  S    0.021864   0.000000   0.003400   0.000000  -0.076428
    2  O  1  S   -0.972751   0.000000   0.098414   0.000000  -0.564093
    3  O  1  X   -0.035849   0.000000  -0.521354   0.000000  -0.007176
    4  O  1  Y   -0.000000  -0.036278  -0.000000   0.003091  -0.000000
    5  O  1  Z   -0.324970   0.000000   0.005807   0.000000   0.195787
    6  O  1  S    1.270076   0.000000  -0.313696   0.000000   3.753477
    7  O  1  X   -0.017617   0.000000  -0.095261   0.000000   0.067644
    8  O  1  Y   -0.000000   0.675345  -0.000000  -0.086703  -0.000000
    9  O  1  Z    0.746729   0.000000  -0.144371   0.000000   1.765296
   10  O  1 XX    0.454790   0.000000  -0.045943   0.000000  -0.043637
   11  O  1 YY   -0.698363   0.000000   0.078461   0.000000  -0.703935
   12  O  1 ZZ    0.243573   0.000000  -0.032517   0.000000   0.747572
   13  O  1 XY   -0.000000   0.142393  -0.000000   1.026701  -0.000000
   14  O  1 XZ    0.030167   0.000000   0.617723   0.000000   0.063729
   15  O  1 YZ   -0.000000   0.845878  -0.000000  -0.097269  -0.000000
   16  O  2  S    0.020671   0.000000  -0.019632   0.000000   0.028653
   17  O  2  S   -0.210587   0.000000   0.564229   0.000000   0.338568
   18  O  2  X   -0.249286   0.000000   0.334974   0.000000  -0.127488
   19  O  2  Y   -0.000000   0.035444  -0.000000   0.010334  -0.000000
   20  O  2  Z    0.168233   0.000000  -0.167049   0.000000   0.020782
   21  O  2  S   -0.393439   0.000000  -0.534734   0.000000  -1.880140
   22  O  2  X   -0.128086   0.000000  -0.409588   0.000000  -1.184900
   23  O  2  Y   -0.000000  -0.329380  -0.000000   0.296276  -0.000000
   24  O  2  Z   -0.068246   0.000000   0.286229   0.000000   0.353782
   25  O  2 XX    0.091789   0.000000  -0.145284   0.000000  -0.840985
   26  O  2 YY   -0.026100   0.000000   0.361801   0.000000   0.349247
   27  O  2 ZZ   -0.065689   0.000000  -0.216517   0.000000   0.491738
   28  O  2 XY   -0.000000  -0.626520  -0.000000   0.595854  -0.000000
   29  O  2 XZ   -0.381322   0.000000   0.393489   0.000000   0.254465
   30  O  2 YZ   -0.000000   0.141932  -0.000000  -0.492032  -0.000000
   31  O  3  S    0.020325   0.000000   0.009293   0.000000   0.033973
   32  O  3  S   -0.265699   0.000000  -0.554435   0.000000   0.305786
   33  O  3  X    0.277020   0.000000   0.281590   0.000000   0.164311
   34  O  3  Y   -0.000000   0.029863  -0.000000  -0.013245  -0.000000
   35  O  3  Z    0.183694   0.000000   0.136165   0.000000   0.040232
   36  O  3  S   -0.302293   0.000000   0.811118   0.000000  -1.955805
   37  O  3  X    0.067282   0.000000  -0.564358   0.000000   1.213079
   38  O  3  Y   -0.000000  -0.394097  -0.000000  -0.205840  -0.000000
   39  O  3  Z   -0.113299   0.000000  -0.330826   0.000000   0.377118
   40  O  3 XX    0.108175   0.000000   0.199588   0.000000  -0.849761
   41  O  3 YY   -0.064054   0.000000  -0.354063   0.000000   0.328814
   42  O  3 ZZ   -0.044121   0.000000   0.154475   0.000000   0.520948
   43  O  3 XY   -0.000000   0.720075  -0.000000   0.418225  -0.000000
   44  O  3 XZ    0.441791   0.000000   0.404105   0.000000  -0.266194
   45  O  3 YZ   -0.000000   0.271170  -0.000000   0.409672  -0.000000

                     41         42
                    3.2177     3.2644
                     A          A   
    1  O  1  S   -0.006462  -0.082080
    2  O  1  S   -0.033774  -0.430145
    3  O  1  X    0.472141  -0.051573
    4  O  1  Y   -0.000000  -0.000000
    5  O  1  Z    0.021431   0.267115
    6  O  1  S    0.260955   3.448587
    7  O  1  X    2.473617  -0.249467
    8  O  1  Y   -0.000000  -0.000000
    9  O  1  Z    0.046148   0.861782
   10  O  1 XX    0.134048   1.305714
   11  O  1 YY   -0.053143  -0.680941
   12  O  1 ZZ   -0.080905  -0.624773
   13  O  1 XY   -0.000000  -0.000000
   14  O  1 XZ    1.385877  -0.129824
   15  O  1 YZ   -0.000000  -0.000000
   16  O  2  S   -0.045459   0.047072
   17  O  2  S   -0.327399   0.251939
   18  O  2  X    0.241746  -0.232881
   19  O  2  Y   -0.000000  -0.000000
   20  O  2  Z   -0.136850   0.187982
   21  O  2  S    2.163586  -1.926678
   22  O  2  X    1.135177  -1.018670
   23  O  2  Y   -0.000000  -0.000000
   24  O  2  Z   -0.730242   0.776343
   25  O  2 XX    0.664499  -0.133162
   26  O  2 YY   -0.413630   0.423787
   27  O  2 ZZ   -0.250870  -0.290625
   28  O  2 XY   -0.000000  -0.000000
   29  O  2 XZ   -0.547915   0.837263
   30  O  2 YZ   -0.000000  -0.000000
   31  O  3  S    0.053799   0.038408
   32  O  3  S    0.346737   0.170166
   33  O  3  X    0.274106   0.184886
   34  O  3  Y   -0.000000  -0.000000
   35  O  3  Z    0.169779   0.157619
   36  O  3  S   -2.412464  -1.457701
   37  O  3  X    1.258891   0.772925
   38  O  3  Y   -0.000000  -0.000000
   39  O  3  Z    0.851836   0.611660
   40  O  3 XX   -0.629843  -0.000972
   41  O  3 YY    0.458742   0.319788
   42  O  3 ZZ    0.171101  -0.318816
   43  O  3 XY   -0.000000  -0.000000
   44  O  3 XZ   -0.688172  -0.705636
   45  O  3 YZ   -0.000000  -0.000000

  ----- BETA SET ----- 

          ------------
          EIGENVECTORS
          ------------

                      1          2          3          4          5
                  -20.7867   -20.7304   -20.6895    -1.7170    -1.4186
                     A          A          A          A          A   
    1  O  1  S    0.995856  -0.004332  -0.003292  -0.166995   0.044996
    2  O  1  S    0.022355  -0.000100  -0.000061   0.378457  -0.104428
    3  O  1  X    0.000042  -0.000093   0.000007  -0.016456  -0.246445
    4  O  1  Y    0.000000  -0.000000  -0.000000   0.000000   0.000000
    5  O  1  Z    0.002261   0.000072   0.000023   0.104678  -0.012231
    6  O  1  S   -0.010138   0.001924   0.001251   0.294845  -0.112512
    7  O  1  X    0.000092  -0.001850   0.001319   0.003295  -0.060498
    8  O  1  Y    0.000000  -0.000000  -0.000000   0.000000   0.000000
    9  O  1  Z   -0.003484   0.000301   0.000095   0.054148  -0.012648
   10  O  1 XX   -0.000236  -0.000499  -0.000538   0.017462  -0.000921
   11  O  1 YY    0.000432   0.000432   0.000505  -0.019577   0.000152
   12  O  1 ZZ   -0.000196   0.000068   0.000033   0.002114   0.000769
   13  O  1 XY    0.000000  -0.000000  -0.000000   0.000000   0.000000
   14  O  1 XZ    0.000087   0.000489  -0.000499  -0.001999  -0.037751
   15  O  1 YZ    0.000000  -0.000000  -0.000000   0.000000   0.000000
   16  O  2  S    0.004351   0.995582   0.000889  -0.120042  -0.158114
   17  O  2  S   -0.000118   0.022644  -0.000419   0.284168   0.374691
   18  O  2  X    0.000131   0.001743  -0.000174   0.103432   0.028979
   19  O  2  Y    0.000000  -0.000000  -0.000000   0.000000   0.000000
   20  O  2  Z   -0.000077  -0.000962  -0.000043  -0.053771  -0.037106
   21  O  2  S    0.003115  -0.007462   0.001161   0.176559   0.350410
   22  O  2  X    0.001594  -0.002328   0.000739   0.020872   0.032475
   23  O  2  Y    0.000000  -0.000000  -0.000000   0.000000   0.000000
   24  O  2  Z   -0.000385   0.001442  -0.000271  -0.016703  -0.020255
   25  O  2 XX   -0.000149  -0.000397   0.000086   0.010744  -0.001463
   26  O  2 YY    0.000304   0.000461  -0.000185  -0.003767   0.005390
   27  O  2 ZZ   -0.000154  -0.000064   0.000099  -0.006976  -0.003927
   28  O  2 XY    0.000000  -0.000000  -0.000000   0.000000   0.000000
   29  O  2 XZ    0.000490   0.000385  -0.000063  -0.017401  -0.009103
   30  O  2 YZ    0.000000  -0.000000  -0.000000   0.000000   0.000000
   31  O  3  S    0.003298  -0.000935   0.996133  -0.076964   0.136966
   32  O  3  S   -0.000170  -0.000548   0.019872   0.174458  -0.307199
   33  O  3  X   -0.000095   0.000221  -0.001654  -0.086489   0.077009
   34  O  3  Y    0.000000  -0.000000  -0.000000   0.000000   0.000000
   35  O  3  Z   -0.000062  -0.000043  -0.000917  -0.042881   0.064564
   36  O  3  S    0.003065   0.001384  -0.006167   0.090527  -0.271155
   37  O  3  X   -0.001573  -0.000856   0.001753  -0.010299   0.037613
   38  O  3  Y    0.000000  -0.000000  -0.000000   0.000000   0.000000
   39  O  3  Z   -0.000356  -0.000347   0.001078  -0.010299   0.025524
   40  O  3 XX   -0.000172   0.000091   0.000151   0.015206  -0.015904
   41  O  3 YY    0.000336  -0.000209  -0.000544  -0.014567   0.022606
   42  O  3 ZZ   -0.000164   0.000119   0.000393  -0.000639  -0.006703
   43  O  3 XY    0.000000  -0.000000  -0.000000   0.000000   0.000000
   44  O  3 XZ   -0.000499   0.000066  -0.000240   0.014751  -0.016765
   45  O  3 YZ    0.000000  -0.000000  -0.000000   0.000000   0.000000

                      6          7          8          9         10
                   -1.0606    -0.8148    -0.7926    -0.7727    -0.5726
                     A          A          A          A          A   
    1  O  1  S   -0.136680  -0.000000   0.027299  -0.003674  -0.000000
    2  O  1  S    0.332181  -0.000000  -0.069433   0.010787  -0.000000
    3  O  1  X   -0.080732  -0.000000  -0.142494   0.355319  -0.000000
    4  O  1  Y   -0.000000   0.403472   0.000000  -0.000000  -0.488489
    5  O  1  Z   -0.133884  -0.000000   0.409151   0.135511  -0.000000
    6  O  1  S    0.422351  -0.000000  -0.106120   0.015033  -0.000000
    7  O  1  X   -0.033129  -0.000000  -0.070038   0.168230  -0.000000
    8  O  1  Y   -0.000000   0.228459   0.000000  -0.000000  -0.354795
    9  O  1  Z   -0.036182  -0.000000   0.236331   0.081356  -0.000000
   10  O  1 XX    0.000673  -0.000000  -0.017235  -0.007748  -0.000000
   11  O  1 YY    0.005276  -0.000000  -0.015370  -0.003600  -0.000000
   12  O  1 ZZ   -0.005949  -0.000000   0.032605   0.011348  -0.000000
   13  O  1 XY   -0.000000  -0.003885   0.000000  -0.000000  -0.030065
   14  O  1 XZ   -0.007883  -0.000000  -0.012341   0.024667  -0.000000
   15  O  1 YZ   -0.000000   0.027322   0.000000  -0.000000  -0.017490
   16  O  2  S    0.107687  -0.000000   0.048386  -0.036798  -0.000000
   17  O  2  S   -0.263160  -0.000000  -0.117029   0.093793  -0.000000
   18  O  2  X    0.121898  -0.000000   0.373904  -0.082211  -0.000000
   19  O  2  Y   -0.000000   0.518434   0.000000  -0.000000   0.499673
   20  O  2  Z   -0.129962  -0.000000   0.059400   0.331454  -0.000000
   21  O  2  S   -0.337300  -0.000000  -0.203556   0.139433  -0.000000
   22  O  2  X    0.031022  -0.000000   0.191260  -0.047002  -0.000000
   23  O  2  Y   -0.000000   0.280504   0.000000  -0.000000   0.339318
   24  O  2  Z   -0.046319  -0.000000   0.040582   0.178484  -0.000000
   25  O  2 XX    0.010635  -0.000000   0.030933  -0.003743  -0.000000
   26  O  2 YY   -0.018049  -0.000000  -0.020248   0.015778  -0.000000
   27  O  2 ZZ    0.007414  -0.000000  -0.010685  -0.012035  -0.000000
   28  O  2 XY   -0.000000   0.025036   0.000000  -0.000000  -0.001453
   29  O  2 XZ   -0.016717  -0.000000  -0.014263   0.024289  -0.000000
   30  O  2 YZ   -0.000000  -0.013635   0.000000  -0.000000   0.000935
   31  O  3  S    0.139786  -0.000000   0.007857   0.087035  -0.000000
   32  O  3  S   -0.325629  -0.000000  -0.014592  -0.205869  -0.000000
   33  O  3  X   -0.065433  -0.000000  -0.162238  -0.289010  -0.000000
   34  O  3  Y   -0.000000   0.083186   0.000000  -0.000000  -0.166910
   35  O  3  Z   -0.066028  -0.000000   0.211343  -0.199670  -0.000000
   36  O  3  S   -0.397134  -0.000000  -0.041881  -0.329649  -0.000000
   37  O  3  X   -0.009455  -0.000000  -0.082322  -0.153450  -0.000000
   38  O  3  Y   -0.000000   0.050505   0.000000  -0.000000  -0.122115
   39  O  3  Z   -0.022211  -0.000000   0.119650  -0.103644  -0.000000
   40  O  3 XX   -0.005314  -0.000000   0.016526   0.013176  -0.000000
   41  O  3 YY    0.011627  -0.000000  -0.001598  -0.006910  -0.000000
   42  O  3 ZZ   -0.006312  -0.000000  -0.014929  -0.006266  -0.000000
   43  O  3 XY   -0.000000  -0.016644   0.000000  -0.000000   0.024547
   44  O  3 XZ    0.007272  -0.000000  -0.005962   0.027490  -0.000000
   45  O  3 YZ   -0.000000  -0.009745   0.000000  -0.000000   0.015204

                     11         12         13         14         15
                   -0.5708    -0.5250     0.1014     0.3263     0.4422
                     A          A          A          A          A   
    1  O  1  S   -0.016862  -0.043115  -0.000000  -0.118474  -0.017976
    2  O  1  S    0.039951   0.104523  -0.000000   0.267261   0.041281
    3  O  1  X   -0.098076   0.010944  -0.000000  -0.090865   0.557859
    4  O  1  Y   -0.000000  -0.000000  -0.310934   0.000000   0.000000
    5  O  1  Z   -0.175795  -0.323396  -0.000000   0.381243   0.042284
    6  O  1  S    0.082703   0.222625  -0.000000   1.389501   0.242047
    7  O  1  X   -0.046924   0.000175  -0.000000  -0.168938   1.283252
    8  O  1  Y   -0.000000  -0.000000  -0.301082   0.000000   0.000000
    9  O  1  Z   -0.120058  -0.223405  -0.000000   0.786407   0.119478
   10  O  1 XX   -0.009901  -0.032717  -0.000000  -0.027030  -0.003026
   11  O  1 YY    0.008894   0.020312  -0.000000   0.010472   0.002687
   12  O  1 ZZ    0.001008   0.012405  -0.000000   0.016558   0.000339
   13  O  1 XY   -0.000000  -0.000000   0.026771   0.000000   0.000000
   14  O  1 XZ   -0.031162   0.012777  -0.000000   0.001314  -0.014697
   15  O  1 YZ   -0.000000  -0.000000   0.009200   0.000000   0.000000
   16  O  2  S    0.001321   0.002736  -0.000000   0.062303  -0.054702
   17  O  2  S   -0.006832  -0.019809  -0.000000  -0.140028   0.155725
   18  O  2  X    0.336772  -0.104958  -0.000000  -0.365940   0.171184
   19  O  2  Y   -0.000000  -0.000000   0.080378   0.000000   0.000000
   20  O  2  Z    0.471270   0.267161  -0.000000   0.159000  -0.204444
   21  O  2  S    0.000987   0.033686  -0.000000  -0.731222   0.652182
   22  O  2  X    0.236058  -0.048726  -0.000000  -0.761594   0.485773
   23  O  2  Y   -0.000000  -0.000000   0.090623   0.000000   0.000000
   24  O  2  Z    0.318930   0.187592  -0.000000   0.323379  -0.468391
   25  O  2 XX    0.014448  -0.011042  -0.000000   0.010737   0.008837
   26  O  2 YY   -0.002597   0.006816  -0.000000  -0.004718   0.013923
   27  O  2 ZZ   -0.011851   0.004226  -0.000000  -0.006020  -0.022761
   28  O  2 XY   -0.000000  -0.000000  -0.009525   0.000000   0.000000
   29  O  2 XZ    0.004010   0.011286  -0.000000  -0.005528   0.008073
   30  O  2 YZ   -0.000000  -0.000000   0.011919   0.000000   0.000000
   31  O  3  S   -0.008280   0.000047  -0.000000   0.049847   0.075628
   32  O  3  S    0.015004  -0.011350  -0.000000  -0.098799  -0.177646
   33  O  3  X    0.328872  -0.162414  -0.000000   0.314985   0.254242
   34  O  3  Y   -0.000000  -0.000000   0.514192   0.000000   0.000000
   35  O  3  Z   -0.159871   0.528624  -0.000000   0.086117   0.246438
   36  O  3  S    0.067313   0.039930  -0.000000  -0.551866  -0.903128
   37  O  3  X    0.214800  -0.143854  -0.000000   0.634101   0.721468
   38  O  3  Y   -0.000000  -0.000000   0.635973   0.000000   0.000000
   39  O  3  Z   -0.115817   0.381507  -0.000000   0.187041   0.571662
   40  O  3 XX   -0.020188   0.003070  -0.000000   0.007666  -0.016167
   41  O  3 YY    0.005783   0.003041  -0.000000   0.009553   0.003698
   42  O  3 ZZ    0.014405  -0.006112  -0.000000  -0.017220   0.012469
   43  O  3 XY   -0.000000  -0.000000  -0.010486   0.000000   0.000000
   44  O  3 XZ   -0.006694  -0.011763  -0.000000   0.001349   0.010288
   45  O  3 YZ   -0.000000  -0.000000  -0.004389   0.000000   0.000000

                     16         17         18         19         20
                    0.9638     1.0262     1.0326     1.0404     1.1169
                     A          A          A          A          A   
    1  O  1  S   -0.050376  -0.000000  -0.007350  -0.011370   0.023439
    2  O  1  S    0.136564  -0.000000   0.070362  -0.024496  -0.311538
    3  O  1  X    0.022681  -0.000000  -0.497790  -0.054503  -0.312486
    4  O  1  Y    0.000000  -0.468315   0.000000  -0.000000  -0.000000
    5  O  1  Z   -0.448356  -0.000000  -0.043325  -0.362238   0.211482
    6  O  1  S    1.919146  -0.000000  -0.013176   0.521956   0.545352
    7  O  1  X   -0.132878  -0.000000   1.841407   0.123695   0.337421
    8  O  1  Y    0.000000   0.344476   0.000000  -0.000000  -0.000000
    9  O  1  Z    1.415416  -0.000000   0.099489   0.421116  -0.169375
   10  O  1 XX    0.244710  -0.000000   0.010359   0.098077  -0.004886
   11  O  1 YY   -0.207260  -0.000000  -0.010790  -0.012333  -0.014474
   12  O  1 ZZ   -0.037451  -0.000000   0.000430  -0.085744   0.019359
   13  O  1 XY    0.000000   0.009365   0.000000  -0.000000  -0.000000
   14  O  1 XZ   -0.013056  -0.000000   0.195370  -0.001968  -0.127070
   15  O  1 YZ    0.000000  -0.048931   0.000000  -0.000000  -0.000000
   16  O  2  S    0.000235  -0.000000  -0.053389   0.024290   0.029790
   17  O  2  S    0.351058  -0.000000   0.395518  -0.233747  -0.229555
   18  O  2  X    0.475512  -0.000000  -0.453497  -0.199787   0.263993
   19  O  2  Y    0.000000  -0.770804   0.000000  -0.000000  -0.000000
   20  O  2  Z   -0.029939  -0.000000   0.133402  -0.603947  -0.459700
   21  O  2  S   -1.351162  -0.000000   0.649796   0.010379   0.198264
   22  O  2  X   -1.278383  -0.000000   1.008098   0.052162  -0.459998
   23  O  2  Y    0.000000   0.856083   0.000000  -0.000000  -0.000000
   24  O  2  Z    0.363389  -0.000000  -0.626174   0.698570   0.613915
   25  O  2 XX   -0.116050  -0.000000   0.077190  -0.044134   0.048082
   26  O  2 YY    0.063569  -0.000000  -0.077421   0.021859  -0.027027
   27  O  2 ZZ    0.052481  -0.000000   0.000231   0.022276  -0.021055
   28  O  2 XY    0.000000  -0.040042   0.000000  -0.000000  -0.000000
   29  O  2 XZ    0.018392  -0.000000  -0.166047   0.041263  -0.057626
   30  O  2 YZ    0.000000   0.025419   0.000000  -0.000000  -0.000000
   31  O  3  S   -0.008308  -0.000000   0.037750   0.028036   0.017105
   32  O  3  S    0.375289  -0.000000  -0.174301  -0.254287  -0.285676
   33  O  3  X   -0.414657  -0.000000  -0.449819   0.148548  -0.165067
   34  O  3  Y    0.000000  -0.234338   0.000000  -0.000000  -0.000000
   35  O  3  Z   -0.022035  -0.000000  -0.053139  -0.491736   0.456796
   36  O  3  S   -1.198519  -0.000000  -0.923200  -0.097810   0.137305
   37  O  3  X    1.089815  -0.000000   1.036481   0.052914   0.116224
   38  O  3  Y    0.000000   0.111401   0.000000  -0.000000  -0.000000
   39  O  3  Z    0.276065  -0.000000   0.534320   0.597083  -0.430719
   40  O  3 XX   -0.108472  -0.000000  -0.084095  -0.057420  -0.047903
   41  O  3 YY    0.053891  -0.000000   0.079264   0.035164   0.037962
   42  O  3 ZZ    0.054581  -0.000000   0.004831   0.022256   0.009941
   43  O  3 XY    0.000000   0.016335   0.000000  -0.000000  -0.000000
   44  O  3 XZ   -0.000985  -0.000000  -0.149586  -0.073406  -0.095809
   45  O  3 YZ    0.000000   0.034231   0.000000  -0.000000  -0.000000

                     21         22         23         24         25
                    1.1242     1.1648     1.2236     1.2623     1.2639
                     A          A          A          A          A   
    1  O  1  S    0.035724  -0.000000  -0.001664  -0.000376  -0.000000
    2  O  1  S   -0.532046  -0.000000  -0.302360   0.034887  -0.000000
    3  O  1  X    0.105336  -0.000000  -0.043608  -0.438577  -0.000000
    4  O  1  Y    0.000000  -0.676985   0.000000  -0.000000   0.421254
    5  O  1  Z    0.241885  -0.000000  -0.561631   0.025117  -0.000000
    6  O  1  S    1.041550  -0.000000   0.311864  -0.076391  -0.000000
    7  O  1  X    0.153536  -0.000000   0.159433   1.515158  -0.000000
    8  O  1  Y    0.000000   1.035457   0.000000  -0.000000  -0.825396
    9  O  1  Z   -0.119895  -0.000000   1.070828  -0.074626  -0.000000
   10  O  1 XX    0.012352  -0.000000  -0.178944   0.010646  -0.000000
   11  O  1 YY   -0.023560  -0.000000   0.193992  -0.009199  -0.000000
   12  O  1 ZZ    0.011208  -0.000000  -0.015049  -0.001447  -0.000000
   13  O  1 XY    0.000000  -0.050167   0.000000  -0.000000  -0.052339
   14  O  1 XZ    0.106697  -0.000000  -0.008140  -0.095332  -0.000000
   15  O  1 YZ    0.000000  -0.062128   0.000000  -0.000000   0.014830
   16  O  2  S    0.036040  -0.000000   0.025602  -0.000690  -0.000000
   17  O  2  S   -0.505016  -0.000000  -0.451040  -0.017960  -0.000000
   18  O  2  X    0.239424  -0.000000  -0.006394   0.327052  -0.000000
   19  O  2  Y    0.000000   0.468745   0.000000  -0.000000  -0.012087
   20  O  2  Z    0.188902  -0.000000   0.266029   0.287194  -0.000000
   21  O  2  S    0.443497  -0.000000   0.251050   0.710035  -0.000000
   22  O  2  X   -0.239384  -0.000000  -0.134461  -0.247831  -0.000000
   23  O  2  Y    0.000000  -0.861113   0.000000  -0.000000   0.183836
   24  O  2  Z   -0.180843  -0.000000  -0.565038  -0.761263  -0.000000
   25  O  2 XX   -0.033541  -0.000000  -0.057881   0.182989  -0.000000
   26  O  2 YY    0.034439  -0.000000   0.116673  -0.092923  -0.000000
   27  O  2 ZZ   -0.000898  -0.000000  -0.058792  -0.090066  -0.000000
   28  O  2 XY    0.000000   0.011093   0.000000  -0.000000   0.037713
   29  O  2 XZ    0.071171  -0.000000   0.104496  -0.059299  -0.000000
   30  O  2 YZ    0.000000  -0.014153   0.000000  -0.000000   0.040452
   31  O  3  S    0.057572  -0.000000   0.023103  -0.005172  -0.000000
   32  O  3  S   -0.506748  -0.000000  -0.397371   0.081795  -0.000000
   33  O  3  X   -0.410953  -0.000000   0.052218   0.367349  -0.000000
   34  O  3  Y    0.000000  -0.415271   0.000000  -0.000000  -0.891831
   35  O  3  Z   -0.405157  -0.000000   0.262852  -0.344879  -0.000000
   36  O  3  S    0.094823  -0.000000   0.048011  -0.700882  -0.000000
   37  O  3  X    0.755952  -0.000000   0.128945  -0.329914  -0.000000
   38  O  3  Y    0.000000   0.181254   0.000000  -0.000000   1.116195
   39  O  3  Z    0.690884  -0.000000  -0.465920   0.828303  -0.000000
   40  O  3 XX   -0.011179  -0.000000  -0.076136  -0.162317  -0.000000
   41  O  3 YY    0.028416  -0.000000   0.112434   0.060365  -0.000000
   42  O  3 ZZ   -0.017237  -0.000000  -0.036298   0.101952  -0.000000
   43  O  3 XY    0.000000   0.062169   0.000000  -0.000000   0.029625
   44  O  3 XZ   -0.029622  -0.000000  -0.117647  -0.046431  -0.000000
   45  O  3 YZ    0.000000  -0.003983   0.000000  -0.000000   0.038306

                     26         27         28         29         30
                    1.6098     1.6500     1.6512     1.6988     1.7137
                     A          A          A          A          A   
    1  O  1  S   -0.002242   0.007979  -0.000000   0.007443   0.000000
    2  O  1  S    0.122645  -0.924790  -0.000000  -0.798667   0.000000
    3  O  1  X   -0.261756  -0.013386  -0.000000  -0.017980   0.000000
    4  O  1  Y    0.000000  -0.000000   0.015782  -0.000000  -0.153622
    5  O  1  Z    0.020708   0.097979  -0.000000  -0.124908   0.000000
    6  O  1  S   -0.311825   2.554000  -0.000000   2.457737   0.000000
    7  O  1  X    2.231693  -0.002315  -0.000000   0.146513   0.000000
    8  O  1  Y    0.000000  -0.000000   0.030146  -0.000000   0.043433
    9  O  1  Z   -0.102568   0.685855  -0.000000   0.663094   0.000000
   10  O  1 XX    0.025028   0.068918  -0.000000  -0.272693   0.000000
   11  O  1 YY   -0.014218   0.371093  -0.000000  -0.116613   0.000000
   12  O  1 ZZ   -0.010809  -0.440011  -0.000000   0.389306   0.000000
   13  O  1 XY    0.000000  -0.000000   0.563225  -0.000000   0.137201
   14  O  1 XZ    0.230372  -0.001098  -0.000000   0.018576   0.000000
   15  O  1 YZ    0.000000  -0.000000  -0.145671  -0.000000   0.620346
   16  O  2  S    0.027831  -0.001441  -0.000000  -0.010710   0.000000
   17  O  2  S   -1.095988   0.424057  -0.000000   0.452002   0.000000
   18  O  2  X   -0.112293  -0.032615  -0.000000   0.016006   0.000000
   19  O  2  Y    0.000000  -0.000000   0.095068  -0.000000  -0.014405
   20  O  2  Z   -0.012498  -0.025593  -0.000000  -0.152624   0.000000
   21  O  2  S    2.615884  -1.277360  -0.000000  -1.142806   0.000000
   22  O  2  X    1.101708  -0.537934  -0.000000  -0.578588   0.000000
   23  O  2  Y    0.000000  -0.000000   0.059181  -0.000000  -0.053938
   24  O  2  Z   -0.713211   0.393389  -0.000000   0.308662   0.000000
   25  O  2 XX   -0.098540  -0.273686  -0.000000   0.237321   0.000000
   26  O  2 YY    0.159104   0.342263  -0.000000   0.046744   0.000000
   27  O  2 ZZ   -0.060564  -0.068577  -0.000000  -0.284065   0.000000
   28  O  2 XY    0.000000  -0.000000  -0.382349  -0.000000   0.382493
   29  O  2 XZ   -0.056648  -0.175556  -0.000000   0.190744   0.000000
   30  O  2 YZ    0.000000  -0.000000   0.323804  -0.000000   0.243335
   31  O  3  S   -0.028259  -0.007535  -0.000000  -0.016742   0.000000
   32  O  3  S    1.030381   0.454653  -0.000000   0.615872   0.000000
   33  O  3  X   -0.114030   0.041364  -0.000000  -0.031554   0.000000
   34  O  3  Y    0.000000  -0.000000  -0.115632  -0.000000  -0.073691
   35  O  3  Z    0.034093  -0.031790  -0.000000  -0.154101   0.000000
   36  O  3  S   -2.347602  -1.278649  -0.000000  -1.489956   0.000000
   37  O  3  X    0.948676   0.511897  -0.000000   0.716287   0.000000
   38  O  3  Y    0.000000  -0.000000  -0.042181  -0.000000  -0.086926
   39  O  3  Z    0.642615   0.393813  -0.000000   0.398871   0.000000
   40  O  3 XX    0.067544  -0.249991  -0.000000   0.250808   0.000000
   41  O  3 YY   -0.146098   0.278498  -0.000000   0.011373   0.000000
   42  O  3 ZZ    0.078554  -0.028507  -0.000000  -0.262181   0.000000
   43  O  3 XY    0.000000  -0.000000  -0.169446  -0.000000  -0.426707
   44  O  3 XZ   -0.015558   0.156760  -0.000000  -0.190359   0.000000
   45  O  3 YZ    0.000000  -0.000000  -0.307755  -0.000000   0.029872

                     31         32         33         34         35
                    2.0269     2.0341     2.0961     2.1338     2.3432
                     A          A          A          A          A   
    1  O  1  S   -0.000000  -0.002315   0.000000  -0.001724  -0.000812
    2  O  1  S   -0.000000   0.337131   0.000000  -0.768527  -0.019166
    3  O  1  X   -0.000000   0.152457   0.000000   0.083907  -0.068483
    4  O  1  Y    0.028712   0.000000   0.023991  -0.000000  -0.000000
    5  O  1  Z   -0.000000   0.039839   0.000000  -0.079030   0.000065
    6  O  1  S   -0.000000  -0.859392   0.000000   2.101421   0.077258
    7  O  1  X   -0.000000  -0.952349   0.000000  -0.319505   1.324487
    8  O  1  Y    0.103877   0.000000   0.220933  -0.000000  -0.000000
    9  O  1  Z   -0.000000  -0.337891   0.000000   0.838526   0.033211
   10  O  1 XX   -0.000000  -0.045123   0.000000   0.132759  -0.003556
   11  O  1 YY   -0.000000  -0.060937   0.000000   0.096904   0.001590
   12  O  1 ZZ   -0.000000   0.106060   0.000000  -0.229663   0.001966
   13  O  1 XY   -0.047341   0.000000  -0.032022  -0.000000  -0.000000
   14  O  1 XZ   -0.000000  -0.180263   0.000000  -0.076796   0.189922
   15  O  1 YZ   -0.186568   0.000000  -0.191550  -0.000000  -0.000000
   16  O  2  S   -0.000000   0.004143   0.000000   0.008638  -0.016591
   17  O  2  S   -0.000000   0.082303   0.000000   0.217977   0.074442
   18  O  2  X   -0.000000  -0.023705   0.000000  -0.089270   0.247590
   19  O  2  Y   -0.009741   0.000000   0.081555  -0.000000  -0.000000
   20  O  2  Z   -0.000000   0.019622   0.000000   0.075708   0.045554
   21  O  2  S   -0.000000  -0.367322   0.000000  -1.177879   0.616002
   22  O  2  X   -0.000000  -0.100057   0.000000  -0.557177   0.006586
   23  O  2  Y    0.001644   0.000000  -0.154271  -0.000000  -0.000000
   24  O  2  Z   -0.000000   0.163122   0.000000   0.256500  -0.494886
   25  O  2 XX   -0.000000  -0.050386   0.000000   0.063993  -0.532611
   26  O  2 YY   -0.000000   0.702476   0.000000  -0.316577   0.064623
   27  O  2 ZZ   -0.000000  -0.652089   0.000000   0.252584   0.467987
   28  O  2 XY    0.447509   0.000000  -0.213792  -0.000000  -0.000000
   29  O  2 XZ   -0.000000  -0.318017   0.000000   0.104291  -0.458287
   30  O  2 YZ    0.749110   0.000000   0.355983  -0.000000  -0.000000
   31  O  3  S   -0.000000  -0.003123   0.000000   0.008434   0.018634
   32  O  3  S   -0.000000  -0.286936   0.000000   0.181952  -0.061891
   33  O  3  X   -0.000000  -0.061577   0.000000   0.007167   0.252027
   34  O  3  Y    0.106714   0.000000   0.050224  -0.000000  -0.000000
   35  O  3  Z   -0.000000  -0.064800   0.000000   0.041554  -0.045913
   36  O  3  S   -0.000000   1.177728   0.000000  -0.801688  -0.694222
   37  O  3  X   -0.000000  -0.499609   0.000000   0.462339   0.051632
   38  O  3  Y   -0.112846   0.000000  -0.081848  -0.000000  -0.000000
   39  O  3  Z   -0.000000  -0.312491   0.000000   0.116954   0.510441
   40  O  3 XX   -0.000000   0.013345   0.000000   0.035161   0.528298
   41  O  3 YY   -0.000000  -0.334523   0.000000  -0.687574  -0.104040
   42  O  3 ZZ   -0.000000   0.321178   0.000000   0.652413  -0.424258
   43  O  3 XY    0.436909   0.000000  -0.283730  -0.000000  -0.000000
   44  O  3 XZ   -0.000000  -0.195054   0.000000  -0.300939  -0.485899
   45  O  3 YZ   -0.099745   0.000000   0.851665  -0.000000  -0.000000

                     36         37         38         39         40
                    2.6212     2.7390     2.7850     2.8975     2.9707
                     A          A          A          A          A   
    1  O  1  S    0.021864  -0.000000   0.003400  -0.000000  -0.076428
    2  O  1  S   -0.972751  -0.000000   0.098414  -0.000000  -0.564093
    3  O  1  X    0.035849  -0.000000   0.521354  -0.000000   0.007176
    4  O  1  Y    0.000000  -0.036278  -0.000000  -0.003091  -0.000000
    5  O  1  Z   -0.324970  -0.000000   0.005807  -0.000000   0.195787
    6  O  1  S    1.270076  -0.000000  -0.313696  -0.000000   3.753477
    7  O  1  X    0.017617  -0.000000   0.095261  -0.000000  -0.067644
    8  O  1  Y    0.000000   0.675345  -0.000000   0.086703  -0.000000
    9  O  1  Z    0.746729  -0.000000  -0.144371  -0.000000   1.765296
   10  O  1 XX    0.454790  -0.000000  -0.045943  -0.000000  -0.043637
   11  O  1 YY   -0.698363  -0.000000   0.078461  -0.000000  -0.703935
   12  O  1 ZZ    0.243573  -0.000000  -0.032517  -0.000000   0.747572
   13  O  1 XY    0.000000  -0.142393  -0.000000   1.026701  -0.000000
   14  O  1 XZ   -0.030167  -0.000000  -0.617723  -0.000000  -0.063729
   15  O  1 YZ    0.000000   0.845878  -0.000000   0.097269  -0.000000
   16  O  2  S    0.020325  -0.000000   0.009293  -0.000000   0.033973
   17  O  2  S   -0.265699  -0.000000  -0.554435  -0.000000   0.305786
   18  O  2  X   -0.277020  -0.000000  -0.281590  -0.000000  -0.164311
   19  O  2  Y    0.000000   0.029863  -0.000000   0.013245  -0.000000
   20  O  2  Z    0.183694  -0.000000   0.136165  -0.000000   0.040232
   21  O  2  S   -0.302293  -0.000000   0.811118  -0.000000  -1.955805
   22  O  2  X   -0.067282  -0.000000   0.564358  -0.000000  -1.213079
   23  O  2  Y    0.000000  -0.394097  -0.000000   0.205840  -0.000000
   24  O  2  Z   -0.113299  -0.000000  -0.330826  -0.000000   0.377118
   25  O  2 XX    0.108175  -0.000000   0.199588  -0.000000  -0.849761
   26  O  2 YY   -0.064054  -0.000000  -0.354063  -0.000000   0.328814
   27  O  2 ZZ   -0.044121  -0.000000   0.154475  -0.000000   0.520948
   28  O  2 XY    0.000000  -0.720075  -0.000000   0.418225  -0.000000
   29  O  2 XZ   -0.441791  -0.000000  -0.404105  -0.000000   0.266194
   30  O  2 YZ    0.000000   0.271170  -0.000000  -0.409672  -0.000000
   31  O  3  S    0.020671  -0.000000  -0.019632  -0.000000   0.028653
   32  O  3  S   -0.210587  -0.000000   0.564229  -0.000000   0.338568
   33  O  3  X    0.249286  -0.000000  -0.334974  -0.000000   0.127488
   34  O  3  Y    0.000000   0.035444  -0.000000  -0.010334  -0.000000
   35  O  3  Z    0.168233  -0.000000  -0.167049  -0.000000   0.020782
   36  O  3  S   -0.393439  -0.000000  -0.534734  -0.000000  -1.880140
   37  O  3  X    0.128086  -0.000000   0.409588  -0.000000   1.184900
   38  O  3  Y    0.000000  -0.329380  -0.000000  -0.296276  -0.000000
   39  O  3  Z   -0.068246  -0.000000   0.286229  -0.000000   0.353782
   40  O  3 XX    0.091789  -0.000000  -0.145284  -0.000000  -0.840985
   41  O  3 YY   -0.026100  -0.000000   0.361801  -0.000000   0.349247
   42  O  3 ZZ   -0.065689  -0.000000  -0.216517  -0.000000   0.491738
   43  O  3 XY    0.000000   0.626520  -0.000000   0.595854  -0.000000
   44  O  3 XZ    0.381322  -0.000000  -0.393489  -0.000000  -0.254465
   45  O  3 YZ    0.000000   0.141932  -0.000000   0.492032  -0.000000

                     41         42
                    3.2177     3.2644
                     A          A   
    1  O  1  S    0.006462  -0.082080
    2  O  1  S    0.033774  -0.430145
[...]
   41  O  3 YY    0.085363   0.156778   0.090729  -0.096655   0.194439
   42  O  3 ZZ   -0.104414  -0.250121   0.431922   0.017311   0.049451
   43  O  3 XY    0.130281  -0.467553  -0.038069  -0.116089  -0.294665
   44  O  3 XZ   -0.300481  -0.559574   0.050814   0.145379  -0.072529
   45  O  3 YZ   -0.097827  -0.298001   0.226353   0.124255   0.013675

                     31         32         33         34         35
                    0.0000     0.0000     0.0000     0.0000     0.0000
                     A          A          A          A          A   
    1  O  1  S   -0.031722  -0.017111  -0.025078  -0.030937   0.012228
    2  O  1  S   -0.194369  -0.054361  -0.336470  -0.253149   0.135799
    3  O  1  X   -0.107510   0.026824   0.229573   0.181835   0.162299
    4  O  1  Y   -0.195273   0.041783   0.256165  -0.326360  -0.477740
    5  O  1  Z   -0.208170  -0.114482   0.096754  -0.205750   0.135309
    6  O  1  S    1.314021   0.646823   1.698019   1.619523  -0.745110
    7  O  1  X   -0.089342   1.987019  -1.329251  -0.815974  -0.179883
    8  O  1  Y    0.535014   0.120141  -0.073053   0.134630   1.161417
    9  O  1  Z    0.901185   0.397900   0.605731   0.994289  -0.469679
   10  O  1 XX    0.050480   0.180671   0.158851   0.077978  -0.022925
   11  O  1 YY   -0.223707   0.034675  -0.288347  -0.018588   0.039931
   12  O  1 ZZ    0.173227  -0.215346   0.129495  -0.059390  -0.017006
   13  O  1 XY   -0.402501   0.385300  -0.128022  -0.177696  -0.105106
   14  O  1 XZ   -0.141692   0.162878   0.052116   0.013898   0.060112
   15  O  1 YZ    0.389571   0.297596   0.524563  -0.431877   0.215501
   16  O  2  S    0.018163  -0.030374   0.038858   0.027113  -0.009368
   17  O  2  S    0.075161   0.025333   0.014840   0.031919  -0.024033
   18  O  2  X   -0.055942   0.023271  -0.042071   0.026167  -0.045970
   19  O  2  Y    0.434987  -0.005520  -0.060008  -0.043535   0.154219
   20  O  2  Z    0.084830   0.140453  -0.089230  -0.043248  -0.020848
   21  O  2  S   -0.819506   0.873340  -1.401584  -1.175517   0.302494
   22  O  2  X   -0.575385   0.410407  -0.808352  -0.782774   0.342269
   23  O  2  Y   -0.839810   0.017782  -0.031103   0.035621  -0.562536
   24  O  2  Z    0.063867  -0.730299   0.768540   0.484859  -0.020660
   25  O  2 XX   -0.306525   0.072113  -0.072802  -0.112328   0.028166
   26  O  2 YY    0.098922  -0.200640   0.229886   0.143345  -0.051063
   27  O  2 ZZ    0.207603   0.128527  -0.157084  -0.031017   0.022898
   28  O  2 XY   -0.017255  -0.098252  -0.698694   0.050073  -0.204725
   29  O  2 XZ    0.290872  -0.410688   0.274036   0.096276  -0.159708
   30  O  2 YZ   -0.224567  -0.284165  -0.031141  -0.225595   0.676766
   31  O  3  S    0.007006   0.044432   0.003496   0.006812  -0.007108
   32  O  3  S    0.037119   0.033145   0.071062   0.068836   0.010548
   33  O  3  X    0.039992   0.006029   0.020951  -0.049867   0.034724
   34  O  3  Y    0.169187   0.024549  -0.056312  -0.126006   0.172427
   35  O  3  Z    0.039004  -0.128810   0.130424   0.070027   0.009514
   36  O  3  S   -0.536970  -1.546152  -0.059073  -0.359169   0.365193
   37  O  3  X    0.346427   0.883318   0.233392   0.446271  -0.288890
   38  O  3  Y   -0.286882  -0.206964   0.033027   0.241732  -0.537145
   39  O  3  Z    0.013798   0.978765  -0.326118  -0.146368  -0.119352
   40  O  3 XX    0.126606  -0.079271  -0.322973  -0.135084  -0.055396
   41  O  3 YY    0.021015   0.262913   0.018388   0.019717  -0.034707
   42  O  3 ZZ   -0.147622  -0.183642   0.304585   0.115367   0.090102
   43  O  3 XY    0.107793   0.191273   0.117406  -0.665244   0.162818
   44  O  3 XZ   -0.079064  -0.564944  -0.139669  -0.136947  -0.124023
   45  O  3 YZ   -0.142645   0.538073   0.178415   0.295796   0.341846

                     36         37         38         39         40
                   -0.0000    -0.0000    -0.0000    -0.0000    -0.0000
                     A          A          A          A          A   
    1  O  1  S   -0.008057  -0.053298   0.026019  -0.050633  -0.041538
    2  O  1  S   -0.477351  -1.012000   0.058121   1.094840  -0.240650
    3  O  1  X   -0.344327  -0.094360  -0.000385  -0.052164   0.095341
    4  O  1  Y    0.318159  -0.152531  -0.050487   0.003595  -0.086419
    5  O  1  Z   -0.059095  -0.193042   0.086633   0.321203  -0.013591
    6  O  1  S    1.474313   4.427132  -0.398640  -0.864290   1.856392
    7  O  1  X   -0.596128   0.377440  -0.152504  -0.208869  -0.170302
    8  O  1  Y   -0.322107   0.191409   0.171675   0.001660   0.060877
    9  O  1  Z    0.540440   2.135958  -0.459425  -0.423851   0.505158
   10  O  1 XX    0.258742   0.275316  -0.292105   0.025465   0.568147
   11  O  1 YY   -0.073695  -0.174868   0.655976  -0.039866  -0.533018
   12  O  1 ZZ   -0.185047  -0.100447  -0.363871   0.014401  -0.035130
   13  O  1 XY    0.079058   0.156656  -0.210287   0.064388   0.313649
   14  O  1 XZ   -0.347515   0.045443   0.038692  -0.115471   0.053524
   15  O  1 YZ   -0.008917   0.162101  -0.098675   0.086671  -0.095957
   16  O  2  S    0.033336   0.039604   0.001990   0.027979   0.028470
   17  O  2  S    0.129015   0.148651  -0.075067  -0.196349   0.008926
   18  O  2  X   -0.088342   0.042338   0.241770   0.363227  -0.068509
   19  O  2  Y    0.026620  -0.139384   0.042939  -0.003374  -0.109706
   20  O  2  Z    0.049397   0.032706  -0.166708  -0.165328   0.042855
   21  O  2  S   -1.242257  -1.758929   0.324171   0.278682  -0.858645
   22  O  2  X   -0.744457  -1.361590  -0.019329  -0.481615  -0.560730
   23  O  2  Y    0.060625   0.146213  -0.151276   0.009253   0.217074
   24  O  2  Z    0.445670   0.406431   0.182424   0.356952   0.386669
   25  O  2 XX   -0.444063  -0.331731   0.245291  -0.371482   0.311392
   26  O  2 YY    0.185918   0.183752   0.016349   0.261886   0.180444
   27  O  2 ZZ    0.258145   0.147979  -0.261640   0.109597  -0.491836
   28  O  2 XY    0.122137   0.051922  -0.003090   0.024262   0.243052
   29  O  2 XZ    0.577475   0.188586   0.102519   0.207728   0.529413
   30  O  2 YZ    0.274348   0.260164  -0.057151   0.053173   0.069940
   31  O  3  S   -0.010874   0.049722  -0.002509   0.015677   0.027940
   32  O  3  S    0.029352   0.139179  -0.066566  -0.220903   0.033180
   33  O  3  X    0.062903  -0.017586  -0.232281  -0.381535   0.066323
   34  O  3  Y    0.000764   0.037053  -0.225579   0.056827  -0.006493
   35  O  3  Z    0.026335   0.015453  -0.114296  -0.186520   0.084002
   36  O  3  S   -0.073768  -2.174674   0.465583   0.644122  -0.763510
   37  O  3  X   -0.094699   1.546546  -0.042626   0.240945   0.567228
   38  O  3  Y    0.056802  -0.171709   0.308062  -0.102801  -0.078862
   39  O  3  Z   -0.074803   0.653591   0.014944   0.216038   0.256498
   40  O  3 XX    0.415980  -0.553958   0.042877  -0.005691   0.169074
   41  O  3 YY   -0.105132   0.250069  -0.007252   0.178549   0.180501
   42  O  3 ZZ   -0.310847   0.303889  -0.035624  -0.172858  -0.349575
   43  O  3 XY    0.001725   0.099471   0.524992  -0.079611   0.179998
   44  O  3 XZ    0.352474  -0.099226   0.010864  -0.057383  -0.646946
   45  O  3 YZ    0.492740  -0.308998   0.136494  -0.004286   0.014141

                     41         42
                   -0.0000    -0.0000
                     A          A   
    1  O  1  S   -0.023552   0.004400
    2  O  1  S   -0.465299  -0.645856
    3  O  1  X   -0.038324   0.045683
    4  O  1  Y   -0.201908   0.010086
    5  O  1  Z    0.433963   0.065619
    6  O  1  S    1.977019   1.647067
    7  O  1  X    0.216490   0.177689
    8  O  1  Y    0.029570   0.007356
    9  O  1  Z    0.432106   0.333916
   10  O  1 XX    0.141360   0.414557
   11  O  1 YY   -0.534404  -0.550862
   12  O  1 ZZ    0.393044   0.136305
   13  O  1 XY    0.039932  -0.237823
   14  O  1 XZ   -0.053037   0.074063
   15  O  1 YZ   -0.071816   0.000117
   16  O  2  S    0.022457   0.015423
   17  O  2  S    0.082925  -0.037249
   18  O  2  X   -0.142074   0.035738
   19  O  2  Y   -0.184491   0.094376
   20  O  2  Z    0.067541   0.012105
   21  O  2  S   -0.742056  -0.438499
   22  O  2  X   -0.429805  -0.435023
   23  O  2  Y    0.232430  -0.186888
   24  O  2  Z    0.138407   0.247471
   25  O  2 XX   -0.631751   0.205712
   26  O  2 YY    0.140670   0.097149
   27  O  2 ZZ    0.491081  -0.302860
   28  O  2 XY    0.235194   0.069483
   29  O  2 XZ    0.211552  -0.432963
   30  O  2 YZ   -0.202202   0.031460
   31  O  3  S    0.027158   0.025395
   32  O  3  S    0.065919  -0.020374
   33  O  3  X    0.135217  -0.026038
   34  O  3  Y   -0.310665  -0.076527
   35  O  3  Z    0.004010   0.014623
   36  O  3  S   -0.922462  -0.729660
   37  O  3  X    0.491327   0.623634
   38  O  3  Y    0.380011   0.158121
   39  O  3  Z    0.348637   0.385901
   40  O  3 XX   -0.404054  -0.001634
   41  O  3 YY    0.164824   0.162917
   42  O  3 ZZ    0.239230  -0.161283
   43  O  3 XY    0.188211   0.028601
   44  O  3 XZ   -0.268322   0.281350
   45  O  3 YZ    0.092769   0.102080
 ...... END OF UHF CALCULATION ......
 STEP CPU TIME =     0.07 TOTAL CPU TIME =        0.2 (    0.0 MIN)
 TOTAL WALL CLOCK TIME=        0.2 SECONDS, CPU UTILIZATION IS  89.47%

     ----------------------------------------------------------------
     PROPERTY VALUES FOR THE UHF   SELF-CONSISTENT FIELD WAVEFUNCTION
     ----------------------------------------------------------------

          -----------------
          ENERGY COMPONENTS
          -----------------

         WAVEFUNCTION NORMALIZATION =       1.0000000000

                ONE ELECTRON ENERGY =    -445.5560880234
                TWO ELECTRON ENERGY =     152.3267373329
           NUCLEAR REPULSION ENERGY =      68.8983854026
                                      ------------------
                       TOTAL ENERGY =    -224.3309652879

 ELECTRON-ELECTRON POTENTIAL ENERGY =     152.3267373329
  NUCLEUS-ELECTRON POTENTIAL ENERGY =    -669.7809650634
   NUCLEUS-NUCLEUS POTENTIAL ENERGY =      68.8983854026
                                      ------------------
             TOTAL POTENTIAL ENERGY =    -448.5558423279
               TOTAL KINETIC ENERGY =     224.2248770400
                 VIRIAL RATIO (V/T) =       2.0004731333

  ...... PI ENERGY ANALYSIS ......

 ENERGY ANALYSIS:
            FOCK ENERGY=   -140.9026115058
          BARE H ENERGY=   -445.5560880234
     ELECTRONIC ENERGY =   -293.2293497646
         KINETIC ENERGY=    224.2248770400
          N-N REPULSION=     68.8983854026
           TOTAL ENERGY=   -224.3309643620
        SIGMA PART(1+2)=   -267.9136615906
               (K,V1,2)=    214.1660859460   -611.8656322895    129.7858847529
           PI PART(1+2)=    -25.3156881740
               (K,V1,2)=     10.0587910940    -57.9153327739     22.5408535059
  SIGMA SKELETON, ERROR=   -199.0152761880     -0.0000000000
             MIXED PART= 0.00000E+00 0.00000E+00 0.00000E+00 0.00000E+00
 ...... END OF PI ENERGY ANALYSIS ......

          ---------------------------------------
          MULLIKEN AND LOWDIN POPULATION ANALYSES
          ---------------------------------------

     ATOMIC MULLIKEN POPULATION IN EACH MOLECULAR ORBITAL
        ALPHA ORBITALS

                      1          2          3          4          5

                  1.000000   1.000000   1.000000   1.000000   1.000000

    1             0.999476   0.000226   0.000134   0.561160   0.210029
    2             0.000254   0.000012   0.999856   0.136267   0.362205
    3             0.000270   0.999762   0.000010   0.302572   0.427766

                      6          7          8          9         10

                  1.000000   1.000000   1.000000   1.000000   1.000000

    1             0.343862   0.397586   0.446523   0.263685   0.476571
    2             0.370785   0.030957   0.180459   0.448148   0.103866
    3             0.285354   0.571457   0.373018   0.288168   0.419563

                     11         12

                  1.000000   1.000000

    1             0.074923   0.216597
    2             0.277398   0.632809
    3             0.647679   0.150594

     ATOMIC MULLIKEN POPULATION IN EACH MOLECULAR ORBITAL
         BETA ORBITALS

                      1          2          3          4          5

                  1.000000   1.000000   1.000000   1.000000   1.000000

    1             0.999476   0.000226   0.000134   0.561160   0.210029
    2             0.000270   0.999762   0.000010   0.302572   0.427766
    3             0.000254   0.000012   0.999856   0.136267   0.362205

                      6          7          8          9         10

                  1.000000   1.000000   1.000000   1.000000   1.000000

    1             0.343862   0.397586   0.446523   0.263685   0.476571
    2             0.285354   0.571457   0.373018   0.288168   0.419563
    3             0.370785   0.030957   0.180459   0.448148   0.103866

                     11         12

                  1.000000   1.000000

    1             0.074923   0.216597
    2             0.647679   0.150594
    3             0.277398   0.632809

          MULLIKEN SPHERICAL HARMONIC POPULATIONS
       ATOM           S       P       D      F      G      H      I    TOTAL
    1 O             1.91    2.04    0.05   0.00   0.00   0.00   0.00    3.99
    2 O             1.95    1.57    0.02   0.00   0.00   0.00   0.00    3.54
    3 O             1.97    2.48    0.02   0.00   0.00   0.00   0.00    4.47

          MULLIKEN SPHERICAL HARMONIC POPULATIONS
       ATOM           S       P       D      F      G      H      I    TOTAL
    1 O             1.91    2.04    0.05   0.00   0.00   0.00   0.00    3.99
    2 O             1.97    2.48    0.02   0.00   0.00   0.00   0.00    4.47
    3 O             1.95    1.57    0.02   0.00   0.00   0.00   0.00    3.54

     ATOMIC SPIN POPULATION (ALPHA MINUS BETA)
       ATOM         MULL.POP.                    LOW.POP.
    1 O             0.000000                     0.000000
    2 O            -0.923198                    -0.881508
    3 O             0.923198                     0.881508


          ********* ALL ELECTRONS ********

               ----- POPULATIONS IN EACH AO -----
                             MULLIKEN      LOWDIN
              1  O  1  S      1.99787     1.97758
              2  O  1  S      0.95045     0.72651
              3  O  1  X      0.70523     0.63536
              4  O  1  Y      1.09190     1.03897
              5  O  1  Z      0.98764     0.94347
              6  O  1  S      0.86447     0.43100
              7  O  1  X      0.19465     0.36047
              8  O  1  Y      0.63700     0.62476
              9  O  1  Z      0.45524     0.54369
             10  O  1 XX      0.01627     0.20190
             11  O  1 YY      0.02199     0.16076
             12  O  1 ZZ      0.01369     0.18229
             13  O  1 XY      0.03942     0.03186
             14  O  1 XZ      0.00572     0.07218
             15  O  1 YZ      0.00000     0.00857
             16  O  2  S      1.99803     1.97928
             17  O  2  S      0.98258     0.77028
             18  O  2  X      0.82725     0.78463
             19  O  2  Y      0.73138     0.70181
             20  O  2  Z      1.12680     1.08793
             21  O  2  S      0.93658     0.51888
             22  O  2  X      0.38296     0.50733
             23  O  2  Y      0.38180     0.41809
             24  O  2  Z      0.59714     0.64705
             25  O  2 XX      0.00406     0.19015
             26  O  2 YY      0.01194     0.18239
             27  O  2 ZZ      0.00935     0.18438
             28  O  2 XY      0.01605     0.02064
             29  O  2 XZ      0.00332     0.03011
             30  O  2 YZ      0.00000     0.00738
             31  O  3  S      1.99803     1.97928
             32  O  3  S      0.98258     0.77028
             33  O  3  X      0.82725     0.78463
             34  O  3  Y      0.73138     0.70181
             35  O  3  Z      1.12680     1.08793
             36  O  3  S      0.93658     0.51888
             37  O  3  X      0.38296     0.50733
             38  O  3  Y      0.38180     0.41809
             39  O  3  Z      0.59714     0.64705
             40  O  3 XX      0.00406     0.19015
             41  O  3 YY      0.01194     0.18239
             42  O  3 ZZ      0.00935     0.18438
             43  O  3 XY      0.01605     0.02064
             44  O  3 XZ      0.00332     0.03011
             45  O  3 YZ      0.00000     0.00738

          ----- MULLIKEN ATOMIC OVERLAP POPULATIONS -----
          (OFF-DIAGONAL ELEMENTS NEED TO BE MULTIPLIED BY 2)

             1           2           3

    1    7.8774853
    2    0.0520277   8.0216022
    3    0.0520277  -0.0644003   8.0216022

          TOTAL MULLIKEN AND LOWDIN ATOMIC POPULATIONS
       ATOM         MULL.POP.    CHARGE          LOW.POP.     CHARGE
    1 O             7.981541    0.018459         7.939364    0.060636
    2 O             8.009230   -0.009230         8.030318   -0.030318
    3 O             8.009230   -0.009230         8.030318   -0.030318

          MULLIKEN SPHERICAL HARMONIC POPULATIONS
       ATOM           S       P       D      F      G      H      I    TOTAL
    1 O             3.81    4.07    0.10   0.00   0.00   0.00   0.00    7.98
    2 O             3.92    4.05    0.04   0.00   0.00   0.00   0.00    8.01
    3 O             3.92    4.05    0.04   0.00   0.00   0.00   0.00    8.01

          -------------------------------
          BOND ORDER AND VALENCE ANALYSIS     BOND ORDER THRESHOLD=0.050
          -------------------------------

                   BOND                       BOND                       BOND
  ATOM PAIR DIST  ORDER      ATOM PAIR DIST  ORDER      ATOM PAIR DIST  ORDER
    1   2  1.272  1.092        1   3  1.272  1.092        2   3  2.166  0.056

                       TOTAL       BONDED        FREE
      ATOM            VALENCE     VALENCE     VALENCE
    1 O                 2.203       2.184       0.019
    2 O                 1.913       1.148       0.765
    3 O                 1.913       1.148       0.765

          -----------------------------------------
          ATOMIC SPIN DENSITY AT THE NUCLEUS (A.U.)
          -----------------------------------------
                            SPIN DENS    ALPHA DENS     BETA DENS
    1  O            8.0     0.0000000     145.73135     145.73135
    2  O            8.0    -0.2672363     145.84656     146.11380
    3  O            8.0     0.2672363     146.11380     145.84656

          ---------------------
          ELECTROSTATIC MOMENTS
          ---------------------

 POINT   1           X           Y           Z (BOHR)    CHARGE
                 0.000000    0.000000    0.000000        0.00 (A.U.)
         DX          DY          DZ         /D/  (DEBYE)
    -0.000000    0.000000   -0.017033    0.017033
 ...... END OF PROPERTY EVALUATION ......
 STEP CPU TIME =     0.02 TOTAL CPU TIME =        0.2 (    0.0 MIN)
 TOTAL WALL CLOCK TIME=        0.2 SECONDS, CPU UTILIZATION IS 100.00%
               580000  WORDS OF DYNAMIC MEMORY USED
 EXECUTION OF GAMESS TERMINATED NORMALLY Wed Aug  9 22:17:26 2017
 DDI: 263640 bytes (0.3 MB / 0 MWords) used by master data server.

 ----------------------------------------
 CPU timing information for all processes
 ========================================
 0: 0.172 + 0.21 = 0.194
 ----------------------------------------
 ddikick.x: exited gracefully.
unset echo
----- accounting info -----
Files used on the master node compute-1-0.local were:
-rw-rw-r-- 1 sarom sarom  66K Aug  9 22:17 /scratch/o3-uhf.F05
-rw-rw-r-- 1 sarom sarom 3.0M Aug  9 22:17 /scratch/o3-uhf.F08
-rw-rw-r-- 1 sarom sarom 2.2M Aug  9 22:17 /scratch/o3-uhf.F10
rm: cannot remove `/scratch/tmp': Is a directory
ls: No match.
ls: No match.
ls: No match.
Wed Aug  9 22:17:30 CDT 2017
0.243u 0.201s 0:03.71 11.8%	0+0k 0+488io 0pf+0w
/opt/gridengine/default/spool/compute-1-0/active_jobs/36198.1/pe_hostfile compute-1-0.local
