-catch_rsh /opt/gridengine/default/spool/compute-0-1/active_jobs/23666.1/pe_hostfile
compute-0-1
The primary node assigned by SGE to this run is compute-0-1
Warning: no access to tty (Bad file descriptor).
Thus no job control in this shell.
source /home/sarom/gamess.github.2017-05-31.14.06/install.info
setenv GMS_PATH /home/sarom/gamess.github.2017-05-31.14.06
setenv GMS_BUILD_DIR /home/sarom/gamess.github.2017-05-31.14.06
setenv GMS_TARGET linux64
setenv GMS_FORTRAN gfortran
setenv GMS_GFORTRAN_VERNO 4.4
setenv GMS_MATHLIB mkl-so
setenv GMS_MATHLIB_PATH /share/apps/intel/compilers_and_libraries_2017.1.132/linux/mkl/lib/intel64
setenv GMS_MKL_VERNO 12
setenv GMS_DDI_COMM sockets
setenv GMS_LIBCCHEM false
setenv GMS_EIGEN_PATH
setenv GMS_PHI false
setenv GMS_SHMTYPE sysv
setenv GMS_OPENMP false
unset echo
omp-exam06
tests/openmp_mod
----- GAMESS execution script 'rungms' -----
This job is running on host compute-0-1.local
under operating system Linux at Fri Jun 2 02:02:57 CDT 2017
Available scratch disk space (Kbyte units) at beginning of the job is
Filesystem           1K-blocks      Used Available Use% Mounted on
/dev/sda1             16126920   3867344  11440376  26% /
GAMESS temporary binary files will be written to /scratch
GAMESS supplementary output files will be written to /home/sarom/restart
Copying input file omp-exam06.inp to your run's scratch directory...
cp tests/openmp_mod/omp-exam06.inp /scratch/omp-exam06.F05
unset echo
The generated host list is
compute-0-1.local
/home/sarom/gamess.github.2017-05-31.14.06/ddikick.x /home/sarom/gamess.github.2017-05-31.14.06/gamess.00.x omp-exam06 -ddi 1 1 compute-0-1.local -scr /scratch

 Distributed Data Interface kickoff program.
 Initiating 1 compute processes on 1 nodes to run the following command:
 /home/sarom/gamess.github.2017-05-31.14.06/gamess.00.x omp-exam06 

          ******************************************************
          *         GAMESS VERSION = 20 APR 2017 (R1)          *
          *             FROM IOWA STATE UNIVERSITY             *
          * M.W.SCHMIDT, K.K.BALDRIDGE, J.A.BOATZ, S.T.ELBERT, *
          *   M.S.GORDON, J.H.JENSEN, S.KOSEKI, N.MATSUNAGA,   *
          *          K.A.NGUYEN, S.J.SU, T.L.WINDUS,           *
          *       TOGETHER WITH M.DUPUIS, J.A.MONTGOMERY       *
          *         J.COMPUT.CHEM.  14, 1347-1363(1993)        *
          **************** 64 BIT LINUX VERSION ****************

  SINCE 1993, STUDENTS AND POSTDOCS WORKING AT IOWA STATE UNIVERSITY
  AND ALSO IN THEIR VARIOUS JOBS AFTER LEAVING ISU HAVE MADE IMPORTANT
  CONTRIBUTIONS TO THE CODE:
     IVANA ADAMOVIC, CHRISTINE AIKENS, YURI ALEXEEV, POOJA ARORA,
     ANDREY ASADCHEV, ROB BELL, PRADIPTA BANDYOPADHYAY, JONATHAN BENTZ,
     BRETT BODE, KURT BRORSEN, CALEB CARLIN, GALINA CHABAN, WEI CHEN,
     CHEOL HO CHOI, PAUL DAY, ALBERT DEFUSCO, NUWAN DESILVA, TIM DUDLEY,
     DMITRI FEDOROV, GRAHAM FLETCHER, MARK FREITAG, KURT GLAESEMANN,
     DAN KEMP, GRANT MERRILL, NORIYUKI MINEZAWA, JONATHAN MULLIN,
     TAKESHI NAGATA, SEAN NEDD, HEATHER NETZLOFF, BOSILJKA NJEGIC, RYAN OLSON,
     MIKE PAK, SPENCER PRUITT, LUKE ROSKOP, JIM SHOEMAKER, LYUDMILA SLIPCHENKO,
     TONY SMITH, SAROM SOK LEANG, JIE SONG, TETSUYA TAKETSUGU, SIMON WEBB,
     PENG XU, SOOHAENG YOO, FEDERICO ZAHARIEV

  ADDITIONAL CODE HAS BEEN PROVIDED BY COLLABORATORS IN OTHER GROUPS:
     IOWA STATE UNIVERSITY:
          JOE IVANIC, AARON WEST, LAIMUTIS BYTAUTAS, KLAUS RUEDENBERG
     UNIVERSITY OF TOKYO: KIMIHIKO HIRAO, TAKAHITO NAKAJIMA,
          TAKAO TSUNEDA, MUNEAKI KAMIYA, SUSUMU YANAGISAWA,
          KIYOSHI YAGI, MAHITO CHIBA, SEIKEN TOKURA, NAOAKI KAWAKAMI
     UNIVERSITY OF AARHUS: FRANK JENSEN
     UNIVERSITY OF IOWA: VISVALDAS KAIRYS, HUI LI
     NATIONAL INST. OF STANDARDS AND TECHNOLOGY: WALT STEVENS, DAVID GARMER
     UNIVERSITY OF PISA: BENEDETTA MENNUCCI, JACOPO TOMASI
     UNIVERSITY OF MEMPHIS: HENRY KURTZ, PRAKASHAN KORAMBATH
     UNIVERSITY OF ALBERTA: TOBY ZENG, MARIUSZ KLOBUKOWSKI
     UNIVERSITY OF NEW ENGLAND: MARK SPACKMAN
     MIE UNIVERSITY: HIROAKI UMEDA
     NAT. INST. OF ADVANCED INDUSTRIAL SCIENCE AND TECHNOLOGY: KAZUO KITAURA
     MICHIGAN STATE UNIVERSITY:
          KAROL KOWALSKI, MARTA WLOCH, JEFFREY GOUR, JESSE LUTZ,
          WEI LI, PIOTR PIECUCH
     UNIVERSITY OF SILESIA: MONIKA MUSIAL, STANISLAW KUCHARSKI
     FACULTES UNIVERSITAIRES NOTRE-DAME DE LA PAIX:
          OLIVIER QUINET, BENOIT CHAMPAGNE
     UNIVERSITY OF CALIFORNIA - SANTA BARBARA: BERNARD KIRTMAN
     INSTITUTE FOR MOLECULAR SCIENCE:
          KAZUYA ISHIMURA, MICHIO KATOUDA, AND SHIGERU NAGASE
     UNIVERSITY OF NOTRE DAME: ANNA POMOGAEVA, DAN CHIPMAN
     KYUSHU UNIVERSITY:
          HARUYUKI NAKANO,
          FENG LONG GU, JACEK KORCHOWIEC, MARCIN MAKOWSKI, AND YURIKO AOKI,
          HIROTOSHI MORI AND EISAKU MIYOSHI
     PENNSYLVANIA STATE UNIVERSITY:
          TZVETELIN IORDANOV, CHET SWALINA, JONATHAN SKONE,
          SHARON HAMMES-SCHIFFER
     WASEDA UNIVERSITY:
          MASATO KOBAYASHI, TOMOKO AKAMA, TSUGUKI TOUMA,
          TAKESHI YOSHIKAWA, YASUHIRO IKABATA, JUNJI SEINO,
          YUYA NAKAJIMA, HIROMI NAKAI
     NANJING UNIVERSITY: SHUHUA LI
     UNIVERSITY OF NEBRASKA:
          PEIFENG SU, DEJUN SI, NANDUN THELLAMUREGE, YALI WANG, HUI LI
     UNIVERSITY OF ZURICH: ROBERTO PEVERATI, KIM BALDRIDGE
     N. COPERNICUS UNIVERSITY AND JACKSON STATE UNIVERSITY:
          MARIA BARYSZ
     UNIVERSITY OF COPENHAGEN: Jimmy Kromann, CASPER STEINMANN
     TOKYO INSTITUTE OF TECHNOLOGY: HIROYA NAKATA
     NAGOYA UNIVERSITY: YOSHIO NISHIMOTO, STEPHAN IRLE
     MOSCOW STATE UNIVERSITY: VLADIMIR MIRONOV

 EXECUTION OF GAMESS BEGUN Fri Jun  2 02:02:57 2017

            ECHO OF THE FIRST FEW INPUT CARDS -
 INPUT CARD>!                                                                               
 INPUT CARD>! 6-prz_rdft_6-31Gp.inp                                                         
 INPUT CARD>! This is a more advanced test: two pyrazine molecules on a                     
 INPUT CARD>! long distance from each other. This is done to look at                        
 INPUT CARD>! Schwartz screening performance impact.                                        
 INPUT CARD>! Hybrid density functional test. Closed shell system.                          
 INPUT CARD>!                                                                               
 INPUT CARD>! Method: R-B3LYP/6-31G*                                                        
 INPUT CARD>! Final energy: -528.1647746014 a.u.                                            
 INPUT CARD>!                                                                               
 INPUT CARD> $CONTRL                                                                        
 INPUT CARD>  SCFTYP=rhf                                                                    
 INPUT CARD>  dfttyp=b3lyp                                                                  
 INPUT CARD>  RUNTYP=Energy                                                                 
 INPUT CARD>  maxit=50 nprint=4 $END                                                        
 INPUT CARD> $SYSTEM TIMLIM=50 MEMORY=10000000 $END                                         
 INPUT CARD> $SCF    DIRSCF=.TRUE. CONV=1.0d-7 FDIFF=.false. $END                           
 INPUT CARD> $BASIS  GBASIS=n31 NGAUSS=6 npfunc=1 $END                                      
 INPUT CARD> $GUESS  GUESS=HUCKEL $END                                                      
 INPUT CARD> $DATA                                                                          
 INPUT CARD>Two pyrazine molecules on the 20 A distance from each other                     
 INPUT CARD>C1                                                                              
 INPUT CARD>NITROGEN    7.0      1.386350000        -0.291970000         0.013520000        
 INPUT CARD>NITROGEN    7.0     -1.386330000         0.292270000         0.006810000        
 INPUT CARD>CARBON      6.0      0.918820000         0.970770000        -0.018780000        
 INPUT CARD>CARBON      6.0     -0.448890000         1.258970000        -0.022080000        
 INPUT CARD>CARBON      6.0     -0.918810000        -0.970950000         0.007300000        
 INPUT CARD>CARBON      6.0      0.448860000        -1.259140000         0.010580000        
 INPUT CARD>HYDROGEN    1.0      1.661070000         1.765960000        -0.025760000        
 INPUT CARD>HYDROGEN    1.0     -0.807120000         2.286040000        -0.031760000        
 INPUT CARD>HYDROGEN    1.0      0.807140000        -2.286110000         0.027350000        
 INPUT CARD>HYDROGEN    1.0     -1.661090000        -1.766020000         0.021390000        
 INPUT CARD>NITROGEN    7.0      1.386350000        -0.291970000        20.013520000        
 INPUT CARD>NITROGEN    7.0     -1.386330000         0.292270000        20.006810000        
 INPUT CARD>CARBON      6.0      0.918820000         0.970770000        19.981220000        
 INPUT CARD>CARBON      6.0     -0.448890000         1.258970000        19.977920000        
 INPUT CARD>CARBON      6.0     -0.918810000        -0.970950000        20.007300000        
 INPUT CARD>CARBON      6.0      0.448860000        -1.259140000        20.010580000        
 INPUT CARD>HYDROGEN    1.0      1.661070000         1.765960000        19.974240000        
 INPUT CARD>HYDROGEN    1.0     -0.807120000         2.286040000        19.968240000        
 INPUT CARD>HYDROGEN    1.0      0.807140000        -2.286110000        20.027350000        
 INPUT CARD>HYDROGEN    1.0     -1.661090000        -1.766020000        20.021390000        
 INPUT CARD> $END                                                                           
   10000000 WORDS OF MEMORY AVAILABLE

     BASIS OPTIONS
     -------------
     GBASIS=N31          IGAUSS=       6      POLAR=POPN31  
     NDFUNC=       0     NFFUNC=       0     DIFFSP=       F
     NPFUNC=       1      DIFFS=       F     BASNAM=        


     RUN TITLE
     ---------
 Two pyrazine molecules on the 20 A distance from each other                     

 THE POINT GROUP OF THE MOLECULE IS C1      
 THE ORDER OF THE PRINCIPAL AXIS IS     0

 ATOM      ATOMIC                      COORDINATES (BOHR)
           CHARGE         X                   Y                   Z
 NITROGEN    7.0     2.6198216231       -0.5517432966        0.0255490954
 NITROGEN    7.0    -2.6197838286        0.5523102144        0.0128690340
 CARBON      6.0     1.7363180320        1.8344892971       -0.0354890540
 CARBON      6.0    -0.8482790986        2.3791083268       -0.0417251498
 CARBON      6.0    -1.7362991348       -1.8348294478        0.0137949997
 CARBON      6.0     0.8482224068       -2.3794295802        0.0199933010
 HYDROGEN    1.0     3.1389671464        3.3371805053       -0.0486793414
 HYDROGEN    1.0    -1.5252356392        4.3199891970       -0.0600176974
 HYDROGEN    1.0     1.5252734337       -4.3201214778        0.0516840058
 HYDROGEN    1.0    -3.1390049409       -3.3372938888        0.0404212389
 NITROGEN    7.0     2.6198216231       -0.5517432966       37.8200688498
 NITROGEN    7.0    -2.6197838286        0.5523102144       37.8073887884
 CARBON      6.0     1.7363180320        1.8344892971       37.7590307004
 CARBON      6.0    -0.8482790986        2.3791083268       37.7527946046
 CARBON      6.0    -1.7362991348       -1.8348294478       37.8083147541
 CARBON      6.0     0.8482224068       -2.3794295802       37.8145130554
 HYDROGEN    1.0     3.1389671464        3.3371805053       37.7458404130
 HYDROGEN    1.0    -1.5252356392        4.3199891970       37.7345020571
 HYDROGEN    1.0     1.5252734337       -4.3201214778       37.8462037602
 HYDROGEN    1.0    -3.1390049409       -3.3372938888       37.8349409933

          INTERNUCLEAR DISTANCES (ANGS.)
          ------------------------------

                1 NITR       2 NITR       3 CARB       4 CARB       5 CARB  

   1 NITR    0.0000000    2.8335730 *  1.3469001 *  2.4030789 *  2.4030845 *
   2 NITR    2.8335730 *  0.0000000    2.4030675 *  1.3468991 *  1.3469595 *
   3 CARB    1.3469001 *  2.4030675 *  0.0000000    1.3977485 *  2.6735446 *
   4 CARB    2.4030789 *  1.3468991 *  1.3977485 *  0.0000000    2.2790856 *
   5 CARB    2.4030845 *  1.3469595 *  2.6735446 *  2.2790856 *  0.0000000  
   6 CARB    1.3469647 *  2.4030833 *  2.2790838 *  2.6735556 *  1.3977072 *
   7 HYDR    2.0765572 *  3.3851839    1.0878010 *  2.1700193 *  3.7613229  
   8 HYDR    3.3851878    2.0765574 *  2.1700167 *  1.0877937 *  3.2591386  
   9 HYDR    2.0766005 *  3.3852291    3.2591207    3.7613358    2.1700118 *
  10 HYDR    3.3852291    2.0765990 *  3.7613254    3.2591230    1.0878026 *
  11 NITR   20.0000000   20.2063736   20.0775033   20.1791672   20.1500277  
  12 NITR   20.1930863   20.0000000   20.1692423   20.0741061   20.0448173  
  13 CARB   20.0130492   20.1184277   20.0000000   20.0520747   20.1520381  
  14 CARB   20.1084755   20.0164567   20.0454908   20.0000000   20.1002247  
  15 CARB   20.1376765   20.0457951   20.2037383   20.1586069   20.0000000  
  16 CARB   20.0423730   20.1475956   20.1585868   20.2102523   20.0520519  
  17 HYDR   20.0684053   20.2523250   20.0225900   20.1137213   20.3180991  
  18 HYDR   20.2397702   20.0691129   20.1044715   20.0198925   20.2252215  
  19 HYDR   20.1212691   20.3047131   20.3092853   20.3991384   20.1373025  
  20 HYDR   20.2922294   20.1220144   20.3900556   20.3066660   20.0436253  

                6 CARB       7 HYDR       8 HYDR       9 HYDR      10 HYDR  

   1 NITR    1.3469647 *  2.0765572 *  3.3851878    2.0766005 *  3.3852291  
   2 NITR    2.4030833 *  3.3851839    2.0765574 *  3.3852291    2.0765990 *
   3 CARB    2.2790838 *  1.0878010 *  2.1700167 *  3.2591207    3.7613254  
   4 CARB    2.6735556 *  2.1700193 *  1.0877937 *  3.7613358    3.2591230  
   5 CARB    1.3977072 *  3.7613229    3.2591386    2.1700118 *  1.0878026 *
   6 CARB    0.0000000    3.2591416    3.7613268    1.0878020 *  2.1700076 *
   7 HYDR    3.2591416    0.0000000    2.5223959 *  4.1414114    4.8491085  
   8 HYDR    3.7613268    2.5223959 *  0.0000000    4.8491118    4.1414104  
   9 HYDR    1.0878020 *  4.1414114    4.8491118    0.0000000    2.5224370 *
  10 HYDR    2.1700076 *  4.8491085    4.1414104    2.5224370 *  0.0000000  
  11 NITR   20.0482397   20.1465454   20.3290604   20.0937570   20.2767102  
  12 NITR   20.1401095   20.3165516   20.1458405   20.2642092   20.0930103  
  13 CARB   20.1002444   20.0365294   20.1302800   20.2182261   20.3110996  
  14 CARB   20.1455082   20.1210383   20.0392239   20.3019814   20.2208576  
  15 CARB   20.0455079   20.3830800   20.3023246   20.0974364   20.0154869  
  16 CARB   20.0000000   20.2996454   20.3921843   20.0128087   20.1066291  
  17 HYDR   20.2279115   20.0000000   20.1643865   20.3722087   20.5335787  
  18 HYDR   20.3089630   20.1524808   20.0000000   20.5219269   20.3721692  
  19 HYDR   20.0462992   20.4762225   20.6368187   20.0000000   20.1643519  
  20 HYDR   20.1281229   20.6252237   20.4762614   20.1525256   20.0000000  

               11 NITR      12 NITR      13 CARB      14 CARB      15 CARB  

   1 NITR   20.0000000   20.1930863   20.0130492   20.1084755   20.1376765  
   2 NITR   20.2063736   20.0000000   20.1184277   20.0164567   20.0457951  
   3 CARB   20.0775033   20.1692423   20.0000000   20.0454908   20.2037383  
   4 CARB   20.1791672   20.0741061   20.0520747   20.0000000   20.1586069  
   5 CARB   20.1500277   20.0448173   20.1520381   20.1002247   20.0000000  
   6 CARB   20.0482397   20.1401095   20.1002444   20.1455082   20.0455079  
   7 HYDR   20.1465454   20.3165516   20.0365294   20.1210383   20.3830800  
   8 HYDR   20.3290604   20.1458405   20.1302800   20.0392239   20.3023246  
   9 HYDR   20.0937570   20.2642092   20.2182261   20.3019814   20.0974364  
  10 HYDR   20.2767102   20.0930103   20.3110996   20.2208576   20.0154869  
  11 NITR    0.0000000    2.8335730 *  1.3469001 *  2.4030789 *  2.4030845 *
  12 NITR    2.8335730 *  0.0000000    2.4030675 *  1.3468991 *  1.3469595 *
  13 CARB    1.3469001 *  2.4030675 *  0.0000000    1.3977485 *  2.6735446 *
  14 CARB    2.4030789 *  1.3468991 *  1.3977485 *  0.0000000    2.2790856 *
  15 CARB    2.4030845 *  1.3469595 *  2.6735446 *  2.2790856 *  0.0000000  
  16 CARB    1.3469647 *  2.4030833 *  2.2790838 *  2.6735556 *  1.3977072 *
  17 HYDR    2.0765572 *  3.3851839    1.0878010 *  2.1700193 *  3.7613229  
  18 HYDR    3.3851878    2.0765574 *  2.1700167 *  1.0877937 *  3.2591386  
  19 HYDR    2.0766005 *  3.3852291    3.2591207    3.7613358    2.1700118 *
  20 HYDR    3.3852291    2.0765990 *  3.7613254    3.2591230    1.0878026 *

               16 CARB      17 HYDR      18 HYDR      19 HYDR      20 HYDR  

   1 NITR   20.0423730   20.0684053   20.2397702   20.1212691   20.2922294  
   2 NITR   20.1475956   20.2523250   20.0691129   20.3047131   20.1220144  
   3 CARB   20.1585868   20.0225900   20.1044715   20.3092853   20.3900556  
   4 CARB   20.2102523   20.1137213   20.0198925   20.3991384   20.3066660  
   5 CARB   20.0520519   20.3180991   20.2252215   20.1373025   20.0436253  
   6 CARB   20.0000000   20.2279115   20.3089630   20.0462992   20.1281229  
   7 HYDR   20.2996454   20.0000000   20.1524808   20.4762225   20.6252237  
   8 HYDR   20.3921843   20.1643865   20.0000000   20.6368187   20.4762614  
   9 HYDR   20.0128087   20.3722087   20.5219269   20.0000000   20.1525256  
  10 HYDR   20.1066291   20.5335787   20.3721692   20.1643519   20.0000000  
  11 NITR    1.3469647 *  2.0765572 *  3.3851878    2.0766005 *  3.3852291  
  12 NITR    2.4030833 *  3.3851839    2.0765574 *  3.3852291    2.0765990 *
  13 CARB    2.2790838 *  1.0878010 *  2.1700167 *  3.2591207    3.7613254  
  14 CARB    2.6735556 *  2.1700193 *  1.0877937 *  3.7613358    3.2591230  
  15 CARB    1.3977072 *  3.7613229    3.2591386    2.1700118 *  1.0878026 *
  16 CARB    0.0000000    3.2591416    3.7613268    1.0878020 *  2.1700076 *
  17 HYDR    3.2591416    0.0000000    2.5223959 *  4.1414114    4.8491085  
  18 HYDR    3.7613268    2.5223959 *  0.0000000    4.8491118    4.1414104  
  19 HYDR    1.0878020 *  4.1414114    4.8491118    0.0000000    2.5224370 *
  20 HYDR    2.1700076 *  4.8491085    4.1414104    2.5224370 *  0.0000000  

  * ... LESS THAN  3.000


     ATOMIC BASIS SET
     ----------------
 THE CONTRACTED PRIMITIVE FUNCTIONS HAVE BEEN UNNORMALIZED
 THE CONTRACTED BASIS FUNCTIONS ARE NOW NORMALIZED TO UNITY

  SHELL TYPE  PRIMITIVE        EXPONENT          CONTRACTION COEFFICIENT(S)

 NITROGEN  

      1   S       1          4173.5114600    0.001834772160
      1   S       2           627.4579110    0.013994627002
      1   S       3           142.9020930    0.068586551812
      1   S       4            40.2343293    0.232240873040
      1   S       5            12.8202129    0.469069948082
      1   S       6             4.3904370    0.360455199063

      2   L       7            11.6263619   -0.114961181702    0.067579743878
      2   L       8             2.7162798   -0.169117478561    0.323907295893
      2   L       9             0.7722184    1.145851947027    0.740895139755

      3   L      10             0.2120315    1.000000000000    1.000000000000

 NITROGEN  

      4   S      11          4173.5114600    0.001834772160
      4   S      12           627.4579110    0.013994627002
      4   S      13           142.9020930    0.068586551812
      4   S      14            40.2343293    0.232240873040
      4   S      15            12.8202129    0.469069948082
      4   S      16             4.3904370    0.360455199063

      5   L      17            11.6263619   -0.114961181702    0.067579743878
      5   L      18             2.7162798   -0.169117478561    0.323907295893
      5   L      19             0.7722184    1.145851947027    0.740895139755

      6   L      20             0.2120315    1.000000000000    1.000000000000

 CARBON    

      7   S      21          3047.5248800    0.001834737132
      7   S      22           457.3695180    0.014037322813
      7   S      23           103.9486850    0.068842622264
      7   S      24            29.2101553    0.232184443216
      7   S      25             9.2866630    0.467941348435
      7   S      26             3.1639270    0.362311985337

      8   L      27             7.8682723   -0.119332419775    0.068999066591
      8   L      28             1.8812885   -0.160854151696    0.316423960957
      8   L      29             0.5442493    1.143456437840    0.744308290898

      9   L      30             0.1687145    1.000000000000    1.000000000000

 CARBON    

     10   S      31          3047.5248800    0.001834737132
     10   S      32           457.3695180    0.014037322813
     10   S      33           103.9486850    0.068842622264
     10   S      34            29.2101553    0.232184443216
     10   S      35             9.2866630    0.467941348435
     10   S      36             3.1639270    0.362311985337

     11   L      37             7.8682723   -0.119332419775    0.068999066591
     11   L      38             1.8812885   -0.160854151696    0.316423960957
     11   L      39             0.5442493    1.143456437840    0.744308290898

     12   L      40             0.1687145    1.000000000000    1.000000000000

 CARBON    

     13   S      41          3047.5248800    0.001834737132
     13   S      42           457.3695180    0.014037322813
     13   S      43           103.9486850    0.068842622264
     13   S      44            29.2101553    0.232184443216
     13   S      45             9.2866630    0.467941348435
     13   S      46             3.1639270    0.362311985337

     14   L      47             7.8682723   -0.119332419775    0.068999066591
     14   L      48             1.8812885   -0.160854151696    0.316423960957
     14   L      49             0.5442493    1.143456437840    0.744308290898

     15   L      50             0.1687145    1.000000000000    1.000000000000

 CARBON    

     16   S      51          3047.5248800    0.001834737132
     16   S      52           457.3695180    0.014037322813
     16   S      53           103.9486850    0.068842622264
     16   S      54            29.2101553    0.232184443216
     16   S      55             9.2866630    0.467941348435
     16   S      56             3.1639270    0.362311985337

     17   L      57             7.8682723   -0.119332419775    0.068999066591
     17   L      58             1.8812885   -0.160854151696    0.316423960957
     17   L      59             0.5442493    1.143456437840    0.744308290898

     18   L      60             0.1687145    1.000000000000    1.000000000000

 HYDROGEN  

     19   S      61            18.7311370    0.033494604338
     19   S      62             2.8253944    0.234726953484
     19   S      63             0.6401217    0.813757326146

     20   S      64             0.1612778    1.000000000000

     21   P      65             1.1000000    1.000000000000

 HYDROGEN  

     22   S      66            18.7311370    0.033494604338
     22   S      67             2.8253944    0.234726953484
     22   S      68             0.6401217    0.813757326146

     23   S      69             0.1612778    1.000000000000

     24   P      70             1.1000000    1.000000000000

 HYDROGEN  

     25   S      71            18.7311370    0.033494604338
     25   S      72             2.8253944    0.234726953484
     25   S      73             0.6401217    0.813757326146

     26   S      74             0.1612778    1.000000000000

     27   P      75             1.1000000    1.000000000000

 HYDROGEN  

     28   S      76            18.7311370    0.033494604338
     28   S      77             2.8253944    0.234726953484
     28   S      78             0.6401217    0.813757326146

     29   S      79             0.1612778    1.000000000000

     30   P      80             1.1000000    1.000000000000

 NITROGEN  

     31   S      81          4173.5114600    0.001834772160
     31   S      82           627.4579110    0.013994627002
     31   S      83           142.9020930    0.068586551812
     31   S      84            40.2343293    0.232240873040
     31   S      85            12.8202129    0.469069948082
     31   S      86             4.3904370    0.360455199063

     32   L      87            11.6263619   -0.114961181702    0.067579743878
     32   L      88             2.7162798   -0.169117478561    0.323907295893
     32   L      89             0.7722184    1.145851947027    0.740895139755

     33   L      90             0.2120315    1.000000000000    1.000000000000

 NITROGEN  

     34   S      91          4173.5114600    0.001834772160
     34   S      92           627.4579110    0.013994627002
     34   S      93           142.9020930    0.068586551812
     34   S      94            40.2343293    0.232240873040
     34   S      95            12.8202129    0.469069948082
     34   S      96             4.3904370    0.360455199063

     35   L      97            11.6263619   -0.114961181702    0.067579743878
     35   L      98             2.7162798   -0.169117478561    0.323907295893
     35   L      99             0.7722184    1.145851947027    0.740895139755

     36   L     100             0.2120315    1.000000000000    1.000000000000

 CARBON    

     37   S     101          3047.5248800    0.001834737132
     37   S     102           457.3695180    0.014037322813
     37   S     103           103.9486850    0.068842622264
     37   S     104            29.2101553    0.232184443216
     37   S     105             9.2866630    0.467941348435
     37   S     106             3.1639270    0.362311985337

     38   L     107             7.8682723   -0.119332419775    0.068999066591
     38   L     108             1.8812885   -0.160854151696    0.316423960957
     38   L     109             0.5442493    1.143456437840    0.744308290898

     39   L     110             0.1687145    1.000000000000    1.000000000000

 CARBON    

     40   S     111          3047.5248800    0.001834737132
     40   S     112           457.3695180    0.014037322813
     40   S     113           103.9486850    0.068842622264
     40   S     114            29.2101553    0.232184443216
     40   S     115             9.2866630    0.467941348435
     40   S     116             3.1639270    0.362311985337

     41   L     117             7.8682723   -0.119332419775    0.068999066591
     41   L     118             1.8812885   -0.160854151696    0.316423960957
     41   L     119             0.5442493    1.143456437840    0.744308290898

     42   L     120             0.1687145    1.000000000000    1.000000000000

 CARBON    

     43   S     121          3047.5248800    0.001834737132
     43   S     122           457.3695180    0.014037322813
     43   S     123           103.9486850    0.068842622264
     43   S     124            29.2101553    0.232184443216
     43   S     125             9.2866630    0.467941348435
     43   S     126             3.1639270    0.362311985337

     44   L     127             7.8682723   -0.119332419775    0.068999066591
     44   L     128             1.8812885   -0.160854151696    0.316423960957
     44   L     129             0.5442493    1.143456437840    0.744308290898

     45   L     130             0.1687145    1.000000000000    1.000000000000

 CARBON    

     46   S     131          3047.5248800    0.001834737132
     46   S     132           457.3695180    0.014037322813
     46   S     133           103.9486850    0.068842622264
     46   S     134            29.2101553    0.232184443216
     46   S     135             9.2866630    0.467941348435
     46   S     136             3.1639270    0.362311985337

     47   L     137             7.8682723   -0.119332419775    0.068999066591
     47   L     138             1.8812885   -0.160854151696    0.316423960957
     47   L     139             0.5442493    1.143456437840    0.744308290898

     48   L     140             0.1687145    1.000000000000    1.000000000000

 HYDROGEN  

     49   S     141            18.7311370    0.033494604338
     49   S     142             2.8253944    0.234726953484
     49   S     143             0.6401217    0.813757326146

     50   S     144             0.1612778    1.000000000000

     51   P     145             1.1000000    1.000000000000

 HYDROGEN  

     52   S     146            18.7311370    0.033494604338
     52   S     147             2.8253944    0.234726953484
     52   S     148             0.6401217    0.813757326146

     53   S     149             0.1612778    1.000000000000

     54   P     150             1.1000000    1.000000000000

 HYDROGEN  

     55   S     151            18.7311370    0.033494604338
     55   S     152             2.8253944    0.234726953484
     55   S     153             0.6401217    0.813757326146

     56   S     154             0.1612778    1.000000000000

     57   P     155             1.1000000    1.000000000000

 HYDROGEN  

     58   S     156            18.7311370    0.033494604338
     58   S     157             2.8253944    0.234726953484
     58   S     158             0.6401217    0.813757326146

     59   S     159             0.1612778    1.000000000000

     60   P     160             1.1000000    1.000000000000

 TOTAL NUMBER OF BASIS SET SHELLS             =   60
 NUMBER OF CARTESIAN GAUSSIAN BASIS FUNCTIONS =  148
 NUMBER OF ELECTRONS                          =   84
 CHARGE OF MOLECULE                           =    0
 SPIN MULTIPLICITY                            =    1
 NUMBER OF OCCUPIED ORBITALS (ALPHA)          =   42
 NUMBER OF OCCUPIED ORBITALS (BETA )          =   42
 TOTAL NUMBER OF ATOMS                        =   20
 THE NUCLEAR REPULSION ENERGY IS      461.5814945423

     LEBEDEV GRID-BASED DFT OPTIONS
     ------------------------------
     DFTTYP=B3LYP   
     NRAD  =      96     NLEB  =     302
     NRAD0 =      24     NLEB0 =     110
     SWOFF =    5.00E-03 (PURE SCF -> DFT)
     SWITCH=    3.00E-04 (COARSE -> TIGHT GRID)
     THRESH=    0.00E+00 GTHRE=    1.00E+00

 GRIMME'S EMPIRICAL DISPERSION CORRECTION= F

     $CONTRL OPTIONS
     ---------------
 SCFTYP=RHF          RUNTYP=ENERGY       EXETYP=RUN     
 MPLEVL=       0     CITYP =NONE         CCTYP =NONE         VBTYP =NONE    
 DFTTYP=B3LYP        TDDFT =NONE    
 MULT  =       1     ICHARG=       0     NZVAR =       0     COORD =UNIQUE  
 PP    =NONE         RELWFN=NONE         LOCAL =NONE         NUMGRD=       F
 ISPHER=      -1     NOSYM =       0     MAXIT =      50     UNITS =ANGS    
 PLTORB=       F     MOLPLT=       F     AIMPAC=       F     FRIEND=        
 NPRINT=       4     IREST =       0     GEOM  =INPUT   
 NORMF =       0     NORMP =       0     ITOL  =      20     ICUT  =       9
 INTTYP=BEST         GRDTYP=BEST         QMTTOL= 1.0E-06

     $SYSTEM OPTIONS
     ---------------
  REPLICATED MEMORY=    10000000 WORDS (ON EVERY NODE).
 DISTRIBUTED MEMDDI=           0 MILLION WORDS IN AGGREGATE,
 MEMDDI DISTRIBUTED OVER   1 PROCESSORS IS           0 WORDS/PROCESSOR.
 TOTAL MEMORY REQUESTED ON EACH PROCESSOR=    10000000 WORDS.
 TIMLIM=          50.00 MINUTES, OR       0.0 DAYS.
 PARALL= F  BALTYP=  DLB     KDIAG=    0  COREFL= F
 MXSEQ2=     300 MXSEQ3=     150  mem10=         0

          ----------------
          PROPERTIES INPUT
          ----------------

     MOMENTS            FIELD           POTENTIAL          DENSITY
 IEMOM =       1   IEFLD =       0   IEPOT =       0   IEDEN =       0
 WHERE =COMASS     WHERE =NUCLEI     WHERE =NUCLEI     WHERE =NUCLEI  
 OUTPUT=BOTH       OUTPUT=BOTH       OUTPUT=BOTH       OUTPUT=BOTH    
 IEMINT=       0   IEFINT=       0                     IEDINT=       0
                                                       MORB  =       0
          EXTRAPOLATION IN EFFECT
          DIIS IN EFFECT
 ORBITAL PRINTING OPTION: NPREO=     1   148     2     1

     -------------------------------
     INTEGRAL TRANSFORMATION OPTIONS
     -------------------------------
     NWORD  =            0
     CUTOFF = 1.0E-09     MPTRAN =       0
     DIRTRF =       T     AOINTS =DUP     

          ----------------------
          INTEGRAL INPUT OPTIONS
          ----------------------
 NOPK  =       1 NORDER=       0 SCHWRZ=       T

     ------------------------------------------
     THE POINT GROUP IS C1 , NAXIS= 0, ORDER= 1
     ------------------------------------------

     DIMENSIONS OF THE SYMMETRY SUBSPACES ARE
 A   =  148

 ..... DONE SETTING UP THE RUN .....
 STEP CPU TIME =     0.02 TOTAL CPU TIME =        0.0 (    0.0 MIN)
 TOTAL WALL CLOCK TIME=        0.0 SECONDS, CPU UTILIZATION IS 100.00%

          ********************
          1 ELECTRON INTEGRALS
          ********************
 ...... END OF ONE-ELECTRON INTEGRALS ......
 STEP CPU TIME =     0.01 TOTAL CPU TIME =        0.0 (    0.0 MIN)
 TOTAL WALL CLOCK TIME=        0.0 SECONDS, CPU UTILIZATION IS 100.00%

          -------------
          GUESS OPTIONS
          -------------
          GUESS =HUCKEL            NORB  =       0          NORDER=       0
          MIX   =       F          PRTMO =       F          PUNMO =       F
          TOLZ  = 1.0E-08          TOLE  = 1.0E-05
          SYMDEN=       F          PURIFY=       F

 INITIAL GUESS ORBITALS GENERATED BY HUCKEL   ROUTINE.
 HUCKEL GUESS REQUIRES    192812 WORDS.

 SYMMETRIES FOR INITIAL GUESS ORBITALS FOLLOW.   BOTH SET(S).
    42 ORBITALS ARE OCCUPIED (   12 CORE ORBITALS).
    13=A       14=A       15=A       16=A       17=A       18=A       19=A   
    20=A       21=A       22=A       23=A       24=A       25=A       26=A   
    27=A       28=A       29=A       30=A       31=A       32=A       33=A   
    34=A       35=A       36=A       37=A       38=A       39=A       40=A   
    41=A       42=A       43=A       44=A       45=A       46=A       47=A   
    48=A       49=A       50=A       51=A       52=A   
 ...... END OF INITIAL ORBITAL SELECTION ......
 STEP CPU TIME =     0.03 TOTAL CPU TIME =        0.1 (    0.0 MIN)
 TOTAL WALL CLOCK TIME=        0.1 SECONDS, CPU UTILIZATION IS  85.71%

                    ----------------------
                    AO INTEGRAL TECHNOLOGY
                    ----------------------
     S,P,L SHELL ROTATED AXIS INTEGRALS, REPROGRAMMED BY
        KAZUYA ISHIMURA (IMS) AND JOSE SIERRA (SYNSTAR).
     S,P,D,L SHELL ROTATED AXIS INTEGRALS PROGRAMMED BY
        KAZUYA ISHIMURA (INSTITUTE FOR MOLECULAR SCIENCE).
     S,P,D,F,G SHELL TO TOTAL QUARTET ANGULAR MOMENTUM SUM 5,
        ERIC PROGRAM BY GRAHAM FLETCHER (ELORET AND NASA ADVANCED
        SUPERCOMPUTING DIVISION, AMES RESEARCH CENTER).
     S,P,D,F,G,L SHELL GENERAL RYS QUADRATURE PROGRAMMED BY
        MICHEL DUPUIS (PACIFIC NORTHWEST NATIONAL LABORATORY).

          --------------------
          2 ELECTRON INTEGRALS
          --------------------

 DIRECT SCF METHOD SKIPS INTEGRAL STORAGE ON DISK.
 DIRECT TRANSFORMATION SKIPS AO INTEGRAL STORAGE ON DISK.
  ...... END OF TWO-ELECTRON INTEGRALS .....
 STEP CPU TIME =     0.01 TOTAL CPU TIME =        0.1 (    0.0 MIN)
 TOTAL WALL CLOCK TIME=        0.1 SECONDS, CPU UTILIZATION IS  77.78%

          --------------------------
             R-B3LYP SCF CALCULATION
          --------------------------

     NUCLEAR ENERGY =       461.5814945423
     MAXIT =   50     NPUNCH=    2
     EXTRAP=T  DAMP=F  SHIFT=F  RSTRCT=F  DIIS=T  DEM=F  SOSCF=F
         DENSITY MATRIX CONVERGENCE THRESHOLD=  2.00E-07
     COARSE -> FINE DFT GRID SWITCH THRESHOLD=  3.00E-04 (SWITCH IN $DFT)
                   HF -> DFT SWITCH THRESHOLD=  5.00E-03 (SWOFF IN $DFT)
     MEMORY REQUIRED FOR RHF ITERS=    867196 WORDS.

 DIRECT SCF CALCULATION, SCHWRZ=T   FDIFF=F,  DIRTHR=  0.00E+00 NITDIR=10
 MAX EXCHANGE INTEGRAL IN SHELL

             1           2           3           4           5

    1    2.0391711
    2    0.2946553   0.9895996
    3    0.2542649   0.6737883   0.7208213
    4    0.0000000   0.0000000   0.0032510   2.0391711
    5    0.0000000   0.0001735   0.0313812   0.2946553   0.9895996
    6    0.0032510   0.0313812   0.1724430   0.2542649   0.6737883
    7    0.0000013   0.0239308   0.1667940   0.0000000   0.0000046
    8    0.0448447   0.2439791   0.4300092   0.0000674   0.0081129
    9    0.1421823   0.4011008   0.4375195   0.0251925   0.1062210
   10    0.0000000   0.0000037   0.0135848   0.0000013   0.0183423
   11    0.0000536   0.0049318   0.0762962   0.0343561   0.1867034
   12    0.0200596   0.0847518   0.2082595   0.1089194   0.3098986
   13    0.0000000   0.0000046   0.0170588   0.0000013   0.0239308
   14    0.0000673   0.0081122   0.1145951   0.0448487   0.2441559
   15    0.0251914   0.1062173   0.2745030   0.1422228   0.4012183
   16    0.0000013   0.0183434   0.1278528   0.0000000   0.0000037
   17    0.0343617   0.1867551   0.3342256   0.0000536   0.0049314
   18    0.1089609   0.3100161   0.3780207   0.0200588   0.0847486
   19    0.0000552   0.0085049   0.1452214   0.0000000   0.0000016
   20    0.0184035   0.0795106   0.2700253   0.0003291   0.0035416
   21    0.0000034   0.0089087   0.1403917   0.0000000   0.0000002
   22    0.0000000   0.0000014   0.0029038   0.0000552   0.0082448
   23    0.0003291   0.0030475   0.0322113   0.0184035   0.0784811
   24    0.0000000   0.0000001   0.0024391   0.0000033   0.0083275
   25    0.0000552   0.0082444   0.1407500   0.0000000   0.0000014
   26    0.0184016   0.0784745   0.2622623   0.0003290   0.0030475
   27    0.0000033   0.0083284   0.1310415   0.0000000   0.0000001
   28    0.0000000   0.0000016   0.0034286   0.0000552   0.0085045
   29    0.0003290   0.0035411   0.0378126   0.0184017   0.0795153
   30    0.0000000   0.0000002   0.0034683   0.0000034   0.0089095
   31    0.0000000   0.0000000   0.0000000   0.0000000   0.0000000
   32    0.0000000   0.0000000   0.0000000   0.0000000   0.0000000
   33    0.0000000   0.0000000   0.0000000   0.0000000   0.0000000
   34    0.0000000   0.0000000   0.0000000   0.0000000   0.0000000
   35    0.0000000   0.0000000   0.0000000   0.0000000   0.0000000
   36    0.0000000   0.0000000   0.0000000   0.0000000   0.0000000
   37    0.0000000   0.0000000   0.0000000   0.0000000   0.0000000
   38    0.0000000   0.0000000   0.0000000   0.0000000   0.0000000
   39    0.0000000   0.0000000   0.0000000   0.0000000   0.0000000
   40    0.0000000   0.0000000   0.0000000   0.0000000   0.0000000
   41    0.0000000   0.0000000   0.0000000   0.0000000   0.0000000
   42    0.0000000   0.0000000   0.0000000   0.0000000   0.0000000
   43    0.0000000   0.0000000   0.0000000   0.0000000   0.0000000
   44    0.0000000   0.0000000   0.0000000   0.0000000   0.0000000
   45    0.0000000   0.0000000   0.0000000   0.0000000   0.0000000
   46    0.0000000   0.0000000   0.0000000   0.0000000   0.0000000
   47    0.0000000   0.0000000   0.0000000   0.0000000   0.0000000
   48    0.0000000   0.0000000   0.0000000   0.0000000   0.0000000
   49    0.0000000   0.0000000   0.0000000   0.0000000   0.0000000
   50    0.0000000   0.0000000   0.0000000   0.0000000   0.0000000
   51    0.0000000   0.0000000   0.0000000   0.0000000   0.0000000
   52    0.0000000   0.0000000   0.0000000   0.0000000   0.0000000
   53    0.0000000   0.0000000   0.0000000   0.0000000   0.0000000
   54    0.0000000   0.0000000   0.0000000   0.0000000   0.0000000
   55    0.0000000   0.0000000   0.0000000   0.0000000   0.0000000
   56    0.0000000   0.0000000   0.0000000   0.0000000   0.0000000
   57    0.0000000   0.0000000   0.0000000   0.0000000   0.0000000
   58    0.0000000   0.0000000   0.0000000   0.0000000   0.0000000
   59    0.0000000   0.0000000   0.0000000   0.0000000   0.0000000
   60    0.0000000   0.0000000   0.0000000   0.0000000   0.0000000

             6           7           8           9          10

    6    0.7208213
    7    0.0170598   1.8801094
    8    0.1145992   0.2673029   0.9044972
    9    0.2745075   0.2514020   0.6509767   0.6807938
   10    0.1278074   0.0000030   0.0459087   0.1654785   1.8801094
   11    0.3341054   0.0459087   0.2961149   0.4368538   0.2673029
   12    0.3780431   0.1654785   0.4368538   0.4298650   0.2514020
   13    0.1668378   0.0000000   0.0000082   0.0113354   0.0000000
   14    0.4301298   0.0000082   0.0035064   0.0603811   0.0002678
   15    0.4376440   0.0113354   0.0603811   0.1834992   0.0406777
   16    0.0135842   0.0000000   0.0002678   0.0406778   0.0000000
   17    0.0763128   0.0002678   0.0301093   0.1666358   0.0000107
   18    0.2083082   0.0406778   0.1666358   0.3119092   0.0146963
   19    0.0034292   0.0449771   0.2720903   0.3401247   0.0000395
   20    0.0378159   0.1256757   0.3834870   0.4776479   0.0175385
   21    0.0034688   0.0468067   0.2961671   0.2093938   0.0000027
   22    0.1407390   0.0000395   0.0107988   0.1279293   0.0449785
   23    0.2622328   0.0175386   0.0829264   0.2322310   0.1256768
   24    0.1310032   0.0000022   0.0099128   0.0928865   0.0603491
   25    0.0029037   0.0000000   0.0000395   0.0135964   0.0000000
   26    0.0322128   0.0006472   0.0094910   0.0742940   0.0000907
   27    0.0024395   0.0000000   0.0000174   0.0149622   0.0000000
   28    0.1452318   0.0000000   0.0000008   0.0020886   0.0000000
   29    0.2700537   0.0000907   0.0016561   0.0222313   0.0006472
   30    0.1404298   0.0000000   0.0000001   0.0017671   0.0000000
   31    0.0000000   0.0000000   0.0000000   0.0000000   0.0000000
   32    0.0000000   0.0000000   0.0000000   0.0000000   0.0000000
   33    0.0000000   0.0000000   0.0000000   0.0000000   0.0000000
   34    0.0000000   0.0000000   0.0000000   0.0000000   0.0000000
   35    0.0000000   0.0000000   0.0000000   0.0000000   0.0000000
   36    0.0000000   0.0000000   0.0000000   0.0000000   0.0000000
   37    0.0000000   0.0000000   0.0000000   0.0000000   0.0000000
   38    0.0000000   0.0000000   0.0000000   0.0000000   0.0000000
   39    0.0000000   0.0000000   0.0000000   0.0000000   0.0000000
   40    0.0000000   0.0000000   0.0000000   0.0000000   0.0000000
   41    0.0000000   0.0000000   0.0000000   0.0000000   0.0000000
   42    0.0000000   0.0000000   0.0000000   0.0000000   0.0000000
   43    0.0000000   0.0000000   0.0000000   0.0000000   0.0000000
   44    0.0000000   0.0000000   0.0000000   0.0000000   0.0000000
   45    0.0000000   0.0000000   0.0000000   0.0000000   0.0000000
   46    0.0000000   0.0000000   0.0000000   0.0000000   0.0000000
   47    0.0000000   0.0000000   0.0000000   0.0000000   0.0000000
   48    0.0000000   0.0000000   0.0000000   0.0000000   0.0000000
   49    0.0000000   0.0000000   0.0000000   0.0000000   0.0000000
   50    0.0000000   0.0000000   0.0000000   0.0000000   0.0000000
   51    0.0000000   0.0000000   0.0000000   0.0000000   0.0000000
   52    0.0000000   0.0000000   0.0000000   0.0000000   0.0000000
   53    0.0000000   0.0000000   0.0000000   0.0000000   0.0000000
   54    0.0000000   0.0000000   0.0000000   0.0000000   0.0000000
   55    0.0000000   0.0000000   0.0000000   0.0000000   0.0000000
   56    0.0000000   0.0000000   0.0000000   0.0000000   0.0000000
   57    0.0000000   0.0000000   0.0000000   0.0000000   0.0000000
   58    0.0000000   0.0000000   0.0000000   0.0000000   0.0000000
   59    0.0000000   0.0000000   0.0000000   0.0000000   0.0000000
   60    0.0000000   0.0000000   0.0000000   0.0000000   0.0000000

            11          12          13          14          15

   11    0.9044972
   12    0.6509767   0.6807938
   13    0.0002678   0.0406777   1.8801094
   14    0.0301094   0.1666369   0.2673029   0.9044972
   15    0.1666369   0.3119122   0.2514020   0.6509767   0.6807938
   16    0.0000107   0.0146963   0.0000030   0.0459167   0.1654848
   17    0.0056777   0.0870855   0.0459167   0.2961330   0.4368639
   18    0.0870855   0.2377112   0.1654848   0.4368639   0.4298690
   19    0.0131541   0.1560536   0.0000000   0.0000008   0.0020887
   20    0.0928258   0.2796230   0.0000907   0.0016562   0.0222323
   21    0.0153532   0.1317746   0.0000000   0.0000001   0.0017672
   22    0.3453408   0.4343911   0.0000000   0.0000395   0.0135961
   23    0.3834896   0.4776501   0.0006472   0.0094908   0.0742939
   24    0.3560532   0.2296577   0.0000000   0.0000174   0.0149623
   25    0.0000011   0.0027022   0.0000395   0.0107991   0.1279314
   26    0.0021102   0.0285744   0.0175388   0.0829271   0.2322337
   27    0.0000002   0.0028265   0.0000022   0.0099132   0.0928832
   28    0.0000367   0.0126322   0.0449767   0.2720515   0.3400756
   29    0.0088564   0.0691529   0.1256754   0.3834864   0.4776474
   30    0.0000150   0.0128342   0.0467992   0.2961335   0.2093664
   31    0.0000000   0.0000000   0.0000000   0.0000000   0.0000000
   32    0.0000000   0.0000000   0.0000000   0.0000000   0.0000000
   33    0.0000000   0.0000000   0.0000000   0.0000000   0.0000000
   34    0.0000000   0.0000000   0.0000000   0.0000000   0.0000000
   35    0.0000000   0.0000000   0.0000000   0.0000000   0.0000000
   36    0.0000000   0.0000000   0.0000000   0.0000000   0.0000000
   37    0.0000000   0.0000000   0.0000000   0.0000000   0.0000000
   38    0.0000000   0.0000000   0.0000000   0.0000000   0.0000000
   39    0.0000000   0.0000000   0.0000000   0.0000000   0.0000000
   40    0.0000000   0.0000000   0.0000000   0.0000000   0.0000000
   41    0.0000000   0.0000000   0.0000000   0.0000000   0.0000000
   42    0.0000000   0.0000000   0.0000000   0.0000000   0.0000000
   43    0.0000000   0.0000000   0.0000000   0.0000000   0.0000000
   44    0.0000000   0.0000000   0.0000000   0.0000000   0.0000000
   45    0.0000000   0.0000000   0.0000000   0.0000000   0.0000000
   46    0.0000000   0.0000000   0.0000000   0.0000000   0.0000000
   47    0.0000000   0.0000000   0.0000000   0.0000000   0.0000000
   48    0.0000000   0.0000000   0.0000000   0.0000000   0.0000000
   49    0.0000000   0.0000000   0.0000000   0.0000000   0.0000000
   50    0.0000000   0.0000000   0.0000000   0.0000000   0.0000000
   51    0.0000000   0.0000000   0.0000000   0.0000000   0.0000000
   52    0.0000000   0.0000000   0.0000000   0.0000000   0.0000000
   53    0.0000000   0.0000000   0.0000000   0.0000000   0.0000000
   54    0.0000000   0.0000000   0.0000000   0.0000000   0.0000000
   55    0.0000000   0.0000000   0.0000000   0.0000000   0.0000000
   56    0.0000000   0.0000000   0.0000000   0.0000000   0.0000000
   57    0.0000000   0.0000000   0.0000000   0.0000000   0.0000000
   58    0.0000000   0.0000000   0.0000000   0.0000000   0.0000000
   59    0.0000000   0.0000000   0.0000000   0.0000000   0.0000000
   60    0.0000000   0.0000000   0.0000000   0.0000000   0.0000000

            16          17          18          19          20

   16    1.8801094
   17    0.2673029   0.9044972
   18    0.2514020   0.6509767   0.6807938
   19    0.0000000   0.0000367   0.0126319   1.0375770
   20    0.0006472   0.0088563   0.0691529   0.5739539   0.6731644
   21    0.0000000   0.0000150   0.0128344   0.4336893   0.2785847
   22    0.0000000   0.0000011   0.0027024   0.0004383   0.0287014
   23    0.0000907   0.0021103   0.0285757   0.0287014   0.1077493
   24    0.0000000   0.0000002   0.0028267   0.0002917   0.0288117
   25    0.0449769   0.3453012   0.4343464   0.0000000   0.0001902
   26    0.1256755   0.3834866   0.4776475   0.0001902   0.0048210
   27    0.0603398   0.3559523   0.2296375   0.0000000   0.0001990
   28    0.0000395   0.0131548   0.1560567   0.0000000   0.0000101
   29    0.0175390   0.0928276   0.2796259   0.0000101   0.0007717
   30    0.0000027   0.0153540   0.1317767   0.0000000   0.0000072
   31    0.0000000   0.0000000   0.0000000   0.0000000   0.0000000
   32    0.0000000   0.0000000   0.0000000   0.0000000   0.0000000
   33    0.0000000   0.0000000   0.0000000   0.0000000   0.0000000
   34    0.0000000   0.0000000   0.0000000   0.0000000   0.0000000
   35    0.0000000   0.0000000   0.0000000   0.0000000   0.0000000
   36    0.0000000   0.0000000   0.0000000   0.0000000   0.0000000
   37    0.0000000   0.0000000   0.0000000   0.0000000   0.0000000
   38    0.0000000   0.0000000   0.0000000   0.0000000   0.0000000
   39    0.0000000   0.0000000   0.0000000   0.0000000   0.0000000
   40    0.0000000   0.0000000   0.0000000   0.0000000   0.0000000
   41    0.0000000   0.0000000   0.0000000   0.0000000   0.0000000
   42    0.0000000   0.0000000   0.0000000   0.0000000   0.0000000
   43    0.0000000   0.0000000   0.0000000   0.0000000   0.0000000
   44    0.0000000   0.0000000   0.0000000   0.0000000   0.0000000
   45    0.0000000   0.0000000   0.0000000   0.0000000   0.0000000
   46    0.0000000   0.0000000   0.0000000   0.0000000   0.0000000
   47    0.0000000   0.0000000   0.0000000   0.0000000   0.0000000
   48    0.0000000   0.0000000   0.0000000   0.0000000   0.0000000
   49    0.0000000   0.0000000   0.0000000   0.0000000   0.0000000
   50    0.0000000   0.0000000   0.0000000   0.0000000   0.0000000
   51    0.0000000   0.0000000   0.0000000   0.0000000   0.0000000
   52    0.0000000   0.0000000   0.0000000   0.0000000   0.0000000
   53    0.0000000   0.0000000   0.0000000   0.0000000   0.0000000
   54    0.0000000   0.0000000   0.0000000   0.0000000   0.0000000
   55    0.0000000   0.0000000   0.0000000   0.0000000   0.0000000
   56    0.0000000   0.0000000   0.0000000   0.0000000   0.0000000
   57    0.0000000   0.0000000   0.0000000   0.0000000   0.0000000
   58    0.0000000   0.0000000   0.0000000   0.0000000   0.0000000
   59    0.0000000   0.0000000   0.0000000   0.0000000   0.0000000
   60    0.0000000   0.0000000   0.0000000   0.0000000   0.0000000

            21          22          23          24          25

   21    0.9831009
   22    0.0002917   1.0375770
   23    0.0288117   0.5739539   0.6731644
   24    0.0000940   0.4336893   0.2785847   0.9831009
   25    0.0000000   0.0000000   0.0000101   0.0000000   1.0375770
   26    0.0001990   0.0000101   0.0007716   0.0000091   0.5739539
   27    0.0000000   0.0000000   0.0000091   0.0000000   0.4336893
   28    0.0000000   0.0000000   0.0001902   0.0000000   0.0004382
   29    0.0000072   0.0001902   0.0048211   0.0001990   0.0286987
   30    0.0000000   0.0000000   0.0001990   0.0000000   0.0002916
   31    0.0000000   0.0000000   0.0000000   0.0000000   0.0000000
   32    0.0000000   0.0000000   0.0000000   0.0000000   0.0000000
   33    0.0000000   0.0000000   0.0000000   0.0000000   0.0000000
   34    0.0000000   0.0000000   0.0000000   0.0000000   0.0000000
   35    0.0000000   0.0000000   0.0000000   0.0000000   0.0000000
   36    0.0000000   0.0000000   0.0000000   0.0000000   0.0000000
   37    0.0000000   0.0000000   0.0000000   0.0000000   0.0000000
   38    0.0000000   0.0000000   0.0000000   0.0000000   0.0000000
   39    0.0000000   0.0000000   0.0000000   0.0000000   0.0000000
   40    0.0000000   0.0000000   0.0000000   0.0000000   0.0000000
   41    0.0000000   0.0000000   0.0000000   0.0000000   0.0000000
   42    0.0000000   0.0000000   0.0000000   0.0000000   0.0000000
   43    0.0000000   0.0000000   0.0000000   0.0000000   0.0000000
   44    0.0000000   0.0000000   0.0000000   0.0000000   0.0000000
   45    0.0000000   0.0000000   0.0000000   0.0000000   0.0000000
   46    0.0000000   0.0000000   0.0000000   0.0000000   0.0000000
   47    0.0000000   0.0000000   0.0000000   0.0000000   0.0000000
   48    0.0000000   0.0000000   0.0000000   0.0000000   0.0000000
   49    0.0000000   0.0000000   0.0000000   0.0000000   0.0000000
   50    0.0000000   0.0000000   0.0000000   0.0000000   0.0000000
   51    0.0000000   0.0000000   0.0000000   0.0000000   0.0000000
   52    0.0000000   0.0000000   0.0000000   0.0000000   0.0000000
   53    0.0000000   0.0000000   0.0000000   0.0000000   0.0000000
   54    0.0000000   0.0000000   0.0000000   0.0000000   0.0000000
   55    0.0000000   0.0000000   0.0000000   0.0000000   0.0000000
   56    0.0000000   0.0000000   0.0000000   0.0000000   0.0000000
   57    0.0000000   0.0000000   0.0000000   0.0000000   0.0000000
   58    0.0000000   0.0000000   0.0000000   0.0000000   0.0000000
   59    0.0000000   0.0000000   0.0000000   0.0000000   0.0000000
   60    0.0000000   0.0000000   0.0000000   0.0000000   0.0000000

            26          27          28          29          30

   26    0.6731644
   27    0.2785847   0.9831009
   28    0.0286987   0.0002916   1.0375770
   29    0.1077429   0.0288091   0.5739539   0.6731644
   30    0.0288091   0.0000939   0.4336893   0.2785847   0.9831009
   31    0.0000000   0.0000000   0.0000000   0.0000000   0.0000000
   32    0.0000000   0.0000000   0.0000000   0.0000000   0.0000000
   33    0.0000000   0.0000000   0.0000000   0.0000000   0.0000000
   34    0.0000000   0.0000000   0.0000000   0.0000000   0.0000000
   35    0.0000000   0.0000000   0.0000000   0.0000000   0.0000000
   36    0.0000000   0.0000000   0.0000000   0.0000000   0.0000000
   37    0.0000000   0.0000000   0.0000000   0.0000000   0.0000000
   38    0.0000000   0.0000000   0.0000000   0.0000000   0.0000000
   39    0.0000000   0.0000000   0.0000000   0.0000000   0.0000000
   40    0.0000000   0.0000000   0.0000000   0.0000000   0.0000000
   41    0.0000000   0.0000000   0.0000000   0.0000000   0.0000000
   42    0.0000000   0.0000000   0.0000000   0.0000000   0.0000000
   43    0.0000000   0.0000000   0.0000000   0.0000000   0.0000000
   44    0.0000000   0.0000000   0.0000000   0.0000000   0.0000000
   45    0.0000000   0.0000000   0.0000000   0.0000000   0.0000000
   46    0.0000000   0.0000000   0.0000000   0.0000000   0.0000000
   47    0.0000000   0.0000000   0.0000000   0.0000000   0.0000000
   48    0.0000000   0.0000000   0.0000000   0.0000000   0.0000000
   49    0.0000000   0.0000000   0.0000000   0.0000000   0.0000000
   50    0.0000000   0.0000000   0.0000000   0.0000000   0.0000000
   51    0.0000000   0.0000000   0.0000000   0.0000000   0.0000000
   52    0.0000000   0.0000000   0.0000000   0.0000000   0.0000000
   53    0.0000000   0.0000000   0.0000000   0.0000000   0.0000000
   54    0.0000000   0.0000000   0.0000000   0.0000000   0.0000000
   55    0.0000000   0.0000000   0.0000000   0.0000000   0.0000000
   56    0.0000000   0.0000000   0.0000000   0.0000000   0.0000000
   57    0.0000000   0.0000000   0.0000000   0.0000000   0.0000000
   58    0.0000000   0.0000000   0.0000000   0.0000000   0.0000000
   59    0.0000000   0.0000000   0.0000000   0.0000000   0.0000000
   60    0.0000000   0.0000000   0.0000000   0.0000000   0.0000000

            31          32          33          34          35

   31    2.0391711
   32    0.2946553   0.9895996
   33    0.2542649   0.6737883   0.7208213
   34    0.0000000   0.0000000   0.0032510   2.0391711
   35    0.0000000   0.0001735   0.0313812   0.2946553   0.9895996
   36    0.0032510   0.0313812   0.1724430   0.2542649   0.6737883
   37    0.0000013   0.0239308   0.1667940   0.0000000   0.0000046
   38    0.0448447   0.2439791   0.4300092   0.0000674   0.0081129
   39    0.1421823   0.4011008   0.4375195   0.0251925   0.1062210
   40    0.0000000   0.0000037   0.0135848   0.0000013   0.0183423
   41    0.0000536   0.0049318   0.0762962   0.0343561   0.1867034
   42    0.0200596   0.0847518   0.2082595   0.1089194   0.3098986
   43    0.0000000   0.0000046   0.0170588   0.0000013   0.0239308
   44    0.0000673   0.0081122   0.1145951   0.0448487   0.2441559
   45    0.0251914   0.1062173   0.2745030   0.1422228   0.4012183
   46    0.0000013   0.0183434   0.1278528   0.0000000   0.0000037
   47    0.0343617   0.1867551   0.3342256   0.0000536   0.0049314
   48    0.1089609   0.3100161   0.3780207   0.0200588   0.0847486
   49    0.0000552   0.0085049   0.1452214   0.0000000   0.0000016
   50    0.0184035   0.0795106   0.2700253   0.0003291   0.0035416
   51    0.0000034   0.0089087   0.1403917   0.0000000   0.0000002
   52    0.0000000   0.0000014   0.0029038   0.0000552   0.0082448
   53    0.0003291   0.0030475   0.0322113   0.0184035   0.0784811
   54    0.0000000   0.0000001   0.0024391   0.0000033   0.0083275
   55    0.0000552   0.0082444   0.1407500   0.0000000   0.0000014
   56    0.0184016   0.0784745   0.2622623   0.0003290   0.0030475
   57    0.0000033   0.0083284   0.1310415   0.0000000   0.0000001
   58    0.0000000   0.0000016   0.0034286   0.0000552   0.0085045
   59    0.0003290   0.0035411   0.0378126   0.0184017   0.0795153
   60    0.0000000   0.0000002   0.0034683   0.0000034   0.0089095

            36          37          38          39          40

   36    0.7208213
   37    0.0170598   1.8801094
   38    0.1145992   0.2673029   0.9044972
   39    0.2745075   0.2514020   0.6509767   0.6807938
   40    0.1278074   0.0000030   0.0459087   0.1654785   1.8801094
   41    0.3341054   0.0459087   0.2961149   0.4368538   0.2673029
   42    0.3780431   0.1654785   0.4368538   0.4298650   0.2514020
   43    0.1668378   0.0000000   0.0000082   0.0113354   0.0000000
   44    0.4301298   0.0000082   0.0035064   0.0603811   0.0002678
   45    0.4376440   0.0113354   0.0603811   0.1834992   0.0406777
   46    0.0135842   0.0000000   0.0002678   0.0406778   0.0000000
   47    0.0763128   0.0002678   0.0301093   0.1666358   0.0000107
   48    0.2083082   0.0406778   0.1666358   0.3119092   0.0146963
   49    0.0034292   0.0449771   0.2720903   0.3401247   0.0000395
   50    0.0378159   0.1256757   0.3834870   0.4776479   0.0175385
   51    0.0034688   0.0468067   0.2961671   0.2093938   0.0000027
   52    0.1407390   0.0000395   0.0107988   0.1279293   0.0449785
   53    0.2622328   0.0175386   0.0829264   0.2322310   0.1256768
   54    0.1310032   0.0000022   0.0099128   0.0928865   0.0603491
   55    0.0029037   0.0000000   0.0000395   0.0135964   0.0000000
   56    0.0322128   0.0006472   0.0094910   0.0742940   0.0000907
   57    0.0024395   0.0000000   0.0000174   0.0149622   0.0000000
   58    0.1452318   0.0000000   0.0000008   0.0020886   0.0000000
   59    0.2700537   0.0000907   0.0016561   0.0222313   0.0006472
   60    0.1404298   0.0000000   0.0000001   0.0017671   0.0000000

            41          42          43          44          45

   41    0.9044972
   42    0.6509767   0.6807938
   43    0.0002678   0.0406777   1.8801094
   44    0.0301094   0.1666369   0.2673029   0.9044972
   45    0.1666369   0.3119122   0.2514020   0.6509767   0.6807938
   46    0.0000107   0.0146963   0.0000030   0.0459167   0.1654848
   47    0.0056777   0.0870855   0.0459167   0.2961330   0.4368639
   48    0.0870855   0.2377112   0.1654848   0.4368639   0.4298690
   49    0.0131541   0.1560536   0.0000000   0.0000008   0.0020887
   50    0.0928258   0.2796230   0.0000907   0.0016562   0.0222323
   51    0.0153532   0.1317746   0.0000000   0.0000001   0.0017672
   52    0.3453408   0.4343911   0.0000000   0.0000395   0.0135961
   53    0.3834896   0.4776501   0.0006472   0.0094908   0.0742939
   54    0.3560532   0.2296577   0.0000000   0.0000174   0.0149623
   55    0.0000011   0.0027022   0.0000395   0.0107991   0.1279314
   56    0.0021102   0.0285744   0.0175388   0.0829271   0.2322337
   57    0.0000002   0.0028265   0.0000022   0.0099132   0.0928832
   58    0.0000367   0.0126322   0.0449767   0.2720515   0.3400756
   59    0.0088564   0.0691529   0.1256754   0.3834864   0.4776474
   60    0.0000150   0.0128342   0.0467992   0.2961335   0.2093664

            46          47          48          49          50

   46    1.8801094
   47    0.2673029   0.9044972
   48    0.2514020   0.6509767   0.6807938
   49    0.0000000   0.0000367   0.0126319   1.0375770
   50    0.0006472   0.0088563   0.0691529   0.5739539   0.6731644
   51    0.0000000   0.0000150   0.0128344   0.4336893   0.2785847
   52    0.0000000   0.0000011   0.0027024   0.0004383   0.0287014
   53    0.0000907   0.0021103   0.0285757   0.0287014   0.1077493
   54    0.0000000   0.0000002   0.0028267   0.0002917   0.0288117
   55    0.0449769   0.3453012   0.4343464   0.0000000   0.0001902
   56    0.1256755   0.3834866   0.4776475   0.0001902   0.0048210
   57    0.0603398   0.3559523   0.2296375   0.0000000   0.0001990
   58    0.0000395   0.0131548   0.1560567   0.0000000   0.0000101
   59    0.0175390   0.0928276   0.2796259   0.0000101   0.0007717
   60    0.0000027   0.0153540   0.1317767   0.0000000   0.0000072

            51          52          53          54          55

   51    0.9831009
   52    0.0002917   1.0375770
   53    0.0288117   0.5739539   0.6731644
   54    0.0000940   0.4336893   0.2785847   0.9831009
   55    0.0000000   0.0000000   0.0000101   0.0000000   1.0375770
   56    0.0001990   0.0000101   0.0007716   0.0000091   0.5739539
   57    0.0000000   0.0000000   0.0000091   0.0000000   0.4336893
   58    0.0000000   0.0000000   0.0001902   0.0000000   0.0004382
   59    0.0000072   0.0001902   0.0048211   0.0001990   0.0286987
   60    0.0000000   0.0000000   0.0001990   0.0000000   0.0002916

            56          57          58          59          60

   56    0.6731644
   57    0.2785847   0.9831009
   58    0.0286987   0.0002916   1.0375770
   59    0.1077429   0.0288091   0.5739539   0.6731644
   60    0.0288091   0.0000939   0.4336893   0.2785847   0.9831009
 SCHWARZ INEQUALITY OVERHEAD:      5476 INTEGRALS, T=        0.01

 DFT CODE IS SWITCHING FROM THE FINE GRID NRAD= 96,  NLEB=  302
                      TO THE COARSE GRID NRAD0= 24, NLEB0=  110

     EXCHANGE FUNCTIONAL   =B88&HFX   
     CORRELATION FUNCTIONAL=LYP88&VWN5
     DFT THRESHOLD         =.690E-08
     GRID CHANGE THRESHOLD =.300E-03
 FOR AN EULER-MACLAURIN QUADRATURE USING  96 RADIAL POINTS:
 SMALLEST GAUSSIAN PRIMITIVE EXPONENT=        0.1612777588 OF TYPE -S-
 ON ATOM NUMBER   7 HAS RADIAL NORMALIZATION=  1.000000
  LARGEST GAUSSIAN PRIMITIVE EXPONENT=     4173.5114600000 OF TYPE -S-
 ON ATOM NUMBER   1 HAS RADIAL NORMALIZATION=  1.000000
 DFT IS SWITCHED OFF, PERFORMING PURE SCF UNTIL SWOFF THRESHOLD IS REACHED.

                                                                                   NONZERO     BLOCKS
 ITER EX DEM     TOTAL ENERGY        E CHANGE  DENSITY CHANGE    DIIS ERROR      INTEGRALS    SKIPPED
   1  0  0     -523.8889350957  -523.8889350957   0.273739153   0.544154674       12342726    1343623
          * * *   INITIATING DIIS PROCEDURE   * * *
   2  1  0     -525.0534945143    -1.1645594186   0.066776209   0.104480443       12344954    1342975
   3  2  0     -525.1227853481    -0.0692908338   0.041326750   0.054913050       12345020    1343011
   4  3  0     -525.1358981744    -0.0131128263   0.012739341   0.013400607       12345100    1342967
   5  4  0     -525.1378912766    -0.0019931022   0.004133379   0.003884362       12345106    1342957
 CONVERGED TO SWOFF, SO DFT CALCULATION IS NOW SWITCHED ON.
          * * *   INITIATING DIIS PROCEDURE   * * *
   6  5  0     -528.1218839325    -2.9839926558   0.085242036   0.083755841       12345080    1342935
   7  6  0     -528.1594958952    -0.0376119627   0.026637738   0.025800523       12345734    1342355
   8  7  0     -528.1641769733    -0.0046810781   0.009671509   0.016463292       12345850    1342299
   9  8  0     -528.1663585432    -0.0021815699   0.000678261   0.000412069       12345730    1342331
  10  9  0     -528.1663600381    -0.0000014949   0.000310832   0.000461690       12345730    1342331
  11 10  0     -528.1663612329    -0.0000011948   0.000076903   0.000089640       12345730    1342331
 DFT CODE IS SWITCHING BACK TO THE FINE GRID
          * * *   INITIATING DIIS PROCEDURE   * * *
  12 11  0     -528.1647620136     0.0015992192   0.001575597   0.001511427       12345730    1342331
  13 12  0     -528.1647744386    -0.0000124250   0.000223757   0.000156115       12345802    1342299
  14 13  0     -528.1647743226     0.0000001160   0.000137048   0.000202324       12345802    1342299
  15 14  0     -528.1647745978    -0.0000002752   0.000018831   0.000024714       12345802    1342299
  16 15  0     -528.1647746007    -0.0000000030   0.000006048   0.000008881       12345802    1342299
  17 16  0     -528.1647746014    -0.0000000006   0.000001617   0.000001565       12345802    1342299
  18 17  0     -528.1647746014    -0.0000000000   0.000000418   0.000000388       12345802    1342299
  19 18  0     -528.1647746014    -0.0000000000   0.000000231   0.000000349       12345802    1342299
  20 19  0     -528.1647746014    -0.0000000000   0.000000041   0.000000070       12345802    1342299

          -----------------
          DENSITY CONVERGED
          -----------------
     TIME TO FORM FOCK OPERATORS=      78.2 SECONDS (       3.9 SEC/ITER)
     FOCK TIME ON FIRST ITERATION=       0.8, LAST ITERATION=       7.3
     TIME TO SOLVE SCF EQUATIONS=       0.4 SECONDS (       0.0 SEC/ITER)

 FINAL R-B3LYP ENERGY IS     -528.1647746014 AFTER  20 ITERATIONS
 DFT EXCHANGE + CORRELATION ENERGY =       -59.5273913795
 TOTAL ELECTRON NUMBER             =        83.9998110105

          ------------
          EIGENVECTORS
          ------------

                      1          2          3          4          5
                  -14.3593   -14.3593   -14.3593   -14.3592   -10.2411
                     A          A          A          A          A   
    1  N  1  S    0.707779  -0.000000   0.700007  -0.000000   0.000000
    2  N  1  S    0.025062   0.000000   0.023127   0.000000  -0.000000
    3  N  1  X   -0.002045   0.000000  -0.002004   0.000000   0.000145
    4  N  1  Y    0.000430   0.000000   0.000422   0.000000   0.000689
    5  N  1  Z   -0.000044   0.000000  -0.000043   0.000000  -0.000009
    6  N  1  S   -0.034110   0.000000  -0.020098   0.000000   0.000001
    7  N  1  X    0.010257   0.000000   0.005727   0.000000   0.000179
    8  N  1  Y   -0.002159   0.000000  -0.001206   0.000000   0.000848
    9  N  1  Z    0.000230   0.000000   0.000116   0.000000  -0.000011
   10  N  2  S   -0.700154   0.000000   0.707635  -0.000000   0.000000
   11  N  2  S   -0.024810   0.000000   0.023397   0.000000  -0.000000
   12  N  2  X   -0.002023   0.000000   0.002026   0.000000   0.000145
   13  N  2  Y    0.000427   0.000000  -0.000427   0.000000   0.000689
   14  N  2  Z    0.000033   0.000000  -0.000033   0.000000  -0.000009
   15  N  2  S    0.033890   0.000000  -0.020467   0.000000   0.000001
   16  N  2  X    0.010194   0.000000  -0.005838   0.000000   0.000178
   17  N  2  Y   -0.002150   0.000000   0.001231   0.000000   0.000848
   18  N  2  Z   -0.000179   0.000000   0.000090   0.000000  -0.000011
   19  C  3  S    0.000008   0.000000   0.000076   0.000000  -0.497281
   20  C  3  S   -0.000815   0.000000  -0.000693   0.000000  -0.017275
   21  C  3  X   -0.000120   0.000000   0.000148   0.000000  -0.000296
   22  C  3  Y    0.000152   0.000000   0.000151   0.000000   0.000560
   23  C  3  Z    0.000001   0.000000  -0.000010   0.000000  -0.000017
   24  C  3  S    0.016738   0.000000   0.005925   0.000000   0.006477
   25  C  3  X   -0.004330   0.000000   0.000229   0.000000  -0.001701
   26  C  3  Y   -0.011693   0.000000  -0.003794   0.000000  -0.001651
   27  C  3  Z    0.000248   0.000000   0.000099   0.000000   0.000017
   28  C  4  S   -0.000007   0.000000   0.000076   0.000000  -0.497149
   29  C  4  S    0.000808   0.000000  -0.000702   0.000000  -0.017270
   30  C  4  X   -0.000171   0.000000  -0.000073   0.000000   0.000497
   31  C  4  Y   -0.000088   0.000000   0.000199   0.000000   0.000393
   32  C  4  Z   -0.000002   0.000000  -0.000011   0.000000  -0.000015
   33  C  4  S   -0.016673   0.000000   0.006107   0.000000   0.006470
   34  C  4  X    0.000738   0.000000  -0.001748   0.000000   0.000888
   35  C  4  Y    0.012408   0.000000  -0.003514   0.000000  -0.002195
   36  C  4  Z   -0.000256   0.000000   0.000097   0.000000   0.000024
   37  C  5  S   -0.000007   0.000000   0.000076   0.000000   0.497794
   38  C  5  S    0.000808   0.000000  -0.000702   0.000000   0.017291
   39  C  5  X   -0.000121   0.000000  -0.000147   0.000000  -0.000297
   40  C  5  Y    0.000150   0.000000  -0.000153   0.000000   0.000561
   41  C  5  Z   -0.000005   0.000000  -0.000006   0.000000   0.000002
   42  C  5  S   -0.016671   0.000000   0.006106   0.000000  -0.006479
   43  C  5  X   -0.004333   0.000000  -0.000181   0.000000  -0.001697
   44  C  5  Y   -0.011652   0.000000   0.003922   0.000000  -0.001649
   45  C  5  Z    0.000060   0.000000  -0.000001   0.000000   0.000027
   46  C  6  S    0.000008   0.000000   0.000076   0.000000   0.497940
   47  C  6  S   -0.000815   0.000000  -0.000693   0.000000   0.017296
   48  C  6  X   -0.000171   0.000000   0.000075   0.000000   0.000498
   49  C  6  Y   -0.000090   0.000000  -0.000198   0.000000   0.000393
   50  C  6  Z    0.000004   0.000000  -0.000005   0.000000   0.000004
   51  C  6  S    0.016736   0.000000   0.005924   0.000000  -0.006486
   52  C  6  X    0.000756   0.000000   0.001740   0.000000   0.000889
   53  C  6  Y    0.012447   0.000000   0.003380   0.000000  -0.002195
   54  C  6  Z   -0.000069   0.000000   0.000005   0.000000   0.000033
   55  H  7  S    0.000394   0.000000  -0.000090   0.000000   0.001067
   56  H  7  S    0.002740   0.000000   0.000743   0.000000  -0.000383
   57  H  7  X   -0.000113   0.000000  -0.000171   0.000000  -0.000351
   58  H  7  Y    0.000120   0.000000   0.000059   0.000000  -0.000571
   59  H  7  Z   -0.000013   0.000000  -0.000006   0.000000   0.000005
   60  H  8  S   -0.000395   0.000000  -0.000086   0.000000   0.001067
   61  H  8  S   -0.002732   0.000000   0.000772   0.000000  -0.000383
   62  H  8  X   -0.000150   0.000000   0.000182   0.000000   0.000091
   63  H  8  Y   -0.000064   0.000000  -0.000014   0.000000  -0.000664
   64  H  8  Z    0.000013   0.000000  -0.000005   0.000000   0.000006
   65  H  9  S    0.000394   0.000000  -0.000090   0.000000  -0.001068
   66  H  9  S    0.002740   0.000000   0.000742   0.000000   0.000386
   67  H  9  X   -0.000152   0.000000  -0.000181   0.000000   0.000091
   68  H  9  Y   -0.000064   0.000000   0.000015   0.000000  -0.000664
   69  H  9  Z   -0.000011   0.000000  -0.000006   0.000000   0.000011
   70  H 10  S   -0.000395   0.000000  -0.000086   0.000000  -0.001068
   71  H 10  S   -0.002732   0.000000   0.000772   0.000000   0.000387
   72  H 10  X   -0.000111   0.000000   0.000172   0.000000  -0.000351
   73  H 10  Y    0.000119   0.000000  -0.000061   0.000000  -0.000571
   74  H 10  Z    0.000010   0.000000  -0.000005   0.000000   0.000010
   75  N 11  S    0.000000   0.707597   0.000000   0.700192   0.000000
   76  N 11  S    0.000000   0.025056   0.000000   0.023133   0.000000
   77  N 11  X    0.000000  -0.002044   0.000000  -0.002004   0.000000
   78  N 11  Y    0.000000   0.000430   0.000000   0.000422   0.000000
   79  N 11  Z    0.000000  -0.000044   0.000000  -0.000043   0.000000
   80  N 11  S    0.000000  -0.034105   0.000000  -0.020107   0.000000
   81  N 11  X    0.000000   0.010255   0.000000   0.005730   0.000000
   82  N 11  Y    0.000000  -0.002159   0.000000  -0.001206   0.000000
   83  N 11  Z    0.000000   0.000230   0.000000   0.000116   0.000000
   84  N 12  S   -0.000000  -0.700338   0.000000   0.707452   0.000000
   85  N 12  S    0.000000  -0.024817   0.000000   0.023391   0.000000
   86  N 12  X    0.000000  -0.002024   0.000000   0.002025   0.000000
   87  N 12  Y    0.000000   0.000427   0.000000  -0.000427   0.000000
   88  N 12  Z    0.000000   0.000033   0.000000  -0.000033   0.000000
   89  N 12  S    0.000000   0.033896   0.000000  -0.020458   0.000000
   90  N 12  X    0.000000   0.010196   0.000000  -0.005836   0.000000
   91  N 12  Y    0.000000  -0.002150   0.000000   0.001231   0.000000
   92  N 12  Z    0.000000  -0.000179   0.000000   0.000090   0.000000
   93  C 13  S    0.000000   0.000008   0.000000   0.000076   0.000000
   94  C 13  S    0.000000  -0.000815   0.000000  -0.000693   0.000000
   95  C 13  X    0.000000  -0.000120   0.000000   0.000148   0.000000
   96  C 13  Y    0.000000   0.000152   0.000000   0.000151   0.000000
   97  C 13  Z    0.000000   0.000001   0.000000  -0.000010   0.000000
   98  C 13  S    0.000000   0.016736   0.000000   0.005930   0.000000
   99  C 13  X    0.000000  -0.004330   0.000000   0.000227   0.000000
  100  C 13  Y    0.000000  -0.011692   0.000000  -0.003797   0.000000
  101  C 13  Z    0.000000   0.000248   0.000000   0.000099   0.000000
  102  C 14  S    0.000000  -0.000007   0.000000   0.000076   0.000000
  103  C 14  S    0.000000   0.000808   0.000000  -0.000702   0.000000
  104  C 14  X    0.000000  -0.000171   0.000000  -0.000073   0.000000
  105  C 14  Y    0.000000  -0.000088   0.000000   0.000199   0.000000
  106  C 14  Z    0.000000  -0.000002   0.000000  -0.000011   0.000000
  107  C 14  S    0.000000  -0.016674   0.000000   0.006102   0.000000
  108  C 14  X    0.000000   0.000739   0.000000  -0.001748   0.000000
  109  C 14  Y    0.000000   0.012409   0.000000  -0.003511   0.000000
  110  C 14  Z    0.000000  -0.000256   0.000000   0.000097   0.000000
  111  C 15  S    0.000000  -0.000007   0.000000   0.000076  -0.000000
  112  C 15  S    0.000000   0.000808   0.000000  -0.000702   0.000000
  113  C 15  X    0.000000  -0.000121   0.000000  -0.000147   0.000000
  114  C 15  Y    0.000000   0.000150   0.000000  -0.000153   0.000000
  115  C 15  Z    0.000000  -0.000005   0.000000  -0.000006   0.000000
  116  C 15  S    0.000000  -0.016673   0.000000   0.006102   0.000000
  117  C 15  X    0.000000  -0.004333   0.000000  -0.000182   0.000000
  118  C 15  Y    0.000000  -0.011653   0.000000   0.003919   0.000000
  119  C 15  Z    0.000000   0.000060   0.000000  -0.000001   0.000000
  120  C 16  S    0.000000   0.000008   0.000000   0.000076  -0.000000
  121  C 16  S    0.000000  -0.000815   0.000000  -0.000693   0.000000
  122  C 16  X    0.000000  -0.000171   0.000000   0.000075   0.000000
  123  C 16  Y    0.000000  -0.000090   0.000000  -0.000198   0.000000
  124  C 16  Z    0.000000   0.000004   0.000000  -0.000005   0.000000
  125  C 16  S    0.000000   0.016735   0.000000   0.005929   0.000000
  126  C 16  X    0.000000   0.000756   0.000000   0.001740   0.000000
  127  C 16  Y    0.000000   0.012446   0.000000   0.003383   0.000000
  128  C 16  Z    0.000000  -0.000069   0.000000   0.000005   0.000000
  129  H 17  S    0.000000   0.000394   0.000000  -0.000090   0.000000
  130  H 17  S    0.000000   0.002740   0.000000   0.000743   0.000000
  131  H 17  X    0.000000  -0.000113   0.000000  -0.000171   0.000000
  132  H 17  Y    0.000000   0.000120   0.000000   0.000059   0.000000
  133  H 17  Z    0.000000  -0.000013   0.000000  -0.000006   0.000000
  134  H 18  S    0.000000  -0.000395   0.000000  -0.000086   0.000000
  135  H 18  S    0.000000  -0.002732   0.000000   0.000772   0.000000
  136  H 18  X    0.000000  -0.000150   0.000000   0.000182   0.000000
  137  H 18  Y    0.000000  -0.000064   0.000000  -0.000014   0.000000
  138  H 18  Z    0.000000   0.000013   0.000000  -0.000005   0.000000
  139  H 19  S    0.000000   0.000394   0.000000  -0.000090   0.000000
  140  H 19  S    0.000000   0.002740   0.000000   0.000743   0.000000
  141  H 19  X    0.000000  -0.000152   0.000000  -0.000181   0.000000
  142  H 19  Y    0.000000  -0.000064   0.000000   0.000015   0.000000
  143  H 19  Z    0.000000  -0.000011   0.000000  -0.000006   0.000000
  144  H 20  S    0.000000  -0.000395   0.000000  -0.000086   0.000000
  145  H 20  S    0.000000  -0.002732   0.000000   0.000771   0.000000
  146  H 20  X    0.000000  -0.000111   0.000000   0.000172   0.000000
  147  H 20  Y    0.000000   0.000119   0.000000  -0.000061   0.000000
  148  H 20  Z    0.000000   0.000010   0.000000  -0.000005   0.000000

                      6          7          8          9         10
                  -10.2411   -10.2411   -10.2410   -10.2406   -10.2406
                     A          A          A          A          A   
    1  N  1  S    0.000000  -0.000036   0.000000   0.000000   0.000000
    2  N  1  S    0.000000  -0.000667   0.000000   0.000000   0.000000
    3  N  1  X    0.000000   0.000360   0.000000   0.000076   0.000000
    4  N  1  Y    0.000000  -0.000076   0.000000   0.000366   0.000000
    5  N  1  Z    0.000000   0.000006   0.000000  -0.000005   0.000000
    6  N  1  S    0.000000   0.001474   0.000000  -0.000000   0.000000
    7  N  1  X    0.000000   0.000651   0.000000   0.000202   0.000000
    8  N  1  Y    0.000000  -0.000138   0.000000   0.000964   0.000000
    9  N  1  Z    0.000000   0.000033   0.000000  -0.000013   0.000000
   10  N  2  S    0.000000  -0.000036   0.000000  -0.000000   0.000000
   11  N  2  S    0.000000  -0.000667   0.000000  -0.000000   0.000000
   12  N  2  X    0.000000  -0.000360   0.000000  -0.000078   0.000000
   13  N  2  Y    0.000000   0.000075   0.000000  -0.000366   0.000000
   14  N  2  Z    0.000000   0.000004   0.000000   0.000005   0.000000
   15  N  2  S    0.000000   0.001474   0.000000   0.000000   0.000000
   16  N  2  X    0.000000  -0.000651   0.000000  -0.000204   0.000000
   17  N  2  Y    0.000000   0.000137   0.000000  -0.000964   0.000000
   18  N  2  Z    0.000000   0.000030   0.000000   0.000013   0.000000
   19  C  3  S   -0.000000   0.497838  -0.000000  -0.498723  -0.000000
   20  C  3  S   -0.000000   0.016219   0.000000  -0.019522  -0.000000
   21  C  3  X    0.000000   0.000707   0.000000   0.000472   0.000000
   22  C  3  Y    0.000000  -0.000317   0.000000   0.000316   0.000000
   23  C  3  Z    0.000000   0.000016   0.000000  -0.000013   0.000000
   24  C  3  S    0.000000  -0.006956   0.000000   0.022762   0.000000
   25  C  3  X    0.000000  -0.001222   0.000000  -0.009839   0.000000
   26  C  3  Y    0.000000  -0.000624   0.000000  -0.002161   0.000000
   27  C  3  Z    0.000000  -0.000012   0.000000   0.000014   0.000000
   28  C  4  S   -0.000000   0.497702  -0.000000   0.498855   0.000000
   29  C  4  S   -0.000000   0.016214   0.000000   0.019526   0.000000
   30  C  4  X    0.000000  -0.000775   0.000000   0.000304   0.000000
   31  C  4  Y    0.000000  -0.000005   0.000000  -0.000479   0.000000
   32  C  4  Z    0.000000   0.000012   0.000000   0.000014   0.000000
   33  C  4  S    0.000000  -0.006952   0.000000  -0.022763  -0.000000
   34  C  4  X    0.000000   0.000868   0.000000  -0.008130   0.000000
   35  C  4  Y    0.000000  -0.001064   0.000000   0.005948   0.000000
   36  C  4  Z    0.000000  -0.000007   0.000000  -0.000057   0.000000
   37  C  5  S   -0.000000   0.497043  -0.000000  -0.496632   0.000000
   38  C  5  S   -0.000000   0.016191   0.000000  -0.019445   0.000000
   39  C  5  X    0.000000  -0.000707   0.000000  -0.000469   0.000000
   40  C  5  Y    0.000000   0.000317   0.000000  -0.000316   0.000000
   41  C  5  Z    0.000000   0.000008   0.000000  -0.000004   0.000000
   42  C  5  S    0.000000  -0.006944   0.000000   0.022698  -0.000000
   43  C  5  X    0.000000   0.001225   0.000000   0.009826   0.000000
   44  C  5  Y    0.000000   0.000625   0.000000   0.002171   0.000000
   45  C  5  Z    0.000000  -0.000029   0.000000  -0.000050   0.000000
   46  C  6  S   -0.000000   0.497194  -0.000000   0.496486  -0.000000
   47  C  6  S   -0.000000   0.016196   0.000000   0.019440  -0.000000
   48  C  6  X    0.000000   0.000775   0.000000  -0.000302   0.000000
   49  C  6  Y    0.000000   0.000005   0.000000   0.000478   0.000000
   50  C  6  Z    0.000000   0.000011   0.000000   0.000002   0.000000
   51  C  6  S    0.000000  -0.006948   0.000000  -0.022696   0.000000
   52  C  6  X    0.000000  -0.000868   0.000000   0.008114   0.000000
   53  C  6  Y    0.000000   0.001066   0.000000  -0.005951   0.000000
   54  C  6  Z    0.000000  -0.000034   0.000000   0.000093   0.000000
[...]
   20             0.001909   0.000000   0.211687   0.000000   0.179114

                     31         32         33         34         35

                  2.000000   2.000000   2.000000   2.000000   2.000000

    1             0.381255   0.000000   0.199792   0.000000   0.693319
    2             0.381263   0.000000   0.199782   0.000000   0.693309
    3             0.309069   0.000000   0.212911   0.000000   0.153097
    4             0.309059   0.000000   0.212894   0.000000   0.153070
    5             0.309031   0.000000   0.212912   0.000000   0.153045
    6             0.309016   0.000000   0.212929   0.000000   0.153023
    7             0.000327   0.000000   0.187181   0.000000   0.000284
    8             0.000327   0.000000   0.187185   0.000000   0.000284
    9             0.000327   0.000000   0.187222   0.000000   0.000284
   10             0.000327   0.000000   0.187191   0.000000   0.000284
   11             0.000000   0.381254   0.000000   0.199792   0.000000
   12             0.000000   0.381263   0.000000   0.199782   0.000000
   13             0.000000   0.309068   0.000000   0.212912   0.000000
   14             0.000000   0.309058   0.000000   0.212895   0.000000
   15             0.000000   0.309032   0.000000   0.212910   0.000000
   16             0.000000   0.309017   0.000000   0.212928   0.000000
   17             0.000000   0.000327   0.000000   0.187183   0.000000
   18             0.000000   0.000327   0.000000   0.187186   0.000000
   19             0.000000   0.000327   0.000000   0.187222   0.000000
   20             0.000000   0.000327   0.000000   0.187190   0.000000

                     36         37         38         39         40

                  2.000000   2.000000   2.000000   2.000000   2.000000

    1             0.000000   0.855153   0.000000   0.000001   0.000000
    2             0.000000   0.855123   0.000000   0.000001   0.000000
    3             0.000000   0.068589   0.000000   0.498631   0.000000
    4             0.000000   0.068590   0.000000   0.498641   0.000000
    5             0.000000   0.068585   0.000000   0.498737   0.000000
    6             0.000000   0.068588   0.000000   0.498745   0.000000
    7             0.000000   0.003847   0.000000   0.001311   0.000000
    8             0.000000   0.003845   0.000000   0.001311   0.000000
    9             0.000000   0.003840   0.000000   0.001311   0.000000
   10             0.000000   0.003840   0.000000   0.001311   0.000000
   11             0.693320   0.000000   0.855152   0.000000   0.000001
   12             0.693309   0.000000   0.855123   0.000000   0.000001
   13             0.153097   0.000000   0.068589   0.000000   0.498631
   14             0.153070   0.000000   0.068590   0.000000   0.498642
   15             0.153045   0.000000   0.068585   0.000000   0.498737
   16             0.153024   0.000000   0.068588   0.000000   0.498744
   17             0.000284   0.000000   0.003847   0.000000   0.001311
   18             0.000284   0.000000   0.003845   0.000000   0.001311
   19             0.000284   0.000000   0.003840   0.000000   0.001311
   20             0.000284   0.000000   0.003840   0.000000   0.001311

                     41         42

                  2.000000   2.000000

    1             0.690293   0.000000
    2             0.690325   0.000000
    3             0.098801   0.000000
    4             0.098805   0.000000
    5             0.098793   0.000000
    6             0.098799   0.000000
    7             0.056055   0.000000
    8             0.056050   0.000000
    9             0.056036   0.000000
   10             0.056043   0.000000
   11             0.000000   0.690294
   12             0.000000   0.690324
   13             0.000000   0.098801
   14             0.000000   0.098805
   15             0.000000   0.098793
   16             0.000000   0.098799
   17             0.000000   0.056055
   18             0.000000   0.056050
   19             0.000000   0.056036
   20             0.000000   0.056042

               ----- POPULATIONS IN EACH AO -----
                             MULLIKEN      LOWDIN
              1  N  1  S      1.99769     1.99274
              2  N  1  S      0.82263     0.74890
              3  N  1  X      0.98303     0.94929
              4  N  1  Y      0.79501     0.73713
              5  N  1  Z      0.62547     0.57571
              6  N  1  S      0.95910     0.57576
              7  N  1  X      0.51963     0.63545
              8  N  1  Y      0.19312     0.41237
              9  N  1  Z      0.44898     0.49576
             10  N  2  S      1.99769     1.99274
             11  N  2  S      0.82262     0.74890
             12  N  2  X      0.98304     0.94929
             13  N  2  Y      0.79504     0.73717
             14  N  2  Z      0.62543     0.57567
             15  N  2  S      0.95913     0.57576
             16  N  2  X      0.51963     0.63544
             17  N  2  Y      0.19314     0.41240
             18  N  2  Z      0.44897     0.49574
             19  C  3  S      1.99643     1.98703
             20  C  3  S      0.71486     0.55309
             21  C  3  X      0.77445     0.69506
             22  C  3  Y      0.74072     0.66970
             23  C  3  Z      0.56324     0.51450
             24  C  3  S      0.42487     0.39434
             25  C  3  X      0.20315     0.38836
             26  C  3  Y      0.12181     0.36180
             27  C  3  Z      0.39756     0.44301
             28  C  4  S      1.99643     1.98703
             29  C  4  S      0.71487     0.55310
             30  C  4  X      0.75775     0.69515
             31  C  4  Y      0.75742     0.66960
             32  C  4  Z      0.56324     0.51449
             33  C  4  S      0.42480     0.39434
             34  C  4  X      0.14659     0.36412
             35  C  4  Y      0.17820     0.38601
             36  C  4  Z      0.39755     0.44300
             37  C  5  S      1.99643     1.98703
             38  C  5  S      0.71485     0.55309
             39  C  5  X      0.77446     0.69506
             40  C  5  Y      0.74073     0.66971
             41  C  5  Z      0.56321     0.51447
             42  C  5  S      0.42487     0.39434
             43  C  5  X      0.20313     0.38836
             44  C  5  Y      0.12167     0.36178
             45  C  5  Z      0.39771     0.44304
             46  C  6  S      1.99643     1.98703
             47  C  6  S      0.71487     0.55310
             48  C  6  X      0.75775     0.69515
             49  C  6  Y      0.75742     0.66961
             50  C  6  Z      0.56322     0.51447
             51  C  6  S      0.42483     0.39434
             52  C  6  X      0.14658     0.36412
             53  C  6  Y      0.17812     0.38600
             54  C  6  Z      0.39768     0.44303
             55  H  7  S      0.54105     0.51595
             56  H  7  S      0.33692     0.37445
             57  H  7  X      0.00558     0.01721
             58  H  7  Y      0.00519     0.01712
             59  H  7  Z      0.00192     0.00686
             60  H  8  S      0.54106     0.51596
             61  H  8  S      0.33694     0.37445
             62  H  8  X      0.00213     0.00724
             63  H  8  Y      0.00865     0.02709
             64  H  8  Z      0.00192     0.00686
             65  H  9  S      0.54106     0.51595
             66  H  9  S      0.33694     0.37445
             67  H  9  X      0.00213     0.00724
             68  H  9  Y      0.00864     0.02709
             69  H  9  Z      0.00193     0.00686
             70  H 10  S      0.54105     0.51594
             71  H 10  S      0.33692     0.37444
             72  H 10  X      0.00558     0.01721
             73  H 10  Y      0.00519     0.01712
             74  H 10  Z      0.00192     0.00686
             75  N 11  S      1.99769     1.99274
             76  N 11  S      0.82263     0.74890
             77  N 11  X      0.98303     0.94929
             78  N 11  Y      0.79501     0.73713
             79  N 11  Z      0.62547     0.57571
             80  N 11  S      0.95910     0.57576
             81  N 11  X      0.51963     0.63545
             82  N 11  Y      0.19312     0.41237
             83  N 11  Z      0.44898     0.49576
             84  N 12  S      1.99769     1.99274
             85  N 12  S      0.82262     0.74890
             86  N 12  X      0.98304     0.94929
             87  N 12  Y      0.79504     0.73717
             88  N 12  Z      0.62543     0.57567
             89  N 12  S      0.95913     0.57576
             90  N 12  X      0.51963     0.63544
             91  N 12  Y      0.19314     0.41240
             92  N 12  Z      0.44897     0.49574
             93  C 13  S      1.99643     1.98703
             94  C 13  S      0.71486     0.55309
             95  C 13  X      0.77445     0.69506
             96  C 13  Y      0.74072     0.66970
             97  C 13  Z      0.56324     0.51450
             98  C 13  S      0.42487     0.39434
             99  C 13  X      0.20315     0.38836
            100  C 13  Y      0.12181     0.36180
            101  C 13  Z      0.39756     0.44301
            102  C 14  S      1.99643     1.98703
            103  C 14  S      0.71487     0.55310
            104  C 14  X      0.75775     0.69515
            105  C 14  Y      0.75742     0.66960
            106  C 14  Z      0.56324     0.51449
            107  C 14  S      0.42480     0.39434
            108  C 14  X      0.14659     0.36412
            109  C 14  Y      0.17820     0.38601
            110  C 14  Z      0.39755     0.44300
            111  C 15  S      1.99643     1.98703
            112  C 15  S      0.71485     0.55309
            113  C 15  X      0.77446     0.69506
            114  C 15  Y      0.74073     0.66971
            115  C 15  Z      0.56321     0.51447
            116  C 15  S      0.42487     0.39434
            117  C 15  X      0.20313     0.38836
            118  C 15  Y      0.12167     0.36178
            119  C 15  Z      0.39771     0.44304
            120  C 16  S      1.99643     1.98703
            121  C 16  S      0.71487     0.55310
            122  C 16  X      0.75775     0.69515
            123  C 16  Y      0.75742     0.66961
            124  C 16  Z      0.56322     0.51447
            125  C 16  S      0.42483     0.39434
            126  C 16  X      0.14658     0.36412
            127  C 16  Y      0.17812     0.38600
            128  C 16  Z      0.39768     0.44303
            129  H 17  S      0.54105     0.51595
            130  H 17  S      0.33692     0.37445
            131  H 17  X      0.00558     0.01721
            132  H 17  Y      0.00519     0.01712
            133  H 17  Z      0.00192     0.00686
            134  H 18  S      0.54106     0.51596
            135  H 18  S      0.33694     0.37445
            136  H 18  X      0.00213     0.00724
            137  H 18  Y      0.00865     0.02709
            138  H 18  Z      0.00192     0.00686
            139  H 19  S      0.54106     0.51595
            140  H 19  S      0.33695     0.37445
            141  H 19  X      0.00213     0.00724
            142  H 19  Y      0.00864     0.02709
            143  H 19  Z      0.00193     0.00686
            144  H 20  S      0.54105     0.51594
            145  H 20  S      0.33692     0.37445
            146  H 20  X      0.00558     0.01721
            147  H 20  Y      0.00519     0.01712
            148  H 20  Z      0.00192     0.00686

          ----- MULLIKEN ATOMIC OVERLAP POPULATIONS -----
          (OFF-DIAGONAL ELEMENTS NEED TO BE MULTIPLIED BY 2)

             1           2           3           4           5

    1    6.7211221
    2   -0.0249889   6.7211916
    3    0.4395318  -0.0671119   4.9996603
    4   -0.0671036   0.4395059   0.3638500   4.9994445
    5   -0.0671170   0.4395054  -0.0423267  -0.0775145   4.9996240
    6    0.4395151  -0.0670999  -0.0775138  -0.0423242   0.3638819
    7   -0.0522300   0.0040798   0.3706655  -0.0560596  -0.0003204
    8    0.0040793  -0.0522402  -0.0560586   0.3706675   0.0067172
    9   -0.0522363   0.0040791   0.0067162  -0.0003206  -0.0560542
   10    0.0040792  -0.0522271  -0.0003204   0.0067146   0.3706693
   11    0.0000000   0.0000000   0.0000000   0.0000000   0.0000000
   12    0.0000000   0.0000000   0.0000000   0.0000000   0.0000000
   13    0.0000000   0.0000000   0.0000000   0.0000000   0.0000000
   14    0.0000000   0.0000000   0.0000000   0.0000000   0.0000000
   15    0.0000000   0.0000000   0.0000000   0.0000000   0.0000000
   16    0.0000000   0.0000000   0.0000000   0.0000000   0.0000000
   17    0.0000000   0.0000000   0.0000000   0.0000000   0.0000000
   18    0.0000000   0.0000000   0.0000000   0.0000000   0.0000000
   19    0.0000000   0.0000000   0.0000000   0.0000000   0.0000000
   20    0.0000000   0.0000000   0.0000000   0.0000000   0.0000000

             6           7           8           9          10

    6    4.9994364
    7    0.0067151   0.6161845
    8   -0.0003206   0.0015969   0.6162304
    9    0.3706708  -0.0000054   0.0000392   0.6162150
   10   -0.0560561   0.0000392  -0.0000054   0.0015958   0.6161731
   11    0.0000000   0.0000000   0.0000000   0.0000000   0.0000000
   12    0.0000000   0.0000000   0.0000000   0.0000000   0.0000000
   13    0.0000000   0.0000000   0.0000000   0.0000000   0.0000000
   14    0.0000000   0.0000000   0.0000000   0.0000000   0.0000000
   15    0.0000000   0.0000000   0.0000000   0.0000000   0.0000000
   16    0.0000000   0.0000000   0.0000000   0.0000000   0.0000000
   17    0.0000000   0.0000000   0.0000000   0.0000000   0.0000000
   18    0.0000000   0.0000000   0.0000000   0.0000000   0.0000000
   19    0.0000000   0.0000000   0.0000000   0.0000000   0.0000000
   20    0.0000000   0.0000000   0.0000000   0.0000000   0.0000000

            11          12          13          14          15

   11    6.7211220
   12   -0.0249889   6.7211918
   13    0.4395319  -0.0671118   4.9996574
   14   -0.0671035   0.4395060   0.3638511   4.9994417
   15   -0.0671170   0.4395057  -0.0423265  -0.0775146   4.9996230
   16    0.4395155  -0.0670999  -0.0775139  -0.0423241   0.3638822
   17   -0.0522299   0.0040798   0.3706656  -0.0560594  -0.0003204
   18    0.0040793  -0.0522402  -0.0560584   0.3706675   0.0067171
   19   -0.0522364   0.0040791   0.0067162  -0.0003206  -0.0560545
   20    0.0040792  -0.0522273  -0.0003204   0.0067146   0.3706689

            16          17          18          19          20

   16    4.9994353
   17    0.0067151   0.6161838
   18   -0.0003206   0.0015969   0.6162299
   19    0.3706704  -0.0000054   0.0000392   0.6162177
   20   -0.0560564   0.0000392  -0.0000054   0.0015958   0.6161760

          TOTAL MULLIKEN AND LOWDIN ATOMIC POPULATIONS
       ATOM         MULL.POP.    CHARGE          LOW.POP.     CHARGE
    1 NITROGEN      7.344652   -0.344652         7.123103   -0.123103
    2 NITROGEN      7.344694   -0.344694         7.123106   -0.123106
    3 CARBON        5.937092    0.062908         6.006884   -0.006884
    4 CARBON        5.936860    0.063140         6.006838   -0.006838
    5 CARBON        5.937065    0.062935         6.006881   -0.006881
    6 CARBON        5.936905    0.063095         6.006840   -0.006840
    7 HYDROGEN      0.890665    0.109335         0.931585    0.068415
    8 HYDROGEN      0.890705    0.109295         0.931595    0.068405
    9 HYDROGEN      0.890700    0.109300         0.931589    0.068411
   10 HYDROGEN      0.890662    0.109338         0.931579    0.068421
   11 NITROGEN      7.344652   -0.344652         7.123103   -0.123103
   12 NITROGEN      7.344694   -0.344694         7.123106   -0.123106
   13 CARBON        5.937091    0.062909         6.006883   -0.006883
   14 CARBON        5.936859    0.063141         6.006837   -0.006837
   15 CARBON        5.937064    0.062936         6.006881   -0.006881
   16 CARBON        5.936904    0.063096         6.006840   -0.006840
   17 HYDROGEN      0.890665    0.109335         0.931584    0.068416
   18 HYDROGEN      0.890705    0.109295         0.931595    0.068405
   19 HYDROGEN      0.890701    0.109299         0.931590    0.068410
   20 HYDROGEN      0.890664    0.109336         0.931580    0.068420

          -------------------------------
          BOND ORDER AND VALENCE ANALYSIS     BOND ORDER THRESHOLD=0.050
          -------------------------------

                   BOND                       BOND                       BOND
  ATOM PAIR DIST  ORDER      ATOM PAIR DIST  ORDER      ATOM PAIR DIST  ORDER
    1   2  2.834  0.095        1   3  1.347  1.388        1   6  1.347  1.388
    2   4  1.347  1.388        2   5  1.347  1.388        3   4  1.398  1.355
    3   5  2.674  0.115        3   7  1.088  0.941        4   6  2.674  0.115
    4   8  1.088  0.941        5   6  1.398  1.355        5  10  1.088  0.941
    6   9  1.088  0.941       11  12  2.834  0.095       11  13  1.347  1.388
   11  16  1.347  1.388       12  14  1.347  1.388       12  15  1.347  1.388
   13  14  1.398  1.355       13  15  2.674  0.115       13  17  1.088  0.941
   14  16  2.674  0.115       14  18  1.088  0.941       15  16  1.398  1.355
   15  20  1.088  0.941       16  19  1.088  0.941

                       TOTAL       BONDED        FREE
      ATOM            VALENCE     VALENCE     VALENCE
    1 NITROGEN          2.868       2.868      -0.000
    2 NITROGEN          2.868       2.868      -0.000
    3 CARBON            3.791       3.791       0.000
    4 CARBON            3.791       3.791      -0.000
    5 CARBON            3.791       3.791       0.000
    6 CARBON            3.792       3.792       0.000
    7 HYDROGEN          0.953       0.953      -0.000
    8 HYDROGEN          0.953       0.953      -0.000
    9 HYDROGEN          0.953       0.953      -0.000
   10 HYDROGEN          0.953       0.953      -0.000
   11 NITROGEN          2.868       2.868      -0.000
   12 NITROGEN          2.868       2.868      -0.000
   13 CARBON            3.791       3.791      -0.000
   14 CARBON            3.791       3.791       0.000
   15 CARBON            3.791       3.791       0.000
   16 CARBON            3.792       3.792       0.000
   17 HYDROGEN          0.953       0.953      -0.000
   18 HYDROGEN          0.953       0.953      -0.000
   19 HYDROGEN          0.953       0.953      -0.000
   20 HYDROGEN          0.953       0.953      -0.000

          ---------------------
          ELECTROSTATIC MOMENTS
          ---------------------

 POINT   1           X           Y           Z (BOHR)    CHARGE
                 0.000001   -0.000003   18.897262        0.00 (A.U.)
         DX          DY          DZ         /D/  (DEBYE)
    -0.000044   -0.001028   -0.079253    0.079260
 ...... END OF PROPERTY EVALUATION ......
 STEP CPU TIME =     0.02 TOTAL CPU TIME =       80.5 (    1.3 MIN)
 TOTAL WALL CLOCK TIME=       80.6 SECONDS, CPU UTILIZATION IS  99.96%
               867640  WORDS OF DYNAMIC MEMORY USED
 EXECUTION OF GAMESS TERMINATED NORMALLY Fri Jun  2 02:04:18 2017
 DDI: 263640 bytes (0.3 MB / 0 MWords) used by master data server.

 ----------------------------------------
 CPU timing information for all processes
 ========================================
 0: 80.517 + 0.25 = 80.543
 ----------------------------------------
 ddikick.x: exited gracefully.
unset echo
----- accounting info -----
Files used on the master node compute-0-1.local were:
-rw-rw-r-- 1 sarom sarom    2083 Jun  2 02:02 /scratch/omp-exam06.F05
-rw-rw-r-- 1 sarom sarom 2944800 Jun  2 02:04 /scratch/omp-exam06.F10
rm: cannot remove `/scratch/sarom': Is a directory
rm: cannot remove `/scratch/tmp': Is a directory
ls: No match.
ls: No match.
ls: No match.
Fri Jun  2 02:04:21 CDT 2017
0.247u 0.136s 1:24.04 0.4%	0+0k 8+360io 0pf+0w
/opt/gridengine/default/spool/compute-0-1/active_jobs/23666.1/pe_hostfile compute-0-1.local
