-catch_rsh /opt/gridengine/default/spool/compute-0-7/active_jobs/23667.1/pe_hostfile
compute-0-7
The primary node assigned by SGE to this run is compute-0-7
Warning: no access to tty (Bad file descriptor).
Thus no job control in this shell.
Deleting shmid=2523136.
Deleting shmid=2555905.
Deleting shmid=2785282.
source /home/sarom/gamess.github.2017-05-31.14.06/install.info
setenv GMS_PATH /home/sarom/gamess.github.2017-05-31.14.06
setenv GMS_BUILD_DIR /home/sarom/gamess.github.2017-05-31.14.06
setenv GMS_TARGET linux64
setenv GMS_FORTRAN gfortran
setenv GMS_GFORTRAN_VERNO 4.4
setenv GMS_MATHLIB mkl-so
setenv GMS_MATHLIB_PATH /share/apps/intel/compilers_and_libraries_2017.1.132/linux/mkl/lib/intel64
setenv GMS_MKL_VERNO 12
setenv GMS_DDI_COMM sockets
setenv GMS_LIBCCHEM false
setenv GMS_EIGEN_PATH
setenv GMS_PHI false
setenv GMS_SHMTYPE sysv
setenv GMS_OPENMP false
unset echo
omp-exam07
tests/openmp_mod
----- GAMESS execution script 'rungms' -----
This job is running on host compute-0-7.local
under operating system Linux at Fri Jun 2 02:03:27 CDT 2017
Available scratch disk space (Kbyte units) at beginning of the job is
Filesystem           1K-blocks      Used Available Use% Mounted on
/dev/sda1             16126920   3867340  11440380  26% /
GAMESS temporary binary files will be written to /scratch
GAMESS supplementary output files will be written to /home/sarom/restart
Copying input file omp-exam07.inp to your run's scratch directory...
cp tests/openmp_mod/omp-exam07.inp /scratch/omp-exam07.F05
unset echo
The generated host list is
compute-0-7.local
/home/sarom/gamess.github.2017-05-31.14.06/ddikick.x /home/sarom/gamess.github.2017-05-31.14.06/gamess.00.x omp-exam07 -ddi 1 1 compute-0-7.local -scr /scratch

 Distributed Data Interface kickoff program.
 Initiating 1 compute processes on 1 nodes to run the following command:
 /home/sarom/gamess.github.2017-05-31.14.06/gamess.00.x omp-exam07 

          ******************************************************
          *         GAMESS VERSION = 20 APR 2017 (R1)          *
          *             FROM IOWA STATE UNIVERSITY             *
          * M.W.SCHMIDT, K.K.BALDRIDGE, J.A.BOATZ, S.T.ELBERT, *
          *   M.S.GORDON, J.H.JENSEN, S.KOSEKI, N.MATSUNAGA,   *
          *          K.A.NGUYEN, S.J.SU, T.L.WINDUS,           *
          *       TOGETHER WITH M.DUPUIS, J.A.MONTGOMERY       *
          *         J.COMPUT.CHEM.  14, 1347-1363(1993)        *
          **************** 64 BIT LINUX VERSION ****************

  SINCE 1993, STUDENTS AND POSTDOCS WORKING AT IOWA STATE UNIVERSITY
  AND ALSO IN THEIR VARIOUS JOBS AFTER LEAVING ISU HAVE MADE IMPORTANT
  CONTRIBUTIONS TO THE CODE:
     IVANA ADAMOVIC, CHRISTINE AIKENS, YURI ALEXEEV, POOJA ARORA,
     ANDREY ASADCHEV, ROB BELL, PRADIPTA BANDYOPADHYAY, JONATHAN BENTZ,
     BRETT BODE, KURT BRORSEN, CALEB CARLIN, GALINA CHABAN, WEI CHEN,
     CHEOL HO CHOI, PAUL DAY, ALBERT DEFUSCO, NUWAN DESILVA, TIM DUDLEY,
     DMITRI FEDOROV, GRAHAM FLETCHER, MARK FREITAG, KURT GLAESEMANN,
     DAN KEMP, GRANT MERRILL, NORIYUKI MINEZAWA, JONATHAN MULLIN,
     TAKESHI NAGATA, SEAN NEDD, HEATHER NETZLOFF, BOSILJKA NJEGIC, RYAN OLSON,
     MIKE PAK, SPENCER PRUITT, LUKE ROSKOP, JIM SHOEMAKER, LYUDMILA SLIPCHENKO,
     TONY SMITH, SAROM SOK LEANG, JIE SONG, TETSUYA TAKETSUGU, SIMON WEBB,
     PENG XU, SOOHAENG YOO, FEDERICO ZAHARIEV

  ADDITIONAL CODE HAS BEEN PROVIDED BY COLLABORATORS IN OTHER GROUPS:
     IOWA STATE UNIVERSITY:
          JOE IVANIC, AARON WEST, LAIMUTIS BYTAUTAS, KLAUS RUEDENBERG
     UNIVERSITY OF TOKYO: KIMIHIKO HIRAO, TAKAHITO NAKAJIMA,
          TAKAO TSUNEDA, MUNEAKI KAMIYA, SUSUMU YANAGISAWA,
          KIYOSHI YAGI, MAHITO CHIBA, SEIKEN TOKURA, NAOAKI KAWAKAMI
     UNIVERSITY OF AARHUS: FRANK JENSEN
     UNIVERSITY OF IOWA: VISVALDAS KAIRYS, HUI LI
     NATIONAL INST. OF STANDARDS AND TECHNOLOGY: WALT STEVENS, DAVID GARMER
     UNIVERSITY OF PISA: BENEDETTA MENNUCCI, JACOPO TOMASI
     UNIVERSITY OF MEMPHIS: HENRY KURTZ, PRAKASHAN KORAMBATH
     UNIVERSITY OF ALBERTA: TOBY ZENG, MARIUSZ KLOBUKOWSKI
     UNIVERSITY OF NEW ENGLAND: MARK SPACKMAN
     MIE UNIVERSITY: HIROAKI UMEDA
     NAT. INST. OF ADVANCED INDUSTRIAL SCIENCE AND TECHNOLOGY: KAZUO KITAURA
     MICHIGAN STATE UNIVERSITY:
          KAROL KOWALSKI, MARTA WLOCH, JEFFREY GOUR, JESSE LUTZ,
          WEI LI, PIOTR PIECUCH
     UNIVERSITY OF SILESIA: MONIKA MUSIAL, STANISLAW KUCHARSKI
     FACULTES UNIVERSITAIRES NOTRE-DAME DE LA PAIX:
          OLIVIER QUINET, BENOIT CHAMPAGNE
     UNIVERSITY OF CALIFORNIA - SANTA BARBARA: BERNARD KIRTMAN
     INSTITUTE FOR MOLECULAR SCIENCE:
          KAZUYA ISHIMURA, MICHIO KATOUDA, AND SHIGERU NAGASE
     UNIVERSITY OF NOTRE DAME: ANNA POMOGAEVA, DAN CHIPMAN
     KYUSHU UNIVERSITY:
          HARUYUKI NAKANO,
          FENG LONG GU, JACEK KORCHOWIEC, MARCIN MAKOWSKI, AND YURIKO AOKI,
          HIROTOSHI MORI AND EISAKU MIYOSHI
     PENNSYLVANIA STATE UNIVERSITY:
          TZVETELIN IORDANOV, CHET SWALINA, JONATHAN SKONE,
          SHARON HAMMES-SCHIFFER
     WASEDA UNIVERSITY:
          MASATO KOBAYASHI, TOMOKO AKAMA, TSUGUKI TOUMA,
          TAKESHI YOSHIKAWA, YASUHIRO IKABATA, JUNJI SEINO,
          YUYA NAKAJIMA, HIROMI NAKAI
     NANJING UNIVERSITY: SHUHUA LI
     UNIVERSITY OF NEBRASKA:
          PEIFENG SU, DEJUN SI, NANDUN THELLAMUREGE, YALI WANG, HUI LI
     UNIVERSITY OF ZURICH: ROBERTO PEVERATI, KIM BALDRIDGE
     N. COPERNICUS UNIVERSITY AND JACKSON STATE UNIVERSITY:
          MARIA BARYSZ
     UNIVERSITY OF COPENHAGEN: Jimmy Kromann, CASPER STEINMANN
     TOKYO INSTITUTE OF TECHNOLOGY: HIROYA NAKATA
     NAGOYA UNIVERSITY: YOSHIO NISHIMOTO, STEPHAN IRLE
     MOSCOW STATE UNIVERSITY: VLADIMIR MIRONOV

 EXECUTION OF GAMESS BEGUN Fri Jun  2 02:03:27 2017

            ECHO OF THE FIRST FEW INPUT CARDS -
 INPUT CARD>!                                                                               
 INPUT CARD>! 7-phe_udft_6-31Gp.inp                                                         
 INPUT CARD>! Phenoxyl radical.                                                             
 INPUT CARD>! Hybrid density functional test. Open shell system.                            
 INPUT CARD>!                                                                               
 INPUT CARD>! Method: U-B3LYP/6-31G*                                                        
 INPUT CARD>! Final energy: -306.5518909681 a.u.                                            
 INPUT CARD>!                                                                               
 INPUT CARD> $CONTRL                                                                        
 INPUT CARD>  SCFTYP=uhf                                                                    
 INPUT CARD>  dfttyp=b3lyp                                                                  
 INPUT CARD>  RUNTYP=Energy                                                                 
 INPUT CARD>  icharg=0 mult=2                                                               
 INPUT CARD>  maxit=50 nprint=4                                                             
 INPUT CARD> $END                                                                           
 INPUT CARD> $SYSTEM TIMLIM=50 MEMORY=10000000 $END                                         
 INPUT CARD> $SCF    DIRSCF=.TRUE. CONV=1.0d-7 FDIFF=.false. $END                           
 INPUT CARD> $BASIS  GBASIS=n31 NGAUSS=6 npfunc=1 $END                                      
 INPUT CARD> $GUESS  GUESS=HUCKEL $END                                                      
 INPUT CARD> $DATA                                                                          
 INPUT CARD>Phenoxyl radical                                                                
 INPUT CARD>C1                                                                              
 INPUT CARD>OXYGEN      8.0      2.324589265         0.001016808         0.000000000        
 INPUT CARD>CARBON      6.0      0.930554120        -0.042879207         0.000000000        
 INPUT CARD>CARBON      6.0      0.281456628         1.187225928         0.000000000        
 INPUT CARD>CARBON      6.0      0.214161493        -1.236231202         0.000000000        
 INPUT CARD>CARBON      6.0     -1.110074072         1.226198616         0.000000000        
 INPUT CARD>HYDROGEN    1.0      0.872731932         2.094726696         0.000000000        
 INPUT CARD>CARBON      6.0     -1.177674673        -1.182304315         0.000000000        
 INPUT CARD>HYDROGEN    1.0      0.731762980        -2.184436924         0.000000000        
 INPUT CARD>CARBON      6.0     -1.843560426         0.041753657         0.000000000        
 INPUT CARD>HYDROGEN    1.0     -1.618415287         2.183547412         0.000000000        
 INPUT CARD>HYDROGEN    1.0     -1.742556792        -2.107485034         0.000000000        
 INPUT CARD>HYDROGEN    1.0     -2.926828871         0.071767587         0.000000000        
 INPUT CARD> $END                                                                           
   10000000 WORDS OF MEMORY AVAILABLE

     BASIS OPTIONS
     -------------
     GBASIS=N31          IGAUSS=       6      POLAR=POPN31  
     NDFUNC=       0     NFFUNC=       0     DIFFSP=       F
     NPFUNC=       1      DIFFS=       F     BASNAM=        


     RUN TITLE
     ---------
 Phenoxyl radical                                                                

 THE POINT GROUP OF THE MOLECULE IS C1      
 THE ORDER OF THE PRINCIPAL AXIS IS     0

 ATOM      ATOMIC                      COORDINATES (BOHR)
           CHARGE         X                   Y                   Z
 OXYGEN      8.0     4.3928367448        0.0019214885        0.0000000000
 CARBON      6.0     1.7584923035       -0.0810299518        0.0000000000
 CARBON      6.0     0.5318759043        2.2435316894        0.0000000000
 CARBON      6.0     0.4047065389       -2.3361382293        0.0000000000
 CARBON      6.0    -2.0977358222        2.3171793908        0.0000000000
 HYDROGEN    1.0     1.6492242122        3.9584594746        0.0000000000
 CARBON      6.0    -2.2254824346       -2.2342311895        0.0000000000
 HYDROGEN    1.0     1.3828315202       -4.1279872238        0.0000000000
 CARBON      6.0    -3.4838240469        0.0789029707        0.0000000000
 HYDROGEN    1.0    -3.0583614268        4.1263062899        0.0000000000
 HYDROGEN    1.0    -3.2929548549       -3.9825692375        0.0000000000
 HYDROGEN    1.0    -5.5309045791        0.1356210742        0.0000000000

          INTERNUCLEAR DISTANCES (ANGS.)
          ------------------------------

                1 OXYG       2 CARB       3 CARB       4 CARB       5 CARB  

   1 OXYG    0.0000000    1.3947261 *  2.3625163 *  2.4463622 *  3.6466399  
   2 CARB    1.3947261 *  0.0000000    1.3908581 *  1.3918719 *  2.4030651 *
   3 CARB    2.3625163 *  1.3908581 *  0.0000000    2.4243913 *  1.3920763 *
   4 CARB    2.4463622 *  1.3918719 *  2.4243913 *  0.0000000    2.7959185 *
   5 CARB    3.6466399    2.4030651 *  1.3920763 *  2.7959185 *  0.0000000  
   6 HYDR    2.5478443 *  2.1383878 *  1.0831270 *  3.3954375    2.1646849 *
   7 CARB    3.6967691    2.3964387 *  2.7827572 *  1.3928805 *  2.4094514 *
   8 HYDR    2.7043120 *  2.1507644 *  3.4016005    1.0802802 *  3.8761835  
   9 CARB    4.1683488    2.7754052 *  2.4140845 *  2.4222850 *  1.3931662 *
  10 HYDR    4.5067421    3.3844084    2.1452668 *  3.8798484    1.0839407 *
  11 HYDR    4.5812069    3.3775907    3.8667494    2.1419220 *  3.3931521  
  12 HYDR    5.2518947    3.8590863    3.3966665    3.4024522    2.1525123 *

                6 HYDR       7 CARB       8 HYDR       9 CARB      10 HYDR  

   1 OXYG    2.5478443 *  3.6967691    2.7043120 *  4.1683488    4.5067421  
   2 CARB    2.1383878 *  2.3964387 *  2.1507644 *  2.7754052 *  3.3844084  
   3 CARB    1.0831270 *  2.7827572 *  3.4016005    2.4140845 *  2.1452668 *
   4 CARB    3.3954375    1.3928805 *  1.0802802 *  2.4222850 *  3.8798484  
   5 CARB    2.1646849 *  2.4094514 *  3.8761835    1.3931662 *  1.0839407 *
   6 HYDR    0.0000000    3.8656305    4.2814850    3.4048410    2.4927301 *
   7 CARB    3.8656305    0.0000000    2.1564373 *  1.3934568 *  3.3945854  
   8 HYDR    4.2814850    2.1564373 *  0.0000000    3.4041468    4.9601033  
   9 CARB    3.4048410    1.3934568 *  3.4041468    0.0000000    2.1535949 *
  10 HYDR    2.4927301 *  3.3945854    4.9601033    2.1535949 *  0.0000000  
  11 HYDR    4.9495776    1.0839978 *  2.4755161 *  2.1516107 *  4.2928278  
  12 HYDR    4.3045355    2.1522632 *  4.2983431    1.0836842 *  2.4842625 *

               11 HYDR      12 HYDR  

   1 OXYG    4.5812069    5.2518947  
   2 CARB    3.3775907    3.8590863  
   3 CARB    3.8667494    3.3966665  
   4 CARB    2.1419220 *  3.4024522  
   5 CARB    3.3931521    2.1525123 *
   6 HYDR    4.9495776    4.3045355  
   7 CARB    1.0839978 *  2.1522632 *
   8 HYDR    2.4755161 *  4.2983431  
   9 CARB    2.1516107 *  1.0836842 *
  10 HYDR    4.2928278    2.4842625 *
  11 HYDR    0.0000000    2.4802505 *
  12 HYDR    2.4802505 *  0.0000000  

  * ... LESS THAN  3.000


     ATOMIC BASIS SET
     ----------------
 THE CONTRACTED PRIMITIVE FUNCTIONS HAVE BEEN UNNORMALIZED
 THE CONTRACTED BASIS FUNCTIONS ARE NOW NORMALIZED TO UNITY

  SHELL TYPE  PRIMITIVE        EXPONENT          CONTRACTION COEFFICIENT(S)

 OXYGEN    

      1   S       1          5484.6716600    0.001831074430
      1   S       2           825.2349460    0.013950172200
      1   S       3           188.0469580    0.068445078098
      1   S       4            52.9645000    0.232714335992
      1   S       5            16.8975704    0.470192897984
      1   S       6             5.7996353    0.358520852987

      2   L       7            15.5396162   -0.110777549525    0.070874268231
      2   L       8             3.5999336   -0.148026262701    0.339752839147
      2   L       9             1.0137618    1.130767015354    0.727158577316

      3   L      10             0.2700058    1.000000000000    1.000000000000

 CARBON    

      4   S      11          3047.5248800    0.001834737132
      4   S      12           457.3695180    0.014037322813
      4   S      13           103.9486850    0.068842622264
      4   S      14            29.2101553    0.232184443216
      4   S      15             9.2866630    0.467941348435
      4   S      16             3.1639270    0.362311985337

      5   L      17             7.8682723   -0.119332419775    0.068999066591
      5   L      18             1.8812885   -0.160854151696    0.316423960957
      5   L      19             0.5442493    1.143456437840    0.744308290898

      6   L      20             0.1687145    1.000000000000    1.000000000000

 CARBON    

      7   S      21          3047.5248800    0.001834737132
      7   S      22           457.3695180    0.014037322813
      7   S      23           103.9486850    0.068842622264
      7   S      24            29.2101553    0.232184443216
      7   S      25             9.2866630    0.467941348435
      7   S      26             3.1639270    0.362311985337

      8   L      27             7.8682723   -0.119332419775    0.068999066591
      8   L      28             1.8812885   -0.160854151696    0.316423960957
      8   L      29             0.5442493    1.143456437840    0.744308290898

      9   L      30             0.1687145    1.000000000000    1.000000000000

 CARBON    

     10   S      31          3047.5248800    0.001834737132
     10   S      32           457.3695180    0.014037322813
     10   S      33           103.9486850    0.068842622264
     10   S      34            29.2101553    0.232184443216
     10   S      35             9.2866630    0.467941348435
     10   S      36             3.1639270    0.362311985337

     11   L      37             7.8682723   -0.119332419775    0.068999066591
     11   L      38             1.8812885   -0.160854151696    0.316423960957
     11   L      39             0.5442493    1.143456437840    0.744308290898

     12   L      40             0.1687145    1.000000000000    1.000000000000

 CARBON    

     13   S      41          3047.5248800    0.001834737132
     13   S      42           457.3695180    0.014037322813
     13   S      43           103.9486850    0.068842622264
     13   S      44            29.2101553    0.232184443216
     13   S      45             9.2866630    0.467941348435
     13   S      46             3.1639270    0.362311985337

     14   L      47             7.8682723   -0.119332419775    0.068999066591
     14   L      48             1.8812885   -0.160854151696    0.316423960957
     14   L      49             0.5442493    1.143456437840    0.744308290898

     15   L      50             0.1687145    1.000000000000    1.000000000000

 HYDROGEN  

     16   S      51            18.7311370    0.033494604338
     16   S      52             2.8253944    0.234726953484
     16   S      53             0.6401217    0.813757326146

     17   S      54             0.1612778    1.000000000000

     18   P      55             1.1000000    1.000000000000

 CARBON    

     19   S      56          3047.5248800    0.001834737132
     19   S      57           457.3695180    0.014037322813
     19   S      58           103.9486850    0.068842622264
     19   S      59            29.2101553    0.232184443216
     19   S      60             9.2866630    0.467941348435
     19   S      61             3.1639270    0.362311985337

     20   L      62             7.8682723   -0.119332419775    0.068999066591
     20   L      63             1.8812885   -0.160854151696    0.316423960957
     20   L      64             0.5442493    1.143456437840    0.744308290898

     21   L      65             0.1687145    1.000000000000    1.000000000000

 HYDROGEN  

     22   S      66            18.7311370    0.033494604338
     22   S      67             2.8253944    0.234726953484
     22   S      68             0.6401217    0.813757326146

     23   S      69             0.1612778    1.000000000000

     24   P      70             1.1000000    1.000000000000

 CARBON    

     25   S      71          3047.5248800    0.001834737132
     25   S      72           457.3695180    0.014037322813
     25   S      73           103.9486850    0.068842622264
     25   S      74            29.2101553    0.232184443216
     25   S      75             9.2866630    0.467941348435
     25   S      76             3.1639270    0.362311985337

     26   L      77             7.8682723   -0.119332419775    0.068999066591
     26   L      78             1.8812885   -0.160854151696    0.316423960957
     26   L      79             0.5442493    1.143456437840    0.744308290898

     27   L      80             0.1687145    1.000000000000    1.000000000000

 HYDROGEN  

     28   S      81            18.7311370    0.033494604338
     28   S      82             2.8253944    0.234726953484
     28   S      83             0.6401217    0.813757326146

     29   S      84             0.1612778    1.000000000000

     30   P      85             1.1000000    1.000000000000

 HYDROGEN  

     31   S      86            18.7311370    0.033494604338
     31   S      87             2.8253944    0.234726953484
     31   S      88             0.6401217    0.813757326146

     32   S      89             0.1612778    1.000000000000

     33   P      90             1.1000000    1.000000000000

 HYDROGEN  

     34   S      91            18.7311370    0.033494604338
     34   S      92             2.8253944    0.234726953484
     34   S      93             0.6401217    0.813757326146

     35   S      94             0.1612778    1.000000000000

     36   P      95             1.1000000    1.000000000000

 TOTAL NUMBER OF BASIS SET SHELLS             =   36
 NUMBER OF CARTESIAN GAUSSIAN BASIS FUNCTIONS =   88
 NUMBER OF ELECTRONS                          =   49
 CHARGE OF MOLECULE                           =    0
 SPIN MULTIPLICITY                            =    2
 NUMBER OF OCCUPIED ORBITALS (ALPHA)          =   25
 NUMBER OF OCCUPIED ORBITALS (BETA )          =   24
 TOTAL NUMBER OF ATOMS                        =   12
 THE NUCLEAR REPULSION ENERGY IS      259.6186244140

     LEBEDEV GRID-BASED DFT OPTIONS
     ------------------------------
     DFTTYP=B3LYP   
     NRAD  =      96     NLEB  =     302
     NRAD0 =      24     NLEB0 =     110
     SWOFF =    5.00E-03 (PURE SCF -> DFT)
     SWITCH=    3.00E-04 (COARSE -> TIGHT GRID)
     THRESH=    0.00E+00 GTHRE=    1.00E+00

 GRIMME'S EMPIRICAL DISPERSION CORRECTION= F

     $CONTRL OPTIONS
     ---------------
 SCFTYP=UHF          RUNTYP=ENERGY       EXETYP=RUN     
 MPLEVL=       0     CITYP =NONE         CCTYP =NONE         VBTYP =NONE    
 DFTTYP=B3LYP        TDDFT =NONE    
 MULT  =       2     ICHARG=       0     NZVAR =       0     COORD =UNIQUE  
 PP    =NONE         RELWFN=NONE         LOCAL =NONE         NUMGRD=       F
 ISPHER=      -1     NOSYM =       0     MAXIT =      50     UNITS =ANGS    
 PLTORB=       F     MOLPLT=       F     AIMPAC=       F     FRIEND=        
 NPRINT=       4     IREST =       0     GEOM  =INPUT   
 NORMF =       0     NORMP =       0     ITOL  =      20     ICUT  =       9
 INTTYP=BEST         GRDTYP=BEST         QMTTOL= 1.0E-06

     $SYSTEM OPTIONS
     ---------------
  REPLICATED MEMORY=    10000000 WORDS (ON EVERY NODE).
 DISTRIBUTED MEMDDI=           0 MILLION WORDS IN AGGREGATE,
 MEMDDI DISTRIBUTED OVER   1 PROCESSORS IS           0 WORDS/PROCESSOR.
 TOTAL MEMORY REQUESTED ON EACH PROCESSOR=    10000000 WORDS.
 TIMLIM=          50.00 MINUTES, OR       0.0 DAYS.
 PARALL= F  BALTYP=  DLB     KDIAG=    0  COREFL= F
 MXSEQ2=     300 MXSEQ3=     150  mem10=         0

          ----------------
          PROPERTIES INPUT
          ----------------

     MOMENTS            FIELD           POTENTIAL          DENSITY
 IEMOM =       1   IEFLD =       0   IEPOT =       0   IEDEN =       0
 WHERE =COMASS     WHERE =NUCLEI     WHERE =NUCLEI     WHERE =NUCLEI  
 OUTPUT=BOTH       OUTPUT=BOTH       OUTPUT=BOTH       OUTPUT=BOTH    
 IEMINT=       0   IEFINT=       0                     IEDINT=       0
                                                       MORB  =       0
          EXTRAPOLATION IN EFFECT
          DIIS IN EFFECT
          DIIS or SOSCF will be reset if energy rises
 ORBITAL PRINTING OPTION: NPREO=     1    88     2     1

     -------------------------------
     INTEGRAL TRANSFORMATION OPTIONS
     -------------------------------
     NWORD  =            0
     CUTOFF = 1.0E-09     MPTRAN =       0
     DIRTRF =       T     AOINTS =DUP     

          ----------------------
          INTEGRAL INPUT OPTIONS
          ----------------------
 NOPK  =       1 NORDER=       0 SCHWRZ=       T

     ------------------------------------------
     THE POINT GROUP IS C1 , NAXIS= 0, ORDER= 1
     ------------------------------------------

     DIMENSIONS OF THE SYMMETRY SUBSPACES ARE
 A   =   88

 ..... DONE SETTING UP THE RUN .....
 STEP CPU TIME =     0.02 TOTAL CPU TIME =        0.0 (    0.0 MIN)
 TOTAL WALL CLOCK TIME=        0.0 SECONDS, CPU UTILIZATION IS  66.67%

          ********************
          1 ELECTRON INTEGRALS
          ********************
 ...... END OF ONE-ELECTRON INTEGRALS ......
 STEP CPU TIME =     0.00 TOTAL CPU TIME =        0.0 (    0.0 MIN)
 TOTAL WALL CLOCK TIME=        0.0 SECONDS, CPU UTILIZATION IS  50.00%

          -------------
          GUESS OPTIONS
          -------------
          GUESS =HUCKEL            NORB  =       0          NORDER=       0
          MIX   =       F          PRTMO =       F          PUNMO =       F
          TOLZ  = 1.0E-08          TOLE  = 1.0E-05
          SYMDEN=       F          PURIFY=       F

 INITIAL GUESS ORBITALS GENERATED BY HUCKEL   ROUTINE.
 HUCKEL GUESS REQUIRES     71836 WORDS.

 SYMMETRIES FOR INITIAL GUESS ORBITALS FOLLOW.  ALPHA SET(S).
    25 ORBITALS ARE OCCUPIED (    7 CORE ORBITALS).
     8=A        9=A       10=A       11=A       12=A       13=A       14=A   
    15=A       16=A       17=A       18=A       19=A       20=A       21=A   
    22=A       23=A       24=A       25=A       26=A       27=A       28=A   
    29=A       30=A       31=A       32=A       33=A       34=A       35=A   

 SYMMETRIES FOR INITIAL GUESS ORBITALS FOLLOW.   BETA SET(S).
    24 ORBITALS ARE OCCUPIED (    7 CORE ORBITALS).
     8=A        9=A       10=A       11=A       12=A       13=A       14=A   
    15=A       16=A       17=A       18=A       19=A       20=A       21=A   
    22=A       23=A       24=A       25=A       26=A       27=A       28=A   
    29=A       30=A       31=A       32=A       33=A       34=A   
 ...... END OF INITIAL ORBITAL SELECTION ......
 STEP CPU TIME =     0.01 TOTAL CPU TIME =        0.0 (    0.0 MIN)
 TOTAL WALL CLOCK TIME=        0.1 SECONDS, CPU UTILIZATION IS  60.00%

                    ----------------------
                    AO INTEGRAL TECHNOLOGY
                    ----------------------
     S,P,L SHELL ROTATED AXIS INTEGRALS, REPROGRAMMED BY
        KAZUYA ISHIMURA (IMS) AND JOSE SIERRA (SYNSTAR).
     S,P,D,L SHELL ROTATED AXIS INTEGRALS PROGRAMMED BY
        KAZUYA ISHIMURA (INSTITUTE FOR MOLECULAR SCIENCE).
     S,P,D,F,G SHELL TO TOTAL QUARTET ANGULAR MOMENTUM SUM 5,
        ERIC PROGRAM BY GRAHAM FLETCHER (ELORET AND NASA ADVANCED
        SUPERCOMPUTING DIVISION, AMES RESEARCH CENTER).
     S,P,D,F,G,L SHELL GENERAL RYS QUADRATURE PROGRAMMED BY
        MICHEL DUPUIS (PACIFIC NORTHWEST NATIONAL LABORATORY).

          --------------------
          2 ELECTRON INTEGRALS
          --------------------

 DIRECT SCF METHOD SKIPS INTEGRAL STORAGE ON DISK.
 DIRECT TRANSFORMATION SKIPS AO INTEGRAL STORAGE ON DISK.
  ...... END OF TWO-ELECTRON INTEGRALS .....
 STEP CPU TIME =     0.01 TOTAL CPU TIME =        0.0 (    0.0 MIN)
 TOTAL WALL CLOCK TIME=        0.1 SECONDS, CPU UTILIZATION IS  66.67%

          ---------------------------
              U-B3LYP SCF CALCULATION
          ---------------------------

     NUCLEAR ENERGY =       259.6186244140
     MAXIT = 50     NPUNCH=  2     MULT=  2
     EXTRAP=T  DAMP=F  SHIFT=F  RSTRCT=F  DIIS=T  SOSCF=F
         DENSITY MATRIX CONVERGENCE THRESHOLD=  2.00E-07
     COARSE -> FINE DFT GRID SWITCH THRESHOLD=  3.00E-04 (SWITCH IN $DFT)
                   HF -> DFT SWITCH THRESHOLD=  5.00E-03 (SWOFF IN $DFT)
     MEMORY REQUIRED FOR UHF/ROHF ITERS=    540962 WORDS.

 DIRECT SCF CALCULATION, SCHWRZ=T   FDIFF=F
 MAX EXCHANGE INTEGRAL IN SHELL

             1           2           3           4           5

    1    2.1864231
    2    0.3359374   1.0662436
    3    0.2653259   0.7107219   0.7657214
    4    0.0000001   0.0074191   0.1528771   1.8801094
    5    0.0331906   0.2121038   0.4188913   0.2673029   0.9044972
    6    0.1270654   0.3827331   0.4677723   0.2514020   0.6509767
    7    0.0000000   0.0000004   0.0080131   0.0000034   0.0427259
    8    0.0000627   0.0041280   0.0748060   0.0427259   0.2313446
    9    0.0216265   0.0874932   0.1983426   0.1505477   0.3978710
   10    0.0000000   0.0000001   0.0057251   0.0000033   0.0412476
   11    0.0000311   0.0026463   0.0616922   0.0412476   0.2129126
   12    0.0175954   0.0735327   0.1858940   0.1458216   0.3860061
   13    0.0000000   0.0000000   0.0000119   0.0000000   0.0000905
   14    0.0000000   0.0000007   0.0015081   0.0000905   0.0138972
   15    0.0003778   0.0036304   0.0389366   0.0265336   0.1166678
   16    0.0000004   0.0002025   0.0232638   0.0000516   0.0154161
   17    0.0046283   0.0224492   0.1064073   0.0189252   0.0998827
   18    0.0000000   0.0000599   0.0221466   0.0000041   0.0188572
   19    0.0000000   0.0000000   0.0000087   0.0000000   0.0000987
   20    0.0000000   0.0000005   0.0012380   0.0000987   0.0154157
   21    0.0003099   0.0031196   0.0354540   0.0279250   0.1222160
   22    0.0000001   0.0000666   0.0137781   0.0000465   0.0145908
   23    0.0029063   0.0149746   0.0823112   0.0183724   0.0976550
   24    0.0000000   0.0000139   0.0128693   0.0000035   0.0176655
   25    0.0000000   0.0000000   0.0000004   0.0000000   0.0000046
   26    0.0000000   0.0000000   0.0001618   0.0000046   0.0040518
   27    0.0000411   0.0006469   0.0130525   0.0117136   0.0830571
   28    0.0000000   0.0000000   0.0000035   0.0000000   0.0000129
   29    0.0000019   0.0000355   0.0013332   0.0004069   0.0052019
   30    0.0000000   0.0000000   0.0000019   0.0000000   0.0000035
   31    0.0000000   0.0000000   0.0000023   0.0000000   0.0000142
   32    0.0000013   0.0000261   0.0010766   0.0004175   0.0055462
   33    0.0000000   0.0000000   0.0000012   0.0000000   0.0000042
   34    0.0000000   0.0000000   0.0000000   0.0000000   0.0000005
   35    0.0000000   0.0000012   0.0001283   0.0000599   0.0016380
   36    0.0000000   0.0000000   0.0000000   0.0000000   0.0000001

             6           7           8           9          10

    6    0.6807938
    7    0.1505477   1.8801094
    8    0.3978710   0.2673029   0.9044972
    9    0.3947339   0.2514020   0.6509767   0.6807938
   10    0.1458216   0.0000000   0.0000900   0.0296703   1.8801094
   11    0.3860061   0.0000900   0.0182720   0.1455489   0.2673029
   12    0.3844596   0.0296703   0.1455489   0.3161096   0.2514020
   13    0.0265336   0.0000033   0.0480281   0.1699170   0.0000000
   14    0.1166678   0.0480281   0.3147015   0.4473376   0.0000033
   15    0.2092581   0.1699170   0.4473376   0.4384797   0.0097280
   16    0.1689662   0.0459191   0.3113227   0.3875838   0.0000000
   17    0.2946495   0.1263902   0.3851711   0.4790771   0.0003903
   18    0.1454859   0.0551241   0.2832360   0.2233091   0.0000000
   19    0.0279250   0.0000000   0.0000037   0.0097707   0.0000033
   20    0.1222160   0.0000037   0.0027792   0.0574007   0.0478493
   21    0.2265793   0.0097707   0.0574007   0.1699815   0.1697321
   22    0.1649409   0.0000000   0.0000151   0.0088992   0.0465006
   23    0.2905833   0.0003813   0.0063988   0.0581085   0.1268259
   24    0.1420659   0.0000000   0.0000054   0.0097912   0.0587273
   25    0.0117136   0.0000000   0.0000860   0.0267874   0.0000000
   26    0.0830571   0.0000860   0.0144212   0.1185522   0.0000778
   27    0.2554103   0.0267874   0.1185522   0.2258100   0.0253466
   28    0.0071274   0.0000487   0.0133010   0.1481958   0.0000000
   29    0.0458958   0.0186163   0.0891335   0.2617096   0.0000547
   30    0.0059346   0.0000034   0.0140704   0.1112990   0.0000000
   31    0.0076405   0.0000000   0.0000004   0.0017062   0.0000501
   32    0.0486923   0.0000579   0.0013730   0.0209955   0.0187660
   33    0.0065722   0.0000000   0.0000001   0.0015962   0.0000036
   34    0.0020541   0.0000000   0.0000149   0.0086078   0.0000000
   35    0.0249234   0.0003885   0.0061989   0.0559156   0.0003801
   36    0.0022787   0.0000000   0.0000051   0.0089903   0.0000000

            11          12          13          14          15

   11    0.9044972
   12    0.6509767   0.6807938
   13    0.0000033   0.0097280   1.8801094
   14    0.0028102   0.0604602   0.2673029   0.9044972
   15    0.0604602   0.1835904   0.2514020   0.6509767   0.6807938
   16    0.0000156   0.0089717   0.0000413   0.0126831   0.1484017
   17    0.0064461   0.0581376   0.0177664   0.0889470   0.2656567
   18    0.0000056   0.0097595   0.0000027   0.0138415   0.1167644
   19    0.0478493   0.1697321   0.0000000   0.0001013   0.0307561
   20    0.3140562   0.4469876   0.0001013   0.0193674   0.1485267
   21    0.4469876   0.4382681   0.0307561   0.1485267   0.3179489
   22    0.3268706   0.4054616   0.0000000   0.0000004   0.0017050
   23    0.3861970   0.4799467   0.0000556   0.0013729   0.0212528
   24    0.2951402   0.2267704   0.0000000   0.0000001   0.0016504
   25    0.0000778   0.0253466   0.0000032   0.0406813   0.1444321
   26    0.0129134   0.1128146   0.0406813   0.2078404   0.3826403
   27    0.1128146   0.2063002   0.1444321   0.3826403   0.3816436
   28    0.0000004   0.0016863   0.0457540   0.3265816   0.4076214
   29    0.0013590   0.0211308   0.1262658   0.3848779   0.4788284
   30    0.0000001   0.0016351   0.0578041   0.2991450   0.2271034
   31    0.0139038   0.1536558   0.0000000   0.0000158   0.0090465
   32    0.0919688   0.2700927   0.0003937   0.0064962   0.0584504
   33    0.0152843   0.1194587   0.0000000   0.0000057   0.0098556
   34    0.0000140   0.0082695   0.0000458   0.0123124   0.1396430
   35    0.0059703   0.0541451   0.0182954   0.0857100   0.2488541
   36    0.0000047   0.0084284   0.0000029   0.0122514   0.0994727

            16          17          18          19          20

   16    1.0375770
   17    0.5739539   0.6731644
   18    0.4336893   0.2785847   0.9831009
   19    0.0000000   0.0000582   0.0000000   1.8801094
   20    0.0000004   0.0013713   0.0000001   0.2673029   0.9044972
   21    0.0017041   0.0209391   0.0015857   0.2514020   0.6509767
   22    0.0000000   0.0001102   0.0000000   0.0000443   0.0126966
   23    0.0001102   0.0034323   0.0001158   0.0181235   0.0875725
   24    0.0000000   0.0001158   0.0000000   0.0000029   0.0133611
   25    0.0000000   0.0003766   0.0000000   0.0000032   0.0419774
   26    0.0000119   0.0051793   0.0000034   0.0419774   0.2264725
   27    0.0071006   0.0468287   0.0061715   0.1491781   0.3947264
   28    0.0005198   0.0307712   0.0003649   0.0000000   0.0000158
   29    0.0307712   0.1124659   0.0312910   0.0003916   0.0065268
   30    0.0003649   0.0312910   0.0001283   0.0000000   0.0000058
   31    0.0000000   0.0000064   0.0000000   0.0457424   0.3162380
   32    0.0000064   0.0005812   0.0000051   0.1262570   0.3848574
   33    0.0000000   0.0000051   0.0000000   0.0558520   0.2776968
   34    0.0000000   0.0001006   0.0000000   0.0000459   0.0118770
   35    0.0001006   0.0032422   0.0000938   0.0183064   0.0857502
   36    0.0000000   0.0000938   0.0000000   0.0000028   0.0112850

            21          22          23          24          25

   21    0.6807938
   22    0.1454775   1.0375770
   23    0.2592336   0.5739539   0.6731644
   24    0.1097165   0.4336893   0.2785847   0.9831009
   25    0.1491781   0.0000000   0.0003776   0.0000000   1.8801094
   26    0.3947264   0.0000113   0.0049437   0.0000030   0.2673029
   27    0.3922380   0.0067497   0.0445566   0.0055899   0.2514020
   28    0.0090907   0.0000000   0.0000061   0.0000000   0.0000454
   29    0.0588310   0.0000061   0.0005640   0.0000051   0.0182479
   30    0.0100024   0.0000000   0.0000051   0.0000000   0.0000034
   31    0.3944441   0.0005733   0.0320280   0.0004102   0.0000461
   32    0.4788110   0.0320280   0.1152701   0.0324780   0.0183351
   33    0.2247727   0.0004102   0.0324780   0.0001497   0.0000035
   34    0.1345800   0.0000000   0.0001031   0.0000000   0.0458060
   35    0.2404459   0.0001031   0.0032923   0.0000931   0.1263050
   36    0.0951577   0.0000000   0.0000931   0.0000000   0.0654788

            26          27          28          29          30

   26    0.9044972
   27    0.6509767   0.6807938
   28    0.0144034   0.1639797   1.0375770
   29    0.0971244   0.2895727   0.5739539   0.6731644
   30    0.0173912   0.1411979   0.4336893   0.2785847   0.9831009
   31    0.0145855   0.1652331   0.0000000   0.0001054   0.0000000
   32    0.0977965   0.2912500   0.0001054   0.0033375   0.0001106
   33    0.0177169   0.1428834   0.0000000   0.0001106   0.0000000
   34    0.3673213   0.4593871   0.0005455   0.0313842   0.0003298
   35    0.3849704   0.4789068   0.0313842   0.1138391   0.0278994
   36    0.4143909   0.2294601   0.0003298   0.0278994   0.0000988

            31          32          33          34          35

   31    1.0375770
   32    0.5739539   0.6731644
   33    0.4336893   0.2785847   0.9831009
   34    0.0005581   0.0316782   0.0003500   1.0375770
   35    0.0316782   0.1144939   0.0289003   0.5739539   0.6731644
   36    0.0003500   0.0289003   0.0001097   0.4336893   0.2785847

            36

   36    0.9831009
 SCHWARZ INEQUALITY OVERHEAD:      3827 INTEGRALS, T=        0.00

 DFT CODE IS SWITCHING FROM THE FINE GRID NRAD= 96,  NLEB=  302
                      TO THE COARSE GRID NRAD0= 24, NLEB0=  110

     EXCHANGE FUNCTIONAL   =B88&HFX   
     CORRELATION FUNCTIONAL=LYP88&VWN5
     DFT THRESHOLD         =.115E-07
     GRID CHANGE THRESHOLD =.300E-03
 FOR AN EULER-MACLAURIN QUADRATURE USING  96 RADIAL POINTS:
 SMALLEST GAUSSIAN PRIMITIVE EXPONENT=        0.1612777588 OF TYPE -S-
 ON ATOM NUMBER   6 HAS RADIAL NORMALIZATION=  1.000000
  LARGEST GAUSSIAN PRIMITIVE EXPONENT=     5484.6716600000 OF TYPE -S-
 ON ATOM NUMBER   1 HAS RADIAL NORMALIZATION=  1.000000
 DFT IS SWITCHED OFF, PERFORMING PURE SCF UNTIL SWOFF THRESHOLD IS REACHED.

                                                                                NONZERO     BLOCKS
 ITER EX      TOTAL ENERGY        E CHANGE  DENSITY CHANGE    DIIS ERROR      INTEGRALS    SKIPPED
   1  0     -303.9799576976  -303.9799576976   0.474100388   0.527519195        3362999      65653
          * * *   INITIATING DIIS PROCEDURE   * * *
   2  1     -304.5858476755    -0.6058899780   0.367167153   0.348526409        3362164      65818
   3  2     -304.7244622895    -0.1386146140   0.151927765   0.266967922        3361821      65896
   4  3     -304.8378199734    -0.1133576839   0.033999176   0.043503990        3361548      65956
   5  4     -304.8454501403    -0.0076301669   0.012242216   0.011394478        3361337      65985
   6  5     -304.8461509103    -0.0007007700   0.005822340   0.003967643        3361263      66000
   7  6     -304.8462756184    -0.0001247082   0.002633444   0.002165662        3361240      66004
 CONVERGED TO SWOFF, SO DFT CALCULATION IS NOW SWITCHED ON.
          * * *   INITIATING DIIS PROCEDURE   * * *
   8  7     -306.5244527488    -1.6781771304   0.092597034   0.080467552        3361239      66003
   9  8     -306.5471489891    -0.0226962402   0.041856930   0.035885261        3363080      65544
  10  9     -306.5485289338    -0.0013799447   0.024895863   0.042444770        3363194      65496
  11 10     -306.5519297526    -0.0034008188   0.008439910   0.010967838        3363196      65509
  12 11     -306.5521145368    -0.0001847843   0.001361691   0.001214984        3363213      65504
  13 12     -306.5521187348    -0.0000041980   0.000666022   0.000601696        3363210      65504
  14 13     -306.5521202995    -0.0000015647   0.000323373   0.000207816        3363216      65503
  15 14     -306.5521205272    -0.0000002277   0.000142978   0.000123168        3363216      65503
 DFT CODE IS SWITCHING BACK TO THE FINE GRID
          * * *   INITIATING DIIS PROCEDURE   * * *
  16 15     -306.5518821570     0.0002383702   0.002583661   0.001699620        3363216      65503
  17 16     -306.5518889656    -0.0000068086   0.001386257   0.001098773        3363222      65501
  18 17     -306.5518895149    -0.0000005492   0.000645187   0.001169441        3363211      65503
  19 18     -306.5518909539    -0.0000014390   0.000059507   0.000040519        3363222      65501
  20 19     -306.5518909596    -0.0000000057   0.000037637   0.000036625        3363222      65501
  21 20     -306.5518909656    -0.0000000060   0.000022676   0.000012522        3363222      65501
  22 21     -306.5518909668    -0.0000000012   0.000028888   0.000010443        3363222      65501
  23 22     -306.5518909680    -0.0000000012   0.000012045   0.000002840        3363222      65501
  24 23     -306.5518909681    -0.0000000002   0.000003048   0.000000910        3363222      65501
  25 24     -306.5518909681    -0.0000000000   0.000000753   0.000000407        3363222      65501
  26 25     -306.5518909681    -0.0000000000   0.000000330   0.000000205        3363222      65501
  27 26     -306.5518909681     0.0000000000   0.000000203   0.000000087        3363222      65501

          ----------------
          ENERGY CONVERGED
          ----------------
     TIME TO FORM FOCK OPERATORS=      61.0 SECONDS (       2.3 SEC/ITER)
     FOCK TIME ON FIRST ITERATION=       0.3, LAST ITERATION=       4.4
     TIME TO SOLVE SCF EQUATIONS=       0.2 SECONDS (       0.0 SEC/ITER)

 FINAL U-B3LYP ENERGY IS     -306.5518909681 AFTER  27 ITERATIONS
 DFT EXCHANGE + CORRELATION ENERGY =       -34.5824515766
 TOTAL ELECTRON NUMBER             =        49.0001253539

          --------------------
          SPIN SZ   =    0.500
          S-SQUARED =    0.753
          --------------------

  ----- ALPHA SET ----- 

          ------------
          EIGENVECTORS
          ------------

                      1          2          3          4          5
                  -19.2266   -10.2554   -10.2002   -10.1989   -10.1984
                     A          A          A          A          A   
    1  O  1  S    0.995078   0.000106  -0.000016  -0.000023  -0.000008
    2  O  1  S    0.030350   0.001026  -0.000368  -0.000432  -0.000156
    3  O  1  X   -0.002084   0.000332   0.000039   0.000024   0.000037
    4  O  1  Y   -0.000087   0.000015  -0.000010   0.000015   0.000031
    5  O  1  Z   -0.000000  -0.000000   0.000000  -0.000000   0.000000
    6  O  1  S   -0.023384  -0.005223   0.001614   0.001604   0.000020
    7  O  1  X    0.007356   0.002516  -0.000239  -0.000394  -0.000432
    8  O  1  Y    0.000285   0.000040   0.000387  -0.000176  -0.000260
    9  O  1  Z   -0.000000  -0.000000   0.000000  -0.000000   0.000000
   10  C  2  S    0.000157   0.995251  -0.004269  -0.003788   0.000992
   11  C  2  S    0.001097   0.036597  -0.002789  -0.002489   0.000772
   12  C  2  X   -0.000332   0.000062   0.000547   0.000473   0.000028
   13  C  2  Y    0.000017   0.000054   0.001035  -0.000971   0.000100
   14  C  2  Z   -0.000000  -0.000000   0.000000  -0.000000   0.000000
   15  C  2  S   -0.002933  -0.040865   0.018235   0.013424  -0.014277
   16  C  2  X    0.019710   0.018308  -0.008287  -0.006158   0.005836
   17  C  2  Y    0.000316   0.000534  -0.005430   0.003688   0.001194
   18  C  2  Z   -0.000000  -0.000000   0.000000  -0.000000   0.000000
   19  C  3  S   -0.000072   0.003876  -0.003892   0.881520  -0.104582
   20  C  3  S   -0.000739  -0.002715  -0.000171   0.031645  -0.004947
   21  C  3  X   -0.000039  -0.000370  -0.000140   0.000590   0.000325
   22  C  3  Y   -0.000008   0.000916   0.000245  -0.000331   0.000158
   23  C  3  Z   -0.000000  -0.000000   0.000000  -0.000000   0.000000
   24  C  3  S    0.008745   0.021764  -0.005671  -0.027211   0.014240
   25  C  3  X   -0.005743  -0.005122   0.002622   0.001911  -0.004950
   26  C  3  Y   -0.007117  -0.012149   0.002322   0.006703  -0.005640
   27  C  3  Z   -0.000000  -0.000000   0.000000  -0.000000   0.000000
   28  C  4  S   -0.000073   0.003931   0.987136   0.007079  -0.121886
   29  C  4  S   -0.000742  -0.002740   0.036503   0.000119  -0.007208
   30  C  4  X    0.000106  -0.000357   0.000219  -0.000134   0.001044
   31  C  4  Y    0.000037  -0.000867   0.000372  -0.000259  -0.000165
   32  C  4  Z   -0.000000  -0.000000   0.000000  -0.000000   0.000000
   33  C  4  S    0.010667   0.023053  -0.038568  -0.004410   0.025190
   34  C  4  X   -0.006479  -0.003872   0.003953   0.001339  -0.007783
   35  C  4  Y    0.007879   0.013168  -0.010762  -0.001625   0.009136
   36  C  4  Z   -0.000000  -0.000000   0.000000  -0.000000   0.000000
   37  C  5  S    0.000010   0.000056  -0.005333   0.461367   0.219743
   38  C  5  S   -0.000125   0.000201  -0.000653   0.014786   0.008542
   39  C  5  X   -0.000332  -0.000368  -0.000057  -0.000822   0.000338
   40  C  5  Y    0.000074  -0.000000   0.000130   0.000054   0.000183
   41  C  5  Z   -0.000000  -0.000000   0.000000  -0.000000   0.000000
   42  C  5  S   -0.007124  -0.011779   0.005513  -0.001406  -0.018899
   43  C  5  X   -0.001536  -0.003439   0.002007   0.003822  -0.004076
   44  C  5  Y    0.002309   0.004742  -0.002602  -0.001329   0.006809
   45  C  5  Z   -0.000000  -0.000000   0.000000  -0.000000   0.000000
   46  H  6  S    0.000526   0.000331  -0.000064  -0.001392   0.000327
   47  H  6  S    0.003201   0.003515  -0.000335   0.001576   0.001454
   48  H  6  X   -0.000199  -0.000054  -0.000010   0.000579  -0.000083
   49  H  6  Y   -0.000056  -0.000165  -0.000112   0.000921  -0.000115
   50  H  6  Z   -0.000000  -0.000000   0.000000  -0.000000   0.000000
   51  C  7  S    0.000019   0.000070   0.126096  -0.009105   0.956981
   52  C  7  S   -0.000063   0.000224   0.002070  -0.000780   0.035838
   53  C  7  X   -0.000362  -0.000368  -0.000987  -0.000004   0.000339
   54  C  7  Y   -0.000057   0.000038  -0.000050  -0.000216   0.000048
   55  C  7  Z   -0.000000  -0.000000   0.000000  -0.000000   0.000000
   56  C  7  S   -0.008051  -0.011841   0.013808   0.002699  -0.042382
   57  C  7  X   -0.002740  -0.003637   0.006694   0.001331  -0.007563
   58  C  7  Y   -0.001915  -0.004722   0.005455   0.001317  -0.011778
   59  C  7  Z   -0.000000  -0.000000   0.000000  -0.000000   0.000000
   60  H  8  S    0.000634   0.000311  -0.001573  -0.000026   0.000291
   61  H  8  S    0.003402   0.003612   0.000890   0.000024   0.002264
   62  H  8  X   -0.000105  -0.000042   0.000607   0.000007  -0.000172
   63  H  8  Y    0.000115   0.000148  -0.001075   0.000090   0.000174
   64  H  8  Z   -0.000000  -0.000000   0.000000  -0.000000   0.000000
   65  C  9  S   -0.000048  -0.000262   0.002372   0.009909   0.027000
   66  C  9  S   -0.000414  -0.000743  -0.000049  -0.000665  -0.002110
   67  C  9  X   -0.000143  -0.000194  -0.000156  -0.000365  -0.000642
   68  C  9  Y   -0.000017  -0.000000   0.000389  -0.000619   0.000642
   69  C  9  Z   -0.000000  -0.000000   0.000000  -0.000000   0.000000
   70  C  9  S    0.004347   0.008621  -0.005976   0.000818   0.022880
   71  C  9  X    0.003087   0.005799  -0.003297   0.000295   0.011892
   72  C  9  Y    0.000290  -0.000233   0.000358   0.001115  -0.002938
   73  C  9  Z   -0.000000  -0.000000   0.000000  -0.000000   0.000000
   74  H 10  S   -0.000003  -0.000057   0.000097  -0.000655  -0.000413
   75  H 10  S   -0.000183  -0.000754   0.000839   0.002290  -0.000646
   76  H 10  X    0.000035   0.000136  -0.000014  -0.000202  -0.000160
   77  H 10  Y   -0.000048  -0.000054  -0.000017   0.000465   0.000140
   78  H 10  Z   -0.000000  -0.000000   0.000000  -0.000000   0.000000
   79  H 11  S    0.000015  -0.000066  -0.000081   0.000093  -0.001586
   80  H 11  S   -0.000211  -0.000777   0.002348   0.000667   0.000149
   81  H 11  X    0.000083   0.000140   0.000016  -0.000011  -0.000668
   82  H 11  Y    0.000023   0.000047  -0.000077   0.000067  -0.001033
   83  H 11  Z   -0.000000  -0.000000   0.000000  -0.000000   0.000000
   84  H 12  S    0.000103   0.000207  -0.000059  -0.000029   0.000092
   85  H 12  S    0.000881   0.001553  -0.000358   0.000484   0.002833
   86  H 12  X    0.000003   0.000002   0.000095   0.000120   0.000069
   87  H 12  Y   -0.000011   0.000003  -0.000103   0.000092  -0.000026
   88  H 12  Z   -0.000000  -0.000000   0.000000  -0.000000   0.000000

                      6          7          8          9         10
                  -10.1983   -10.1885    -1.0563    -0.8654    -0.7630
                     A          A          A          A          A   
    1  O  1  S    0.000000  -0.000011  -0.206054   0.048053  -0.001018
    2  O  1  S    0.000012  -0.000206   0.459747  -0.113429   0.002045
    3  O  1  X    0.000010   0.000004  -0.137961   0.000320   0.001331
    4  O  1  Y   -0.000081   0.000008  -0.003616   0.001529  -0.036263
    5  O  1  Z   -0.000000   0.000000   0.000000   0.000000   0.000000
    6  O  1  S   -0.000239   0.001337   0.512057  -0.119233   0.005302
    7  O  1  X   -0.000219  -0.000279  -0.095446   0.001668  -0.000624
    8  O  1  Y    0.000730  -0.000043  -0.002908   0.001152  -0.013131
    9  O  1  Z   -0.000000   0.000000   0.000000   0.000000   0.000000
   10  C  2  S    0.001796   0.000110  -0.091291  -0.072140  -0.004162
   11  C  2  S    0.001250  -0.000637   0.179999   0.143747   0.008445
   12  C  2  X   -0.000109   0.000109   0.123780  -0.112533  -0.005213
   13  C  2  Y    0.000332   0.000001   0.007525   0.001079  -0.148942
   14  C  2  Z   -0.000000   0.000000   0.000000   0.000000   0.000000
   15  C  2  S   -0.012959   0.007484   0.038465   0.099602   0.007205
   16  C  2  X    0.005188  -0.004806  -0.104201  -0.019035  -0.004107
   17  C  2  Y   -0.004831  -0.000102  -0.006522  -0.000972  -0.035695
   18  C  2  Z   -0.000000   0.000000   0.000000   0.000000   0.000000
   19  C  3  S   -0.449910   0.000536  -0.021952  -0.090825   0.115173
   20  C  3  S   -0.018941   0.000265   0.044076   0.176034  -0.230543
   21  C  3  X    0.000867   0.000220   0.018906  -0.043317   0.054864
   22  C  3  Y    0.000190  -0.000044  -0.022804  -0.058235   0.002461
   23  C  3  Z   -0.000000   0.000000   0.000000   0.000000   0.000000
   24  C  3  S    0.033634  -0.009288  -0.015054   0.097273  -0.151404
   25  C  3  X   -0.007989   0.003357   0.043564  -0.006784   0.005955
   26  C  3  Y   -0.009721   0.004039   0.017819  -0.003344  -0.009794
   27  C  3  Z   -0.000000   0.000000   0.000000   0.000000   0.000000
   28  C  4  S    0.033612   0.000488  -0.019025  -0.091768  -0.119432
   29  C  4  S    0.001520   0.000286   0.039269   0.178159   0.239444
   30  C  4  X   -0.000125   0.000225   0.016629  -0.039827  -0.050604
   31  C  4  Y    0.000020   0.000023   0.020293   0.061113   0.010057
   32  C  4  Z   -0.000000   0.000000   0.000000   0.000000   0.000000
   33  C  4  S    0.000931  -0.009544  -0.030003   0.095609   0.154609
   34  C  4  X   -0.001365   0.002947   0.039468  -0.006752  -0.005753
   35  C  4  Y    0.001546  -0.004455  -0.023774   0.001890  -0.011768
   36  C  4  Z   -0.000000   0.000000   0.000000   0.000000   0.000000
   37  C  5  S    0.853695  -0.023030  -0.004443  -0.095257   0.109191
   38  C  5  S    0.032809  -0.003478   0.009723   0.182885  -0.217894
   39  C  5  X    0.000552   0.000491   0.006483   0.033385  -0.064818
   40  C  5  Y   -0.000211   0.000917  -0.003295  -0.060841   0.000856
   41  C  5  Z   -0.000000   0.000000   0.000000   0.000000   0.000000
   42  C  5  S   -0.040202   0.020690   0.038606   0.111297  -0.153929
   43  C  5  X   -0.007570   0.002013   0.014256   0.006008  -0.004326
   44  C  5  Y    0.011535  -0.010502   0.001712  -0.015897  -0.001263
   45  C  5  Z   -0.000000   0.000000   0.000000   0.000000   0.000000
   46  H  6  S    0.000715  -0.000110   0.006513   0.033257  -0.068184
   47  H  6  S    0.001177  -0.000814  -0.010223   0.005356  -0.017631
   48  H  6  X   -0.000396  -0.000115   0.000045  -0.002858   0.003270
   49  H  6  Y   -0.000511  -0.000030  -0.000796  -0.004125   0.005984
   50  H  6  Z   -0.000000   0.000000   0.000000   0.000000   0.000000
   51  C  7  S   -0.241173  -0.023104  -0.004146  -0.095831  -0.104712
   52  C  7  S   -0.008744  -0.003483   0.008981   0.183681   0.209036
   53  C  7  X    0.000130   0.000441   0.006069   0.037405   0.070060
   54  C  7  Y   -0.000195  -0.000948   0.002803   0.058065  -0.009067
   55  C  7  Z   -0.000000   0.000000   0.000000   0.000000   0.000000
   56  C  7  S    0.000794   0.020675   0.038792   0.113076   0.148612
   57  C  7  X   -0.001079   0.002566   0.014993   0.007669   0.004992
   58  C  7  Y   -0.001318   0.010402  -0.002920   0.016907  -0.001730
   59  C  7  Z   -0.000000   0.000000   0.000000   0.000000   0.000000
   60  H  8  S    0.000092  -0.000108   0.004786   0.034196   0.070968
   61  H  8  S    0.000519  -0.000852  -0.010159   0.005307   0.017709
   62  H  8  X    0.000067  -0.000113  -0.000259  -0.002516  -0.002969
   63  H  8  Y   -0.000091   0.000037   0.000500   0.004458   0.006400
   64  H  8  Z   -0.000000   0.000000   0.000000   0.000000   0.000000
   65  C  9  S    0.014142   0.994717  -0.002421  -0.094024   0.004671
   66  C  9  S   -0.001135   0.037097   0.006431   0.180238  -0.009156
   67  C  9  X   -0.000337   0.000226   0.004315   0.069387  -0.004574
   68  C  9  Y   -0.000786  -0.000006  -0.000034  -0.001965  -0.104772
   69  C  9  Z   -0.000000   0.000000   0.000000   0.000000   0.000000
   70  C  9  S    0.014277  -0.041170   0.000771   0.095150  -0.006821
   71  C  9  X    0.007619  -0.013133  -0.011213   0.008360  -0.000621
   72  C  9  Y    0.004006   0.000390  -0.000054  -0.000077  -0.009306
   73  C  9  Z   -0.000000   0.000000   0.000000   0.000000   0.000000
   74  H 10  S   -0.001432   0.000130   0.000207   0.037049  -0.063968
   75  H 10  S   -0.000385   0.002278  -0.002794   0.011900  -0.018390
   76  H 10  X   -0.000562   0.000017  -0.000455   0.002590  -0.002910
   77  H 10  Y    0.001035  -0.000135  -0.000066  -0.004711   0.005630
   78  H 10  Z   -0.000000   0.000000   0.000000   0.000000   0.000000
   79  H 11  S    0.000332   0.000133   0.000098   0.037444   0.061638
   80  H 11  S   -0.000850   0.002272  -0.002904   0.012639   0.017691
   81  H 11  X    0.000165   0.000026  -0.000492   0.002888   0.003103
   82  H 11  Y    0.000373   0.000134   0.000085   0.004565   0.005188
   83  H 11  Z   -0.000000   0.000000   0.000000   0.000000   0.000000
   84  H 12  S    0.000066  -0.001636  -0.000302   0.035760  -0.002595
   85  H 12  S    0.001638   0.000354  -0.005017   0.009320  -0.000867
   86  H 12  X    0.000007  -0.001293   0.000038   0.005230  -0.000275
   87  H 12  Y   -0.000009   0.000035   0.000003  -0.000148   0.000220
   88  H 12  Z   -0.000000   0.000000   0.000000   0.000000   0.000000

                     11         12         13         14         15
                   -0.7445    -0.6281    -0.6005    -0.5259    -0.4876
                     A          A          A          A          A   
    1  O  1  S   -0.058879   0.004028   0.045647  -0.045931  -0.000617
    2  O  1  S    0.137992  -0.009638  -0.108255   0.101496   0.000922
    3  O  1  X    0.043973  -0.011485  -0.119492   0.190090  -0.011314
    4  O  1  Y   -0.003687   0.115859  -0.004066  -0.009839   0.298819
    5  O  1  Z   -0.000000   0.000000   0.000000   0.000000  -0.000000
    6  O  1  S    0.175794  -0.013079  -0.148604   0.188881   0.005328
    7  O  1  X    0.011531  -0.005025  -0.056902   0.082054  -0.007870
    8  O  1  Y   -0.002462   0.058399  -0.001539  -0.006873   0.170366
    9  O  1  Z   -0.000000   0.000000   0.000000   0.000000  -0.000000
   10  C  2  S    0.108708   0.000311  -0.097554   0.021687   0.004178
   11  C  2  S   -0.229432  -0.000195   0.213078  -0.055826  -0.008875
   12  C  2  X    0.105824   0.004780  -0.024104  -0.157921   0.000803
   13  C  2  Y   -0.007139   0.252690  -0.002677  -0.005519   0.243955
   14  C  2  Z   -0.000000   0.000000   0.000000   0.000000  -0.000000
   15  C  2  S   -0.180536  -0.000823   0.191278  -0.068213  -0.013405
   16  C  2  X    0.009067  -0.000259  -0.014286  -0.063790  -0.006518
   17  C  2  Y   -0.003018   0.080492  -0.000956  -0.008209   0.128064
   18  C  2  Z   -0.000000   0.000000   0.000000   0.000000  -0.000000
   19  C  3  S    0.075740  -0.073773   0.044134   0.015319   0.029511
   20  C  3  S   -0.153638   0.151900  -0.087417  -0.033884  -0.057868
   21  C  3  X   -0.064910   0.143307   0.129244  -0.143260   0.163623
   22  C  3  Y    0.073218  -0.034953  -0.156254  -0.135365  -0.142274
   23  C  3  Z   -0.000000   0.000000   0.000000   0.000000  -0.000000
   24  C  3  S   -0.105350   0.095918  -0.087109  -0.050698  -0.120221
   25  C  3  X   -0.003678   0.040875   0.018454  -0.034148   0.054816
   26  C  3  Y   -0.004276   0.017739  -0.026363  -0.061163  -0.022464
   27  C  3  Z   -0.000000   0.000000   0.000000   0.000000  -0.000000
   28  C  4  S    0.068534   0.075087   0.041649   0.019479  -0.028056
   29  C  4  S   -0.138918  -0.154402  -0.082224  -0.041581   0.054894
   30  C  4  X   -0.071428  -0.140197   0.142321  -0.125377  -0.182618
   31  C  4  Y   -0.068922  -0.024483   0.149663   0.156196  -0.127771
   32  C  4  Z   -0.000000   0.000000   0.000000   0.000000  -0.000000
   33  C  4  S   -0.097072  -0.101292  -0.085014  -0.069191   0.106201
   34  C  4  X   -0.004823  -0.034316   0.023966  -0.031262  -0.046972
   35  C  4  Y    0.002146   0.018227   0.025311   0.058344  -0.019348
   36  C  4  Z   -0.000000   0.000000   0.000000   0.000000  -0.000000
   37  C  5  S   -0.058532   0.094419   0.055594  -0.002555  -0.014427
   38  C  5  S    0.117837  -0.193060  -0.114593   0.003957   0.027615
   39  C  5  X   -0.095067   0.083354  -0.129055   0.114624  -0.222219
   40  C  5  Y   -0.063470  -0.004815  -0.133379  -0.146471  -0.095246
   41  C  5  Z   -0.000000   0.000000   0.000000   0.000000  -0.000000
   42  C  5  S    0.086285  -0.145317  -0.094028   0.000099   0.051388
   43  C  5  X   -0.010979   0.029484  -0.027750   0.046280  -0.054242
   44  C  5  Y    0.002317  -0.021149  -0.051440  -0.046934  -0.037011
   45  C  5  Z   -0.000000   0.000000   0.000000   0.000000  -0.000000
   46  H  6  S   -0.043764   0.082801  -0.066394  -0.110875  -0.047573
   47  H  6  S   -0.006930   0.031431  -0.040329  -0.058197  -0.031664
   48  H  6  X    0.002574  -0.001818   0.004144   0.001265   0.005871
   49  H  6  Y    0.003481  -0.006459   0.002886   0.003562   0.000553
   50  H  6  Z   -0.000000   0.000000   0.000000   0.000000  -0.000000
   51  C  7  S   -0.065342  -0.093315   0.057480  -0.005539   0.014677
   52  C  7  S    0.131534   0.190353  -0.118613   0.009632  -0.028592
   53  C  7  X   -0.087817  -0.087677  -0.117393   0.107720   0.227781
   54  C  7  Y    0.068283   0.003041   0.142009   0.145017  -0.085763
   55  C  7  Z   -0.000000   0.000000   0.000000   0.000000  -0.000000
   56  C  7  S    0.095957   0.148951  -0.094571   0.008793  -0.040645
   57  C  7  X   -0.011459  -0.028639  -0.022320   0.044096   0.063359
   58  C  7  Y   -0.001354  -0.016610   0.053781   0.050670  -0.032120
   59  C  7  Z   -0.000000   0.000000   0.000000   0.000000  -0.000000
   60  H  8  S   -0.039288  -0.082893  -0.065231  -0.118590   0.044632
   61  H  8  S   -0.006690  -0.033704  -0.039142  -0.066423   0.028010
   62  H  8  X    0.002168   0.001480   0.003911   0.001602  -0.005703
   63  H  8  Y   -0.003414  -0.006673  -0.002894  -0.004015   0.000958
   64  H  8  Z   -0.000000   0.000000   0.000000   0.000000  -0.000000
   65  C  9  S   -0.133710  -0.001472  -0.093541   0.025522  -0.000317
   66  C  9  S    0.266527   0.002973   0.190061  -0.053342   0.000897
   67  C  9  X    0.030584  -0.006042  -0.043755   0.215481   0.021273
   68  C  9  Y   -0.004426  -0.190423   0.003485  -0.014947   0.239315
   69  C  9  Z   -0.000000   0.000000   0.000000   0.000000  -0.000000
   70  C  9  S    0.199927   0.001129   0.137376  -0.059174  -0.000109
   71  C  9  X   -0.003354  -0.002556  -0.029863   0.074257   0.004857
   72  C  9  Y    0.000004  -0.040816   0.001282  -0.002831   0.068955
   73  C  9  Z   -0.000000   0.000000   0.000000   0.000000  -0.000000
   74  H 10  S    0.036708  -0.097667  -0.073743  -0.088793   0.027994
   75  H 10  S    0.008332  -0.040231  -0.032155  -0.055156   0.022555
   76  H 10  X    0.001569  -0.003227  -0.004203  -0.000656  -0.002738
   77  H 10  Y   -0.003023   0.007442   0.003643   0.001976  -0.003949
   78  H 10  Z   -0.000000   0.000000   0.000000   0.000000  -0.000000
   79  H 11  S    0.041102   0.096560  -0.076619  -0.084007  -0.042192
   80  H 11  S    0.009782   0.040799  -0.033501  -0.050766  -0.031908
   81  H 11  X    0.001962   0.003568  -0.004564  -0.000787   0.002193
   82  H 11  Y    0.003258   0.007197  -0.003531  -0.001467  -0.004563
   83  H 11  Z   -0.000000   0.000000   0.000000   0.000000  -0.000000
   84  H 12  S    0.081912   0.001497   0.101660  -0.132870  -0.007634
   85  H 12  S    0.023171   0.000437   0.047969  -0.081096  -0.006151
   86  H 12  X    0.007838   0.000077   0.008751  -0.005277  -0.000137
   87  H 12  Y   -0.000221  -0.001776  -0.000214  -0.000034   0.004272
   88  H 12  Z   -0.000000   0.000000   0.000000   0.000000  -0.000000

                     16         17         18         19         20
                   -0.4715    -0.4398    -0.4357    -0.4178    -0.3943
                     A          A          A          A          A   
    1  O  1  S   -0.042596  -0.032596   0.011974  -0.000000  -0.001812
    2  O  1  S    0.098426   0.076199  -0.028730  -0.000000   0.005411
    3  O  1  X    0.319079   0.293851  -0.107435  -0.000000  -0.009516
    4  O  1  Y    0.023128   0.036853   0.041560  -0.000000   0.534028
    5  O  1  Z   -0.000000  -0.000000  -0.000000   0.411752   0.000000
    6  O  1  S    0.131538   0.090228  -0.033239  -0.000000   0.000712
    7  O  1  X    0.184757   0.177630  -0.066011  -0.000000  -0.003506
    8  O  1  Y    0.013885   0.022076   0.022933  -0.000000   0.318742
    9  O  1  Z   -0.000000  -0.000000  -0.000000   0.251307   0.000000
   10  C  2  S    0.055717  -0.027003   0.009670  -0.000000  -0.000796
   11  C  2  S   -0.128200   0.059559  -0.021668  -0.000000   0.002175
   12  C  2  X   -0.154048  -0.268922   0.094082  -0.000000  -0.008707
   13  C  2  Y   -0.005689  -0.027883  -0.105260  -0.000000  -0.039626
   14  C  2  Z   -0.000000  -0.000000  -0.000000   0.314423   0.000000
   15  C  2  S   -0.180621   0.090067  -0.035507  -0.000000  -0.006208
   16  C  2  X    0.048746   0.000848   0.002207  -0.000000   0.007319
   17  C  2  Y    0.002884   0.026756   0.051308  -0.000000   0.125959
   18  C  2  Z   -0.000000  -0.000000  -0.000000   0.184645   0.000000
   19  C  3  S   -0.052170   0.009864   0.016305  -0.000000   0.025948
   20  C  3  S    0.102878  -0.021312  -0.040847  -0.000000  -0.046572
   21  C  3  X    0.074634   0.059718   0.158033  -0.000000  -0.144193
   22  C  3  Y    0.098614  -0.079828   0.265909  -0.000000  -0.018826
   23  C  3  Z   -0.000000  -0.000000  -0.000000   0.170844   0.000000
   24  C  3  S    0.162910   0.001055  -0.122131  -0.000000  -0.193382
   25  C  3  X    0.010449  -0.048055   0.045033  -0.000000  -0.044791
   26  C  3  Y   -0.013505  -0.020329   0.104578  -0.000000   0.040177
   27  C  3  Z   -0.000000  -0.000000  -0.000000   0.083642   0.000000
   28  C  4  S   -0.051836  -0.001606  -0.018065  -0.000000  -0.019870
   29  C  4  S    0.101524   0.006226   0.043509  -0.000000   0.032410
   30  C  4  X    0.075680  -0.047819  -0.142837  -0.000000   0.170683
   31  C  4  Y   -0.095838   0.230270   0.165142  -0.000000  -0.021695
   32  C  4  Z   -0.000000  -0.000000  -0.000000   0.167860   0.000000
   33  C  4  S    0.174891   0.087214   0.089584  -0.000000   0.177465
   34  C  4  X    0.009650  -0.063023   0.004922  -0.000000   0.066607
   35  C  4  Y    0.016244   0.085184   0.069386  -0.000000   0.049533
   36  C  4  Z   -0.000000  -0.000000  -0.000000   0.079447   0.000000
   37  C  5  S    0.053066   0.004797   0.015250  -0.000000  -0.011124
   38  C  5  S   -0.110270  -0.016191  -0.037751  -0.000000   0.017052
   39  C  5  X    0.043775  -0.107726  -0.126841  -0.000000   0.118235
   40  C  5  Y   -0.106104   0.236620   0.138970  -0.000000   0.151324
   41  C  5  Z   -0.000000  -0.000000  -0.000000   0.105567   0.000000
   42  C  5  S   -0.147329  -0.067861  -0.057374  -0.000000   0.070592
   43  C  5  X    0.012354  -0.067759   0.010352  -0.000000   0.063220
   44  C  5  Y   -0.017039   0.064248   0.054347  -0.000000   0.021293
   45  C  5  Z   -0.000000  -0.000000  -0.000000   0.053657   0.000000
   46  H  6  S    0.136096  -0.032377   0.173379  -0.000000  -0.093141
   47  H  6  S    0.118278  -0.007657   0.149670  -0.000000  -0.069091
   48  H  6  X   -0.005409   0.001414  -0.004205  -0.000000   0.003180
   49  H  6  Y   -0.008310   0.001656  -0.006684  -0.000000   0.004910
   50  H  6  Z   -0.000000  -0.000000  -0.000000   0.002909   0.000000
   51  C  7  S    0.052948  -0.006083  -0.016599  -0.000000   0.006627
   52  C  7  S   -0.109565   0.011732   0.042994  -0.000000  -0.008726
   53  C  7  X    0.041748  -0.000684   0.173427  -0.000000  -0.144609
   54  C  7  Y    0.107400  -0.106739   0.249252  -0.000000   0.160942
   55  C  7  Z   -0.000000  -0.000000  -0.000000   0.104472   0.000000
   56  C  7  S   -0.151269  -0.017629   0.095040  -0.000000  -0.048920
   57  C  7  X    0.005786  -0.059451   0.039385  -0.000000  -0.065715
   58  C  7  Y    0.018501  -0.014183   0.080653  -0.000000   0.025100
   59  C  7  Z   -0.000000  -0.000000  -0.000000   0.054432   0.000000
   60  H  8  S    0.133573  -0.137477  -0.112065  -0.000000   0.093334
   61  H  8  S    0.113341  -0.105540  -0.108251  -0.000000   0.076206
   62  H  8  X   -0.004490   0.003207   0.002119  -0.000000  -0.002007
   63  H  8  Y    0.008534  -0.006055  -0.004210  -0.000000   0.005250
   64  H  8  Z   -0.000000  -0.000000  -0.000000   0.002756   0.000000
   65  C  9  S   -0.055323   0.024032  -0.008391  -0.000000   0.001358
   66  C  9  S    0.111803  -0.057536   0.020345  -0.000000  -0.002328
   67  C  9  X   -0.102880  -0.232412   0.083593  -0.000000   0.018378
   68  C  9  Y   -0.001412  -0.010919  -0.077616  -0.000000  -0.223177
   69  C  9  Z   -0.000000  -0.000000  -0.000000   0.084838   0.000000
   70  C  9  S    0.154509  -0.087555   0.031033  -0.000000  -0.002946
   71  C  9  X   -0.018405  -0.057689   0.022028  -0.000000   0.003385
   72  C  9  Y    0.000846   0.018126   0.034618  -0.000000  -0.084781
   73  C  9  Z   -0.000000  -0.000000  -0.000000   0.044982   0.000000
   74  H 10  S   -0.129670   0.155012   0.095318  -0.000000   0.071553
   75  H 10  S   -0.094085   0.133897   0.092461  -0.000000   0.074073
   76  H 10  X   -0.004439   0.003174   0.002074  -0.000000   0.004723
   77  H 10  Y    0.008030  -0.006828  -0.003446  -0.000000  -0.002861
   78  H 10  Z   -0.000000  -0.000000  -0.000000   0.001438   0.000000
   79  H 11  S   -0.128731   0.064168  -0.169490  -0.000000  -0.053494
   80  H 11  S   -0.093693   0.049859  -0.155626  -0.000000  -0.057700
   81  H 11  X   -0.004942   0.001734  -0.004110  -0.000000  -0.004558
   82  H 11  Y   -0.007636   0.003134  -0.006552  -0.000000  -0.001243
   83  H 11  Z   -0.000000  -0.000000  -0.000000   0.001388   0.000000
   84  H 12  S    0.123079   0.111655  -0.042412  -0.000000  -0.019238
   85  H 12  S    0.089625   0.108311  -0.041472  -0.000000  -0.018325
   86  H 12  X    0.008914   0.003979  -0.001604  -0.000000  -0.001228
   87  H 12  Y   -0.000342   0.000010   0.000045  -0.000000  -0.003161
   88  H 12  Z   -0.000000  -0.000000  -0.000000   0.001037   0.000000

                     21         22         23         24         25
                   -0.3682    -0.3478    -0.3441    -0.2630    -0.2358
                     A          A          A          A          A   
    1  O  1  S   -0.005020   0.000317   0.000000  -0.000000  -0.000000
    2  O  1  S    0.011316  -0.000734   0.000000  -0.000000  -0.000000
    3  O  1  X    0.207478  -0.036216   0.000000  -0.000000  -0.000000
    4  O  1  Y   -0.009685   0.308505   0.000000  -0.000000  -0.000000
    5  O  1  Z    0.000000   0.000000   0.398258  -0.003249   0.335056
    6  O  1  S   -0.021426   0.003748   0.000000  -0.000000  -0.000000
    7  O  1  X    0.145734  -0.025264   0.000000  -0.000000  -0.000000
    8  O  1  Y   -0.003431   0.202824   0.000000  -0.000000  -0.000000
    9  O  1  Z    0.000000   0.000000   0.271829  -0.003385   0.255212
   10  C  2  S   -0.013091   0.000528   0.000000  -0.000000  -0.000000
   11  C  2  S    0.029320  -0.001569   0.000000  -0.000000  -0.000000
   12  C  2  X   -0.115330   0.012733   0.000000  -0.000000  -0.000000
   13  C  2  Y   -0.018060  -0.280862   0.000000  -0.000000  -0.000000
   14  C  2  Z    0.000000   0.000000   0.014916   0.009662  -0.293880
   15  C  2  S   -0.013369  -0.000655   0.000000  -0.000000  -0.000000
   16  C  2  X    0.068727  -0.006176   0.000000  -0.000000  -0.000000
   17  C  2  Y   -0.010465  -0.043122   0.000000  -0.000000  -0.000000
   18  C  2  Z    0.000000   0.000000   0.032557   0.006729  -0.171357
   19  C  3  S    0.012348   0.010467   0.000000  -0.000000  -0.000000
   20  C  3  S   -0.033630  -0.025127   0.000000  -0.000000  -0.000000
   21  C  3  X    0.249846  -0.085646   0.000000  -0.000000  -0.000000
   22  C  3  Y    0.013936   0.223628   0.000000  -0.000000  -0.000000
   23  C  3  Z    0.000000   0.000000  -0.131781  -0.298573  -0.215230
   24  C  3  S    0.001678  -0.083938   0.000000  -0.000000  -0.000000
   25  C  3  X    0.075592  -0.017088   0.000000  -0.000000  -0.000000
   26  C  3  Y   -0.047337   0.078332   0.000000  -0.000000  -0.000000
   27  C  3  Z    0.000000   0.000000  -0.084594  -0.214003  -0.167135
   28  C  4  S    0.015479  -0.010050   0.000000  -0.000000  -0.000000
   29  C  4  S   -0.039230   0.025491   0.000000  -0.000000  -0.000000
   30  C  4  X    0.239195   0.056227   0.000000  -0.000000  -0.000000
   31  C  4  Y    0.001379   0.218329   0.000000  -0.000000  -0.000000
   32  C  4  Z    0.000000   0.000000  -0.136779   0.308498  -0.199995
   33  C  4  S   -0.013081   0.071948   0.000000  -0.000000  -0.000000
   34  C  4  X    0.073456   0.019751   0.000000  -0.000000  -0.000000
   35  C  4  Y    0.045618   0.068407   0.000000  -0.000000  -0.000000
   36  C  4  Z    0.000000   0.000000  -0.090127   0.220856  -0.158810
   37  C  5  S   -0.009672  -0.009790   0.000000  -0.000000  -0.000000
   38  C  5  S    0.018380   0.024603   0.000000  -0.000000  -0.000000
   39  C  5  X   -0.259732   0.038350   0.000000  -0.000000  -0.000000
   40  C  5  Y   -0.055681  -0.214963   0.000000  -0.000000  -0.000000
   41  C  5  Z    0.000000   0.000000  -0.226364  -0.297245   0.122366
   42  C  5  S    0.020791   0.056527   0.000000  -0.000000  -0.000000
   43  C  5  X   -0.075505   0.021073   0.000000  -0.000000  -0.000000
   44  C  5  Y   -0.008975  -0.067822   0.000000  -0.000000  -0.000000
   45  C  5  Z    0.000000   0.000000  -0.139812  -0.206902   0.088727
   46  H  6  S    0.095020   0.109063   0.000000  -0.000000  -0.000000
   47  H  6  S    0.116148   0.129835   0.000000  -0.000000  -0.000000
   48  H  6  X   -0.000805  -0.004510   0.000000  -0.000000  -0.000000
   49  H  6  Y   -0.005372  -0.005377   0.000000  -0.000000  -0.000000
   50  H  6  Z    0.000000   0.000000  -0.001585  -0.006721  -0.004610
   51  C  7  S   -0.009456   0.008898   0.000000  -0.000000  -0.000000
   52  C  7  S    0.016592  -0.022263   0.000000  -0.000000  -0.000000
   53  C  7  X   -0.245205  -0.008271   0.000000  -0.000000  -0.000000
   54  C  7  Y    0.009934  -0.217224   0.000000  -0.000000  -0.000000
   55  C  7  Z    0.000000   0.000000  -0.229090   0.287318   0.141042
   56  C  7  S    0.020300  -0.041998   0.000000  -0.000000  -0.000000
   57  C  7  X   -0.068862  -0.006427   0.000000  -0.000000  -0.000000
   58  C  7  Y   -0.002793  -0.067847   0.000000  -0.000000  -0.000000
   59  C  7  Z    0.000000   0.000000  -0.140636   0.200377   0.103651
   60  H  8  S    0.064038  -0.126474   0.000000  -0.000000  -0.000000
   61  H  8  S    0.084756  -0.150414   0.000000  -0.000000  -0.000000
   62  H  8  X    0.000737   0.004467   0.000000  -0.000000  -0.000000
   63  H  8  Y    0.003706  -0.006726   0.000000  -0.000000  -0.000000
   64  H  8  Z    0.000000   0.000000  -0.001827   0.006991  -0.004326
   65  C  9  S   -0.000416   0.000392   0.000000  -0.000000  -0.000000
   66  C  9  S    0.007770  -0.001149   0.000000  -0.000000  -0.000000
   67  C  9  X    0.289504  -0.012015   0.000000  -0.000000  -0.000000
   68  C  9  Y    0.026338   0.223735   0.000000  -0.000000  -0.000000
   69  C  9  Z    0.000000   0.000000  -0.255250  -0.009657   0.314506
   70  C  9  S    0.021026  -0.002649   0.000000  -0.000000  -0.000000
   71  C  9  X    0.083847  -0.004848   0.000000  -0.000000  -0.000000
   72  C  9  Y    0.009487   0.073592   0.000000  -0.000000  -0.000000
   73  C  9  Z    0.000000   0.000000  -0.152533  -0.006999   0.235623
   74  H 10  S    0.071361  -0.155118   0.000000  -0.000000  -0.000000
   75  H 10  S    0.067356  -0.165846   0.000000  -0.000000  -0.000000
   76  H 10  X   -0.000051  -0.004836   0.000000  -0.000000  -0.000000
   77  H 10  Y   -0.005562   0.007715   0.000000  -0.000000  -0.000000
   78  H 10  Z    0.000000   0.000000  -0.003899  -0.006899   0.003027
   79  H 11  S    0.106894   0.141304   0.000000  -0.000000  -0.000000
   80  H 11  S    0.104330   0.151055   0.000000  -0.000000  -0.000000
   81  H 11  X    0.001940   0.005153   0.000000  -0.000000  -0.000000
   82  H 11  Y    0.007013   0.006469   0.000000  -0.000000  -0.000000
   83  H 11  Z    0.000000   0.000000  -0.003987   0.006682   0.003468
   84  H 12  S   -0.218859   0.014140   0.000000  -0.000000  -0.000000
   85  H 12  S   -0.222692   0.014593   0.000000  -0.000000  -0.000000
   86  H 12  X   -0.012894   0.000891   0.000000  -0.000000  -0.000000
   87  H 12  Y    0.000737   0.001949   0.000000  -0.000000  -0.000000
   88  H 12  Z    0.000000   0.000000  -0.004461  -0.000207   0.007619

                     26         27         28         29         30
                   -0.0087     0.0060     0.0890     0.1377     0.1491
                     A          A          A          A          A   
    1  O  1  S   -0.000000   0.000000  -0.021775   0.003387   0.026349
    2  O  1  S   -0.000000   0.000000   0.050016  -0.008284  -0.060020
    3  O  1  X   -0.000000   0.000000  -0.157241   0.011507   0.158364
    4  O  1  Y   -0.000000   0.000000  -0.011020  -0.013541   0.014960
    5  O  1  Z   -0.002460  -0.178570  -0.000000   0.000000  -0.000000
    6  O  1  S   -0.000000   0.000000   0.194287  -0.037129  -0.265740
    7  O  1  X   -0.000000   0.000000  -0.192225   0.024357   0.224580
    8  O  1  Y   -0.000000   0.000000  -0.006848   0.003782   0.010024
    9  O  1  Z    0.000700  -0.181212  -0.000000   0.000000  -0.000000
   10  C  2  S   -0.000000   0.000000   0.030362  -0.001360  -0.000923
   11  C  2  S   -0.000000   0.000000  -0.059070  -0.000462  -0.020679
   12  C  2  X   -0.000000   0.000000  -0.139032   0.020644   0.242501
   13  C  2  Y   -0.000000   0.000000   0.004520  -0.036945  -0.008066
   14  C  2  Z   -0.008334   0.416699  -0.000000   0.000000  -0.000000
   15  C  2  S   -0.000000   0.000000  -0.237044   0.034012   0.176331
   16  C  2  X   -0.000000   0.000000  -0.104549   0.041330   0.230135
   17  C  2  Y   -0.000000   0.000000  -0.009262   0.115534  -0.011503
   18  C  2  Z   -0.012413   0.472242  -0.000000   0.000000  -0.000000
   19  C  3  S   -0.000000   0.000000   0.036907   0.028540  -0.040965
   20  C  3  S   -0.000000   0.000000  -0.066985  -0.030324   0.059224
   21  C  3  X   -0.000000   0.000000  -0.059710  -0.091547   0.132835
   22  C  3  Y   -0.000000   0.000000  -0.095451  -0.189407   0.107876
   23  C  3  Z    0.320452  -0.151941  -0.000000   0.000000  -0.000000
   24  C  3  S   -0.000000   0.000000  -0.410011  -0.694967   0.678609
   25  C  3  X   -0.000000   0.000000  -0.285394  -0.351920   0.436446
   26  C  3  Y   -0.000000   0.000000  -0.237519  -0.390986   0.462508
   27  C  3  Z    0.429703  -0.208377  -0.000000   0.000000  -0.000000
   28  C  4  S   -0.000000   0.000000   0.034903  -0.030641  -0.030879
   29  C  4  S   -0.000000   0.000000  -0.061318   0.031244   0.042538
   30  C  4  X   -0.000000   0.000000  -0.048385   0.089290   0.108295
   31  C  4  Y   -0.000000   0.000000   0.109319  -0.204206  -0.094706
   32  C  4  Z   -0.311364  -0.167912  -0.000000   0.000000  -0.000000
   33  C  4  S   -0.000000   0.000000  -0.417651   0.754243   0.518355
   34  C  4  X   -0.000000   0.000000  -0.283100   0.340386   0.372787
   35  C  4  Y   -0.000000   0.000000   0.267758  -0.450882  -0.423833
   36  C  4  Z   -0.415776  -0.226360  -0.000000   0.000000  -0.000000
   37  C  5  S   -0.000000   0.000000   0.045451   0.035528   0.001745
   38  C  5  S   -0.000000   0.000000  -0.072838  -0.036342  -0.004480
   39  C  5  X   -0.000000   0.000000   0.053229   0.092979   0.069945
   40  C  5  Y   -0.000000   0.000000  -0.119304  -0.204793  -0.070664
   41  C  5  Z   -0.322103  -0.204604  -0.000000   0.000000  -0.000000
   42  C  5  S   -0.000000   0.000000  -0.729691  -0.874545   0.060313
   43  C  5  X   -0.000000   0.000000   0.077168   0.317164   0.009624
   44  C  5  Y   -0.000000   0.000000  -0.275202  -0.457151  -0.371736
   45  C  5  Z   -0.426849  -0.273646  -0.000000   0.000000  -0.000000
   46  H  6  S   -0.000000   0.000000   0.079068   0.041085  -0.061763
   47  H  6  S   -0.000000   0.000000   0.769173   1.010574  -1.089254
   48  H  6  X   -0.000000   0.000000  -0.003008   0.001165   0.005852
   49  H  6  Y   -0.000000   0.000000  -0.003050  -0.001615  -0.002659
   50  H  6  Z    0.012355  -0.006604  -0.000000   0.000000  -0.000000
   51  C  7  S   -0.000000   0.000000   0.047429  -0.034539   0.001761
   52  C  7  S   -0.000000   0.000000  -0.076539   0.036165  -0.000568
   53  C  7  X   -0.000000   0.000000   0.059100  -0.088154   0.093636
   54  C  7  Y   -0.000000   0.000000   0.120594  -0.186951   0.089473
   55  C  7  Z    0.329267  -0.190836  -0.000000   0.000000  -0.000000
   56  C  7  S   -0.000000   0.000000  -0.760156   0.840991   0.011352
   57  C  7  X   -0.000000   0.000000   0.092131  -0.336116   0.096245
   58  C  7  Y   -0.000000   0.000000   0.286552  -0.387947   0.404175
   59  C  7  Z    0.435601  -0.256169  -0.000000   0.000000  -0.000000
   60  H  8  S   -0.000000   0.000000   0.079703  -0.047198  -0.057237
   61  H  8  S   -0.000000   0.000000   0.788467  -1.095211  -0.914735
   62  H  8  X   -0.000000   0.000000  -0.002955  -0.000064   0.006711
   63  H  8  Y   -0.000000   0.000000   0.003501  -0.001162   0.002008
   64  H  8  Z   -0.012037  -0.007296  -0.000000   0.000000  -0.000000
   65  C  9  S   -0.000000   0.000000   0.037668   0.003880   0.054592
   66  C  9  S   -0.000000   0.000000  -0.065496  -0.004305  -0.052697
   67  C  9  X   -0.000000   0.000000   0.133607   0.016707   0.255967
   68  C  9  Y   -0.000000   0.000000  -0.002593  -0.032310  -0.003941
   69  C  9  Z   -0.008684   0.365765  -0.000000   0.000000  -0.000000
   70  C  9  S   -0.000000   0.000000  -0.522084  -0.085102  -1.325022
   71  C  9  X   -0.000000   0.000000   0.352509   0.047265   0.557167
   72  C  9  Y   -0.000000   0.000000  -0.008866   0.187591  -0.024530
   73  C  9  Z   -0.010933   0.504977  -0.000000   0.000000  -0.000000
   74  H 10  S   -0.000000   0.000000   0.065663   0.045919   0.018494
   75  H 10  S   -0.000000   0.000000   0.819811   1.131582   0.411114
   76  H 10  X   -0.000000   0.000000   0.002082  -0.001102  -0.000032
   77  H 10  Y   -0.000000   0.000000  -0.002548  -0.001394  -0.000146
   78  H 10  Z   -0.012317  -0.008190  -0.000000   0.000000  -0.000000
   79  H 11  S   -0.000000   0.000000   0.068309  -0.041383   0.021501
   80  H 11  S   -0.000000   0.000000   0.851551  -1.051063   0.519259
   81  H 11  X   -0.000000   0.000000   0.002217   0.001244   0.000118
   82  H 11  Y   -0.000000   0.000000   0.002543  -0.001405   0.000179
   83  H 11  Z    0.012563  -0.007625  -0.000000   0.000000  -0.000000
   84  H 12  S   -0.000000   0.000000   0.061444   0.004655   0.046399
   85  H 12  S   -0.000000   0.000000   0.795129   0.097181   1.366609
   86  H 12  X   -0.000000   0.000000   0.003394   0.000021  -0.000372
   87  H 12  Y   -0.000000   0.000000  -0.000153  -0.002587   0.000490
   88  H 12  Z   -0.000339   0.014356  -0.000000   0.000000  -0.000000

                     31         32         33         34         35
                    0.1568     0.1782     0.1826     0.1982     0.2710
                     A          A          A          A          A   
    1  O  1  S   -0.000000  -0.040347  -0.001287   0.074864  -0.019569
    2  O  1  S   -0.000000   0.080765   0.002525  -0.167316   0.048799
    3  O  1  X   -0.000000  -0.112343   0.011209   0.304729   0.040540
    4  O  1  Y   -0.000000  -0.029084   0.084978   0.016160  -0.002261
[...]
    8            -0.000000  -0.000000  -0.000952   0.005334   0.023021
    9             0.001477   0.994817  -0.000399   0.155252   0.032142
   10            -0.000131   0.000029  -0.000042   0.008001   0.019654
   11             0.000012   0.000029  -0.000040   0.008334   0.018247
   12             0.000017  -0.000096  -0.000037   0.007006   0.000028

                     11         12         13         14         15

                  1.000000   1.000000   1.000000   1.000000   1.000000

    1             0.057900   0.037112   0.071705   0.117532   0.197371
    2             0.214251   0.172871   0.122793   0.067806   0.134218
    3             0.105253   0.130881   0.130329   0.113936   0.118558
    4             0.092290   0.128922   0.132062   0.119924   0.119206
    5             0.089382   0.146504   0.143657   0.095883   0.133016
    6             0.007467   0.028195   0.021417   0.048560   0.008783
    7             0.100969   0.145921   0.144868   0.091683   0.137536
    8             0.006082   0.028821   0.020384   0.056751   0.007532
    9             0.281241   0.100221   0.121805   0.146464   0.132223
   10             0.005958   0.040507   0.022780   0.034671   0.003461
   11             0.007554   0.039934   0.024592   0.030959   0.007519
   12             0.031654   0.000112   0.043609   0.075829   0.000579

                     16         17         18         19         20

                  1.000000   1.000000   1.000000   1.000000   1.000000

    1             0.260625   0.205408   0.031236   0.396379   0.541111
    2             0.062598   0.120869   0.032250   0.313125  -0.000090
    3             0.069610   0.017936   0.205805   0.096413   0.051684
    4             0.068237   0.121451   0.097629   0.091417   0.065313
    5             0.069508   0.148340   0.072398   0.038239   0.070767
    6             0.076773   0.002801   0.121021   0.000165   0.027053
    7             0.069452   0.027099   0.193790   0.037958   0.086771
    8             0.072185   0.071577   0.054003   0.000151   0.028586
    9             0.066954   0.115717   0.025212   0.026030   0.096952
   10             0.063381   0.097394   0.039089   0.000049   0.019241
   11             0.062549   0.015716   0.119605   0.000047   0.011017
   12             0.058130   0.055692   0.007961   0.000029   0.001596

                     21         22         23         24         25

                  1.000000   1.000000   1.000000   1.000000   1.000000

    1             0.080802   0.179644   0.339625   0.000028   0.203976
    2             0.022057   0.111468  -0.000642   0.000240   0.192286
    3             0.112044   0.095812   0.056226   0.250255   0.124471
    4             0.102278   0.085384   0.061529   0.266848   0.108913
    5             0.121638   0.087770   0.165309   0.247792   0.040176
    6             0.037127   0.047739   0.000067   0.000699   0.000345
    7             0.106069   0.085571   0.168809   0.231726   0.053708
    8             0.018001   0.062563   0.000083   0.000756   0.000305
    9             0.162822   0.083594   0.208004   0.000272   0.274671
   10             0.017881   0.087218   0.000298   0.000713   0.000129
   11             0.040682   0.072417   0.000309   0.000669   0.000171
   12             0.178599   0.000820   0.000383   0.000001   0.000849

     ATOMIC MULLIKEN POPULATION IN EACH MOLECULAR ORBITAL
         BETA ORBITALS

                      1          2          3          4          5

                  1.000000   1.000000   1.000000   1.000000   1.000000

    1             0.998432  -0.000544   0.000002   0.000002  -0.000001
    2             0.001521   0.995637   0.002169  -0.000097   0.000118
    3             0.000015   0.002485  -0.000068   0.097967   0.000733
    4             0.000016   0.002695   0.945915   0.000066   0.051862
    5            -0.000001  -0.000228   0.000119   0.897949   0.001099
    6             0.000010   0.000056   0.000000   0.000090  -0.000004
    7            -0.000001  -0.000233   0.051940   0.001546   0.943696
    8             0.000007   0.000056  -0.000009   0.000001  -0.000024
    9             0.000000   0.000078  -0.000152   0.002429   0.002596
   10            -0.000000  -0.000000  -0.000001   0.000010   0.000002
   11            -0.000000  -0.000000   0.000085  -0.000000  -0.000116
   12             0.000000   0.000000  -0.000001   0.000036   0.000038

                      6          7          8          9         10

                  1.000000   1.000000   1.000000   1.000000   1.000000

    1             0.000000   0.000000   0.782878   0.058608   0.001474
    2             0.002228   0.000058   0.181027   0.107200   0.067920
    3             0.899218  -0.000161   0.016815   0.132687   0.203348
    4            -0.000110  -0.000159   0.009768   0.137199   0.220029
    5             0.098275   0.002771   0.005633   0.176592   0.203356
    6            -0.000111  -0.000000  -0.000580   0.004484   0.021048
    7             0.000267   0.002768   0.005603   0.181102   0.186325
    8            -0.000000  -0.000000  -0.000620   0.004942   0.023106
    9             0.000275   0.994762  -0.000427   0.171673   0.033945
   10            -0.000049   0.000028  -0.000012   0.008546   0.020699
   11             0.000001   0.000029  -0.000018   0.008995   0.018694
   12             0.000006  -0.000096  -0.000066   0.007972   0.000057

                     11         12         13         14         15

                  1.000000   1.000000   1.000000   1.000000   1.000000

    1             0.074303   0.011379   0.061246   0.080797   0.028591
    2             0.201309   0.163190   0.127136   0.047353   0.172837
    3             0.113530   0.137599   0.131652   0.122659   0.151636
    4             0.096616   0.134873   0.135045   0.124758   0.155274
    5             0.081577   0.149007   0.147538   0.088196   0.158942
    6             0.008668   0.033011   0.021037   0.057141   0.004230
    7             0.096576   0.148939   0.147591   0.089185   0.159718
    8             0.006906   0.032180   0.022332   0.061201   0.005003
    9             0.275550   0.106552   0.109860   0.179011   0.160304
   10             0.004801   0.041233   0.028840   0.025513   0.000782
   11             0.007063   0.041913   0.027983   0.024939   0.002275
   12             0.033100   0.000124   0.039739   0.099246   0.000409

                     16         17         18         19         20

                  1.000000   1.000000   1.000000   1.000000   1.000000

    1             0.160459   0.014048   0.335919   0.272860   0.126246
    2             0.057631   0.018797   0.142398   0.334033   0.034574
    3             0.072109   0.136475   0.079672   0.121001   0.103881
    4             0.072427   0.189851   0.020399   0.116597   0.104840
    5             0.107478   0.164260   0.020983   0.056759   0.112943
    6             0.081593   0.083779   0.031578   0.000204   0.029845
    7             0.103515   0.112988   0.077625   0.056628   0.111231
    8             0.081330   0.107877   0.004553   0.000192   0.023054
    9             0.040859   0.011857   0.146959   0.041527   0.137755
   10             0.101373   0.092792   0.005650   0.000075   0.024601
   11             0.097465   0.063603   0.037873   0.000073   0.034544
   12             0.023763   0.003672   0.096391   0.000050   0.156487

                     21         22         23         24

                  1.000000   1.000000   1.000000   1.000000

    1             0.017708   0.372213   0.000039   0.280232
    2             0.090269   0.022089   0.000202   0.151072
    3             0.072883   0.028041   0.249618   0.131034
    4             0.068485   0.032711   0.265801   0.117157
    5             0.124314   0.157516   0.248436   0.028596
    6             0.077966   0.000026   0.000701   0.000366
    7             0.125456   0.162233   0.232796   0.040266
    8             0.082008   0.000038   0.000757   0.000333
    9             0.148356   0.224081   0.000263   0.249916
   10             0.101107   0.000300   0.000714   0.000096
   11             0.091112   0.000314   0.000671   0.000133
   12             0.000337   0.000438   0.000001   0.000800

     ATOMIC SPIN POPULATION (ALPHA MINUS BETA)
       ATOM         MULL.POP.                    LOW.POP.
    1 OXYGEN        0.963384                     0.951164
    2 CARBON       -0.044829                    -0.022480
    3 CARBON        0.040983                     0.036008
    4 CARBON        0.032329                     0.029270
    5 CARBON        0.007805                     0.005946
    6 HYDROGEN     -0.001415                    -0.001150
    7 CARBON        0.004379                     0.003058
    8 HYDROGEN     -0.000011                    -0.000468
    9 CARBON       -0.008867                    -0.006916
   10 HYDROGEN      0.003275                     0.003071
   11 HYDROGEN      0.002648                     0.002464
   12 HYDROGEN      0.000321                     0.000034


          ********* ALL ELECTRONS ********

               ----- POPULATIONS IN EACH AO -----
                             MULLIKEN      LOWDIN
              1  O  1  S      1.99765     1.99505
              2  O  1  S      0.95389     0.94331
              3  O  1  X      0.89510     0.84629
              4  O  1  Y      0.67436     0.64904
              5  O  1  Z      1.16355     1.13057
              6  O  1  S      1.08131     0.79895
              7  O  1  X      0.49771     0.59365
              8  O  1  Y      0.35179     0.38975
              9  O  1  Z      0.70180     0.74091
             10  C  2  S      1.99676     1.98657
             11  C  2  S      0.72676     0.55728
             12  C  2  X      0.65664     0.59194
             13  C  2  Y      0.81108     0.74104
             14  C  2  Z      0.61041     0.55061
             15  C  2  S      0.40825     0.36294
             16  C  2  X     -0.02424     0.30600
             17  C  2  Y      0.20888     0.37551
             18  C  2  Z      0.40200     0.45121
             19  C  3  S      1.99668     1.98761
             20  C  3  S      0.69821     0.53878
             21  C  3  X      0.76152     0.69122
             22  C  3  Y      0.73924     0.65714
             23  C  3  Z      0.60871     0.56222
             24  C  3  S      0.45713     0.38900
             25  C  3  X      0.17722     0.37793
             26  C  3  Y      0.16358     0.39077
             27  C  3  Z      0.44835     0.48956
             28  C  4  S      1.99669     1.98759
             29  C  4  S      0.69734     0.53700
             30  C  4  X      0.75962     0.69085
             31  C  4  Y      0.73988     0.65453
             32  C  4  Z      0.61001     0.56326
             33  C  4  S      0.45055     0.38919
             34  C  4  X      0.16879     0.37581
             35  C  4  Y      0.16272     0.39475
             36  C  4  Z      0.45097     0.49271
             37  C  5  S      1.99672     1.98788
             38  C  5  S      0.70265     0.54052
             39  C  5  X      0.75977     0.69146
             40  C  5  Y      0.76295     0.67392
             41  C  5  Z      0.56258     0.51291
             42  C  5  S      0.48640     0.38985
             43  C  5  X      0.17233     0.37485
             44  C  5  Y      0.20838     0.40221
             45  C  5  Z      0.42024     0.46536
             46  H  6  S      0.54069     0.50929
             47  H  6  S      0.35411     0.37784
             48  H  6  X      0.00399     0.01168
             49  H  6  Y      0.00750     0.02201
             50  H  6  Z      0.00257     0.00844
             51  C  7  S      1.99672     1.98787
             52  C  7  S      0.70230     0.54055
             53  C  7  X      0.75872     0.68824
             54  C  7  Y      0.76360     0.67663
             55  C  7  Z      0.56297     0.51347
             56  C  7  S      0.49014     0.38983
             57  C  7  X      0.17718     0.37696
             58  C  7  Y      0.20712     0.40006
             59  C  7  Z      0.42115     0.46575
             60  H  8  S      0.54165     0.50992
             61  H  8  S      0.35465     0.37712
             62  H  8  X      0.00338     0.01002
             63  H  8  Y      0.00814     0.02375
             64  H  8  Z      0.00262     0.00859
             65  C  9  S      1.99670     1.98782
             66  C  9  S      0.69802     0.53828
             67  C  9  X      0.75210     0.65660
             68  C  9  Y      0.76171     0.70359
             69  C  9  Z      0.58451     0.53688
             70  C  9  S      0.47472     0.38996
             71  C  9  X      0.20856     0.41330
             72  C  9  Y      0.15061     0.36496
             73  C  9  Z      0.44026     0.48480
             74  H 10  S      0.54386     0.51403
             75  H 10  S      0.35959     0.37904
             76  H 10  X      0.00342     0.00992
             77  H 10  Y      0.00824     0.02349
             78  H 10  Z      0.00237     0.00735
             79  H 11  S      0.54403     0.51438
             80  H 11  S      0.35985     0.37909
             81  H 11  X      0.00386     0.01117
             82  H 11  Y      0.00778     0.02221
             83  H 11  Z      0.00239     0.00739
             84  H 12  S      0.54411     0.51472
             85  H 12  S      0.36721     0.38250
             86  H 12  X      0.01003     0.02839
             87  H 12  Y      0.00143     0.00463
             88  H 12  Z      0.00255     0.00801

          ----- MULLIKEN ATOMIC OVERLAP POPULATIONS -----
          (OFF-DIAGONAL ELEMENTS NEED TO BE MULTIPLIED BY 2)

             1           2           3           4           5

    1    8.2530284
    2    0.2017891   4.8550558
    3   -0.0689661   0.4509790   4.9587985
    4   -0.0643001   0.4447683  -0.0444260   4.9503629
    5    0.0046343  -0.0177528   0.5030322  -0.0434009   4.8367284
    6   -0.0070831  -0.0481707   0.3711802   0.0063095  -0.0332235
    7    0.0042975  -0.0126792  -0.0443815   0.4949650  -0.0383335
    8   -0.0059831  -0.0488549   0.0059096   0.3739227   0.0000388
    9   -0.0001540  -0.0388700  -0.0542550  -0.0545040   0.5289546
   10   -0.0000520   0.0048855  -0.0335935   0.0010558   0.3631431
   11   -0.0000456   0.0046673   0.0010357  -0.0334339   0.0047095
   12    0.0000015   0.0006988   0.0053296   0.0052420  -0.0365064

             6           7           8           9          10

    6    0.6213907
    7   -0.0000014   4.8485368
    8   -0.0001349  -0.0355132   0.6227262
    9    0.0054647   0.5310482   0.0054762   4.8482392
   10   -0.0067217   0.0046277   0.0000129  -0.0355920   0.6266202
   11    0.0000123   0.3634698  -0.0070042  -0.0353547  -0.0001972
   12   -0.0001622  -0.0361375  -0.0001616   0.3667385  -0.0067150

            11          12

   11    0.6268588
   12   -0.0068092   0.6338045

          TOTAL MULLIKEN AND LOWDIN ATOMIC POPULATIONS
       ATOM         MULL.POP.    CHARGE          LOW.POP.     CHARGE
    1 OXYGEN        8.317167   -0.317167         8.087522   -0.087522
    2 CARBON        5.796516    0.203484         5.923078    0.076922
    3 CARBON        6.050643   -0.050643         6.084224   -0.084224
    4 CARBON        6.036561   -0.036561         6.085686   -0.085686
    5 CARBON        6.072024   -0.072024         6.038955   -0.038955
    6 HYDROGEN      0.908860    0.091140         0.929252    0.070748
    7 CARBON        6.079899   -0.079899         6.039371   -0.039371
    8 HYDROGEN      0.910434    0.089566         0.929411    0.070589
    9 CARBON        6.067192   -0.067192         6.076182   -0.076182
   10 HYDROGEN      0.917474    0.082526         0.933833    0.066167
   11 HYDROGEN      0.917908    0.082092         0.934234    0.065766
   12 HYDROGEN      0.925323    0.074677         0.938252    0.061748

          -------------------------------
          BOND ORDER AND VALENCE ANALYSIS     BOND ORDER THRESHOLD=0.050
          -------------------------------

                   BOND                       BOND                       BOND
  ATOM PAIR DIST  ORDER      ATOM PAIR DIST  ORDER      ATOM PAIR DIST  ORDER
    1   2  1.395  0.910        2   3  1.391  1.350        2   4  1.392  1.356
    2   9  2.775  0.090        3   5  1.392  1.445        3   6  1.083  0.938
    3   7  2.783  0.098        4   5  2.796  0.096        4   7  1.393  1.430
    4   8  1.080  0.940        5   9  1.393  1.433        5  10  1.084  0.940
    7   9  1.393  1.440        7  11  1.084  0.941        9  12  1.084  0.946

                       TOTAL       BONDED        FREE
      ATOM            VALENCE     VALENCE     VALENCE
    1 OXYGEN            1.898       1.071       0.827
    2 CARBON            3.728       3.726       0.002
    3 CARBON            3.857       3.855       0.002
    4 CARBON            3.846       3.844       0.001
    5 CARBON            3.924       3.924       0.000
    6 HYDROGEN          0.959       0.959       0.000
    7 CARBON            3.923       3.923       0.000
    8 HYDROGEN          0.959       0.959       0.000
    9 CARBON            3.893       3.892       0.000
   10 HYDROGEN          0.961       0.961       0.000
   11 HYDROGEN          0.961       0.961       0.000
   12 HYDROGEN          0.963       0.963       0.000

          -----------------------------------------
          ATOMIC SPIN DENSITY AT THE NUCLEUS (A.U.)
          -----------------------------------------
                            SPIN DENS    ALPHA DENS     BETA DENS
    1  OXYGEN       8.0     0.1675475     145.93800     145.77046
    2  CARBON       6.0    -0.0284194      59.05385      59.08227
    3  CARBON       6.0     0.0442651      59.07144      59.02718
    4  CARBON       6.0     0.0351668      59.06144      59.02627
    5  CARBON       6.0     0.0066671      59.06371      59.05704
    6  HYDROGEN     1.0    -0.0009073       0.21388       0.21479
    7  CARBON       6.0     0.0036982      59.06204      59.05834
    8  HYDROGEN     1.0    -0.0006606       0.21457       0.21523
    9  CARBON       6.0    -0.0014994      59.05204      59.05353
   10  HYDROGEN     1.0     0.0017740       0.21672       0.21495
   11  HYDROGEN     1.0     0.0014566       0.21667       0.21521
   12  HYDROGEN     1.0     0.0000978       0.21599       0.21590

          ---------------------
          ELECTROSTATIC MOMENTS
          ---------------------

 POINT   1           X           Y           Z (BOHR)    CHARGE
                 0.000000    0.000000    0.000000        0.00 (A.U.)
         DX          DY          DZ         /D/  (DEBYE)
    -1.797062   -0.045740    0.000000    1.797644
 ...... END OF PROPERTY EVALUATION ......
 STEP CPU TIME =     0.01 TOTAL CPU TIME =       61.8 (    1.0 MIN)
 TOTAL WALL CLOCK TIME=       62.0 SECONDS, CPU UTILIZATION IS  99.63%
               580000  WORDS OF DYNAMIC MEMORY USED
 EXECUTION OF GAMESS TERMINATED NORMALLY Fri Jun  2 02:04:29 2017
 DDI: 263640 bytes (0.3 MB / 0 MWords) used by master data server.

 ----------------------------------------
 CPU timing information for all processes
 ========================================
 0: 61.754 + 0.27 = 61.782
 ----------------------------------------
 ddikick.x: exited gracefully.
unset echo
----- accounting info -----
Files used on the master node compute-0-7.local were:
-rw-rw-r-- 1 sarom sarom    1335 Jun  2 02:03 /scratch/omp-exam07.F05
-rw-rw-r-- 1 sarom sarom 2061360 Jun  2 02:04 /scratch/omp-exam07.F10
rm: cannot remove `/scratch/sarom': Is a directory
rm: cannot remove `/scratch/tmp': Is a directory
ls: No match.
ls: No match.
ls: No match.
Fri Jun  2 02:04:32 CDT 2017
0.251u 0.149s 1:05.49 0.5%	0+0k 8+376io 0pf+0w
Deleting shmid=2523136.
Deleting shmid=2555905.
Deleting shmid=2785282.
/opt/gridengine/default/spool/compute-0-7/active_jobs/23667.1/pe_hostfile compute-0-7.local
