-catch_rsh /opt/gridengine/default/spool/compute-0-8/active_jobs/23662.1/pe_hostfile
compute-0-8
The primary node assigned by SGE to this run is compute-0-8
Warning: no access to tty (Bad file descriptor).
Thus no job control in this shell.
Deleting shmid=2785280.
Deleting shmid=2818049.
source /home/sarom/gamess.github.2017-05-31.14.06/install.info
setenv GMS_PATH /home/sarom/gamess.github.2017-05-31.14.06
setenv GMS_BUILD_DIR /home/sarom/gamess.github.2017-05-31.14.06
setenv GMS_TARGET linux64
setenv GMS_FORTRAN gfortran
setenv GMS_GFORTRAN_VERNO 4.4
setenv GMS_MATHLIB mkl-so
setenv GMS_MATHLIB_PATH /share/apps/intel/compilers_and_libraries_2017.1.132/linux/mkl/lib/intel64
setenv GMS_MKL_VERNO 12
setenv GMS_DDI_COMM sockets
setenv GMS_LIBCCHEM false
setenv GMS_EIGEN_PATH
setenv GMS_PHI false
setenv GMS_SHMTYPE sysv
setenv GMS_OPENMP false
unset echo
omp-exam02
tests/openmp_mod
----- GAMESS execution script 'rungms' -----
This job is running on host compute-0-8.local
under operating system Linux at Fri Jun 2 02:01:42 CDT 2017
Available scratch disk space (Kbyte units) at beginning of the job is
Filesystem           1K-blocks      Used Available Use% Mounted on
/dev/sda1             16126920   3867344  11440376  26% /
GAMESS temporary binary files will be written to /scratch
GAMESS supplementary output files will be written to /home/sarom/restart
Copying input file omp-exam02.inp to your run's scratch directory...
cp tests/openmp_mod/omp-exam02.inp /scratch/omp-exam02.F05
unset echo
The generated host list is
compute-0-8.local
/home/sarom/gamess.github.2017-05-31.14.06/ddikick.x /home/sarom/gamess.github.2017-05-31.14.06/gamess.00.x omp-exam02 -ddi 1 1 compute-0-8.local -scr /scratch

 Distributed Data Interface kickoff program.
 Initiating 1 compute processes on 1 nodes to run the following command:
 /home/sarom/gamess.github.2017-05-31.14.06/gamess.00.x omp-exam02 

          ******************************************************
          *         GAMESS VERSION = 20 APR 2017 (R1)          *
          *             FROM IOWA STATE UNIVERSITY             *
          * M.W.SCHMIDT, K.K.BALDRIDGE, J.A.BOATZ, S.T.ELBERT, *
          *   M.S.GORDON, J.H.JENSEN, S.KOSEKI, N.MATSUNAGA,   *
          *          K.A.NGUYEN, S.J.SU, T.L.WINDUS,           *
          *       TOGETHER WITH M.DUPUIS, J.A.MONTGOMERY       *
          *         J.COMPUT.CHEM.  14, 1347-1363(1993)        *
          **************** 64 BIT LINUX VERSION ****************

  SINCE 1993, STUDENTS AND POSTDOCS WORKING AT IOWA STATE UNIVERSITY
  AND ALSO IN THEIR VARIOUS JOBS AFTER LEAVING ISU HAVE MADE IMPORTANT
  CONTRIBUTIONS TO THE CODE:
     IVANA ADAMOVIC, CHRISTINE AIKENS, YURI ALEXEEV, POOJA ARORA,
     ANDREY ASADCHEV, ROB BELL, PRADIPTA BANDYOPADHYAY, JONATHAN BENTZ,
     BRETT BODE, KURT BRORSEN, CALEB CARLIN, GALINA CHABAN, WEI CHEN,
     CHEOL HO CHOI, PAUL DAY, ALBERT DEFUSCO, NUWAN DESILVA, TIM DUDLEY,
     DMITRI FEDOROV, GRAHAM FLETCHER, MARK FREITAG, KURT GLAESEMANN,
     DAN KEMP, GRANT MERRILL, NORIYUKI MINEZAWA, JONATHAN MULLIN,
     TAKESHI NAGATA, SEAN NEDD, HEATHER NETZLOFF, BOSILJKA NJEGIC, RYAN OLSON,
     MIKE PAK, SPENCER PRUITT, LUKE ROSKOP, JIM SHOEMAKER, LYUDMILA SLIPCHENKO,
     TONY SMITH, SAROM SOK LEANG, JIE SONG, TETSUYA TAKETSUGU, SIMON WEBB,
     PENG XU, SOOHAENG YOO, FEDERICO ZAHARIEV

  ADDITIONAL CODE HAS BEEN PROVIDED BY COLLABORATORS IN OTHER GROUPS:
     IOWA STATE UNIVERSITY:
          JOE IVANIC, AARON WEST, LAIMUTIS BYTAUTAS, KLAUS RUEDENBERG
     UNIVERSITY OF TOKYO: KIMIHIKO HIRAO, TAKAHITO NAKAJIMA,
          TAKAO TSUNEDA, MUNEAKI KAMIYA, SUSUMU YANAGISAWA,
          KIYOSHI YAGI, MAHITO CHIBA, SEIKEN TOKURA, NAOAKI KAWAKAMI
     UNIVERSITY OF AARHUS: FRANK JENSEN
     UNIVERSITY OF IOWA: VISVALDAS KAIRYS, HUI LI
     NATIONAL INST. OF STANDARDS AND TECHNOLOGY: WALT STEVENS, DAVID GARMER
     UNIVERSITY OF PISA: BENEDETTA MENNUCCI, JACOPO TOMASI
     UNIVERSITY OF MEMPHIS: HENRY KURTZ, PRAKASHAN KORAMBATH
     UNIVERSITY OF ALBERTA: TOBY ZENG, MARIUSZ KLOBUKOWSKI
     UNIVERSITY OF NEW ENGLAND: MARK SPACKMAN
     MIE UNIVERSITY: HIROAKI UMEDA
     NAT. INST. OF ADVANCED INDUSTRIAL SCIENCE AND TECHNOLOGY: KAZUO KITAURA
     MICHIGAN STATE UNIVERSITY:
          KAROL KOWALSKI, MARTA WLOCH, JEFFREY GOUR, JESSE LUTZ,
          WEI LI, PIOTR PIECUCH
     UNIVERSITY OF SILESIA: MONIKA MUSIAL, STANISLAW KUCHARSKI
     FACULTES UNIVERSITAIRES NOTRE-DAME DE LA PAIX:
          OLIVIER QUINET, BENOIT CHAMPAGNE
     UNIVERSITY OF CALIFORNIA - SANTA BARBARA: BERNARD KIRTMAN
     INSTITUTE FOR MOLECULAR SCIENCE:
          KAZUYA ISHIMURA, MICHIO KATOUDA, AND SHIGERU NAGASE
     UNIVERSITY OF NOTRE DAME: ANNA POMOGAEVA, DAN CHIPMAN
     KYUSHU UNIVERSITY:
          HARUYUKI NAKANO,
          FENG LONG GU, JACEK KORCHOWIEC, MARCIN MAKOWSKI, AND YURIKO AOKI,
          HIROTOSHI MORI AND EISAKU MIYOSHI
     PENNSYLVANIA STATE UNIVERSITY:
          TZVETELIN IORDANOV, CHET SWALINA, JONATHAN SKONE,
          SHARON HAMMES-SCHIFFER
     WASEDA UNIVERSITY:
          MASATO KOBAYASHI, TOMOKO AKAMA, TSUGUKI TOUMA,
          TAKESHI YOSHIKAWA, YASUHIRO IKABATA, JUNJI SEINO,
          YUYA NAKAJIMA, HIROMI NAKAI
     NANJING UNIVERSITY: SHUHUA LI
     UNIVERSITY OF NEBRASKA:
          PEIFENG SU, DEJUN SI, NANDUN THELLAMUREGE, YALI WANG, HUI LI
     UNIVERSITY OF ZURICH: ROBERTO PEVERATI, KIM BALDRIDGE
     N. COPERNICUS UNIVERSITY AND JACKSON STATE UNIVERSITY:
          MARIA BARYSZ
     UNIVERSITY OF COPENHAGEN: Jimmy Kromann, CASPER STEINMANN
     TOKYO INSTITUTE OF TECHNOLOGY: HIROYA NAKATA
     NAGOYA UNIVERSITY: YOSHIO NISHIMOTO, STEPHAN IRLE
     MOSCOW STATE UNIVERSITY: VLADIMIR MIRONOV

 EXECUTION OF GAMESS BEGUN Fri Jun  2 02:01:42 2017

            ECHO OF THE FIRST FEW INPUT CARDS -
 INPUT CARD>!                                                                               
 INPUT CARD>! 2-prz_rhf_cc-pVDZ.inp                                                         
 INPUT CARD>! This is a more advanced test: two pyrazine molecules on a                     
 INPUT CARD>! long distance from each other. This is done to look at                        
 INPUT CARD>! Schwartz screening performance impact.                                        
 INPUT CARD>! In this test cc-pVDZ basis is used that contain no L functions                
 INPUT CARD>!                                                                               
 INPUT CARD>! Method: RHF/cc-pVDZ                                                           
 INPUT CARD>! Final energy: -525.4012247420 a.u.                                            
 INPUT CARD>!                                                                               
 INPUT CARD> $CONTRL                                                                        
 INPUT CARD>  SCFTYP=rhf                                                                    
 INPUT CARD>!  dfttyp=b3lyp                                                                 
 INPUT CARD>  RUNTYP=Energy                                                                 
 INPUT CARD>  ispher=1                                                                      
 INPUT CARD>  maxit=50 nprint=4 $END                                                        
 INPUT CARD> $SYSTEM TIMLIM=50 MEMORY=10000000 $END                                         
 INPUT CARD> $SCF    DIRSCF=.TRUE. CONV=1.0d-7 FDIFF=.false. $END                           
 INPUT CARD>! $BASIS  GBASIS=n311 NGAUSS=6 npfunc=1 ndfunc=1 $END                           
 INPUT CARD>! $BASIS  GBASIS=n21 NGAUSS=3 $END                                              
 INPUT CARD>! $BASIS  GBASIS=n31 NGAUSS=6 npfunc=1 ndfunc=1 $END                            
 INPUT CARD> $BASIS  GBASIS=ccd $END                                                        
 INPUT CARD>! $BASIS  GBASIS=n21 NGAUSS=3 $END                                              
 INPUT CARD> $GUESS  GUESS=huckel $END                                                      
 INPUT CARD> $DATA                                                                          
 INPUT CARD>Two pyrazine molecules on the 20 A distance from each other                     
 INPUT CARD>C1                                                                              
 INPUT CARD>NITROGEN    7.0      1.386350000        -0.291970000         0.013520000        
 INPUT CARD>NITROGEN    7.0     -1.386330000         0.292270000         0.006810000        
 INPUT CARD>CARBON      6.0      0.918820000         0.970770000        -0.018780000        
 INPUT CARD>CARBON      6.0     -0.448890000         1.258970000        -0.022080000        
 INPUT CARD>CARBON      6.0     -0.918810000        -0.970950000         0.007300000        
 INPUT CARD>CARBON      6.0      0.448860000        -1.259140000         0.010580000        
 INPUT CARD>HYDROGEN    1.0      1.661070000         1.765960000        -0.025760000        
 INPUT CARD>HYDROGEN    1.0     -0.807120000         2.286040000        -0.031760000        
 INPUT CARD>HYDROGEN    1.0      0.807140000        -2.286110000         0.027350000        
 INPUT CARD>HYDROGEN    1.0     -1.661090000        -1.766020000         0.021390000        
 INPUT CARD>NITROGEN    7.0      1.386350000        -0.291970000        20.013520000        
 INPUT CARD>NITROGEN    7.0     -1.386330000         0.292270000        20.006810000        
 INPUT CARD>CARBON      6.0      0.918820000         0.970770000        19.981220000        
 INPUT CARD>CARBON      6.0     -0.448890000         1.258970000        19.977920000        
 INPUT CARD>CARBON      6.0     -0.918810000        -0.970950000        20.007300000        
 INPUT CARD>CARBON      6.0      0.448860000        -1.259140000        20.010580000        
 INPUT CARD>HYDROGEN    1.0      1.661070000         1.765960000        19.974240000        
 INPUT CARD>HYDROGEN    1.0     -0.807120000         2.286040000        19.968240000        
 INPUT CARD>HYDROGEN    1.0      0.807140000        -2.286110000        20.027350000        
 INPUT CARD>HYDROGEN    1.0     -1.661090000        -1.766020000        20.021390000        
 INPUT CARD> $END                                                                           
   10000000 WORDS OF MEMORY AVAILABLE

     BASIS OPTIONS
     -------------
     GBASIS=CCD          IGAUSS=       0      POLAR=NONE    
     NDFUNC=       0     NFFUNC=       0     DIFFSP=       F
     NPFUNC=       0      DIFFS=       F     BASNAM=        


     RUN TITLE
     ---------
 Two pyrazine molecules on the 20 A distance from each other                     

 THE POINT GROUP OF THE MOLECULE IS C1      
 THE ORDER OF THE PRINCIPAL AXIS IS     0

 ATOM      ATOMIC                      COORDINATES (BOHR)
           CHARGE         X                   Y                   Z
 NITROGEN    7.0     2.6198216231       -0.5517432966        0.0255490954
 NITROGEN    7.0    -2.6197838286        0.5523102144        0.0128690340
 CARBON      6.0     1.7363180320        1.8344892971       -0.0354890540
 CARBON      6.0    -0.8482790986        2.3791083268       -0.0417251498
 CARBON      6.0    -1.7362991348       -1.8348294478        0.0137949997
 CARBON      6.0     0.8482224068       -2.3794295802        0.0199933010
 HYDROGEN    1.0     3.1389671464        3.3371805053       -0.0486793414
 HYDROGEN    1.0    -1.5252356392        4.3199891970       -0.0600176974
 HYDROGEN    1.0     1.5252734337       -4.3201214778        0.0516840058
 HYDROGEN    1.0    -3.1390049409       -3.3372938888        0.0404212389
 NITROGEN    7.0     2.6198216231       -0.5517432966       37.8200688498
 NITROGEN    7.0    -2.6197838286        0.5523102144       37.8073887884
 CARBON      6.0     1.7363180320        1.8344892971       37.7590307004
 CARBON      6.0    -0.8482790986        2.3791083268       37.7527946046
 CARBON      6.0    -1.7362991348       -1.8348294478       37.8083147541
 CARBON      6.0     0.8482224068       -2.3794295802       37.8145130554
 HYDROGEN    1.0     3.1389671464        3.3371805053       37.7458404130
 HYDROGEN    1.0    -1.5252356392        4.3199891970       37.7345020571
 HYDROGEN    1.0     1.5252734337       -4.3201214778       37.8462037602
 HYDROGEN    1.0    -3.1390049409       -3.3372938888       37.8349409933

          INTERNUCLEAR DISTANCES (ANGS.)
          ------------------------------

                1 NITR       2 NITR       3 CARB       4 CARB       5 CARB  

   1 NITR    0.0000000    2.8335730 *  1.3469001 *  2.4030789 *  2.4030845 *
   2 NITR    2.8335730 *  0.0000000    2.4030675 *  1.3468991 *  1.3469595 *
   3 CARB    1.3469001 *  2.4030675 *  0.0000000    1.3977485 *  2.6735446 *
   4 CARB    2.4030789 *  1.3468991 *  1.3977485 *  0.0000000    2.2790856 *
   5 CARB    2.4030845 *  1.3469595 *  2.6735446 *  2.2790856 *  0.0000000  
   6 CARB    1.3469647 *  2.4030833 *  2.2790838 *  2.6735556 *  1.3977072 *
   7 HYDR    2.0765572 *  3.3851839    1.0878010 *  2.1700193 *  3.7613229  
   8 HYDR    3.3851878    2.0765574 *  2.1700167 *  1.0877937 *  3.2591386  
   9 HYDR    2.0766005 *  3.3852291    3.2591207    3.7613358    2.1700118 *
  10 HYDR    3.3852291    2.0765990 *  3.7613254    3.2591230    1.0878026 *
  11 NITR   20.0000000   20.2063736   20.0775033   20.1791672   20.1500277  
  12 NITR   20.1930863   20.0000000   20.1692423   20.0741061   20.0448173  
  13 CARB   20.0130492   20.1184277   20.0000000   20.0520747   20.1520381  
  14 CARB   20.1084755   20.0164567   20.0454908   20.0000000   20.1002247  
  15 CARB   20.1376765   20.0457951   20.2037383   20.1586069   20.0000000  
  16 CARB   20.0423730   20.1475956   20.1585868   20.2102523   20.0520519  
  17 HYDR   20.0684053   20.2523250   20.0225900   20.1137213   20.3180991  
  18 HYDR   20.2397702   20.0691129   20.1044715   20.0198925   20.2252215  
  19 HYDR   20.1212691   20.3047131   20.3092853   20.3991384   20.1373025  
  20 HYDR   20.2922294   20.1220144   20.3900556   20.3066660   20.0436253  

                6 CARB       7 HYDR       8 HYDR       9 HYDR      10 HYDR  

   1 NITR    1.3469647 *  2.0765572 *  3.3851878    2.0766005 *  3.3852291  
   2 NITR    2.4030833 *  3.3851839    2.0765574 *  3.3852291    2.0765990 *
   3 CARB    2.2790838 *  1.0878010 *  2.1700167 *  3.2591207    3.7613254  
   4 CARB    2.6735556 *  2.1700193 *  1.0877937 *  3.7613358    3.2591230  
   5 CARB    1.3977072 *  3.7613229    3.2591386    2.1700118 *  1.0878026 *
   6 CARB    0.0000000    3.2591416    3.7613268    1.0878020 *  2.1700076 *
   7 HYDR    3.2591416    0.0000000    2.5223959 *  4.1414114    4.8491085  
   8 HYDR    3.7613268    2.5223959 *  0.0000000    4.8491118    4.1414104  
   9 HYDR    1.0878020 *  4.1414114    4.8491118    0.0000000    2.5224370 *
  10 HYDR    2.1700076 *  4.8491085    4.1414104    2.5224370 *  0.0000000  
  11 NITR   20.0482397   20.1465454   20.3290604   20.0937570   20.2767102  
  12 NITR   20.1401095   20.3165516   20.1458405   20.2642092   20.0930103  
  13 CARB   20.1002444   20.0365294   20.1302800   20.2182261   20.3110996  
  14 CARB   20.1455082   20.1210383   20.0392239   20.3019814   20.2208576  
  15 CARB   20.0455079   20.3830800   20.3023246   20.0974364   20.0154869  
  16 CARB   20.0000000   20.2996454   20.3921843   20.0128087   20.1066291  
  17 HYDR   20.2279115   20.0000000   20.1643865   20.3722087   20.5335787  
  18 HYDR   20.3089630   20.1524808   20.0000000   20.5219269   20.3721692  
  19 HYDR   20.0462992   20.4762225   20.6368187   20.0000000   20.1643519  
  20 HYDR   20.1281229   20.6252237   20.4762614   20.1525256   20.0000000  

               11 NITR      12 NITR      13 CARB      14 CARB      15 CARB  

   1 NITR   20.0000000   20.1930863   20.0130492   20.1084755   20.1376765  
   2 NITR   20.2063736   20.0000000   20.1184277   20.0164567   20.0457951  
   3 CARB   20.0775033   20.1692423   20.0000000   20.0454908   20.2037383  
   4 CARB   20.1791672   20.0741061   20.0520747   20.0000000   20.1586069  
   5 CARB   20.1500277   20.0448173   20.1520381   20.1002247   20.0000000  
   6 CARB   20.0482397   20.1401095   20.1002444   20.1455082   20.0455079  
   7 HYDR   20.1465454   20.3165516   20.0365294   20.1210383   20.3830800  
   8 HYDR   20.3290604   20.1458405   20.1302800   20.0392239   20.3023246  
   9 HYDR   20.0937570   20.2642092   20.2182261   20.3019814   20.0974364  
  10 HYDR   20.2767102   20.0930103   20.3110996   20.2208576   20.0154869  
  11 NITR    0.0000000    2.8335730 *  1.3469001 *  2.4030789 *  2.4030845 *
  12 NITR    2.8335730 *  0.0000000    2.4030675 *  1.3468991 *  1.3469595 *
  13 CARB    1.3469001 *  2.4030675 *  0.0000000    1.3977485 *  2.6735446 *
  14 CARB    2.4030789 *  1.3468991 *  1.3977485 *  0.0000000    2.2790856 *
  15 CARB    2.4030845 *  1.3469595 *  2.6735446 *  2.2790856 *  0.0000000  
  16 CARB    1.3469647 *  2.4030833 *  2.2790838 *  2.6735556 *  1.3977072 *
  17 HYDR    2.0765572 *  3.3851839    1.0878010 *  2.1700193 *  3.7613229  
  18 HYDR    3.3851878    2.0765574 *  2.1700167 *  1.0877937 *  3.2591386  
  19 HYDR    2.0766005 *  3.3852291    3.2591207    3.7613358    2.1700118 *
  20 HYDR    3.3852291    2.0765990 *  3.7613254    3.2591230    1.0878026 *

               16 CARB      17 HYDR      18 HYDR      19 HYDR      20 HYDR  

   1 NITR   20.0423730   20.0684053   20.2397702   20.1212691   20.2922294  
   2 NITR   20.1475956   20.2523250   20.0691129   20.3047131   20.1220144  
   3 CARB   20.1585868   20.0225900   20.1044715   20.3092853   20.3900556  
   4 CARB   20.2102523   20.1137213   20.0198925   20.3991384   20.3066660  
   5 CARB   20.0520519   20.3180991   20.2252215   20.1373025   20.0436253  
   6 CARB   20.0000000   20.2279115   20.3089630   20.0462992   20.1281229  
   7 HYDR   20.2996454   20.0000000   20.1524808   20.4762225   20.6252237  
   8 HYDR   20.3921843   20.1643865   20.0000000   20.6368187   20.4762614  
   9 HYDR   20.0128087   20.3722087   20.5219269   20.0000000   20.1525256  
  10 HYDR   20.1066291   20.5335787   20.3721692   20.1643519   20.0000000  
  11 NITR    1.3469647 *  2.0765572 *  3.3851878    2.0766005 *  3.3852291  
  12 NITR    2.4030833 *  3.3851839    2.0765574 *  3.3852291    2.0765990 *
  13 CARB    2.2790838 *  1.0878010 *  2.1700167 *  3.2591207    3.7613254  
  14 CARB    2.6735556 *  2.1700193 *  1.0877937 *  3.7613358    3.2591230  
  15 CARB    1.3977072 *  3.7613229    3.2591386    2.1700118 *  1.0878026 *
  16 CARB    0.0000000    3.2591416    3.7613268    1.0878020 *  2.1700076 *
  17 HYDR    3.2591416    0.0000000    2.5223959 *  4.1414114    4.8491085  
  18 HYDR    3.7613268    2.5223959 *  0.0000000    4.8491118    4.1414104  
  19 HYDR    1.0878020 *  4.1414114    4.8491118    0.0000000    2.5224370 *
  20 HYDR    2.1700076 *  4.8491085    4.1414104    2.5224370 *  0.0000000  

  * ... LESS THAN  3.000


     ATOMIC BASIS SET
     ----------------
 THE CONTRACTED PRIMITIVE FUNCTIONS HAVE BEEN UNNORMALIZED
 THE CONTRACTED BASIS FUNCTIONS ARE NOW NORMALIZED TO UNITY

  SHELL TYPE  PRIMITIVE        EXPONENT          CONTRACTION COEFFICIENT(S)

 NITROGEN  

      1   S       1          9046.0000000    0.000699617413
      1   S       2          1357.0000000    0.005386054630
      1   S       3           309.3000000    0.027391021189
      1   S       4            87.7300000    0.103150591982
      1   S       5            28.5600000    0.278570663317
      1   S       6            10.2100000    0.448294849454
      1   S       7             3.8380000    0.278085928395
      1   S       8             0.7466000    0.015431561233

      2   S       9          9046.0000000   -0.000304990096
      2   S      10          1357.0000000   -0.002408026379
      2   S      11           309.3000000   -0.011944448725
      2   S      12            87.7300000   -0.048925992909
      2   S      13            28.5600000   -0.134472724725
      2   S      14            10.2100000   -0.315112577700
      2   S      15             3.8380000   -0.242857832550
      2   S      16             0.7466000    1.094382206854

      3   S      17             0.2248000    1.000000000000

      4   P      18            13.5500000    0.058905676772
      4   P      19             2.9170000    0.320461106714
      4   P      20             0.7973000    0.753042061792

      5   P      21             0.2185000    1.000000000000

      6   D      22             0.8170000    1.000000000000

 NITROGEN  

      7   S      23          9046.0000000    0.000699617413
      7   S      24          1357.0000000    0.005386054630
      7   S      25           309.3000000    0.027391021189
      7   S      26            87.7300000    0.103150591982
      7   S      27            28.5600000    0.278570663317
      7   S      28            10.2100000    0.448294849454
      7   S      29             3.8380000    0.278085928395
      7   S      30             0.7466000    0.015431561233

      8   S      31          9046.0000000   -0.000304990096
      8   S      32          1357.0000000   -0.002408026379
      8   S      33           309.3000000   -0.011944448725
      8   S      34            87.7300000   -0.048925992909
      8   S      35            28.5600000   -0.134472724725
      8   S      36            10.2100000   -0.315112577700
      8   S      37             3.8380000   -0.242857832550
      8   S      38             0.7466000    1.094382206854

      9   S      39             0.2248000    1.000000000000

     10   P      40            13.5500000    0.058905676772
     10   P      41             2.9170000    0.320461106714
     10   P      42             0.7973000    0.753042061792

     11   P      43             0.2185000    1.000000000000

     12   D      44             0.8170000    1.000000000000

 CARBON    

     13   S      45          6665.0000000    0.000691583963
     13   S      46          1000.0000000    0.005325796153
     13   S      47           228.0000000    0.027060721042
     13   S      48            64.7100000    0.101656846141
     13   S      49            21.0600000    0.274574823617
     13   S      50             7.4950000    0.448294318924
     13   S      51             2.7970000    0.284902610715
     13   S      52             0.5215000    0.015194859206

     14   S      53          6665.0000000   -0.000293269653
     14   S      54          1000.0000000   -0.002318035474
     14   S      55           228.0000000   -0.011499786039
     14   S      56            64.7100000   -0.046826727010
     14   S      57            21.0600000   -0.128466168750
     14   S      58             7.4950000   -0.301266272463
     14   S      59             2.7970000   -0.255630702330
     14   S      60             0.5215000    1.093793361012

     15   S      61             0.1596000    1.000000000000

     16   P      62             9.4390000    0.056979251590
     16   P      63             2.0020000    0.313207211501
     16   P      64             0.5456000    0.760376741738

     17   P      65             0.1517000    1.000000000000

     18   D      66             0.5500000    1.000000000000

 CARBON    

     19   S      67          6665.0000000    0.000691583963
     19   S      68          1000.0000000    0.005325796153
     19   S      69           228.0000000    0.027060721042
     19   S      70            64.7100000    0.101656846141
     19   S      71            21.0600000    0.274574823617
     19   S      72             7.4950000    0.448294318924
     19   S      73             2.7970000    0.284902610715
     19   S      74             0.5215000    0.015194859206

     20   S      75          6665.0000000   -0.000293269653
     20   S      76          1000.0000000   -0.002318035474
     20   S      77           228.0000000   -0.011499786039
     20   S      78            64.7100000   -0.046826727010
     20   S      79            21.0600000   -0.128466168750
     20   S      80             7.4950000   -0.301266272463
     20   S      81             2.7970000   -0.255630702330
     20   S      82             0.5215000    1.093793361012

     21   S      83             0.1596000    1.000000000000

     22   P      84             9.4390000    0.056979251590
     22   P      85             2.0020000    0.313207211501
     22   P      86             0.5456000    0.760376741738

     23   P      87             0.1517000    1.000000000000

     24   D      88             0.5500000    1.000000000000

 CARBON    

     25   S      89          6665.0000000    0.000691583963
     25   S      90          1000.0000000    0.005325796153
     25   S      91           228.0000000    0.027060721042
     25   S      92            64.7100000    0.101656846141
     25   S      93            21.0600000    0.274574823617
     25   S      94             7.4950000    0.448294318924
     25   S      95             2.7970000    0.284902610715
     25   S      96             0.5215000    0.015194859206

     26   S      97          6665.0000000   -0.000293269653
     26   S      98          1000.0000000   -0.002318035474
     26   S      99           228.0000000   -0.011499786039
     26   S     100            64.7100000   -0.046826727010
     26   S     101            21.0600000   -0.128466168750
     26   S     102             7.4950000   -0.301266272463
     26   S     103             2.7970000   -0.255630702330
     26   S     104             0.5215000    1.093793361012

     27   S     105             0.1596000    1.000000000000

     28   P     106             9.4390000    0.056979251590
     28   P     107             2.0020000    0.313207211501
     28   P     108             0.5456000    0.760376741738

     29   P     109             0.1517000    1.000000000000

     30   D     110             0.5500000    1.000000000000

 CARBON    

     31   S     111          6665.0000000    0.000691583963
     31   S     112          1000.0000000    0.005325796153
     31   S     113           228.0000000    0.027060721042
     31   S     114            64.7100000    0.101656846141
     31   S     115            21.0600000    0.274574823617
     31   S     116             7.4950000    0.448294318924
     31   S     117             2.7970000    0.284902610715
     31   S     118             0.5215000    0.015194859206

     32   S     119          6665.0000000   -0.000293269653
     32   S     120          1000.0000000   -0.002318035474
     32   S     121           228.0000000   -0.011499786039
     32   S     122            64.7100000   -0.046826727010
     32   S     123            21.0600000   -0.128466168750
     32   S     124             7.4950000   -0.301266272463
     32   S     125             2.7970000   -0.255630702330
     32   S     126             0.5215000    1.093793361012

     33   S     127             0.1596000    1.000000000000

     34   P     128             9.4390000    0.056979251590
     34   P     129             2.0020000    0.313207211501
     34   P     130             0.5456000    0.760376741738

     35   P     131             0.1517000    1.000000000000

     36   D     132             0.5500000    1.000000000000

 HYDROGEN  

     37   S     133            13.0100000    0.033498726390
     37   S     134             1.9620000    0.234800801174
     37   S     135             0.4446000    0.813682957883

     38   S     136             0.1220000    1.000000000000

     39   P     137             0.7270000    1.000000000000

 HYDROGEN  

     40   S     138            13.0100000    0.033498726390
     40   S     139             1.9620000    0.234800801174
     40   S     140             0.4446000    0.813682957883

     41   S     141             0.1220000    1.000000000000

     42   P     142             0.7270000    1.000000000000

 HYDROGEN  

     43   S     143            13.0100000    0.033498726390
     43   S     144             1.9620000    0.234800801174
     43   S     145             0.4446000    0.813682957883

     44   S     146             0.1220000    1.000000000000

     45   P     147             0.7270000    1.000000000000

 HYDROGEN  

     46   S     148            13.0100000    0.033498726390
     46   S     149             1.9620000    0.234800801174
     46   S     150             0.4446000    0.813682957883

     47   S     151             0.1220000    1.000000000000

     48   P     152             0.7270000    1.000000000000

 NITROGEN  

     49   S     153          9046.0000000    0.000699617413
     49   S     154          1357.0000000    0.005386054630
     49   S     155           309.3000000    0.027391021189
     49   S     156            87.7300000    0.103150591982
     49   S     157            28.5600000    0.278570663317
     49   S     158            10.2100000    0.448294849454
     49   S     159             3.8380000    0.278085928395
     49   S     160             0.7466000    0.015431561233

     50   S     161          9046.0000000   -0.000304990096
     50   S     162          1357.0000000   -0.002408026379
     50   S     163           309.3000000   -0.011944448725
     50   S     164            87.7300000   -0.048925992909
     50   S     165            28.5600000   -0.134472724725
     50   S     166            10.2100000   -0.315112577700
     50   S     167             3.8380000   -0.242857832550
     50   S     168             0.7466000    1.094382206854

     51   S     169             0.2248000    1.000000000000

     52   P     170            13.5500000    0.058905676772
     52   P     171             2.9170000    0.320461106714
     52   P     172             0.7973000    0.753042061792

     53   P     173             0.2185000    1.000000000000

     54   D     174             0.8170000    1.000000000000

 NITROGEN  

     55   S     175          9046.0000000    0.000699617413
     55   S     176          1357.0000000    0.005386054630
     55   S     177           309.3000000    0.027391021189
     55   S     178            87.7300000    0.103150591982
     55   S     179            28.5600000    0.278570663317
     55   S     180            10.2100000    0.448294849454
     55   S     181             3.8380000    0.278085928395
     55   S     182             0.7466000    0.015431561233

     56   S     183          9046.0000000   -0.000304990096
     56   S     184          1357.0000000   -0.002408026379
     56   S     185           309.3000000   -0.011944448725
     56   S     186            87.7300000   -0.048925992909
     56   S     187            28.5600000   -0.134472724725
     56   S     188            10.2100000   -0.315112577700
     56   S     189             3.8380000   -0.242857832550
     56   S     190             0.7466000    1.094382206854

     57   S     191             0.2248000    1.000000000000

     58   P     192            13.5500000    0.058905676772
     58   P     193             2.9170000    0.320461106714
     58   P     194             0.7973000    0.753042061792

     59   P     195             0.2185000    1.000000000000

     60   D     196             0.8170000    1.000000000000

 CARBON    

     61   S     197          6665.0000000    0.000691583963
     61   S     198          1000.0000000    0.005325796153
     61   S     199           228.0000000    0.027060721042
     61   S     200            64.7100000    0.101656846141
     61   S     201            21.0600000    0.274574823617
     61   S     202             7.4950000    0.448294318924
     61   S     203             2.7970000    0.284902610715
     61   S     204             0.5215000    0.015194859206

     62   S     205          6665.0000000   -0.000293269653
     62   S     206          1000.0000000   -0.002318035474
     62   S     207           228.0000000   -0.011499786039
     62   S     208            64.7100000   -0.046826727010
     62   S     209            21.0600000   -0.128466168750
     62   S     210             7.4950000   -0.301266272463
     62   S     211             2.7970000   -0.255630702330
     62   S     212             0.5215000    1.093793361012

     63   S     213             0.1596000    1.000000000000

     64   P     214             9.4390000    0.056979251590
     64   P     215             2.0020000    0.313207211501
     64   P     216             0.5456000    0.760376741738

     65   P     217             0.1517000    1.000000000000

     66   D     218             0.5500000    1.000000000000

 CARBON    

     67   S     219          6665.0000000    0.000691583963
     67   S     220          1000.0000000    0.005325796153
     67   S     221           228.0000000    0.027060721042
     67   S     222            64.7100000    0.101656846141
     67   S     223            21.0600000    0.274574823617
     67   S     224             7.4950000    0.448294318924
     67   S     225             2.7970000    0.284902610715
     67   S     226             0.5215000    0.015194859206

     68   S     227          6665.0000000   -0.000293269653
     68   S     228          1000.0000000   -0.002318035474
     68   S     229           228.0000000   -0.011499786039
     68   S     230            64.7100000   -0.046826727010
     68   S     231            21.0600000   -0.128466168750
     68   S     232             7.4950000   -0.301266272463
     68   S     233             2.7970000   -0.255630702330
     68   S     234             0.5215000    1.093793361012

     69   S     235             0.1596000    1.000000000000

     70   P     236             9.4390000    0.056979251590
     70   P     237             2.0020000    0.313207211501
     70   P     238             0.5456000    0.760376741738

     71   P     239             0.1517000    1.000000000000

     72   D     240             0.5500000    1.000000000000

 CARBON    

     73   S     241          6665.0000000    0.000691583963
     73   S     242          1000.0000000    0.005325796153
     73   S     243           228.0000000    0.027060721042
     73   S     244            64.7100000    0.101656846141
     73   S     245            21.0600000    0.274574823617
     73   S     246             7.4950000    0.448294318924
     73   S     247             2.7970000    0.284902610715
     73   S     248             0.5215000    0.015194859206

     74   S     249          6665.0000000   -0.000293269653
     74   S     250          1000.0000000   -0.002318035474
     74   S     251           228.0000000   -0.011499786039
     74   S     252            64.7100000   -0.046826727010
     74   S     253            21.0600000   -0.128466168750
     74   S     254             7.4950000   -0.301266272463
     74   S     255             2.7970000   -0.255630702330
     74   S     256             0.5215000    1.093793361012

     75   S     257             0.1596000    1.000000000000

     76   P     258             9.4390000    0.056979251590
     76   P     259             2.0020000    0.313207211501
     76   P     260             0.5456000    0.760376741738

     77   P     261             0.1517000    1.000000000000

     78   D     262             0.5500000    1.000000000000

 CARBON    

     79   S     263          6665.0000000    0.000691583963
     79   S     264          1000.0000000    0.005325796153
     79   S     265           228.0000000    0.027060721042
     79   S     266            64.7100000    0.101656846141
     79   S     267            21.0600000    0.274574823617
     79   S     268             7.4950000    0.448294318924
     79   S     269             2.7970000    0.284902610715
     79   S     270             0.5215000    0.015194859206

     80   S     271          6665.0000000   -0.000293269653
     80   S     272          1000.0000000   -0.002318035474
     80   S     273           228.0000000   -0.011499786039
     80   S     274            64.7100000   -0.046826727010
     80   S     275            21.0600000   -0.128466168750
     80   S     276             7.4950000   -0.301266272463
     80   S     277             2.7970000   -0.255630702330
     80   S     278             0.5215000    1.093793361012

     81   S     279             0.1596000    1.000000000000

     82   P     280             9.4390000    0.056979251590
     82   P     281             2.0020000    0.313207211501
     82   P     282             0.5456000    0.760376741738

     83   P     283             0.1517000    1.000000000000

     84   D     284             0.5500000    1.000000000000

 HYDROGEN  

     85   S     285            13.0100000    0.033498726390
     85   S     286             1.9620000    0.234800801174
     85   S     287             0.4446000    0.813682957883

     86   S     288             0.1220000    1.000000000000

     87   P     289             0.7270000    1.000000000000

 HYDROGEN  

     88   S     290            13.0100000    0.033498726390
     88   S     291             1.9620000    0.234800801174
     88   S     292             0.4446000    0.813682957883

     89   S     293             0.1220000    1.000000000000

     90   P     294             0.7270000    1.000000000000

 HYDROGEN  

     91   S     295            13.0100000    0.033498726390
     91   S     296             1.9620000    0.234800801174
     91   S     297             0.4446000    0.813682957883

     92   S     298             0.1220000    1.000000000000

     93   P     299             0.7270000    1.000000000000

 HYDROGEN  

     94   S     300            13.0100000    0.033498726390
     94   S     301             1.9620000    0.234800801174
     94   S     302             0.4446000    0.813682957883

     95   S     303             0.1220000    1.000000000000

     96   P     304             0.7270000    1.000000000000

 TOTAL NUMBER OF BASIS SET SHELLS             =   96
 NUMBER OF CARTESIAN GAUSSIAN BASIS FUNCTIONS =  220
 NOTE: THIS RUN WILL RESTRICT THE MO VARIATION SPACE TO SPHERICAL HARMONICS.
 THE NUMBER OF ORBITALS KEPT IN THE VARIATIONAL SPACE WILL BE PRINTED LATER.
 NUMBER OF ELECTRONS                          =   84
 CHARGE OF MOLECULE                           =    0
 SPIN MULTIPLICITY                            =    1
 NUMBER OF OCCUPIED ORBITALS (ALPHA)          =   42
 NUMBER OF OCCUPIED ORBITALS (BETA )          =   42
 TOTAL NUMBER OF ATOMS                        =   20
 THE NUCLEAR REPULSION ENERGY IS      461.5814945423

     $CONTRL OPTIONS
     ---------------
 SCFTYP=RHF          RUNTYP=ENERGY       EXETYP=RUN     
 MPLEVL=       0     CITYP =NONE         CCTYP =NONE         VBTYP =NONE    
 DFTTYP=NONE         TDDFT =NONE    
 MULT  =       1     ICHARG=       0     NZVAR =       0     COORD =UNIQUE  
 PP    =NONE         RELWFN=NONE         LOCAL =NONE         NUMGRD=       F
 ISPHER=       1     NOSYM =       0     MAXIT =      50     UNITS =ANGS    
 PLTORB=       F     MOLPLT=       F     AIMPAC=       F     FRIEND=        
 NPRINT=       4     IREST =       0     GEOM  =INPUT   
 NORMF =       0     NORMP =       0     ITOL  =      20     ICUT  =       9
 INTTYP=BEST         GRDTYP=BEST         QMTTOL= 1.0E-06

     $SYSTEM OPTIONS
     ---------------
  REPLICATED MEMORY=    10000000 WORDS (ON EVERY NODE).
 DISTRIBUTED MEMDDI=           0 MILLION WORDS IN AGGREGATE,
 MEMDDI DISTRIBUTED OVER   1 PROCESSORS IS           0 WORDS/PROCESSOR.
 TOTAL MEMORY REQUESTED ON EACH PROCESSOR=    10000000 WORDS.
 TIMLIM=          50.00 MINUTES, OR       0.0 DAYS.
 PARALL= F  BALTYP=  DLB     KDIAG=    0  COREFL= F
 MXSEQ2=     300 MXSEQ3=     150  mem10=         0

          ----------------
          PROPERTIES INPUT
          ----------------

     MOMENTS            FIELD           POTENTIAL          DENSITY
 IEMOM =       1   IEFLD =       0   IEPOT =       0   IEDEN =       0
 WHERE =COMASS     WHERE =NUCLEI     WHERE =NUCLEI     WHERE =NUCLEI  
 OUTPUT=BOTH       OUTPUT=BOTH       OUTPUT=BOTH       OUTPUT=BOTH    
 IEMINT=       0   IEFINT=       0                     IEDINT=       0
                                                       MORB  =       0
          EXTRAPOLATION IN EFFECT
          SOSCF IN EFFECT
 ORBITAL PRINTING OPTION: NPREO=     1   220     2     1

     -------------------------------
     INTEGRAL TRANSFORMATION OPTIONS
     -------------------------------
     NWORD  =            0
     CUTOFF = 1.0E-09     MPTRAN =       0
     DIRTRF =       T     AOINTS =DUP     

          ----------------------
          INTEGRAL INPUT OPTIONS
          ----------------------
 NOPK  =       1 NORDER=       0 SCHWRZ=       T

     ------------------------------------------
     THE POINT GROUP IS C1 , NAXIS= 0, ORDER= 1
     ------------------------------------------

 -- VARIATIONAL SPACE WILL BE RESTRICTED TO PURE SPHERICAL HARMONICS ONLY --
 AFTER EXCLUDING CONTAMINANT COMBINATIONS FROM THE CARTESIAN GAUSSIAN BASIS
 SET, THE NUMBER OF SPHERICAL HARMONICS KEPT IN THE VARIATION SPACE IS  208

     DIMENSIONS OF THE SYMMETRY SUBSPACES ARE
 A   =  208

 ..... DONE SETTING UP THE RUN .....
 STEP CPU TIME =     0.03 TOTAL CPU TIME =        0.0 (    0.0 MIN)
 TOTAL WALL CLOCK TIME=        0.0 SECONDS, CPU UTILIZATION IS  75.00%

          ********************
          1 ELECTRON INTEGRALS
          ********************
 ...... END OF ONE-ELECTRON INTEGRALS ......
 STEP CPU TIME =     0.03 TOTAL CPU TIME =        0.1 (    0.0 MIN)
 TOTAL WALL CLOCK TIME=        0.1 SECONDS, CPU UTILIZATION IS 100.00%

          -------------
          GUESS OPTIONS
          -------------
          GUESS =HUCKEL            NORB  =       0          NORDER=       0
          MIX   =       F          PRTMO =       F          PUNMO =       F
          TOLZ  = 1.0E-08          TOLE  = 1.0E-05
          SYMDEN=       F          PURIFY=       F

 INITIAL GUESS ORBITALS GENERATED BY HUCKEL   ROUTINE.
 HUCKEL GUESS REQUIRES    384188 WORDS.

 STATISTICS FOR GENERATION OF SYMMETRY ORBITAL -Q- MATRIX
 NUMBER OF CARTESIAN ATOMIC ORBITALS=        220
 NUMBER OF SPHERICAL CONTAMINANTS DROPPED=    12
 NUMBER OF LINEARLY DEPENDENT MOS DROPPED=     0
 TOTAL NUMBER OF MOS IN VARIATION SPACE=     208

 SYMMETRIES FOR INITIAL GUESS ORBITALS FOLLOW.   BOTH SET(S).
    42 ORBITALS ARE OCCUPIED (   12 CORE ORBITALS).
    13=A       14=A       15=A       16=A       17=A       18=A       19=A   
    20=A       21=A       22=A       23=A       24=A       25=A       26=A   
    27=A       28=A       29=A       30=A       31=A       32=A       33=A   
    34=A       35=A       36=A       37=A       38=A       39=A       40=A   
    41=A       42=A       43=A       44=A       45=A       46=A       47=A   
    48=A       49=A       50=A       51=A       52=A   
 ...... END OF INITIAL ORBITAL SELECTION ......
 STEP CPU TIME =     0.09 TOTAL CPU TIME =        0.2 (    0.0 MIN)
 TOTAL WALL CLOCK TIME=        0.2 SECONDS, CPU UTILIZATION IS  93.75%

                    ----------------------
                    AO INTEGRAL TECHNOLOGY
                    ----------------------
     S,P,L SHELL ROTATED AXIS INTEGRALS, REPROGRAMMED BY
        KAZUYA ISHIMURA (IMS) AND JOSE SIERRA (SYNSTAR).
     S,P,D,L SHELL ROTATED AXIS INTEGRALS PROGRAMMED BY
        KAZUYA ISHIMURA (INSTITUTE FOR MOLECULAR SCIENCE).
     S,P,D,F,G SHELL TO TOTAL QUARTET ANGULAR MOMENTUM SUM 5,
        ERIC PROGRAM BY GRAHAM FLETCHER (ELORET AND NASA ADVANCED
        SUPERCOMPUTING DIVISION, AMES RESEARCH CENTER).
     S,P,D,F,G,L SHELL GENERAL RYS QUADRATURE PROGRAMMED BY
        MICHEL DUPUIS (PACIFIC NORTHWEST NATIONAL LABORATORY).

          --------------------
          2 ELECTRON INTEGRALS
          --------------------

 DIRECT SCF METHOD SKIPS INTEGRAL STORAGE ON DISK.
 DIRECT TRANSFORMATION SKIPS AO INTEGRAL STORAGE ON DISK.
  ...... END OF TWO-ELECTRON INTEGRALS .....
 STEP CPU TIME =     0.02 TOTAL CPU TIME =        0.2 (    0.0 MIN)
 TOTAL WALL CLOCK TIME=        0.2 SECONDS, CPU UTILIZATION IS  94.44%

          --------------------------
                 RHF SCF CALCULATION
          --------------------------

     NUCLEAR ENERGY =       461.5814945423
     MAXIT =   50     NPUNCH=    2
     EXTRAP=T  DAMP=F  SHIFT=F  RSTRCT=F  DIIS=F  DEM=F  SOSCF=T
     DENSITY MATRIX CONV=  2.00E-07
     SOSCF WILL OPTIMIZE    6972 ORBITAL ROTATIONS, SOGTOL=   0.250
     MEMORY REQUIRED FOR RHF ITERS=    424476 WORDS.

 DIRECT SCF CALCULATION, SCHWRZ=T   FDIFF=F,  DIRTHR=  0.00E+00 NITDIR=10
 MAX EXCHANGE INTEGRAL IN SHELL

             1           2           3           4           5

    1    2.0303332
    2    0.7115714   0.9925357
    3    0.2736724   0.6041956   0.7314365
    4    0.2326422   0.3935379   0.3295543   0.9945589
    5    0.0260721   0.1927405   0.2953894   0.4327542   0.6563157
    6    0.0746404   0.5495523   0.5510967   0.4874598   0.3662382
    7    0.0000000   0.0000004   0.0005668   0.0000008   0.0030592
    8    0.0000004   0.0000266   0.0050632   0.0000589   0.0207695
    9    0.0005668   0.0050632   0.0291430   0.0074648   0.0765044
   10    0.0000008   0.0000589   0.0074648   0.0001303   0.0283794
   11    0.0030592   0.0207695   0.0765044   0.0283794   0.1639670
   12    0.0000027   0.0001894   0.0146199   0.0004146   0.0514606
   13    0.0004098   0.0123941   0.0791972   0.0242783   0.1712294
   14    0.0237904   0.1348270   0.2484497   0.1772115   0.3755394
   15    0.0784177   0.2299521   0.3758853   0.1848072   0.3930578
   16    0.0480117   0.2008391   0.2560845   0.2425844   0.2552529
   17    0.1439330   0.3494113   0.4418690   0.2077453   0.3380068
   18    0.1176773   0.3273533   0.3720513   0.3284849   0.3582814
   19    0.0000007   0.0000281   0.0039349   0.0000417   0.0132213
   20    0.0000462   0.0019594   0.0295404   0.0028825   0.0698785
   21    0.0087395   0.0378988   0.1004013   0.0352951   0.1475267
   22    0.0000918   0.0034711   0.0347181   0.0047024   0.0742919
   23    0.0258459   0.0905125   0.1736829   0.0767182   0.2125077
   24    0.0003829   0.0111733   0.0582460   0.0157608   0.1195850
   25    0.0000007   0.0000281   0.0039348   0.0000521   0.0166014
   26    0.0000461   0.0019593   0.0295400   0.0035988   0.0874272
   27    0.0087394   0.0378983   0.1004004   0.0424816   0.1821088
   28    0.0001152   0.0043470   0.0427998   0.0077293   0.1121640
   29    0.0324573   0.1134020   0.2161839   0.1080990   0.2746019
   30    0.0004207   0.0126522   0.0788569   0.0214900   0.1818867
   31    0.0004097   0.0123895   0.0791867   0.0186214   0.1312684
   32    0.0237834   0.1348038   0.2484271   0.1394310   0.2930934
   33    0.0784101   0.2299340   0.3758635   0.1597229   0.3194044
   34    0.0367948   0.1559895   0.2096498   0.1853796   0.2690932
   35    0.1103133   0.2705698   0.3499469   0.1952968   0.3382132
   36    0.1140199   0.2696923   0.3004698   0.2732181   0.3717055
   37    0.0006658   0.0106074   0.0651185   0.0176480   0.1709335
   38    0.0280996   0.0944937   0.1893066   0.0868138   0.2653247
   39    0.0002919   0.0124734   0.0807887   0.0231301   0.1912304
   40    0.0000001   0.0000088   0.0013615   0.0000145   0.0046860
   41    0.0013386   0.0068526   0.0251509   0.0067023   0.0441387
   42    0.0000000   0.0000013   0.0012426   0.0000022   0.0043348
   43    0.0006656   0.0106055   0.0651121   0.0171166   0.1657034
   44    0.0280974   0.0944875   0.1892970   0.0848757   0.2580211
   45    0.0002828   0.0120896   0.0785147   0.0216052   0.1779192
   46    0.0000001   0.0000088   0.0013613   0.0000171   0.0055296
   47    0.0013384   0.0068519   0.0251489   0.0077040   0.0516173
   48    0.0000000   0.0000015   0.0014556   0.0000032   0.0062114
   49    0.0000000   0.0000000   0.0000000   0.0000000   0.0000000
   50    0.0000000   0.0000000   0.0000000   0.0000000   0.0000000
   51    0.0000000   0.0000000   0.0000000   0.0000000   0.0000000
   52    0.0000000   0.0000000   0.0000000   0.0000000   0.0000000
   53    0.0000000   0.0000000   0.0000000   0.0000000   0.0000000
   54    0.0000000   0.0000000   0.0000000   0.0000000   0.0000000
   55    0.0000000   0.0000000   0.0000000   0.0000000   0.0000000
   56    0.0000000   0.0000000   0.0000000   0.0000000   0.0000000
   57    0.0000000   0.0000000   0.0000000   0.0000000   0.0000000
   58    0.0000000   0.0000000   0.0000000   0.0000000   0.0000000
   59    0.0000000   0.0000000   0.0000000   0.0000000   0.0000000
   60    0.0000000   0.0000000   0.0000000   0.0000000   0.0000000
   61    0.0000000   0.0000000   0.0000000   0.0000000   0.0000000
   62    0.0000000   0.0000000   0.0000000   0.0000000   0.0000000
   63    0.0000000   0.0000000   0.0000000   0.0000000   0.0000000
   64    0.0000000   0.0000000   0.0000000   0.0000000   0.0000000
   65    0.0000000   0.0000000   0.0000000   0.0000000   0.0000000
   66    0.0000000   0.0000000   0.0000000   0.0000000   0.0000000
   67    0.0000000   0.0000000   0.0000000   0.0000000   0.0000000
   68    0.0000000   0.0000000   0.0000000   0.0000000   0.0000000
   69    0.0000000   0.0000000   0.0000000   0.0000000   0.0000000
   70    0.0000000   0.0000000   0.0000000   0.0000000   0.0000000
   71    0.0000000   0.0000000   0.0000000   0.0000000   0.0000000
   72    0.0000000   0.0000000   0.0000000   0.0000000   0.0000000
   73    0.0000000   0.0000000   0.0000000   0.0000000   0.0000000
   74    0.0000000   0.0000000   0.0000000   0.0000000   0.0000000
   75    0.0000000   0.0000000   0.0000000   0.0000000   0.0000000
   76    0.0000000   0.0000000   0.0000000   0.0000000   0.0000000
   77    0.0000000   0.0000000   0.0000000   0.0000000   0.0000000
   78    0.0000000   0.0000000   0.0000000   0.0000000   0.0000000
   79    0.0000000   0.0000000   0.0000000   0.0000000   0.0000000
   80    0.0000000   0.0000000   0.0000000   0.0000000   0.0000000
   81    0.0000000   0.0000000   0.0000000   0.0000000   0.0000000
   82    0.0000000   0.0000000   0.0000000   0.0000000   0.0000000
   83    0.0000000   0.0000000   0.0000000   0.0000000   0.0000000
   84    0.0000000   0.0000000   0.0000000   0.0000000   0.0000000
   85    0.0000000   0.0000000   0.0000000   0.0000000   0.0000000
   86    0.0000000   0.0000000   0.0000000   0.0000000   0.0000000
   87    0.0000000   0.0000000   0.0000000   0.0000000   0.0000000
   88    0.0000000   0.0000000   0.0000000   0.0000000   0.0000000
   89    0.0000000   0.0000000   0.0000000   0.0000000   0.0000000
   90    0.0000000   0.0000000   0.0000000   0.0000000   0.0000000
   91    0.0000000   0.0000000   0.0000000   0.0000000   0.0000000
   92    0.0000000   0.0000000   0.0000000   0.0000000   0.0000000
   93    0.0000000   0.0000000   0.0000000   0.0000000   0.0000000
   94    0.0000000   0.0000000   0.0000000   0.0000000   0.0000000
   95    0.0000000   0.0000000   0.0000000   0.0000000   0.0000000
   96    0.0000000   0.0000000   0.0000000   0.0000000   0.0000000

             6           7           8           9          10

    6    0.8788018
    7    0.0000027   2.0303332
    8    0.0001894   0.7115714   0.9925357
    9    0.0146199   0.2736724   0.6041956   0.7314365
   10    0.0004146   0.2326422   0.3935379   0.3295543   0.9945589
   11    0.0514606   0.0260721   0.1927405   0.2953894   0.4327542
   12    0.0012903   0.0746404   0.5495523   0.5510967   0.4874598
   13    0.0632167   0.0000007   0.0000281   0.0039351   0.0000521
   14    0.2757594   0.0000462   0.0019595   0.0295413   0.0035992
   15    0.2903441   0.0087398   0.0378997   0.1004031   0.0424831
   16    0.3422415   0.0001153   0.0043474   0.0428016   0.0077299
   17    0.3514320   0.0324585   0.1134056   0.2161887   0.1081021
   18    0.3770545   0.0004207   0.0126533   0.0788601   0.0214918
   19    0.0001119   0.0004098   0.0123942   0.0791973   0.0186201
   20    0.0074881   0.0237905   0.1348273   0.2484501   0.1393987
   21    0.0568327   0.0784178   0.2299524   0.3758857   0.1596993
   22    0.0126217   0.0367886   0.1559494   0.2096007   0.1853282
   23    0.1217727   0.1102701   0.2704658   0.3498235   0.1952174
   24    0.0353397   0.1139949   0.2696041   0.3003993   0.2730575
   25    0.0001320   0.0004097   0.0123899   0.0791875   0.0242784
   26    0.0088911   0.0237840   0.1348057   0.2484289   0.1772427
   27    0.0704217   0.0784107   0.2299355   0.3758653   0.1848358
   28    0.0182474   0.0480162   0.2008766   0.2561379   0.2427596
   29    0.1684784   0.1439755   0.3495159   0.4419975   0.2078057
   30    0.0476676   0.1177311   0.3274957   0.3721467   0.3288813
   31    0.0604059   0.0000007   0.0000281   0.0039348   0.0000417
   32    0.2014750   0.0000462   0.0019593   0.0295401   0.0028824
   33    0.2571437   0.0087394   0.0378984   0.1004006   0.0352940
   34    0.2759041   0.0000918   0.0034710   0.0347168   0.0047020
   35    0.3106003   0.0258449   0.0905092   0.1736772   0.0767313
   36    0.3824725   0.0003830   0.0111760   0.0582433   0.0157642
   37    0.0377628   0.0000001   0.0000088   0.0013615   0.0000171
   38    0.1398034   0.0013386   0.0068527   0.0251511   0.0077048
   39    0.0557440   0.0000000   0.0000015   0.0014559   0.0000032
   40    0.0000462   0.0006658   0.0106074   0.0651185   0.0171167
   41    0.0112065   0.0280996   0.0944937   0.1893066   0.0848704
   42    0.0000089   0.0002828   0.0120903   0.0785102   0.0216018
   43    0.0358723   0.0000001   0.0000088   0.0013613   0.0000145
   44    0.1366769   0.0013384   0.0068519   0.0251489   0.0067024
   45    0.0505081   0.0000000   0.0000013   0.0012426   0.0000022
   46    0.0000474   0.0006656   0.0106056   0.0651123   0.0176478
   47    0.0132302   0.0280975   0.0944878   0.1892974   0.0868190
   48    0.0000102   0.0002918   0.0124727   0.0807930   0.0231333
   49    0.0000000   0.0000000   0.0000000   0.0000000   0.0000000
   50    0.0000000   0.0000000   0.0000000   0.0000000   0.0000000
   51    0.0000000   0.0000000   0.0000000   0.0000000   0.0000000
   52    0.0000000   0.0000000   0.0000000   0.0000000   0.0000000
   53    0.0000000   0.0000000   0.0000000   0.0000000   0.0000000
   54    0.0000000   0.0000000   0.0000000   0.0000000   0.0000000
   55    0.0000000   0.0000000   0.0000000   0.0000000   0.0000000
   56    0.0000000   0.0000000   0.0000000   0.0000000   0.0000000
   57    0.0000000   0.0000000   0.0000000   0.0000000   0.0000000
   58    0.0000000   0.0000000   0.0000000   0.0000000   0.0000000
   59    0.0000000   0.0000000   0.0000000   0.0000000   0.0000000
   60    0.0000000   0.0000000   0.0000000   0.0000000   0.0000000
   61    0.0000000   0.0000000   0.0000000   0.0000000   0.0000000
   62    0.0000000   0.0000000   0.0000000   0.0000000   0.0000000
   63    0.0000000   0.0000000   0.0000000   0.0000000   0.0000000
   64    0.0000000   0.0000000   0.0000000   0.0000000   0.0000000
   65    0.0000000   0.0000000   0.0000000   0.0000000   0.0000000
   66    0.0000000   0.0000000   0.0000000   0.0000000   0.0000000
   67    0.0000000   0.0000000   0.0000000   0.0000000   0.0000000
   68    0.0000000   0.0000000   0.0000000   0.0000000   0.0000000
   69    0.0000000   0.0000000   0.0000000   0.0000000   0.0000000
   70    0.0000000   0.0000000   0.0000000   0.0000000   0.0000000
   71    0.0000000   0.0000000   0.0000000   0.0000000   0.0000000
   72    0.0000000   0.0000000   0.0000000   0.0000000   0.0000000
   73    0.0000000   0.0000000   0.0000000   0.0000000   0.0000000
   74    0.0000000   0.0000000   0.0000000   0.0000000   0.0000000
   75    0.0000000   0.0000000   0.0000000   0.0000000   0.0000000
   76    0.0000000   0.0000000   0.0000000   0.0000000   0.0000000
   77    0.0000000   0.0000000   0.0000000   0.0000000   0.0000000
   78    0.0000000   0.0000000   0.0000000   0.0000000   0.0000000
   79    0.0000000   0.0000000   0.0000000   0.0000000   0.0000000
   80    0.0000000   0.0000000   0.0000000   0.0000000   0.0000000
   81    0.0000000   0.0000000   0.0000000   0.0000000   0.0000000
   82    0.0000000   0.0000000   0.0000000   0.0000000   0.0000000
   83    0.0000000   0.0000000   0.0000000   0.0000000   0.0000000
   84    0.0000000   0.0000000   0.0000000   0.0000000   0.0000000
   85    0.0000000   0.0000000   0.0000000   0.0000000   0.0000000
   86    0.0000000   0.0000000   0.0000000   0.0000000   0.0000000
   87    0.0000000   0.0000000   0.0000000   0.0000000   0.0000000
   88    0.0000000   0.0000000   0.0000000   0.0000000   0.0000000
   89    0.0000000   0.0000000   0.0000000   0.0000000   0.0000000
   90    0.0000000   0.0000000   0.0000000   0.0000000   0.0000000
   91    0.0000000   0.0000000   0.0000000   0.0000000   0.0000000
   92    0.0000000   0.0000000   0.0000000   0.0000000   0.0000000
   93    0.0000000   0.0000000   0.0000000   0.0000000   0.0000000
   94    0.0000000   0.0000000   0.0000000   0.0000000   0.0000000
   95    0.0000000   0.0000000   0.0000000   0.0000000   0.0000000
   96    0.0000000   0.0000000   0.0000000   0.0000000   0.0000000

            11          12          13          14          15

   11    0.6563157
   12    0.3662382   0.8788018
   13    0.0166024   0.0001320   1.8725457
   14    0.0874306   0.0088919   0.6467489   0.9051753
   15    0.1821130   0.0704241   0.2492233   0.5583046   0.6714068
   16    0.1121681   0.0182489   0.2034698   0.3616843   0.3050687
   17    0.2746060   0.1684830   0.0229527   0.1755539   0.2687804
   18    0.1818928   0.0476713   0.0624714   0.4940037   0.5059826
   19    0.1312222   0.0603997   0.0005173   0.0234215   0.0851741
   20    0.2929894   0.2014151   0.0234215   0.1532388   0.2513238
   21    0.3193098   0.2571188   0.0851741   0.2513238   0.3847629
   22    0.2689887   0.2757798   0.0492413   0.2212721   0.2318812
   23    0.3380525   0.3104739   0.1683409   0.3814638   0.4295169
   24    0.3715595   0.3822462   0.1268081   0.3426833   0.3476112
   25    0.1712739   0.0632384   0.0000003   0.0000216   0.0049544
   26    0.3756447   0.2758539   0.0000216   0.0013861   0.0283013
   27    0.3931598   0.2903820   0.0049544   0.0283013   0.0875709
   28    0.2554835   0.3425971   0.0000364   0.0022464   0.0292631
   29    0.3382166   0.3515366   0.0158229   0.0674569   0.1392112
   30    0.3583792   0.3775968   0.0001328   0.0072752   0.0476620
   31    0.0132207   0.0001119   0.0000035   0.0001920   0.0144132
   32    0.0698758   0.0074899   0.0001920   0.0084803   0.0648264
   33    0.1475220   0.0568308   0.0144132   0.0648264   0.1528065
   34    0.0743082   0.0126242   0.0004504   0.0165806   0.0793208
   35    0.2125562   0.1217927   0.0503628   0.1701142   0.2727079
   36    0.1196150   0.0353615   0.0015190   0.0411866   0.1313577
   37    0.0055304   0.0000474   0.0741194   0.2818326   0.3719932
   38    0.0516211   0.0132316   0.1247731   0.3345648   0.4793192
   39    0.0062123   0.0000102   0.1039058   0.2705072   0.2341422
   40    0.1656893   0.0358682   0.0005591   0.0138112   0.0807369
   41    0.2579918   0.1366683   0.0280679   0.1011997   0.2006992
   42    0.1778625   0.0504912   0.0002617   0.0144490   0.0730142
   43    0.0046859   0.0000462   0.0000013   0.0000873   0.0064477
   44    0.0441411   0.0112067   0.0023134   0.0132158   0.0466088
   45    0.0043355   0.0000089   0.0000006   0.0000443   0.0079935
   46    0.1709468   0.0377668   0.0000001   0.0000043   0.0014468
   47    0.2653530   0.1398121   0.0005248   0.0038823   0.0195157
   48    0.1912867   0.0557611   0.0000000   0.0000008   0.0013119
   49    0.0000000   0.0000000   0.0000000   0.0000000   0.0000000
   50    0.0000000   0.0000000   0.0000000   0.0000000   0.0000000
   51    0.0000000   0.0000000   0.0000000   0.0000000   0.0000000
   52    0.0000000   0.0000000   0.0000000   0.0000000   0.0000000
   53    0.0000000   0.0000000   0.0000000   0.0000000   0.0000000
   54    0.0000000   0.0000000   0.0000000   0.0000000   0.0000000
   55    0.0000000   0.0000000   0.0000000   0.0000000   0.0000000
   56    0.0000000   0.0000000   0.0000000   0.0000000   0.0000000
   57    0.0000000   0.0000000   0.0000000   0.0000000   0.0000000
   58    0.0000000   0.0000000   0.0000000   0.0000000   0.0000000
   59    0.0000000   0.0000000   0.0000000   0.0000000   0.0000000
   60    0.0000000   0.0000000   0.0000000   0.0000000   0.0000000
   61    0.0000000   0.0000000   0.0000000   0.0000000   0.0000000
   62    0.0000000   0.0000000   0.0000000   0.0000000   0.0000000
   63    0.0000000   0.0000000   0.0000000   0.0000000   0.0000000
   64    0.0000000   0.0000000   0.0000000   0.0000000   0.0000000
   65    0.0000000   0.0000000   0.0000000   0.0000000   0.0000000
   66    0.0000000   0.0000000   0.0000000   0.0000000   0.0000000
   67    0.0000000   0.0000000   0.0000000   0.0000000   0.0000000
   68    0.0000000   0.0000000   0.0000000   0.0000000   0.0000000
   69    0.0000000   0.0000000   0.0000000   0.0000000   0.0000000
   70    0.0000000   0.0000000   0.0000000   0.0000000   0.0000000
   71    0.0000000   0.0000000   0.0000000   0.0000000   0.0000000
   72    0.0000000   0.0000000   0.0000000   0.0000000   0.0000000
   73    0.0000000   0.0000000   0.0000000   0.0000000   0.0000000
   74    0.0000000   0.0000000   0.0000000   0.0000000   0.0000000
   75    0.0000000   0.0000000   0.0000000   0.0000000   0.0000000
   76    0.0000000   0.0000000   0.0000000   0.0000000   0.0000000
   77    0.0000000   0.0000000   0.0000000   0.0000000   0.0000000
   78    0.0000000   0.0000000   0.0000000   0.0000000   0.0000000
   79    0.0000000   0.0000000   0.0000000   0.0000000   0.0000000
   80    0.0000000   0.0000000   0.0000000   0.0000000   0.0000000
   81    0.0000000   0.0000000   0.0000000   0.0000000   0.0000000
   82    0.0000000   0.0000000   0.0000000   0.0000000   0.0000000
   83    0.0000000   0.0000000   0.0000000   0.0000000   0.0000000
   84    0.0000000   0.0000000   0.0000000   0.0000000   0.0000000
   85    0.0000000   0.0000000   0.0000000   0.0000000   0.0000000
   86    0.0000000   0.0000000   0.0000000   0.0000000   0.0000000
   87    0.0000000   0.0000000   0.0000000   0.0000000   0.0000000
   88    0.0000000   0.0000000   0.0000000   0.0000000   0.0000000
   89    0.0000000   0.0000000   0.0000000   0.0000000   0.0000000
   90    0.0000000   0.0000000   0.0000000   0.0000000   0.0000000
   91    0.0000000   0.0000000   0.0000000   0.0000000   0.0000000
   92    0.0000000   0.0000000   0.0000000   0.0000000   0.0000000
   93    0.0000000   0.0000000   0.0000000   0.0000000   0.0000000
   94    0.0000000   0.0000000   0.0000000   0.0000000   0.0000000
   95    0.0000000   0.0000000   0.0000000   0.0000000   0.0000000
   96    0.0000000   0.0000000   0.0000000   0.0000000   0.0000000

            16          17          18          19          20

   16    0.9018741
   17    0.4001281   0.5990959
   18    0.4414007   0.3385896   0.7960239
   19    0.0492413   0.1683409   0.1268081   1.8725457
   20    0.2212721   0.3814638   0.3426833   0.6467489   0.9051753
   21    0.2318812   0.4295169   0.3476112   0.2492233   0.5583046
   22    0.2992825   0.2290127   0.4048176   0.2034698   0.3616843
   23    0.2290127   0.3529146   0.3579213   0.0229527   0.1755539
   24    0.4048176   0.3579213   0.4301222   0.0624714   0.4940037
   25    0.0000364   0.0158229   0.0001328   0.0000035   0.0001920
   26    0.0022464   0.0674569   0.0072752   0.0001920   0.0084803
   27    0.0292631   0.1392112   0.0476620   0.0144131   0.0648262
   28    0.0035967   0.0687630   0.0109895   0.0004504   0.0165805
   29    0.0687630   0.2013364   0.1087390   0.0503628   0.1701143
   30    0.0109895   0.1087390   0.0313206   0.0015190   0.0411866
   31    0.0004504   0.0503628   0.0015190   0.0000003   0.0000216
   32    0.0165806   0.1701142   0.0411866   0.0000216   0.0013860
   33    0.0793208   0.2727079   0.1313577   0.0049542   0.0283006
   34    0.0308844   0.1728636   0.0717728   0.0000471   0.0028990
   35    0.1728636   0.3073243   0.2571107   0.0205137   0.0871598
   36    0.0717728   0.2571107   0.1512547   0.0001435   0.0080004
   37    0.2880975   0.3509216   0.3822601   0.0005591   0.0138110
   38    0.2149732   0.3253057   0.3493249   0.0280678   0.1011993
   39    0.3459934   0.2284164   0.4096688   0.0003188   0.0175614
   40    0.0204529   0.1675912   0.0445295   0.0741211   0.2818364
   41    0.0896404   0.2488025   0.1411278   0.1247739   0.3345665
   42    0.0218954   0.1314523   0.0597618   0.1339687   0.3353585
   43    0.0002073   0.0271642   0.0006639   0.0000001   0.0000043
   44    0.0178011   0.1073821   0.0321974   0.0005247   0.0038822
   45    0.0001176   0.0329146   0.0004389   0.0000000   0.0000011
   46    0.0000080   0.0053894   0.0000327   0.0000013   0.0000873
   47    0.0042833   0.0388254   0.0074631   0.0023134   0.0132158
   48    0.0000016   0.0051174   0.0000082   0.0000006   0.0000412
   49    0.0000000   0.0000000   0.0000000   0.0000000   0.0000000
   50    0.0000000   0.0000000   0.0000000   0.0000000   0.0000000
   51    0.0000000   0.0000000   0.0000000   0.0000000   0.0000000
   52    0.0000000   0.0000000   0.0000000   0.0000000   0.0000000
   53    0.0000000   0.0000000   0.0000000   0.0000000   0.0000000
   54    0.0000000   0.0000000   0.0000000   0.0000000   0.0000000
   55    0.0000000   0.0000000   0.0000000   0.0000000   0.0000000
   56    0.0000000   0.0000000   0.0000000   0.0000000   0.0000000
   57    0.0000000   0.0000000   0.0000000   0.0000000   0.0000000
   58    0.0000000   0.0000000   0.0000000   0.0000000   0.0000000
   59    0.0000000   0.0000000   0.0000000   0.0000000   0.0000000
   60    0.0000000   0.0000000   0.0000000   0.0000000   0.0000000
   61    0.0000000   0.0000000   0.0000000   0.0000000   0.0000000
   62    0.0000000   0.0000000   0.0000000   0.0000000   0.0000000
   63    0.0000000   0.0000000   0.0000000   0.0000000   0.0000000
   64    0.0000000   0.0000000   0.0000000   0.0000000   0.0000000
   65    0.0000000   0.0000000   0.0000000   0.0000000   0.0000000
   66    0.0000000   0.0000000   0.0000000   0.0000000   0.0000000
   67    0.0000000   0.0000000   0.0000000   0.0000000   0.0000000
   68    0.0000000   0.0000000   0.0000000   0.0000000   0.0000000
   69    0.0000000   0.0000000   0.0000000   0.0000000   0.0000000
   70    0.0000000   0.0000000   0.0000000   0.0000000   0.0000000
   71    0.0000000   0.0000000   0.0000000   0.0000000   0.0000000
   72    0.0000000   0.0000000   0.0000000   0.0000000   0.0000000
   73    0.0000000   0.0000000   0.0000000   0.0000000   0.0000000
   74    0.0000000   0.0000000   0.0000000   0.0000000   0.0000000
   75    0.0000000   0.0000000   0.0000000   0.0000000   0.0000000
   76    0.0000000   0.0000000   0.0000000   0.0000000   0.0000000
   77    0.0000000   0.0000000   0.0000000   0.0000000   0.0000000
   78    0.0000000   0.0000000   0.0000000   0.0000000   0.0000000
   79    0.0000000   0.0000000   0.0000000   0.0000000   0.0000000
   80    0.0000000   0.0000000   0.0000000   0.0000000   0.0000000
   81    0.0000000   0.0000000   0.0000000   0.0000000   0.0000000
   82    0.0000000   0.0000000   0.0000000   0.0000000   0.0000000
   83    0.0000000   0.0000000   0.0000000   0.0000000   0.0000000
   84    0.0000000   0.0000000   0.0000000   0.0000000   0.0000000
   85    0.0000000   0.0000000   0.0000000   0.0000000   0.0000000
   86    0.0000000   0.0000000   0.0000000   0.0000000   0.0000000
   87    0.0000000   0.0000000   0.0000000   0.0000000   0.0000000
   88    0.0000000   0.0000000   0.0000000   0.0000000   0.0000000
   89    0.0000000   0.0000000   0.0000000   0.0000000   0.0000000
   90    0.0000000   0.0000000   0.0000000   0.0000000   0.0000000
   91    0.0000000   0.0000000   0.0000000   0.0000000   0.0000000
   92    0.0000000   0.0000000   0.0000000   0.0000000   0.0000000
   93    0.0000000   0.0000000   0.0000000   0.0000000   0.0000000
   94    0.0000000   0.0000000   0.0000000   0.0000000   0.0000000
   95    0.0000000   0.0000000   0.0000000   0.0000000   0.0000000
   96    0.0000000   0.0000000   0.0000000   0.0000000   0.0000000

            21          22          23          24          25

   21    0.6714068
   22    0.3050687   0.9018741
   23    0.2687804   0.4001281   0.5990959
   24    0.5059826   0.4414007   0.3385896   0.7960239
   25    0.0144131   0.0004504   0.0503628   0.0015190   1.8725457
   26    0.0648262   0.0165805   0.1701143   0.0411866   0.6467489
   27    0.1528062   0.0793209   0.2727084   0.1313579   0.2492233
   28    0.0793209   0.0308844   0.1728647   0.0717733   0.2034698
   29    0.2727084   0.1728647   0.3073275   0.2571127   0.0229527
   30    0.1313579   0.0717733   0.2571127   0.1512564   0.0624714
   31    0.0049542   0.0000471   0.0205137   0.0001435   0.0005174
   32    0.0283006   0.0028990   0.0871598   0.0080004   0.0234259
   33    0.0875694   0.0367329   0.1779404   0.0641253   0.0851795
   34    0.0367329   0.0058248   0.0973044   0.0152451   0.0492497
   35    0.1779404   0.0973044   0.2510581   0.1529864   0.1683462
   36    0.0641253   0.0152451   0.1529864   0.0372728   0.1268264
   37    0.0807365   0.0248489   0.2042129   0.0562060   0.0000001
   38    0.2006987   0.1043278   0.2977565   0.1659301   0.0005248
   39    0.0860374   0.0342171   0.1809696   0.0832838   0.0000000
   40    0.3719958   0.3618075   0.4458582   0.5194519   0.0000013
   41    0.4793210   0.2382552   0.3846451   0.3768776   0.0023133
   42    0.2661946   0.3838545   0.2421894   0.3739974   0.0000006
   43    0.0014468   0.0000103   0.0069685   0.0000352   0.0005591
   44    0.0195154   0.0054023   0.0497377   0.0102251   0.0280682
   45    0.0016654   0.0000028   0.0081049   0.0000111   0.0002617
   46    0.0064477   0.0001927   0.0252420   0.0005791   0.0741190
   47    0.0466087   0.0166593   0.1000443   0.0293919   0.1247729
   48    0.0074662   0.0001008   0.0281299   0.0003492   0.1038894
   49    0.0000000   0.0000000   0.0000000   0.0000000   0.0000000
   50    0.0000000   0.0000000   0.0000000   0.0000000   0.0000000
   51    0.0000000   0.0000000   0.0000000   0.0000000   0.0000000
   52    0.0000000   0.0000000   0.0000000   0.0000000   0.0000000
   53    0.0000000   0.0000000   0.0000000   0.0000000   0.0000000
   54    0.0000000   0.0000000   0.0000000   0.0000000   0.0000000
   55    0.0000000   0.0000000   0.0000000   0.0000000   0.0000000
   56    0.0000000   0.0000000   0.0000000   0.0000000   0.0000000
   57    0.0000000   0.0000000   0.0000000   0.0000000   0.0000000
   58    0.0000000   0.0000000   0.0000000   0.0000000   0.0000000
   59    0.0000000   0.0000000   0.0000000   0.0000000   0.0000000
   60    0.0000000   0.0000000   0.0000000   0.0000000   0.0000000
   61    0.0000000   0.0000000   0.0000000   0.0000000   0.0000000
   62    0.0000000   0.0000000   0.0000000   0.0000000   0.0000000
   63    0.0000000   0.0000000   0.0000000   0.0000000   0.0000000
   64    0.0000000   0.0000000   0.0000000   0.0000000   0.0000000
   65    0.0000000   0.0000000   0.0000000   0.0000000   0.0000000
   66    0.0000000   0.0000000   0.0000000   0.0000000   0.0000000
   67    0.0000000   0.0000000   0.0000000   0.0000000   0.0000000
   68    0.0000000   0.0000000   0.0000000   0.0000000   0.0000000
   69    0.0000000   0.0000000   0.0000000   0.0000000   0.0000000
   70    0.0000000   0.0000000   0.0000000   0.0000000   0.0000000
   71    0.0000000   0.0000000   0.0000000   0.0000000   0.0000000
   72    0.0000000   0.0000000   0.0000000   0.0000000   0.0000000
   73    0.0000000   0.0000000   0.0000000   0.0000000   0.0000000
   74    0.0000000   0.0000000   0.0000000   0.0000000   0.0000000
   75    0.0000000   0.0000000   0.0000000   0.0000000   0.0000000
   76    0.0000000   0.0000000   0.0000000   0.0000000   0.0000000
   77    0.0000000   0.0000000   0.0000000   0.0000000   0.0000000
   78    0.0000000   0.0000000   0.0000000   0.0000000   0.0000000
   79    0.0000000   0.0000000   0.0000000   0.0000000   0.0000000
   80    0.0000000   0.0000000   0.0000000   0.0000000   0.0000000
   81    0.0000000   0.0000000   0.0000000   0.0000000   0.0000000
   82    0.0000000   0.0000000   0.0000000   0.0000000   0.0000000
   83    0.0000000   0.0000000   0.0000000   0.0000000   0.0000000
   84    0.0000000   0.0000000   0.0000000   0.0000000   0.0000000
   85    0.0000000   0.0000000   0.0000000   0.0000000   0.0000000
   86    0.0000000   0.0000000   0.0000000   0.0000000   0.0000000
   87    0.0000000   0.0000000   0.0000000   0.0000000   0.0000000
   88    0.0000000   0.0000000   0.0000000   0.0000000   0.0000000
   89    0.0000000   0.0000000   0.0000000   0.0000000   0.0000000
   90    0.0000000   0.0000000   0.0000000   0.0000000   0.0000000
   91    0.0000000   0.0000000   0.0000000   0.0000000   0.0000000
   92    0.0000000   0.0000000   0.0000000   0.0000000   0.0000000
   93    0.0000000   0.0000000   0.0000000   0.0000000   0.0000000
   94    0.0000000   0.0000000   0.0000000   0.0000000   0.0000000
   95    0.0000000   0.0000000   0.0000000   0.0000000   0.0000000
   96    0.0000000   0.0000000   0.0000000   0.0000000   0.0000000

            26          27          28          29          30

   26    0.9051753
   27    0.5583046   0.6714068
   28    0.3616843   0.3050687   0.9018741
   29    0.1755539   0.2687804   0.4001281   0.5990959
   30    0.4940037   0.5059826   0.4414007   0.3385896   0.7960239
   31    0.0234259   0.0851795   0.0492497   0.1683462   0.1268264
   32    0.1532532   0.2513358   0.2212893   0.3814702   0.3427000
   33    0.2513358   0.3847756   0.2318886   0.4295197   0.3476215
   34    0.2212893   0.2318886   0.2993004   0.2290094   0.4048270
   35    0.3814702   0.4295197   0.2290094   0.3529256   0.3579280
   36    0.3427000   0.3476215   0.4048270   0.3579280   0.4301160
   37    0.0000043   0.0014468   0.0000080   0.0053896   0.0000327
   38    0.0038824   0.0195158   0.0042835   0.0388272   0.0074633
   39    0.0000008   0.0013120   0.0000016   0.0051176   0.0000082
   40    0.0000873   0.0064474   0.0002073   0.0271638   0.0006639
   41    0.0132153   0.0466075   0.0178009   0.1073826   0.0321975
   42    0.0000443   0.0079933   0.0001176   0.0329152   0.0004389
   43    0.0138114   0.0807376   0.0204534   0.1675936   0.0445271
   44    0.1012004   0.2007003   0.0896415   0.2488050   0.1411294
   45    0.0144494   0.0730153   0.0218962   0.1314471   0.0597592
   46    0.2818318   0.3719927   0.2880589   0.3508724   0.3822212
   47    0.3345644   0.4793188   0.2149618   0.3252762   0.3493119
   48    0.2704736   0.2341263   0.3459571   0.2283942   0.4096002
   49    0.0000000   0.0000000   0.0000000   0.0000000   0.0000000
   50    0.0000000   0.0000000   0.0000000   0.0000000   0.0000000
   51    0.0000000   0.0000000   0.0000000   0.0000000   0.0000000
   52    0.0000000   0.0000000   0.0000000   0.0000000   0.0000000
   53    0.0000000   0.0000000   0.0000000   0.0000000   0.0000000
   54    0.0000000   0.0000000   0.0000000   0.0000000   0.0000000
   55    0.0000000   0.0000000   0.0000000   0.0000000   0.0000000
   56    0.0000000   0.0000000   0.0000000   0.0000000   0.0000000
   57    0.0000000   0.0000000   0.0000000   0.0000000   0.0000000
   58    0.0000000   0.0000000   0.0000000   0.0000000   0.0000000
   59    0.0000000   0.0000000   0.0000000   0.0000000   0.0000000
   60    0.0000000   0.0000000   0.0000000   0.0000000   0.0000000
   61    0.0000000   0.0000000   0.0000000   0.0000000   0.0000000
   62    0.0000000   0.0000000   0.0000000   0.0000000   0.0000000
   63    0.0000000   0.0000000   0.0000000   0.0000000   0.0000000
   64    0.0000000   0.0000000   0.0000000   0.0000000   0.0000000
   65    0.0000000   0.0000000   0.0000000   0.0000000   0.0000000
   66    0.0000000   0.0000000   0.0000000   0.0000000   0.0000000
   67    0.0000000   0.0000000   0.0000000   0.0000000   0.0000000
   68    0.0000000   0.0000000   0.0000000   0.0000000   0.0000000
   69    0.0000000   0.0000000   0.0000000   0.0000000   0.0000000
   70    0.0000000   0.0000000   0.0000000   0.0000000   0.0000000
   71    0.0000000   0.0000000   0.0000000   0.0000000   0.0000000
   72    0.0000000   0.0000000   0.0000000   0.0000000   0.0000000
   73    0.0000000   0.0000000   0.0000000   0.0000000   0.0000000
   74    0.0000000   0.0000000   0.0000000   0.0000000   0.0000000
   75    0.0000000   0.0000000   0.0000000   0.0000000   0.0000000
   76    0.0000000   0.0000000   0.0000000   0.0000000   0.0000000
   77    0.0000000   0.0000000   0.0000000   0.0000000   0.0000000
   78    0.0000000   0.0000000   0.0000000   0.0000000   0.0000000
   79    0.0000000   0.0000000   0.0000000   0.0000000   0.0000000
   80    0.0000000   0.0000000   0.0000000   0.0000000   0.0000000
   81    0.0000000   0.0000000   0.0000000   0.0000000   0.0000000
   82    0.0000000   0.0000000   0.0000000   0.0000000   0.0000000
   83    0.0000000   0.0000000   0.0000000   0.0000000   0.0000000
   84    0.0000000   0.0000000   0.0000000   0.0000000   0.0000000
   85    0.0000000   0.0000000   0.0000000   0.0000000   0.0000000
   86    0.0000000   0.0000000   0.0000000   0.0000000   0.0000000
   87    0.0000000   0.0000000   0.0000000   0.0000000   0.0000000
   88    0.0000000   0.0000000   0.0000000   0.0000000   0.0000000
   89    0.0000000   0.0000000   0.0000000   0.0000000   0.0000000
   90    0.0000000   0.0000000   0.0000000   0.0000000   0.0000000
   91    0.0000000   0.0000000   0.0000000   0.0000000   0.0000000
   92    0.0000000   0.0000000   0.0000000   0.0000000   0.0000000
   93    0.0000000   0.0000000   0.0000000   0.0000000   0.0000000
   94    0.0000000   0.0000000   0.0000000   0.0000000   0.0000000
   95    0.0000000   0.0000000   0.0000000   0.0000000   0.0000000
   96    0.0000000   0.0000000   0.0000000   0.0000000   0.0000000

            31          32          33          34          35

   31    1.8725457
   32    0.6467489   0.9051753
   33    0.2492233   0.5583046   0.6714068
   34    0.2034698   0.3616843   0.3050687   0.9018741
   35    0.0229527   0.1755539   0.2687804   0.4001281   0.5990959
   36    0.0624714   0.4940037   0.5059826   0.4414007   0.3385896
   37    0.0000013   0.0000873   0.0064474   0.0001927   0.0252417
   38    0.0023133   0.0132152   0.0466073   0.0166592   0.1000449
   39    0.0000006   0.0000412   0.0074660   0.0001008   0.0281305
   40    0.0000001   0.0000043   0.0014468   0.0000103   0.0069689
   41    0.0005248   0.0038823   0.0195157   0.0054025   0.0497399
   42    0.0000000   0.0000011   0.0016655   0.0000028   0.0081056
   43    0.0741192   0.2818321   0.3719929   0.3617683   0.4458136
   44    0.1247730   0.3345645   0.4793189   0.2382429   0.3846168
   45    0.1339504   0.3353251   0.2661778   0.3837405   0.2421694
   46    0.0005591   0.0138116   0.0807382   0.0248499   0.2042162
   47    0.0280684   0.1012010   0.2007012   0.1043293   0.2977588
   48    0.0003188   0.0175622   0.0860391   0.0342187   0.1809717
   49    0.0000000   0.0000000   0.0000000   0.0000000   0.0000000
   50    0.0000000   0.0000000   0.0000000   0.0000000   0.0000000
   51    0.0000000   0.0000000   0.0000000   0.0000000   0.0000000
   52    0.0000000   0.0000000   0.0000000   0.0000000   0.0000000
   53    0.0000000   0.0000000   0.0000000   0.0000000   0.0000000
   54    0.0000000   0.0000000   0.0000000   0.0000000   0.0000000
   55    0.0000000   0.0000000   0.0000000   0.0000000   0.0000000
   56    0.0000000   0.0000000   0.0000000   0.0000000   0.0000000
   57    0.0000000   0.0000000   0.0000000   0.0000000   0.0000000
   58    0.0000000   0.0000000   0.0000000   0.0000000   0.0000000
   59    0.0000000   0.0000000   0.0000000   0.0000000   0.0000000
   60    0.0000000   0.0000000   0.0000000   0.0000000   0.0000000
   61    0.0000000   0.0000000   0.0000000   0.0000000   0.0000000
   62    0.0000000   0.0000000   0.0000000   0.0000000   0.0000000
   63    0.0000000   0.0000000   0.0000000   0.0000000   0.0000000
   64    0.0000000   0.0000000   0.0000000   0.0000000   0.0000000
   65    0.0000000   0.0000000   0.0000000   0.0000000   0.0000000
[...]
             24  N  2  Z      0.48605     0.50897
             25  N  2 XX      0.00539     0.16618
             26  N  2 YY      0.00911     0.19272
             27  N  2 ZZ      0.01794     0.14551
             28  N  2 XY      0.00716     0.03387
             29  N  2 XZ      0.00761     0.00759
             30  N  2 YZ      0.00000     0.01622
             31  C  3  S      2.00392     1.87236
             32  C  3  S      0.67193     0.48663
             33  C  3  S      0.40662     0.27443
             34  C  3  X      0.74851     0.66019
             35  C  3  Y      0.70931     0.62990
             36  C  3  Z      0.52088     0.47235
             37  C  3  X      0.14921     0.32230
             38  C  3  Y      0.16510     0.29975
             39  C  3  Z      0.41899     0.44154
             40  C  3 XX      0.00517     0.19265
             41  C  3 YY      0.03323     0.19411
             42  C  3 ZZ      0.04376     0.08557
             43  C  3 XY      0.01021     0.10566
             44  C  3 XZ      0.01430     0.02209
             45  C  3 YZ      0.00000     0.02726
             46  C  4  S      2.00392     1.87213
             47  C  4  S      0.67193     0.48618
             48  C  4  S      0.40661     0.27423
             49  C  4  X      0.73937     0.65284
             50  C  4  Y      0.71845     0.63649
             51  C  4  Z      0.52088     0.47235
             52  C  4  X      0.11892     0.29285
             53  C  4  Y      0.19536     0.33001
             54  C  4  Z      0.41901     0.44155
             55  C  4 XX      0.00517     0.20928
             56  C  4 YY      0.04304     0.20238
             57  C  4 ZZ      0.03396     0.08550
             58  C  4 XY      0.01473     0.07338
             59  C  4 XZ      0.00978     0.03317
             60  C  4 YZ      0.00000     0.01618
             61  C  5  S      2.00392     1.87237
             62  C  5  S      0.67193     0.48663
             63  C  5  S      0.40662     0.27443
             64  C  5  X      0.74852     0.66020
             65  C  5  Y      0.70931     0.62990
             66  C  5  Z      0.52086     0.47233
             67  C  5  X      0.14921     0.32230
             68  C  5  Y      0.16497     0.29970
             69  C  5  Z      0.41913     0.44161
             70  C  5 XX      0.00515     0.19266
             71  C  5 YY      0.03324     0.19415
             72  C  5 ZZ      0.04377     0.08552
             73  C  5 XY      0.01020     0.10568
             74  C  5 XZ      0.01430     0.02206
             75  C  5 YZ      0.00000     0.02725
             76  C  6  S      2.00392     1.87213
             77  C  6  S      0.67193     0.48618
             78  C  6  S      0.40663     0.27423
             79  C  6  X      0.73937     0.65285
             80  C  6  Y      0.71846     0.63649
             81  C  6  Z      0.52086     0.47233
             82  C  6  X      0.11891     0.29285
             83  C  6  Y      0.19529     0.32997
             84  C  6  Z      0.41911     0.44160
             85  C  6 XX      0.00515     0.20928
             86  C  6 YY      0.04303     0.20239
             87  C  6 ZZ      0.03397     0.08547
             88  C  6 XY      0.01472     0.07341
             89  C  6 XZ      0.00978     0.03315
             90  C  6 YZ      0.00000     0.01618
             91  H  7  S      0.75744     0.59828
             92  H  7  S      0.16027     0.24009
             93  H  7  X      0.01309     0.02710
             94  H  7  Y      0.01315     0.02644
             95  H  7  Z      0.00504     0.01612
             96  H  8  S      0.75745     0.60323
             97  H  8  S      0.16027     0.24045
             98  H  8  X      0.00550     0.01557
             99  H  8  Y      0.02073     0.03878
            100  H  8  Z      0.00504     0.01612
            101  H  9  S      0.75744     0.60322
            102  H  9  S      0.16027     0.24045
            103  H  9  X      0.00550     0.01557
            104  H  9  Y      0.02073     0.03877
            105  H  9  Z      0.00505     0.01613
            106  H 10  S      0.75744     0.59827
            107  H 10  S      0.16027     0.24009
            108  H 10  X      0.01309     0.02710
            109  H 10  Y      0.01314     0.02643
            110  H 10  Z      0.00505     0.01613
            111  N 11  S      2.00369     1.89537
            112  N 11  S      0.78280     0.56900
            113  N 11  S      0.78771     0.39310
            114  N 11  X      0.95141     0.89907
            115  N 11  Y      0.75285     0.67592
            116  N 11  Z      0.56022     0.50865
            117  N 11  X      0.61310     0.60414
            118  N 11  Y      0.31471     0.39617
            119  N 11  Z      0.48606     0.50899
            120  N 11 XX      0.00540     0.16618
            121  N 11 YY      0.00910     0.19270
            122  N 11 ZZ      0.01794     0.14552
            123  N 11 XY      0.00716     0.03388
            124  N 11 XZ      0.00761     0.00759
            125  N 11 YZ      0.00000     0.01622
            126  N 12  S      2.00369     1.89537
            127  N 12  S      0.78280     0.56900
            128  N 12  S      0.78771     0.39310
            129  N 12  X      0.95141     0.89907
            130  N 12  Y      0.75289     0.67597
            131  N 12  Z      0.56017     0.50861
            132  N 12  X      0.61310     0.60414
            133  N 12  Y      0.31473     0.39619
            134  N 12  Z      0.48605     0.50897
            135  N 12 XX      0.00539     0.16618
            136  N 12 YY      0.00911     0.19272
            137  N 12 ZZ      0.01794     0.14551
            138  N 12 XY      0.00716     0.03387
            139  N 12 XZ      0.00761     0.00759
            140  N 12 YZ      0.00000     0.01622
            141  C 13  S      2.00392     1.87236
            142  C 13  S      0.67193     0.48663
            143  C 13  S      0.40662     0.27443
            144  C 13  X      0.74851     0.66019
            145  C 13  Y      0.70931     0.62990
            146  C 13  Z      0.52088     0.47235
            147  C 13  X      0.14921     0.32230
            148  C 13  Y      0.16509     0.29975
            149  C 13  Z      0.41899     0.44154
            150  C 13 XX      0.00517     0.19265
            151  C 13 YY      0.03323     0.19411
            152  C 13 ZZ      0.04376     0.08557
            153  C 13 XY      0.01021     0.10566
            154  C 13 XZ      0.01430     0.02209
            155  C 13 YZ      0.00000     0.02726
            156  C 14  S      2.00392     1.87213
            157  C 14  S      0.67193     0.48618
            158  C 14  S      0.40661     0.27423
            159  C 14  X      0.73937     0.65284
            160  C 14  Y      0.71845     0.63649
            161  C 14  Z      0.52088     0.47235
            162  C 14  X      0.11892     0.29285
            163  C 14  Y      0.19536     0.33001
            164  C 14  Z      0.41901     0.44155
            165  C 14 XX      0.00517     0.20928
            166  C 14 YY      0.04304     0.20238
            167  C 14 ZZ      0.03396     0.08550
            168  C 14 XY      0.01473     0.07338
            169  C 14 XZ      0.00978     0.03317
            170  C 14 YZ      0.00000     0.01618
            171  C 15  S      2.00392     1.87237
            172  C 15  S      0.67193     0.48663
            173  C 15  S      0.40662     0.27443
            174  C 15  X      0.74851     0.66020
            175  C 15  Y      0.70931     0.62990
            176  C 15  Z      0.52086     0.47233
            177  C 15  X      0.14921     0.32230
            178  C 15  Y      0.16497     0.29970
            179  C 15  Z      0.41913     0.44161
            180  C 15 XX      0.00515     0.19266
            181  C 15 YY      0.03324     0.19415
            182  C 15 ZZ      0.04377     0.08552
            183  C 15 XY      0.01020     0.10568
            184  C 15 XZ      0.01430     0.02206
            185  C 15 YZ      0.00000     0.02725
            186  C 16  S      2.00392     1.87213
            187  C 16  S      0.67193     0.48618
            188  C 16  S      0.40663     0.27423
            189  C 16  X      0.73937     0.65285
            190  C 16  Y      0.71845     0.63649
            191  C 16  Z      0.52086     0.47233
            192  C 16  X      0.11891     0.29285
            193  C 16  Y      0.19529     0.32997
            194  C 16  Z      0.41911     0.44161
            195  C 16 XX      0.00515     0.20928
            196  C 16 YY      0.04303     0.20239
            197  C 16 ZZ      0.03397     0.08547
            198  C 16 XY      0.01472     0.07341
            199  C 16 XZ      0.00978     0.03315
            200  C 16 YZ      0.00000     0.01618
            201  H 17  S      0.75744     0.59828
            202  H 17  S      0.16027     0.24009
            203  H 17  X      0.01309     0.02710
            204  H 17  Y      0.01315     0.02644
            205  H 17  Z      0.00504     0.01612
            206  H 18  S      0.75745     0.60323
            207  H 18  S      0.16027     0.24045
            208  H 18  X      0.00550     0.01557
            209  H 18  Y      0.02073     0.03878
            210  H 18  Z      0.00504     0.01612
            211  H 19  S      0.75744     0.60322
            212  H 19  S      0.16027     0.24045
            213  H 19  X      0.00550     0.01557
            214  H 19  Y      0.02073     0.03877
            215  H 19  Z      0.00505     0.01613
            216  H 20  S      0.75744     0.59827
            217  H 20  S      0.16027     0.24009
            218  H 20  X      0.01309     0.02710
            219  H 20  Y      0.01314     0.02643
            220  H 20  Z      0.00505     0.01613

          ----- MULLIKEN ATOMIC OVERLAP POPULATIONS -----
          (OFF-DIAGONAL ELEMENTS NEED TO BE MULTIPLIED BY 2)

             1           2           3           4           5

    1    6.4046819
    2   -0.0098723   6.4046787
    3    0.5277141  -0.0560629   4.6414432
    4   -0.0560617   0.5277139   0.5340956   4.6414342
    5   -0.0560639   0.5276538  -0.0228791  -0.1088430   4.6414538
    6    0.5276505  -0.0560641  -0.1088435  -0.0228787   0.5341432
    7   -0.0225648   0.0034233   0.4229081  -0.0405254   0.0000144
    8    0.0034232  -0.0225642  -0.0405248   0.4229092   0.0032635
    9   -0.0225655   0.0034229   0.0032629   0.0000141  -0.0405209
   10    0.0034229  -0.0225655   0.0000141   0.0032629   0.4229117
   11    0.0000000   0.0000000   0.0000000   0.0000000   0.0000000
   12    0.0000000   0.0000000   0.0000000   0.0000000   0.0000000
   13    0.0000000   0.0000000   0.0000000   0.0000000   0.0000000
   14    0.0000000   0.0000000   0.0000000   0.0000000   0.0000000
   15    0.0000000   0.0000000   0.0000000   0.0000000   0.0000000
   16    0.0000000   0.0000000   0.0000000   0.0000000   0.0000000
   17    0.0000000   0.0000000   0.0000000   0.0000000   0.0000000
   18    0.0000000   0.0000000   0.0000000   0.0000000   0.0000000
   19    0.0000000   0.0000000   0.0000000   0.0000000   0.0000000
   20    0.0000000   0.0000000   0.0000000   0.0000000   0.0000000

             6           7           8           9          10

    6    4.6414596
    7    0.0032636   0.5859213
    8    0.0000144  -0.0032931   0.5859208
    9    0.4229115  -0.0002140   0.0000576   0.5859106
   10   -0.0405218   0.0000576  -0.0002140  -0.0032936   0.5859115
   11    0.0000000   0.0000000   0.0000000   0.0000000   0.0000000
   12    0.0000000   0.0000000   0.0000000   0.0000000   0.0000000
   13    0.0000000   0.0000000   0.0000000   0.0000000   0.0000000
   14    0.0000000   0.0000000   0.0000000   0.0000000   0.0000000
   15    0.0000000   0.0000000   0.0000000   0.0000000   0.0000000
   16    0.0000000   0.0000000   0.0000000   0.0000000   0.0000000
   17    0.0000000   0.0000000   0.0000000   0.0000000   0.0000000
   18    0.0000000   0.0000000   0.0000000   0.0000000   0.0000000
   19    0.0000000   0.0000000   0.0000000   0.0000000   0.0000000
   20    0.0000000   0.0000000   0.0000000   0.0000000   0.0000000

            11          12          13          14          15

   11    6.4046825
   12   -0.0098724   6.4046793
   13    0.5277142  -0.0560627   4.6414405
   14   -0.0560615   0.5277139   0.5340961   4.6414316
   15   -0.0560639   0.5276541  -0.0228790  -0.1088431   4.6414530
   16    0.5276508  -0.0560641  -0.1088436  -0.0228785   0.5341436
   17   -0.0225648   0.0034233   0.4229081  -0.0405253   0.0000144
   18    0.0034232  -0.0225642  -0.0405246   0.4229092   0.0032634
   19   -0.0225656   0.0034229   0.0032629   0.0000141  -0.0405212
   20    0.0034229  -0.0225656   0.0000141   0.0032629   0.4229115

            16          17          18          19          20

   16    4.6414587
   17    0.0032636   0.5859205
   18    0.0000144  -0.0032931   0.5859201
   19    0.4229113  -0.0002140   0.0000576   0.5859131
   20   -0.0405221   0.0000576  -0.0002140  -0.0032936   0.5859141

          TOTAL MULLIKEN AND LOWDIN ATOMIC POPULATIONS
       ATOM         MULL.POP.    CHARGE          LOW.POP.     CHARGE
    1 NITROGEN      7.299764   -0.299764         7.012504   -0.012504
    2 NITROGEN      7.299764   -0.299764         7.012506   -0.012506
    3 CARBON        5.901128    0.098872         6.086798   -0.086798
    4 CARBON        5.901121    0.098879         6.078510   -0.078510
    5 CARBON        5.901133    0.098867         6.086802   -0.086802
    6 CARBON        5.901135    0.098865         6.078516   -0.078516
    7 HYDROGEN      0.948991    0.051009         0.908028    0.091972
    8 HYDROGEN      0.948993    0.051007         0.914161    0.085839
    9 HYDROGEN      0.948986    0.051014         0.914152    0.085848
   10 HYDROGEN      0.948986    0.051014         0.908022    0.091978
   11 NITROGEN      7.299765   -0.299765         7.012505   -0.012505
   12 NITROGEN      7.299765   -0.299765         7.012506   -0.012506
   13 CARBON        5.901126    0.098874         6.086797   -0.086797
   14 CARBON        5.901119    0.098881         6.078509   -0.078509
   15 CARBON        5.901133    0.098867         6.086803   -0.086803
   16 CARBON        5.901134    0.098866         6.078516   -0.078516
   17 HYDROGEN      0.948990    0.051010         0.908028    0.091972
   18 HYDROGEN      0.948992    0.051008         0.914160    0.085840
   19 HYDROGEN      0.948988    0.051012         0.914153    0.085847
   20 HYDROGEN      0.948988    0.051012         0.908023    0.091977

          MULLIKEN SPHERICAL HARMONIC POPULATIONS
       ATOM           S       P       D      F      G      H      I    TOTAL
    1 NITROGEN      3.57    3.68    0.05   0.00   0.00   0.00   0.00    7.30
    2 NITROGEN      3.57    3.68    0.05   0.00   0.00   0.00   0.00    7.30
    3 CARBON        3.08    2.71    0.11   0.00   0.00   0.00   0.00    5.90
    4 CARBON        3.08    2.71    0.11   0.00   0.00   0.00   0.00    5.90
    5 CARBON        3.08    2.71    0.11   0.00   0.00   0.00   0.00    5.90
    6 CARBON        3.08    2.71    0.11   0.00   0.00   0.00   0.00    5.90
    7 HYDROGEN      0.92    0.03    0.00   0.00   0.00   0.00   0.00    0.95
    8 HYDROGEN      0.92    0.03    0.00   0.00   0.00   0.00   0.00    0.95
    9 HYDROGEN      0.92    0.03    0.00   0.00   0.00   0.00   0.00    0.95
   10 HYDROGEN      0.92    0.03    0.00   0.00   0.00   0.00   0.00    0.95
   11 NITROGEN      3.57    3.68    0.05   0.00   0.00   0.00   0.00    7.30
   12 NITROGEN      3.57    3.68    0.05   0.00   0.00   0.00   0.00    7.30
   13 CARBON        3.08    2.71    0.11   0.00   0.00   0.00   0.00    5.90
   14 CARBON        3.08    2.71    0.11   0.00   0.00   0.00   0.00    5.90
   15 CARBON        3.08    2.71    0.11   0.00   0.00   0.00   0.00    5.90
   16 CARBON        3.08    2.71    0.11   0.00   0.00   0.00   0.00    5.90
   17 HYDROGEN      0.92    0.03    0.00   0.00   0.00   0.00   0.00    0.95
   18 HYDROGEN      0.92    0.03    0.00   0.00   0.00   0.00   0.00    0.95
   19 HYDROGEN      0.92    0.03    0.00   0.00   0.00   0.00   0.00    0.95
   20 HYDROGEN      0.92    0.03    0.00   0.00   0.00   0.00   0.00    0.95

          -------------------------------
          BOND ORDER AND VALENCE ANALYSIS     BOND ORDER THRESHOLD=0.050
          -------------------------------

                   BOND                       BOND                       BOND
  ATOM PAIR DIST  ORDER      ATOM PAIR DIST  ORDER      ATOM PAIR DIST  ORDER
    1   2  2.834  0.077        1   3  1.347  1.490        1   6  1.347  1.490
    2   4  1.347  1.490        2   5  1.347  1.490        3   4  1.398  1.411
    3   5  2.674  0.100        3   7  1.088  0.985        4   6  2.674  0.100
    4   8  1.088  0.985        5   6  1.398  1.411        5  10  1.088  0.985
    6   9  1.088  0.985       11  12  2.834  0.077       11  13  1.347  1.490
   11  16  1.347  1.490       12  14  1.347  1.490       12  15  1.347  1.490
   13  14  1.398  1.411       13  15  2.674  0.100       13  17  1.088  0.985
   14  16  2.674  0.100       14  18  1.088  0.985       15  16  1.398  1.411
   15  20  1.088  0.985       16  19  1.088  0.985

                       TOTAL       BONDED        FREE
      ATOM            VALENCE     VALENCE     VALENCE
    1 NITROGEN          3.074       3.074       0.000
    2 NITROGEN          3.074       3.074       0.000
    3 CARBON            3.971       3.971       0.000
    4 CARBON            3.971       3.971       0.000
    5 CARBON            3.971       3.971      -0.000
    6 CARBON            3.971       3.971       0.000
    7 HYDROGEN          0.990       0.990       0.000
    8 HYDROGEN          0.990       0.990       0.000
    9 HYDROGEN          0.990       0.990      -0.000
   10 HYDROGEN          0.990       0.990       0.000
   11 NITROGEN          3.074       3.074       0.000
   12 NITROGEN          3.074       3.074      -0.000
   13 CARBON            3.971       3.971       0.000
   14 CARBON            3.971       3.971      -0.000
   15 CARBON            3.971       3.971       0.000
   16 CARBON            3.971       3.971       0.000
   17 HYDROGEN          0.990       0.990       0.000
   18 HYDROGEN          0.990       0.990      -0.000
   19 HYDROGEN          0.990       0.990      -0.000
   20 HYDROGEN          0.990       0.990       0.000

          ---------------------
          ELECTROSTATIC MOMENTS
          ---------------------

 POINT   1           X           Y           Z (BOHR)    CHARGE
                 0.000001   -0.000003   18.897262       -0.00 (A.U.)
         DX          DY          DZ         /D/  (DEBYE)
     0.000009   -0.000700   -0.075859    0.075862
 ...... END OF PROPERTY EVALUATION ......
 STEP CPU TIME =     0.10 TOTAL CPU TIME =      115.8 (    1.9 MIN)
 TOTAL WALL CLOCK TIME=      116.2 SECONDS, CPU UTILIZATION IS  99.64%
               580000  WORDS OF DYNAMIC MEMORY USED
 EXECUTION OF GAMESS TERMINATED NORMALLY Fri Jun  2 02:03:39 2017
 DDI: 263640 bytes (0.3 MB / 0 MWords) used by master data server.

 ----------------------------------------
 CPU timing information for all processes
 ========================================
 0: 115.808 + 0.19 = 115.828
 ----------------------------------------
 ddikick.x: exited gracefully.
unset echo
----- accounting info -----
Files used on the master node compute-0-8.local were:
-rw-rw-r-- 1 sarom sarom    2261 Jun  2 02:01 /scratch/omp-exam02.F05
-rw-rw-r-- 1 sarom sarom 4940720 Jun  2 02:03 /scratch/omp-exam02.F10
rm: cannot remove `/scratch/sarom': Is a directory
rm: cannot remove `/scratch/tmp': Is a directory
ls: No match.
ls: No match.
ls: No match.
Fri Jun  2 02:03:42 CDT 2017
0.263u 0.195s 1:59.79 0.3%	0+0k 8+368io 0pf+0w
Deleting shmid=2785280.
Deleting shmid=2818049.
/opt/gridengine/default/spool/compute-0-8/active_jobs/23662.1/pe_hostfile compute-0-8.local
