-catch_rsh /opt/gridengine/default/spool/compute-0-8/active_jobs/24014.1/pe_hostfile
compute-0-8
The primary node assigned by SGE to this run is compute-0-8
Warning: no access to tty (Bad file descriptor).
Thus no job control in this shell.
Deleting shmid=2785280.
Deleting shmid=2818049.
source /home/sarom/gamess.github.2017-05-31.14.06/install.info
setenv GMS_PATH /home/sarom/gamess.github.2017-05-31.14.06
setenv GMS_BUILD_DIR /home/sarom/gamess.github.2017-05-31.14.06
setenv GMS_TARGET linux64
setenv GMS_FORTRAN gfortran
setenv GMS_GFORTRAN_VERNO 4.4
setenv GMS_MATHLIB mkl-so
setenv GMS_MATHLIB_PATH /share/apps/intel/compilers_and_libraries_2017.1.132/linux/mkl/lib/intel64
setenv GMS_MKL_VERNO 12
setenv GMS_DDI_COMM sockets
setenv GMS_LIBCCHEM false
setenv GMS_EIGEN_PATH
setenv GMS_PHI false
setenv GMS_SHMTYPE sysv
setenv GMS_OPENMP false
unset echo
smd-rdft-opt
tests/solvent/mnsol
----- GAMESS execution script 'rungms' -----
This job is running on host compute-0-8.local
under operating system Linux at Fri Jun 2 05:00:57 CDT 2017
Available scratch disk space (Kbyte units) at beginning of the job is
Filesystem           1K-blocks      Used Available Use% Mounted on
/dev/sda1             16126920   3867344  11440376  26% /
GAMESS temporary binary files will be written to /scratch
GAMESS supplementary output files will be written to /home/sarom/restart
Copying input file smd-rdft-opt.inp to your run's scratch directory...
cp tests/solvent/mnsol/smd-rdft-opt.inp /scratch/smd-rdft-opt.F05
unset echo
The generated host list is
compute-0-8.local
/home/sarom/gamess.github.2017-05-31.14.06/ddikick.x /home/sarom/gamess.github.2017-05-31.14.06/gamess.00.x smd-rdft-opt -ddi 1 1 compute-0-8.local -scr /scratch

 Distributed Data Interface kickoff program.
 Initiating 1 compute processes on 1 nodes to run the following command:
 /home/sarom/gamess.github.2017-05-31.14.06/gamess.00.x smd-rdft-opt 

          ******************************************************
          *         GAMESS VERSION = 20 APR 2017 (R1)          *
          *             FROM IOWA STATE UNIVERSITY             *
          * M.W.SCHMIDT, K.K.BALDRIDGE, J.A.BOATZ, S.T.ELBERT, *
          *   M.S.GORDON, J.H.JENSEN, S.KOSEKI, N.MATSUNAGA,   *
          *          K.A.NGUYEN, S.J.SU, T.L.WINDUS,           *
          *       TOGETHER WITH M.DUPUIS, J.A.MONTGOMERY       *
          *         J.COMPUT.CHEM.  14, 1347-1363(1993)        *
          **************** 64 BIT LINUX VERSION ****************

  SINCE 1993, STUDENTS AND POSTDOCS WORKING AT IOWA STATE UNIVERSITY
  AND ALSO IN THEIR VARIOUS JOBS AFTER LEAVING ISU HAVE MADE IMPORTANT
  CONTRIBUTIONS TO THE CODE:
     IVANA ADAMOVIC, CHRISTINE AIKENS, YURI ALEXEEV, POOJA ARORA,
     ANDREY ASADCHEV, ROB BELL, PRADIPTA BANDYOPADHYAY, JONATHAN BENTZ,
     BRETT BODE, KURT BRORSEN, CALEB CARLIN, GALINA CHABAN, WEI CHEN,
     CHEOL HO CHOI, PAUL DAY, ALBERT DEFUSCO, NUWAN DESILVA, TIM DUDLEY,
     DMITRI FEDOROV, GRAHAM FLETCHER, MARK FREITAG, KURT GLAESEMANN,
     DAN KEMP, GRANT MERRILL, NORIYUKI MINEZAWA, JONATHAN MULLIN,
     TAKESHI NAGATA, SEAN NEDD, HEATHER NETZLOFF, BOSILJKA NJEGIC, RYAN OLSON,
     MIKE PAK, SPENCER PRUITT, LUKE ROSKOP, JIM SHOEMAKER, LYUDMILA SLIPCHENKO,
     TONY SMITH, SAROM SOK LEANG, JIE SONG, TETSUYA TAKETSUGU, SIMON WEBB,
     PENG XU, SOOHAENG YOO, FEDERICO ZAHARIEV

  ADDITIONAL CODE HAS BEEN PROVIDED BY COLLABORATORS IN OTHER GROUPS:
     IOWA STATE UNIVERSITY:
          JOE IVANIC, AARON WEST, LAIMUTIS BYTAUTAS, KLAUS RUEDENBERG
     UNIVERSITY OF TOKYO: KIMIHIKO HIRAO, TAKAHITO NAKAJIMA,
          TAKAO TSUNEDA, MUNEAKI KAMIYA, SUSUMU YANAGISAWA,
          KIYOSHI YAGI, MAHITO CHIBA, SEIKEN TOKURA, NAOAKI KAWAKAMI
     UNIVERSITY OF AARHUS: FRANK JENSEN
     UNIVERSITY OF IOWA: VISVALDAS KAIRYS, HUI LI
     NATIONAL INST. OF STANDARDS AND TECHNOLOGY: WALT STEVENS, DAVID GARMER
     UNIVERSITY OF PISA: BENEDETTA MENNUCCI, JACOPO TOMASI
     UNIVERSITY OF MEMPHIS: HENRY KURTZ, PRAKASHAN KORAMBATH
     UNIVERSITY OF ALBERTA: TOBY ZENG, MARIUSZ KLOBUKOWSKI
     UNIVERSITY OF NEW ENGLAND: MARK SPACKMAN
     MIE UNIVERSITY: HIROAKI UMEDA
     NAT. INST. OF ADVANCED INDUSTRIAL SCIENCE AND TECHNOLOGY: KAZUO KITAURA
     MICHIGAN STATE UNIVERSITY:
          KAROL KOWALSKI, MARTA WLOCH, JEFFREY GOUR, JESSE LUTZ,
          WEI LI, PIOTR PIECUCH
     UNIVERSITY OF SILESIA: MONIKA MUSIAL, STANISLAW KUCHARSKI
     FACULTES UNIVERSITAIRES NOTRE-DAME DE LA PAIX:
          OLIVIER QUINET, BENOIT CHAMPAGNE
     UNIVERSITY OF CALIFORNIA - SANTA BARBARA: BERNARD KIRTMAN
     INSTITUTE FOR MOLECULAR SCIENCE:
          KAZUYA ISHIMURA, MICHIO KATOUDA, AND SHIGERU NAGASE
     UNIVERSITY OF NOTRE DAME: ANNA POMOGAEVA, DAN CHIPMAN
     KYUSHU UNIVERSITY:
          HARUYUKI NAKANO,
          FENG LONG GU, JACEK KORCHOWIEC, MARCIN MAKOWSKI, AND YURIKO AOKI,
          HIROTOSHI MORI AND EISAKU MIYOSHI
     PENNSYLVANIA STATE UNIVERSITY:
          TZVETELIN IORDANOV, CHET SWALINA, JONATHAN SKONE,
          SHARON HAMMES-SCHIFFER
     WASEDA UNIVERSITY:
          MASATO KOBAYASHI, TOMOKO AKAMA, TSUGUKI TOUMA,
          TAKESHI YOSHIKAWA, YASUHIRO IKABATA, JUNJI SEINO,
          YUYA NAKAJIMA, HIROMI NAKAI
     NANJING UNIVERSITY: SHUHUA LI
     UNIVERSITY OF NEBRASKA:
          PEIFENG SU, DEJUN SI, NANDUN THELLAMUREGE, YALI WANG, HUI LI
     UNIVERSITY OF ZURICH: ROBERTO PEVERATI, KIM BALDRIDGE
     N. COPERNICUS UNIVERSITY AND JACKSON STATE UNIVERSITY:
          MARIA BARYSZ
     UNIVERSITY OF COPENHAGEN: Jimmy Kromann, CASPER STEINMANN
     TOKYO INSTITUTE OF TECHNOLOGY: HIROYA NAKATA
     NAGOYA UNIVERSITY: YOSHIO NISHIMOTO, STEPHAN IRLE
     MOSCOW STATE UNIVERSITY: VLADIMIR MIRONOV

 EXECUTION OF GAMESS BEGUN Fri Jun  2 05:00:57 2017

            ECHO OF THE FIRST FEW INPUT CARDS -
 INPUT CARD>!   methanol in water...SMD/C-PCM...FIXPVA tesselation                          
 INPUT CARD>!   R-DFT level geometry optimization using R-M06-2x.                           
 INPUT CARD>!                                                                               
 INPUT CARD>!   the steps are monotonically decreasing:                                     
 INPUT CARD>!       NSERCH:   0  E=     -115.6598015357  R.M.S.=  0.0094960                 
 INPUT CARD>!       NSERCH:   1  E=     -115.6607041127  R.M.S.=  0.0033794                 
 INPUT CARD>!       NSERCH:   2  E=     -115.6609342161  R.M.S.=  0.0005651                 
 INPUT CARD>!       NSERCH:   3  E=     -115.6609407831  R.M.S.=  0.0003314                 
 INPUT CARD>!       NSERCH:   4  E=     -115.6609425397  R.M.S.=  0.0000883                 
 INPUT CARD>!       NSERCH:   5  E=     -115.6609430486  R.M.S.=  0.0000849                 
 INPUT CARD>!       NSERCH:   6  E=     -115.6609468375  R.M.S.=  0.0001457                 
 INPUT CARD>!       NSERCH:   7  E=     -115.6609494555  R.M.S.=  0.0001883                 
 INPUT CARD>!       NSERCH:   8  E=     -115.6609516590  R.M.S.=  0.0001573                 
 INPUT CARD>!       NSERCH:   9  E=     -115.6609524211  R.M.S.=  0.0000660                 
 INPUT CARD>!       NSERCH:  10  E=     -115.6609525572  R.M.S.=  0.0000082                 
 INPUT CARD>!       NSERCH:  11  E=     -115.6609525601  R.M.S.=  0.0000010                 
 INPUT CARD>!                                                                               
 INPUT CARD>!   This run takes 254 seconds on 2.66 GHz Cloverton (22 Oct 2015)              
 INPUT CARD>!                                                                               
 INPUT CARD> $CONTRL SCFTYP=RHF dfttyp=m06-2x RUNTYP=OPTIMIZE nzvar=12 $end                 
 INPUT CARD> $system mwords=1 $end                                                          
 INPUT CARD> $BASIS  GBASIS=N31 NGAUSS=6 NDFUNC=1 $END                                      
 INPUT CARD>                                                                                
 INPUT CARD> $PCM    SOLVNT=WATER SMD=.T. $END                                              
 INPUT CARD>                                                                                
 INPUT CARD> $statpt opttol=1d-5 $end                                                       
 INPUT CARD> $ZMAT   IZMAT(1)=1,1,2,  1,2,3,  1,3,4,  1,3,5,  1,3,6,                        
 INPUT CARD>              2,1,2,3,  2,2,3,4,  2,2,3,5,  2,2,3,6,                            
 INPUT CARD>              3,1,2,3,4,  3,1,2,3,5,  3,1,2,3,6 $END                            
 INPUT CARD> $DATA                                                                          
 INPUT CARD>SMD/M06-2X/6-31G(d) optimization - methanol in water                            
 INPUT CARD>Cs                                                                              
 INPUT CARD>                                                                                
 INPUT CARD>H 1.0   -1.0616171503   0.8036449245   0.0000000000                             
 INPUT CARD>O 8.0   -0.6870131482  -0.0653470836   0.0000000000                             
 INPUT CARD>C 6.0    0.7093551399   0.0291827007   0.0000000000                             
 INPUT CARD>H 1.0    1.0836641283   0.5408321444   0.8835398105                             
 INPUT CARD>H 1.0    1.0975386849  -0.9797829903   0.0000000000                             
 INPUT CARD> $END                                                                           
    1000000 WORDS OF MEMORY AVAILABLE

     BASIS OPTIONS
     -------------
     GBASIS=N31          IGAUSS=       6      POLAR=POPN31  
     NDFUNC=       1     NFFUNC=       0     DIFFSP=       F
     NPFUNC=       0      DIFFS=       F     BASNAM=        


     RUN TITLE
     ---------
 SMD/M06-2X/6-31G(d) optimization - methanol in water                            

 THE POINT GROUP OF THE MOLECULE IS CS      
 THE ORDER OF THE PRINCIPAL AXIS IS     0

 ATOM      ATOMIC                      COORDINATES (BOHR)
           CHARGE         X                   Y                   Z
 H           1.0    -2.0061655179        1.5186686987        0.0000000000
 O           8.0    -1.2982666001       -0.1234880821        0.0000000000
 C           6.0     1.3404868424        0.0551473079        0.0000000000
 H           1.0     2.0478282652        1.0220245583       -1.6696481411
 H           1.0     2.0478282652        1.0220245583        1.6696481411
 H           1.0     2.0740473754       -1.8515213791        0.0000000000

          INTERNUCLEAR DISTANCES (ANGS.)
          ------------------------------

                1 H          2 O          3 C          4 H          5 H     

   1 H       0.0000000    0.9462956 *  1.9329083 *  2.3349400 *  2.3349400 *
   2 O       0.9462956 *  0.0000000    1.3995643 *  2.0696362 *  2.0696362 *
   3 C       1.9329083 *  1.3995643 *  0.0000000    1.0874442 *  1.0874442 *
   4 H       2.3349400 *  2.0696362 *  1.0874442 *  0.0000000    1.7670796 *
   5 H       2.3349400 *  2.0696362 *  1.0874442 *  1.7670796 *  0.0000000  
   6 H       2.8004587 *  2.0051978 *  1.0810635 *  1.7587227 *  1.7587227 *

                6 H     

   1 H       2.8004587 *
   2 O       2.0051978 *
   3 C       1.0810635 *
   4 H       1.7587227 *
   5 H       1.7587227 *
   6 H       0.0000000  

  * ... LESS THAN  3.000


     ATOMIC BASIS SET
     ----------------
 THE CONTRACTED PRIMITIVE FUNCTIONS HAVE BEEN UNNORMALIZED
 THE CONTRACTED BASIS FUNCTIONS ARE NOW NORMALIZED TO UNITY

  SHELL TYPE  PRIMITIVE        EXPONENT          CONTRACTION COEFFICIENT(S)

 H         

      1   S       1            18.7311370    0.033494604338
      1   S       2             2.8253944    0.234726953484
      1   S       3             0.6401217    0.813757326146

      2   S       4             0.1612778    1.000000000000

 O         

      3   S       5          5484.6716600    0.001831074430
      3   S       6           825.2349460    0.013950172200
      3   S       7           188.0469580    0.068445078098
      3   S       8            52.9645000    0.232714335992
      3   S       9            16.8975704    0.470192897984
      3   S      10             5.7996353    0.358520852987

      4   L      11            15.5396162   -0.110777549525    0.070874268231
      4   L      12             3.5999336   -0.148026262701    0.339752839147
      4   L      13             1.0137618    1.130767015354    0.727158577316

      5   L      14             0.2700058    1.000000000000    1.000000000000

      6   D      15             0.8000000    1.000000000000

 C         

      7   S      16          3047.5248800    0.001834737132
      7   S      17           457.3695180    0.014037322813
      7   S      18           103.9486850    0.068842622264
      7   S      19            29.2101553    0.232184443216
      7   S      20             9.2866630    0.467941348435
      7   S      21             3.1639270    0.362311985337

      8   L      22             7.8682723   -0.119332419775    0.068999066591
      8   L      23             1.8812885   -0.160854151696    0.316423960957
      8   L      24             0.5442493    1.143456437840    0.744308290898

      9   L      25             0.1687145    1.000000000000    1.000000000000

     10   D      26             0.8000000    1.000000000000

 H         

     13   S      27            18.7311370    0.033494604338
     13   S      28             2.8253944    0.234726953484
     13   S      29             0.6401217    0.813757326146

     14   S      30             0.1612778    1.000000000000

 H         

     15   S      31            18.7311370    0.033494604338
     15   S      32             2.8253944    0.234726953484
     15   S      33             0.6401217    0.813757326146

     16   S      34             0.1612778    1.000000000000

 TOTAL NUMBER OF BASIS SET SHELLS             =   16
 NUMBER OF CARTESIAN GAUSSIAN BASIS FUNCTIONS =   38
 NUMBER OF ELECTRONS                          =   18
 CHARGE OF MOLECULE                           =    0
 SPIN MULTIPLICITY                            =    1
 NUMBER OF OCCUPIED ORBITALS (ALPHA)          =    9
 NUMBER OF OCCUPIED ORBITALS (BETA )          =    9
 TOTAL NUMBER OF ATOMS                        =    6
 THE NUCLEAR REPULSION ENERGY IS       40.7873239319

     LEBEDEV GRID-BASED DFT OPTIONS
     ------------------------------
     DFTTYP=M06-2X  
     NRAD  =      99     NLEB  =     590
     NRAD0 =      24     NLEB0 =     110
     SWOFF =    5.00E-03 (PURE SCF -> DFT)
     SWITCH=    3.00E-04 (COARSE -> TIGHT GRID)
     THRESH=    0.00E+00 GTHRE=    1.00E+00

 GRIMME'S EMPIRICAL DISPERSION CORRECTION= F

     $CONTRL OPTIONS
     ---------------
 SCFTYP=RHF          RUNTYP=OPTIMIZE     EXETYP=RUN     
 MPLEVL=       0     CITYP =NONE         CCTYP =NONE         VBTYP =NONE    
 DFTTYP=M06-2X       TDDFT =NONE    
 MULT  =       1     ICHARG=       0     NZVAR =      12     COORD =UNIQUE  
 PP    =NONE         RELWFN=NONE         LOCAL =NONE         NUMGRD=       F
 ISPHER=      -1     NOSYM =       0     MAXIT =      30     UNITS =ANGS    
 PLTORB=       F     MOLPLT=       F     AIMPAC=       F     FRIEND=        
 NPRINT=       7     IREST =       0     GEOM  =INPUT   
 NORMF =       0     NORMP =       0     ITOL  =      20     ICUT  =       9
 INTTYP=BEST         GRDTYP=BEST         QMTTOL= 1.0E-06

     $SYSTEM OPTIONS
     ---------------
  REPLICATED MEMORY=     1000000 WORDS (ON EVERY NODE).
 DISTRIBUTED MEMDDI=           0 MILLION WORDS IN AGGREGATE,
 MEMDDI DISTRIBUTED OVER   1 PROCESSORS IS           0 WORDS/PROCESSOR.
 TOTAL MEMORY REQUESTED ON EACH PROCESSOR=     1000000 WORDS.
 TIMLIM=      525600.00 MINUTES, OR     365.0 DAYS.
 PARALL= F  BALTYP=  DLB     KDIAG=    0  COREFL= F
 MXSEQ2=     300 MXSEQ3=     150  mem10=         0

     -----------------------------------
     INPUT FOR PCM SOLVATION CALCULATION 
     -----------------------------------
     IEF   =     -10
     ICOMP =       0     IFIELD=       0     ICAV  =       0
     IDISP =       0     IREP  =       0     IDP   =       0

     SOLVNT=WATER        EPS   = 78.3550     EPSINF=  1.7778
     VMOL  =  0.0000     TCE   =  0.00000000 STEN  =  0.0000
     DSTEN =  0.0000     CMF   =  0.0000     RSOLV =  0.0000

     NESFP =       0
     OMEGA = 40.0000     RET   =100.0000     FRO   =  0.7000

     TABS  =298.0000     IPRINT=       0

     --------------------------------
     INPUT FOR ITERATIVE C-PCM METHOD 
     --------------------------------
     IPCMIT  =         1     MXDIIS  =        50
     MXITR1  =        50     MXITR2  =        50
     THRES   = 0.100E-09     IMUL    =         3
     RCUT(1) =   15.0000     RCUT(2) =   30.0000

     IDIRCT  =         1
     IMGABI  =         0     RABI    =    4.0000
     IMGASC  =         0     RASC    =   20.0000
     THRSLS  = 0.500E-03     DENSLS  =    0.0100
     IEFPOL  =         1     REFPOL  =    0.0000

     ---------------------------------
     INPUT FOR AQUEOUS SMD CALCULATION 
     ---------------------------------
     EPS   = 78.3550

     INPUT FOR ISOTROPIC DIELECTRICS
     -------------------------------
     EPS=    78.36

     INPUT FOR CAVITY DEFINITION 
     ---------------------------
   ATOM               COORDINATES                RADIUS       EPS
      1     -1.0616      0.8036      0.0000      1.2000     78.3550
      2     -0.6870     -0.0653      0.0000      1.5200     78.3550
      3      0.7094      0.0292      0.0000      1.8500     78.3550
      4      1.0837      0.5408     -0.8835      1.2000     78.3550
      5      1.0837      0.5408      0.8835      1.2000     78.3550
      6      1.0975     -0.9798      0.0000      1.2000     78.3550

     ----------------------------
     INPUT FOR TESSERA DEFINITION
     ----------------------------
     NTSALL  =        60     MTHALL  =         4
     MTHAUT  =         0     AUTFRE  =    2.0000
     NTSFRZ  =        60     KEEPSM  =         0
     AREAKP  =   10.0000     BONDRY  =    1.0000
     AREATL  =    0.0100

     SPHERE     INITS       METHOD
          1        60       FIXPVA
          2        60       FIXPVA
          3        60       FIXPVA
          4        60       FIXPVA
          5        60       FIXPVA
          6        60       FIXPVA

     ------------------------------
      FIXPVA TESSELLATION FOR PCM
         PEIFENG SU AND HUI LI
     UNIVERSITY OF NEBRASKA-LINCOLN
     ------------------------------


     -----------------------------
     INPUT FOR PCM GRADIENT METHOD
     -----------------------------
     IPCDER  =         3     IFAST   =         0
     FIXPVA GRADIENTS BY PEIFENG SU AND HUI LI
  

 PCM DIMENSIONS: MXSP=  2000, MXTS=       360, MEMORY=         35923

          ----------------
          PROPERTIES INPUT
          ----------------

     MOMENTS            FIELD           POTENTIAL          DENSITY
 IEMOM =       1   IEFLD =       0   IEPOT =       0   IEDEN =       0
 WHERE =COMASS     WHERE =NUCLEI     WHERE =NUCLEI     WHERE =NUCLEI  
 OUTPUT=BOTH       OUTPUT=BOTH       OUTPUT=BOTH       OUTPUT=BOTH    
 IEMINT=       0   IEFINT=       0                     IEDINT=       0
                                                       MORB  =       0
          EXTRAPOLATION IN EFFECT
          DIIS IN EFFECT
 ORBITAL PRINTING OPTION: NPREO=     1    38     2     1

     -------------------------------
     INTEGRAL TRANSFORMATION OPTIONS
     -------------------------------
     NWORD  =            0
     CUTOFF = 1.0E-09     MPTRAN =       0
     DIRTRF =       F     AOINTS =DUP     

          ----------------------
          INTEGRAL INPUT OPTIONS
          ----------------------
 NOPK  =       1 NORDER=       0 SCHWRZ=       T

   --- ENCODED Z MATRIX ---
 COORD  TYPE   I   J   K   L   M   N
    1      1    1   2
    2      1    2   3
    3      1    3   4
    4      1    3   5
    5      1    3   6
    6      2    1   2   3
    7      2    2   3   4
    8      2    2   3   5
    9      2    2   3   6
   10      3    1   2   3   4
   11      3    1   2   3   5
   12      3    1   2   3   6

 THE DETERMINANT OF THE G MATRIX IS 10**(    -4)


                     --------------------
                     INTERNAL COORDINATES
                     --------------------

                 - - ATOMS - -         COORDINATE      COORDINATE
 NO.   TYPE    I  J  K  L  M  N        (BOHR,RAD)       (ANG,DEG)
 ----------------------------------------------------------------
   1 STRETCH   1  2                     1.7882393       0.9462956
   2 STRETCH   2  3                     2.6447931       1.3995643
   3 STRETCH   3  4                     2.0549716       1.0874442
   4 STRETCH   3  5                     2.0549716       1.0874442
   5 STRETCH   3  6                     2.0429137       1.0810635
   6 BEND      1  2  3                  1.9102107     109.4470112
   7 BEND      2  3  4                  1.9554120     112.0368519
   8 BEND      2  3  5                  1.9554120     112.0368519
   9 BEND      2  3  6                  1.8704799     107.1706012
  10 TORSION   1  2  3  4              -1.0686029     -61.2264374
  11 TORSION   1  2  3  5               1.0686029      61.2264374
  12 TORSION   1  2  3  6               3.1415927     180.0000000

     ------------------------------------------
     THE POINT GROUP IS C1 , NAXIS= 1, ORDER= 1
     ------------------------------------------

     DIMENSIONS OF THE SYMMETRY SUBSPACES ARE
 A   =   38

 ..... DONE SETTING UP THE RUN .....
 STEP CPU TIME =     0.02 TOTAL CPU TIME =        0.0 (    0.0 MIN)
 TOTAL WALL CLOCK TIME=        0.0 SECONDS, CPU UTILIZATION IS  66.67%


          -----------------------------
          STATIONARY POINT LOCATION RUN
          -----------------------------

 OBTAINING INITIAL HESSIAN, HESS=GUESS   
 DIAGONAL GUESS HESSIAN IN INTERNAL COORDS IS
     1  0.3698     2  0.3820     3  0.3481     4  0.3481     5  0.3524
     6  0.2171     7  0.2213     8  0.2213     9  0.2216    10  0.2500
    11  0.2500    12  0.2500

          PARAMETERS CONTROLLING GEOMETRY SEARCH ARE
          METHOD =QA                  UPHESS =BFGS    
          NNEG   =         0          NFRZ   =         0
          NSTEP  =        50          IFOLOW =         1
          HESS   =GUESS               RESTAR =         F
          IHREP  =         0          HSSEND =         F
          NPRT   =         0          NPUN   =         0
          OPTTOL = 1.000E-05          RMIN   = 1.500E-03
          RMAX   = 1.000E-01          RLIM   = 7.000E-02
          DXMAX  = 3.000E-01          PURIFY =         F
          MOVIE  =         F          TRUPD  =         T
          TRMAX  = 5.000E-01          TRMIN  = 5.000E-02
          ITBMAT =         5          STPT   =         F
          STSTEP = 1.000E-02          PROJCT=          T

 BEGINNING GEOMETRY SEARCH POINT NSERCH=   0 ...

 COORDINATES OF ALL ATOMS ARE (ANGS)
   ATOM   CHARGE       X              Y              Z
 ------------------------------------------------------------
 H           1.0  -1.0616171503   0.8036449245   0.0000000000
 O           8.0  -0.6870131482  -0.0653470836   0.0000000000
 C           6.0   0.7093551399   0.0291827007   0.0000000000
 H           1.0   1.0836641283   0.5408321444  -0.8835398105
 H           1.0   1.0836641283   0.5408321444   0.8835398105
 H           1.0   1.0975386849  -0.9797829903   0.0000000000


                     --------------------
                     INTERNAL COORDINATES
                     --------------------

                 - - ATOMS - -         COORDINATE      COORDINATE
 NO.   TYPE    I  J  K  L  M  N        (BOHR,RAD)       (ANG,DEG)
 ----------------------------------------------------------------
   1 STRETCH   1  2                     1.7882393       0.9462956
   2 STRETCH   2  3                     2.6447931       1.3995643
   3 STRETCH   3  4                     2.0549716       1.0874442
   4 STRETCH   3  5                     2.0549716       1.0874442
   5 STRETCH   3  6                     2.0429137       1.0810635
   6 BEND      1  2  3                  1.9102107     109.4470112
   7 BEND      2  3  4                  1.9554120     112.0368519
   8 BEND      2  3  5                  1.9554120     112.0368519
   9 BEND      2  3  6                  1.8704799     107.1706012
  10 TORSION   1  2  3  4              -1.0686029     -61.2264374
  11 TORSION   1  2  3  5               1.0686029      61.2264374
  12 TORSION   1  2  3  6               3.1415927     180.0000000

          ********************
          1 ELECTRON INTEGRALS
          ********************
 ...... END OF ONE-ELECTRON INTEGRALS ......
 STEP CPU TIME =     0.00 TOTAL CPU TIME =        0.0 (    0.0 MIN)
 TOTAL WALL CLOCK TIME=        0.0 SECONDS, CPU UTILIZATION IS  66.67%

          -------------
          GUESS OPTIONS
          -------------
          GUESS =HUCKEL            NORB  =       0          NORDER=       0
          MIX   =       F          PRTMO =       F          PUNMO =       F
          TOLZ  = 1.0E-08          TOLE  = 1.0E-05
          SYMDEN=       F          PURIFY=       F

 INITIAL GUESS ORBITALS GENERATED BY HUCKEL   ROUTINE.
 HUCKEL GUESS REQUIRES     15726 WORDS.

 SYMMETRIES FOR INITIAL GUESS ORBITALS FOLLOW.   BOTH SET(S).
     9 ORBITALS ARE OCCUPIED (    2 CORE ORBITALS).
     3=A        4=A        5=A        6=A        7=A        8=A        9=A   
    10=A       11=A       12=A       13=A       14=A       15=A       16=A   
    17=A       18=A       19=A   
 ...... END OF INITIAL ORBITAL SELECTION ......
 STEP CPU TIME =     0.00 TOTAL CPU TIME =        0.0 (    0.0 MIN)
 TOTAL WALL CLOCK TIME=        0.0 SECONDS, CPU UTILIZATION IS  66.67%

                    ----------------------
                    AO INTEGRAL TECHNOLOGY
                    ----------------------
     S,P,L SHELL ROTATED AXIS INTEGRALS, REPROGRAMMED BY
        KAZUYA ISHIMURA (IMS) AND JOSE SIERRA (SYNSTAR).
     S,P,D,L SHELL ROTATED AXIS INTEGRALS PROGRAMMED BY
        KAZUYA ISHIMURA (INSTITUTE FOR MOLECULAR SCIENCE).
     S,P,D,F,G SHELL TO TOTAL QUARTET ANGULAR MOMENTUM SUM 5,
        ERIC PROGRAM BY GRAHAM FLETCHER (ELORET AND NASA ADVANCED
        SUPERCOMPUTING DIVISION, AMES RESEARCH CENTER).
     S,P,D,F,G,L SHELL GENERAL RYS QUADRATURE PROGRAMMED BY
        MICHEL DUPUIS (PACIFIC NORTHWEST NATIONAL LABORATORY).

          --------------------
          2 ELECTRON INTEGRALS
          --------------------

 THE -PK- OPTION IS OFF, THE INTEGRALS ARE NOT IN SUPERMATRIX FORM.
 STORING   15000 INTEGRALS/RECORD ON DISK, USING 12 BYTES/INTEGRAL.
 TWO ELECTRON INTEGRAL EVALUATION REQUIRES   90532 WORDS OF MEMORY.
 SCHWARZ INEQUALITY OVERHEAD:       741 INTEGRALS, T=        0.00
 II,JST,KST,LST =  1  1  1  1 NREC =         1 INTLOC =    1
 II,JST,KST,LST =  2  1  1  1 NREC =         1 INTLOC =    2
 II,JST,KST,LST =  3  1  1  1 NREC =         1 INTLOC =    7
 II,JST,KST,LST =  4  1  1  1 NREC =         1 INTLOC =   22
 II,JST,KST,LST =  5  1  1  1 NREC =         1 INTLOC =  232
 II,JST,KST,LST =  6  1  1  1 NREC =         1 INTLOC =  960
 II,JST,KST,LST =  7  1  1  1 NREC =         1 INTLOC = 3802
 II,JST,KST,LST =  8  1  1  1 NREC =         1 INTLOC = 5512
 II,JST,KST,LST =  9  1  1  1 NREC =         2 INTLOC =   45
 II,JST,KST,LST = 10  1  1  1 NREC =         3 INTLOC =  894
 II,JST,KST,LST = 11  1  1  1 NREC =         5 INTLOC = 9617
 II,JST,KST,LST = 12  1  1  1 NREC =         6 INTLOC =12587
 II,JST,KST,LST = 13  1  1  1 NREC =         8 INTLOC = 2252
 II,JST,KST,LST = 14  1  1  1 NREC =         9 INTLOC = 8499
 II,JST,KST,LST = 15  1  1  1 NREC =        11 INTLOC = 1649
 II,JST,KST,LST = 16  1  1  1 NREC =        12 INTLOC = 4277
 SCHWARZ INEQUALITY TEST SKIPPED          12 INTEGRAL BLOCKS.
 TOTAL NUMBER OF NONZERO TWO-ELECTRON INTEGRALS =              188418
         13 INTEGRAL RECORDS WERE STORED ON DISK FILE  8.
  ...... END OF TWO-ELECTRON INTEGRALS .....
 STEP CPU TIME =     0.03 TOTAL CPU TIME =        0.0 (    0.0 MIN)
 TOTAL WALL CLOCK TIME=        0.1 SECONDS, CPU UTILIZATION IS  83.33%

          -------------------------------------
          ---- POLARISABLE CONTINUUM MODEL ----
          ----      UNIVERSITY OF PISA     ----
          -------------------------------------

     ----------------------------
     INPUT FOR TESSERA DEFINITION
     ----------------------------
     NTSALL  =        60     MTHALL  =         4
     MTHAUT  =         0     AUTFRE  =    2.0000
     NTSFRZ  =        60     KEEPSM  =         0
     AREAKP  =   10.0000     BONDRY  =    1.0000
     AREATL  =    0.0100

     SPHERE     INITS       METHOD
          1        60       FIXPVA
          2        60       FIXPVA
          3        60       FIXPVA
          4        60       FIXPVA
          5        60       FIXPVA
          6        60       FIXPVA

     ------------------------------
      FIXPVA TESSELLATION FOR PCM
         PEIFENG SU AND HUI LI
     UNIVERSITY OF NEBRASKA-LINCOLN
     ------------------------------


     INPUT FOR CAVITY DEFINITION 
     ---------------------------
   ATOM               COORDINATES                RADIUS       EPS
      1     -1.0616      0.8036      0.0000      1.2000     78.3550
      2     -0.6870     -0.0653      0.0000      1.5200     78.3550
      3      0.7094      0.0292      0.0000      1.8500     78.3550
      4      1.0837      0.5408     -0.8835      1.2000     78.3550
      5      1.0837      0.5408      0.8835      1.2000     78.3550
      6      1.0975     -0.9798      0.0000      1.2000     78.3550

 MEMORY USED TO GENERATE CAVITY=    202522


 TOTAL NUMBER OF SPHERES=     6
 SPHERE           CENTER  (X,Y,Z) (A)               RADIUS (A)      AREA(A*A)
     1  -1.061617150   0.803644925   0.000000000   1.200000000   2.453436728
     2  -0.687013148  -0.065347084   0.000000000   1.520000000   9.547529312
     3   0.709355140   0.029182701   0.000000000   1.850000000  12.906521829
     4   1.083664128   0.540832144  -0.883539811   1.200000000   4.345848572
     5   1.083664128   0.540832144   0.883539811   1.200000000   4.354690625
     6   1.097538685  -0.979782990   0.000000000   1.200000000   4.250473884

 TOTAL NUMBER OF TESSERAE=     138
 SURFACE AREA=    37.85850095(A**2)    CAVITY VOLUME=     26.00438875 (A**3)
 STEP CPU TIME =     0.00 TOTAL CPU TIME =        0.0 (    0.0 MIN)
 TOTAL WALL CLOCK TIME=        0.1 SECONDS, CPU UTILIZATION IS  83.33%

          THE SOLUTE IS ENCLOSED IN ONE CAVITY
 DONE CHECKING SEPARATION.
 STEP CPU TIME =     0.00 TOTAL CPU TIME =        0.0 (    0.0 MIN)
 TOTAL WALL CLOCK TIME=        0.1 SECONDS, CPU UTILIZATION IS  83.33%

 ..... DONE GENERATING CAVITY .....
 STEP CPU TIME =     0.00 TOTAL CPU TIME =        0.0 (    0.0 MIN)
 TOTAL WALL CLOCK TIME=        0.1 SECONDS, CPU UTILIZATION IS  83.33%
 NUCLEI-NUCLEAR CHARGE POLARIZATION ADJUSTMENT TO VNN=        0.0000000000

          --------------------------
            R-M06-2X SCF CALCULATION
          --------------------------

     NUCLEAR ENERGY =        40.7873239319
     MAXIT =   30     NPUNCH=    2
     EXTRAP=T  DAMP=F  SHIFT=F  RSTRCT=F  DIIS=T  DEM=F  SOSCF=F
         DENSITY MATRIX CONVERGENCE THRESHOLD=  1.00E-05
     COARSE -> FINE DFT GRID SWITCH THRESHOLD=  3.00E-04 (SWITCH IN $DFT)
                   HF -> DFT SWITCH THRESHOLD=  5.00E-03 (SWOFF IN $DFT)
     MEMORY REQUIRED FOR RHF ITERS=    520711 WORDS.

     EXCHANGE FUNCTIONAL   =M06-2X    
     CORRELATION FUNCTIONAL=M06-2X    
     DFT THRESHOLD         =.285E-08
     GRID CHANGE THRESHOLD =.300E-03
 FOR AN EULER-MACLAURIN QUADRATURE USING  99 RADIAL POINTS:
 SMALLEST GAUSSIAN PRIMITIVE EXPONENT=        0.1612777588 OF TYPE -S-
 ON ATOM NUMBER   1 HAS RADIAL NORMALIZATION=  1.000000
  LARGEST GAUSSIAN PRIMITIVE EXPONENT=     5484.6716600000 OF TYPE -S-
 ON ATOM NUMBER   2 HAS RADIAL NORMALIZATION=  1.000000
 DFT IS SWITCHED OFF, PERFORMING PURE SCF UNTIL SWOFF THRESHOLD IS REACHED.

 ITER EX DEM     TOTAL ENERGY        E CHANGE  DENSITY CHANGE    DIIS ERROR
          * * *   INITIATING DIIS PROCEDURE   * * *
   1  0  0     -114.6879445128  -114.6879445128   0.237544461   0.442617206
   2  1  0     -115.0214673650    -0.3335228522   0.085000437   0.064326243
   3  2  0     -115.0398860005    -0.0184186355   0.023170260   0.023821305
   4  3  0     -115.0419250453    -0.0020390448   0.011751925   0.006262416
   5  4  0     -115.0421800863    -0.0002550410   0.001434350   0.001420509
 CONVERGED TO SWOFF, SO DFT CALCULATION IS NOW SWITCHED ON.
          * * *   INITIATING DIIS PROCEDURE   * * *
   6  5  0     -115.6544856165    -0.6123055302   0.068382479   0.057728572
   7  6  0     -115.6594146248    -0.0049290084   0.017993655   0.017515232
   8  7  0     -115.6596000707    -0.0001854458   0.007457486   0.011967409
   9  8  0     -115.6597990010    -0.0001989304   0.000836487   0.000829951
  10  9  0     -115.6598019066    -0.0000029056   0.000307702   0.000396086
  11 10  0     -115.6598014941     0.0000004125   0.000037172   0.000031790
  12 11  0     -115.6598015337    -0.0000000395   0.000004684   0.000006533
  13 12  0     -115.6598015356    -0.0000000019   0.000001806   0.000000998
  14 13  0     -115.6598015357    -0.0000000001   0.000000119   0.000000106

          -----------------
          DENSITY CONVERGED
          -----------------
     TIME TO FORM FOCK OPERATORS=      13.2 SECONDS (       0.9 SEC/ITER)
     TIME TO SOLVE SCF EQUATIONS=       0.0 SECONDS (       0.0 SEC/ITER)

 FINAL R-M06-2X ENERGY IS     -115.6598015357 AFTER  14 ITERATIONS
 DFT EXCHANGE + CORRELATION ENERGY =        -7.4586556031
 TOTAL ELECTRON NUMBER             =        17.9999989074
 TOTAL KINETIC ENERGY DENSITY      =       114.8373173114
  
   PCM ASC=     -0.0122101515
   GCAVP  =      0.0000000000
   GDISP  =      0.0000000000
   GREP   =      0.0000000000

          ------------
          EIGENVECTORS
          ------------

                      1          2          3          4          5
                  -19.6326   -10.5727    -1.1432    -0.7709    -0.5838
                     A          A          A          A          A   
    1  H  1  S    0.000389  -0.000004   0.126617  -0.122636   0.204242
    2  H  1  S   -0.000553   0.000286  -0.004770  -0.029629   0.096506
    3  O  2  S    0.993999  -0.000137  -0.203438   0.058532   0.042622
    4  O  2  S    0.022929  -0.000036   0.451580  -0.132810  -0.095377
    5  O  2  X    0.000590  -0.000059   0.055211   0.205906  -0.242461
    6  O  2  Y    0.001019   0.000028   0.086756  -0.101535   0.357430
    7  O  2  Z   -0.000003   0.000000  -0.000179   0.000039  -0.000222
    8  O  2  S    0.006624   0.001514   0.438993  -0.180399  -0.160811
    9  O  2  X   -0.000148  -0.000144   0.024226   0.104512  -0.124541
   10  O  2  Y   -0.000372  -0.000132   0.039070  -0.048367   0.209534
   11  O  2  Z    0.000001  -0.000000  -0.000331   0.000118  -0.000209
   12  O  2 XX   -0.005802  -0.000915   0.009030   0.014808  -0.010715
   13  O  2 YY   -0.005709  -0.000036   0.014079  -0.014767   0.029836
   14  O  2 ZZ   -0.005625   0.000000  -0.010209   0.001412  -0.002228
   15  O  2 XY   -0.000008  -0.000054  -0.005429   0.011591  -0.002106
   16  O  2 XZ    0.000000   0.000000  -0.000018  -0.000034   0.000023
   17  O  2 YZ   -0.000000   0.000000  -0.000053   0.000029  -0.000113
   18  C  3  S   -0.000013   0.994011  -0.072885  -0.177432  -0.033889
   19  C  3  S    0.000245   0.040985   0.133164   0.350170   0.064135
   20  C  3  X   -0.000383  -0.000927  -0.102682   0.052989   0.219765
   21  C  3  Y   -0.000062  -0.000046  -0.002607  -0.021008   0.201164
   22  C  3  Z    0.000000  -0.000004  -0.000054  -0.000208  -0.000473
   23  C  3  S   -0.000395  -0.012337   0.056822   0.325252   0.101651
   24  C  3  X    0.000360  -0.000483  -0.002391   0.031420   0.071286
   25  C  3  Y    0.000335   0.000068   0.006094  -0.001790   0.092654
   26  C  3  Z   -0.000000   0.000002  -0.000013  -0.000213  -0.000157
   27  C  3 XX    0.000120  -0.006488   0.021354  -0.004681  -0.018233
   28  C  3 YY   -0.000064  -0.007067  -0.005928   0.005948   0.002515
   29  C  3 ZZ   -0.000027  -0.007069  -0.006353   0.003960   0.015754
   30  C  3 XY    0.000001   0.000030   0.000178   0.003174  -0.010404
   31  C  3 XZ   -0.000000   0.000000   0.000009   0.000020  -0.000011
   32  C  3 YZ   -0.000000  -0.000001  -0.000020  -0.000039  -0.000056
   33  H  4  S   -0.000026   0.000022   0.023238   0.126933   0.117464
   34  H  4  S   -0.000112   0.002459   0.000940   0.033036   0.062780
   35  H  5  S   -0.000026   0.000023   0.023216   0.126703   0.116929
   36  H  5  S   -0.000112   0.002457   0.000834   0.032906   0.062006
   37  H  6  S    0.000042   0.000034   0.024421   0.139244  -0.020678
   38  H  6  S    0.000060   0.002523   0.006273   0.039194  -0.011415

                      6          7          8          9         10
                   -0.5095    -0.4966    -0.4023    -0.3430     0.1409
                     A          A          A          A          A   
    1  H  1  S    0.000657  -0.030808   0.139907   0.000199  -0.095334
    2  H  1  S    0.000212  -0.035786   0.089970  -0.000142  -1.160363
    3  O  2  S   -0.000153   0.030567   0.051360  -0.000064  -0.090088
    4  O  2  S    0.000463  -0.059602  -0.099501   0.000566   0.110121
    5  O  2  X   -0.002109   0.376525   0.170226  -0.000181   0.001901
    6  O  2  Y   -0.000103   0.165957   0.382255  -0.000034   0.197908
    7  O  2  Z    0.318351   0.002002  -0.000337   0.554966  -0.000397
    8  O  2  S    0.000646  -0.136025  -0.259354  -0.000710   1.172018
    9  O  2  X   -0.001219   0.243176   0.136573  -0.000331   0.040507
   10  O  2  Y   -0.000192   0.118237   0.285984  -0.000126   0.423927
   11  O  2  Z    0.215762   0.001425  -0.000183   0.462083   0.000648
   12  O  2 XX    0.000069   0.008388   0.005866   0.000199  -0.030232
   13  O  2 YY    0.000103   0.005585   0.029244   0.000175  -0.024877
   14  O  2 ZZ   -0.000038  -0.001962  -0.002647  -0.000016  -0.046318
   15  O  2 XY   -0.000144   0.027287   0.003916  -0.000029   0.003347
   16  O  2 XZ    0.013694   0.000015  -0.000044   0.004504  -0.000042
   17  O  2 YZ    0.014129   0.000034  -0.000112   0.021223  -0.000001
   18  C  3  S   -0.000164   0.000147  -0.008205   0.000045  -0.039188
   19  C  3  S    0.000507   0.001612   0.020929  -0.000081   0.046219
   20  C  3  X    0.001740  -0.285277  -0.095305  -0.000168   0.201685
   21  C  3  Y   -0.001388   0.264605  -0.324351  -0.000264   0.040049
   22  C  3  Z    0.397951   0.002176  -0.000375  -0.232874  -0.001338
   23  C  3  S    0.000472  -0.027755   0.002442   0.000108   0.755563
   24  C  3  X    0.001347  -0.102641  -0.024365  -0.000319   0.701244
   25  C  3  Y   -0.000876   0.147504  -0.139981  -0.000027   0.066391
   26  C  3  Z    0.186093   0.000950  -0.000252  -0.090679  -0.002160
   27  C  3 XX   -0.000104   0.019958   0.006107   0.000017   0.010412
   28  C  3 YY    0.000173  -0.021026   0.011202   0.000007  -0.015583
   29  C  3 ZZ   -0.000016  -0.000454  -0.017628   0.000012  -0.009593
   30  C  3 XY   -0.000045   0.005057  -0.024963  -0.000009  -0.003872
   31  C  3 XZ   -0.000741   0.000028   0.000006  -0.032761   0.000005
   32  C  3 YZ    0.016116   0.000041   0.000017  -0.015858   0.000017
   33  H  4  S   -0.184091   0.012525  -0.124111   0.166379  -0.008207
   34  H  4  S   -0.132258   0.002422  -0.123136   0.180390  -0.557268
   35  H  5  S    0.184144   0.014550  -0.124287  -0.166469  -0.008774
   36  H  5  S    0.131667   0.003661  -0.123067  -0.180390  -0.551032
   37  H  6  S    0.001338  -0.210811   0.205227   0.000083  -0.007393
   38  H  6  S    0.000752  -0.142517   0.184955   0.000161  -0.410381

                     11         12         13         14         15
                    0.1982     0.2303     0.2403     0.2707     0.6055
                     A          A          A          A          A   
    1  H  1  S    0.062260  -0.036241   0.000363   0.055875  -0.120210
    2  H  1  S    0.646753  -0.237471   0.002078   1.022103   0.108016
    3  O  2  S    0.057593   0.011605  -0.000018  -0.042452   0.007171
    4  O  2  S   -0.047096  -0.017109  -0.000190   0.044728  -0.104066
    5  O  2  X   -0.063657  -0.119160   0.000591   0.344918  -0.289085
    6  O  2  Y   -0.123059  -0.033164  -0.000046  -0.155453  -0.082588
    7  O  2  Z    0.000284   0.000314   0.092123  -0.000077  -0.001257
    8  O  2  S   -0.827359  -0.182611   0.001018   0.667352   0.627129
    9  O  2  X   -0.200726  -0.243358   0.001751   0.903923   0.127533
   10  O  2  Y   -0.239731  -0.145020   0.000069  -0.345626  -0.059529
   11  O  2  Z    0.000484   0.000812   0.250317  -0.000142  -0.000689
   12  O  2 XX    0.036609  -0.003446  -0.000018   0.003772   0.126594
   13  O  2 YY    0.020330   0.005636  -0.000081  -0.021830  -0.064999
   14  O  2 ZZ    0.031632  -0.000010  -0.000077  -0.022262  -0.060130
   15  O  2 XY   -0.006673   0.013118  -0.000016   0.010571   0.001058
   16  O  2 XZ   -0.000013  -0.000030  -0.011737  -0.000045  -0.000030
   17  O  2 YZ    0.000044   0.000049   0.014207   0.000005  -0.000105
   18  C  3  S   -0.145995  -0.021922   0.000519   0.059646  -0.028504
   19  C  3  S    0.187443   0.019192  -0.000594  -0.065962   0.337945
   20  C  3  X    0.055588  -0.082710  -0.000418   0.253780  -0.803674
   21  C  3  Y   -0.027943   0.383225  -0.000877   0.081049  -0.414383
   22  C  3  Z   -0.001178  -0.001403  -0.417297  -0.000136  -0.003569
   23  C  3  S    2.420855   0.293434  -0.008828  -0.872112  -0.430734
   24  C  3  X    0.155693  -0.416824   0.000779   1.377892   1.082425
   25  C  3  Y   -0.071077   1.338440  -0.004743   0.550111   0.917966
   26  C  3  Z   -0.003108  -0.004643  -1.417959   0.001107   0.008125
   27  C  3 XX   -0.008623  -0.008585  -0.000021   0.020721  -0.066922
   28  C  3 YY    0.000649   0.021126  -0.000046  -0.008636   0.077085
   29  C  3 ZZ   -0.003796  -0.012251   0.000153  -0.027733  -0.016513
   30  C  3 XY    0.003343  -0.013438   0.000046   0.005616  -0.032538
   31  C  3 XZ    0.000007   0.000049   0.006842  -0.000065  -0.000028
   32  C  3 YZ    0.000017  -0.000002   0.020260  -0.000004  -0.000431
   33  H  4  S   -0.013314  -0.037040  -0.065662  -0.064027  -0.195027
   34  H  4  S   -1.040052  -0.878482  -1.595548  -0.378882  -0.122808
   35  H  5  S   -0.013181  -0.036577   0.066155  -0.064457  -0.198539
   36  H  5  S   -1.032515  -0.867902   1.608255  -0.380678  -0.126838
   37  H  6  S   -0.014199   0.099664  -0.000529  -0.019918   0.214045
   38  H  6  S   -1.185071   1.770115  -0.002195   0.474521   0.149904

                     16         17         18         19         20
                    0.6242     0.6247     0.8640     0.9370     0.9470
                     A          A          A          A          A   
    1  H  1  S    0.032580  -0.041485   0.859268   0.001621  -0.106379
    2  H  1  S    0.157149  -0.209273  -0.457600  -0.001623  -0.130002
    3  O  2  S    0.011274  -0.014919   0.024358   0.000018  -0.004990
    4  O  2  S   -0.135340   0.181369   0.059934  -0.000906  -0.446587
    5  O  2  X   -0.032044   0.044974  -0.184569  -0.001045   0.249135
    6  O  2  Y    0.011039  -0.014183  -0.293670  -0.000723   0.586735
    7  O  2  Z   -0.166676  -0.124919  -0.001371   0.222281   0.001628
    8  O  2  S    0.274814  -0.372923  -0.136569   0.002011   0.726871
    9  O  2  X    0.004882  -0.007586   0.491410   0.001739  -0.488610
   10  O  2  Y    0.101833  -0.135873  -0.186122   0.000227  -0.635499
   11  O  2  Z   -0.154303  -0.115993   0.001798  -0.313078  -0.002109
   12  O  2 XX    0.014560  -0.020065   0.065312  -0.000253  -0.163183
   13  O  2 YY   -0.049237   0.066372   0.137642   0.000023  -0.179304
   14  O  2 ZZ   -0.046397   0.062428  -0.036759  -0.000320  -0.140809
   15  O  2 XY   -0.002475   0.003202  -0.140945  -0.000215  -0.016920
   16  O  2 XZ   -0.008169  -0.006209   0.000032  -0.100666   0.000174
   17  O  2 YZ   -0.016419  -0.012379   0.000098  -0.017070   0.000049
   18  C  3  S   -0.012578   0.017143   0.004403  -0.000242  -0.027988
   19  C  3  S    0.126669  -0.170289   0.072849   0.001061  -0.138372
   20  C  3  X   -0.348448   0.469353  -0.059711   0.000813  -0.007962
   21  C  3  Y    0.369051  -0.488246  -0.462370  -0.000181  -0.604530
   22  C  3  Z   -0.590891  -0.444470   0.001533  -0.841593  -0.000012
   23  C  3  S   -0.100287   0.132689  -0.414091  -0.002076   0.724353
   24  C  3  X    0.508394  -0.686598   0.029631   0.000126   0.042195
   25  C  3  Y   -0.852894   1.128243   0.936506   0.000545   1.191654
   26  C  3  Z    1.391133   1.044980  -0.003286   1.425082   0.001106
   27  C  3 XX   -0.010313   0.014170  -0.108439  -0.000133   0.090032
   28  C  3 YY   -0.034421   0.045509  -0.000579  -0.000124  -0.106772
   29  C  3 ZZ    0.050699  -0.067138   0.078613   0.000071   0.016349
   30  C  3 XY    0.016800  -0.022036   0.143420   0.000183   0.080849
   31  C  3 XZ   -0.019578  -0.014708  -0.000077   0.150819  -0.000133
   32  C  3 YZ   -0.079896  -0.060063   0.000022   0.149961  -0.000178
   33  H  4  S    0.406269   0.139332   0.340701  -0.666012   0.004620
   34  H  4  S    0.375055   0.156952  -0.473938   1.435723  -0.622068
   35  H  5  S   -0.244858  -0.349273   0.339797   0.663571   0.003607
   36  H  5  S   -0.253583  -0.314339  -0.469974  -1.434248  -0.621878
   37  H  6  S   -0.274056   0.363486  -0.307609  -0.001895  -0.638728
   38  H  6  S   -0.239569   0.319137   1.022369   0.001901   1.051683

                     21         22         23         24         25
                    0.9947     1.0269     1.0399     1.0818     1.1814
                     A          A          A          A          A   
    1  H  1  S    0.459842   0.528124   0.005627  -0.381410  -0.162954
    2  H  1  S   -0.575763  -0.655478  -0.005081   0.376945  -1.149587
    3  O  2  S    0.001409   0.000783   0.000160  -0.010383  -0.014829
    4  O  2  S   -0.577686  -0.527804  -0.004360   0.070985  -0.479084
    5  O  2  X   -0.257558   0.385720   0.003798  -0.452568   0.433602
    6  O  2  Y   -0.111236   0.059964   0.002566  -0.001751  -0.740649
    7  O  2  Z    0.001918   0.007047  -0.918454  -0.002435  -0.001287
    8  O  2  S    1.035198   0.824371   0.004838  -0.366250   0.955159
    9  O  2  X    0.386436  -0.488976  -0.005467   0.473285  -1.053544
   10  O  2  Y   -0.028835  -0.290876  -0.006002   0.170678   1.340970
   11  O  2  Z   -0.002545  -0.009142   1.193883   0.003180   0.001780
   12  O  2 XX   -0.222328  -0.217494  -0.001614  -0.064733  -0.138105
   13  O  2 YY   -0.061070  -0.059206  -0.000207  -0.000011  -0.204233
   14  O  2 ZZ   -0.174716  -0.211763  -0.002191   0.136843  -0.054389
   15  O  2 XY   -0.006417  -0.012360  -0.000082   0.044496   0.014532
   16  O  2 XZ    0.000389   0.000504  -0.083566  -0.000366  -0.000082
   17  O  2 YZ   -0.000032  -0.000117   0.026834  -0.000055  -0.000280
   18  C  3  S   -0.102859   0.020426  -0.000059  -0.061451  -0.015636
   19  C  3  S   -0.067621  -1.002906  -0.004052  -1.646849  -0.309307
   20  C  3  X    0.233038  -0.366065  -0.001651  -0.165527   0.026624
   21  C  3  Y    0.213459   0.213178   0.002394  -0.123023  -0.266051
   22  C  3  Z    0.001575  -0.000518  -0.021671  -0.000308  -0.000018
   23  C  3  S    0.423876   2.351920   0.012684   3.843460   1.113243
   24  C  3  X    0.151454   0.387464   0.000347   0.698215  -0.363389
   25  C  3  Y   -0.175628  -0.036771   0.000111  -0.033326   0.030515
   26  C  3  Z   -0.000888   0.005222  -0.536516  -0.000710  -0.000780
   27  C  3 XX   -0.030559  -0.033122   0.000548  -0.204734   0.104799
   28  C  3 YY    0.027092   0.083180   0.001034  -0.140439  -0.178400
   29  C  3 ZZ   -0.119765  -0.143727  -0.001709   0.027184   0.083296
   30  C  3 XY   -0.030131  -0.011520  -0.000053  -0.031804  -0.058749
   31  C  3 XZ   -0.000455  -0.000062   0.031457   0.000173   0.000004
   32  C  3 YZ   -0.000782  -0.000713   0.122130   0.000218   0.000082
   33  H  4  S   -0.728070   0.124749  -0.213832   0.070301  -0.026570
   34  H  4  S    0.380011  -0.519252   0.014143  -1.151751  -0.195547
   35  H  5  S   -0.732412   0.122895   0.210065   0.071319  -0.026262
   36  H  5  S    0.385857  -0.521861  -0.014807  -1.152380  -0.195093
   37  H  6  S   -0.314732   0.659142   0.003982  -0.229757  -0.313401
   38  H  6  S   -0.291474  -1.201524  -0.007547  -0.853021   0.245699

                     26         27         28         29         30
                    1.5091     1.5579     1.6423     1.7928     2.1272
                     A          A          A          A          A   
    1  H  1  S    0.073944   0.000296  -0.358715   0.000082  -0.444402
    2  H  1  S   -0.019576   0.000159  -0.165062  -0.000289  -0.091163
    3  O  2  S    0.085165   0.000097  -0.052617  -0.000008  -0.011564
    4  O  2  S    1.235901   0.001381  -0.711426  -0.000077  -0.522254
    5  O  2  X    0.297039   0.000363  -0.107934   0.000026  -0.290953
    6  O  2  Y   -0.000871   0.000112  -0.037735  -0.000149  -0.140956
    7  O  2  Z    0.000550   0.021852  -0.000338   0.050665   0.000050
    8  O  2  S   -3.740750  -0.004107   2.108667   0.000189   1.007347
    9  O  2  X   -1.467598  -0.001568   0.535332  -0.000113   0.267917
   10  O  2  Y   -0.050010  -0.000506   0.484361   0.000390   0.676018
   11  O  2  Z   -0.001019   0.120315   0.000711  -0.150419  -0.000340
   12  O  2 XX    0.574108   0.000687  -0.218411  -0.000005   0.091019
   13  O  2 YY    0.263542   0.000495  -0.544454  -0.000480   0.181015
   14  O  2 ZZ    0.174988  -0.000079   0.206722   0.000386  -0.542452
   15  O  2 XY   -0.284594   0.000018  -0.443001  -0.000225   0.261990
   16  O  2 XZ    0.000663  -0.513488  -0.000399  -0.235410  -0.000661
   17  O  2 YZ    0.000110  -0.154954  -0.000469   0.935257  -0.000063
   18  C  3  S   -0.073126  -0.000040   0.028441  -0.000009   0.012973
   19  C  3  S   -0.933400  -0.000684   0.277319  -0.000101  -0.106782
   20  C  3  X   -0.149654  -0.000077   0.113595   0.000042   0.185753
   21  C  3  Y    0.105888   0.000007   0.107747   0.000004  -0.092947
   22  C  3  Z   -0.000262   0.202949   0.000103   0.040368   0.000101
   23  C  3  S    4.006799   0.003283  -1.535338   0.000236  -0.479296
   24  C  3  X   -0.959920  -0.001086   0.427707  -0.000111  -0.084278
   25  C  3  Y   -0.195717  -0.000202   0.046143   0.000190  -0.626859
   26  C  3  Z    0.000479  -0.149003  -0.000390   0.352433   0.000803
   27  C  3 XX    0.141049   0.000264  -0.125234   0.000006   0.451520
   28  C  3 YY    0.056369  -0.000059   0.271252  -0.000120   0.311619
   29  C  3 ZZ   -0.243204  -0.000111  -0.137548   0.000115  -0.830764
   30  C  3 XY    0.271210  -0.000060   0.510640   0.000010   0.189691
   31  C  3 XZ   -0.000447   0.616214   0.000238   0.128944  -0.000172
   32  C  3 YZ    0.000110  -0.397117  -0.000146   0.182947   0.000917
   33  H  4  S   -0.377207   0.134205   0.047245   0.190207   0.409536
   34  H  4  S   -0.375365  -0.170272   0.161017   0.126388   0.100092
   35  H  5  S   -0.377170  -0.134847   0.047247  -0.190423   0.408475
   36  H  5  S   -0.375507   0.169911   0.161340  -0.126485   0.099801
   37  H  6  S   -0.259150  -0.000337   0.251974   0.000079  -0.245419
   38  H  6  S   -0.589187  -0.000408   0.161916   0.000112  -0.105961

                     31         32         33         34         35
                    2.1896     2.2200     2.4212     2.4715     2.5331
                     A          A          A          A          A   
    1  H  1  S   -0.350943   0.000601  -0.104464  -0.000085  -1.170378
    2  H  1  S    0.005847   0.000102  -0.108847  -0.000021   0.018998
    3  O  2  S   -0.033672   0.000047  -0.006287   0.000012  -0.064529
    4  O  2  S    0.216724   0.000768  -0.093793  -0.000154  -0.640636
    5  O  2  X    0.329577   0.000219   0.009315  -0.000031  -0.012196
    6  O  2  Y   -0.070737   0.000150  -0.044830  -0.000041   0.006446
    7  O  2  Z    0.000078   0.127642  -0.000021  -0.035492  -0.000104
    8  O  2  S    0.151613  -0.002012   0.275478   0.000131   2.162156
    9  O  2  X   -0.319059  -0.000508  -0.036016   0.000013   0.423403
   10  O  2  Y    0.482519  -0.000894   0.305652   0.000213   0.640204
   11  O  2  Z   -0.000143  -0.365726  -0.000066   0.240605   0.000105
   12  O  2 XX   -0.307494   0.000146  -0.044964  -0.000171   0.102311
   13  O  2 YY    0.367455  -0.000106   0.259095   0.000194   0.509885
   14  O  2 ZZ   -0.040093   0.000479  -0.250056   0.000032  -0.938678
   15  O  2 XY    0.219073  -0.000161   0.544347   0.000368  -0.712268
   16  O  2 XZ   -0.000213  -0.545564  -0.000294   0.730764   0.000052
   17  O  2 YZ    0.000080  -0.322157   0.000199  -0.038081   0.000117
   18  C  3  S   -0.002307  -0.000044  -0.000882   0.000005   0.036653
   19  C  3  S    0.170428  -0.000035  -0.014044  -0.000027   0.038064
   20  C  3  X   -0.111061  -0.000184   0.035895   0.000035   0.265699
   21  C  3  Y   -0.110040   0.000178   0.081800   0.000032   0.085765
   22  C  3  Z    0.000062   0.169104  -0.000045   0.055850   0.000021
   23  C  3  S    0.032919   0.001312  -0.020774  -0.000095  -1.228113
   24  C  3  X    0.316567  -0.000291   0.034363  -0.000063   0.483598
   25  C  3  Y   -0.507513   0.000788   0.008605  -0.000055   0.058620
   26  C  3  Z    0.000206   0.681779  -0.000066  -0.096515   0.000004
   27  C  3 XX   -0.704133  -0.000305  -0.121056   0.000090  -0.298665
   28  C  3 YY    0.879825  -0.000653  -0.399420  -0.000156  -0.068976
   29  C  3 ZZ   -0.071630   0.000908   0.507299   0.000147   0.417376
   30  C  3 XY    0.065752  -0.000039   0.908746   0.000545  -0.142180
   31  C  3 XZ    0.000007  -0.096957  -0.000460   0.903411   0.000095
   32  C  3 YZ    0.000242   0.887965  -0.000436   0.460949   0.000091
   33  H  4  S   -0.024484   0.545587  -0.302335   0.417054  -0.032448
   34  H  4  S    0.065839   0.068379   0.121176  -0.216269   0.121307
   35  H  5  S   -0.024748  -0.546737  -0.301758  -0.417360  -0.032608
   36  H  5  S    0.065667  -0.068653   0.121028   0.216497   0.121382
   37  H  6  S   -0.612895   0.000463   0.547819   0.000264   0.178869
   38  H  6  S   -0.063258  -0.000003  -0.218655  -0.000107   0.087756

                     36         37         38
                    2.8425     3.7368     4.2664
                     A          A          A   
    1  H  1  S    0.463381   0.098231  -0.002958
    2  H  1  S    0.129837  -0.570921   0.066413
    3  O  2  S   -0.057049  -0.504792   0.065501
    4  O  2  S   -0.552172  -0.011012  -0.025306
    5  O  2  X    0.013466  -0.142433   0.130170
    6  O  2  Y    0.044480  -0.095603   0.021031
    7  O  2  Z   -0.000036  -0.000071  -0.000004
    8  O  2  S    1.954356   4.774293  -0.760343
    9  O  2  X    1.544143   0.647452   0.093691
   10  O  2  Y   -0.265409   0.292429  -0.032888
   11  O  2  Z    0.000043   0.000098   0.000012
   12  O  2 XX    1.147893  -1.526728   0.586244
   13  O  2 YY   -0.897831  -1.715418   0.158336
   14  O  2 ZZ   -0.458057  -1.759368   0.162423
   15  O  2 XY    0.322425  -0.007207   0.033192
   16  O  2 XZ    0.000112   0.000030   0.000012
   17  O  2 YZ   -0.000027  -0.000003   0.000005
   18  C  3  S    0.057370  -0.058498  -0.480927
   19  C  3  S   -0.445565   0.504248   2.890452
   20  C  3  X    0.845947   0.013837   0.137472
   21  C  3  Y    0.048009  -0.030549   0.018973
   22  C  3  Z    0.000003  -0.000015  -0.000013
   23  C  3  S   -1.570689  -1.241772   2.331979
   24  C  3  X    0.779362   0.603876   0.147568
   25  C  3  Y    0.119716   0.146370  -0.024363
   26  C  3  Z   -0.000013   0.000006   0.000001
   27  C  3 XX   -0.854798  -0.112143  -2.066236
   28  C  3 YY    0.486509  -0.263311  -1.829578
   29  C  3 ZZ    0.417817  -0.241993  -1.833760
   30  C  3 XY   -0.134462   0.031641  -0.025041
   31  C  3 XZ    0.000050   0.000039   0.000023
   32  C  3 YZ    0.000036   0.000019  -0.000011
   33  H  4  S   -0.003034   0.111253   0.124042
   34  H  4  S    0.085562   0.018034  -0.526262
   35  H  5  S   -0.003043   0.111229   0.124030
   36  H  5  S    0.085516   0.018023  -0.526235
   37  H  6  S   -0.056605   0.148710   0.117107
   38  H  6  S    0.154028   0.091298  -0.546458
 ...... END OF RHF CALCULATION ......
 STEP CPU TIME =    13.34 TOTAL CPU TIME =       13.4 (    0.2 MIN)
 TOTAL WALL CLOCK TIME=       13.4 SECONDS, CPU UTILIZATION IS  99.63%

     ---------------------------------------------------------------------
     PROPERTIES FOR THE M06-2X   DFT FUNCTIONAL (RHF  TYPE) DENSITY MATRIX
     ---------------------------------------------------------------------

          ---------------------------------------
          MULLIKEN AND LOWDIN POPULATION ANALYSES
          ---------------------------------------

     ATOMIC MULLIKEN POPULATION IN EACH MOLECULAR ORBITAL

                      1          2          3          4          5

                  2.000000   2.000000   2.000000   2.000000   2.000000

    1            -0.000052   0.000014   0.115042   0.090195   0.250143
    2             2.000124   0.000022   1.625721   0.416502   0.968628
    3            -0.000069   1.998474   0.241920   1.057588   0.547625
    4            -0.000003   0.000491   0.004787   0.135380   0.116034
    5            -0.000003   0.000491   0.004720   0.134876   0.114713
    6             0.000002   0.000509   0.007810   0.165459   0.002857

                      6          7          8          9

                  2.000000   2.000000   2.000000   2.000000

    1             0.000002   0.008408   0.085984   0.000000
    2             0.562670   0.864008   0.883035   1.390963
    3             0.895756   0.774302   0.503431   0.225896
    4             0.270787   0.000636   0.119286   0.191396
    5             0.270772   0.000891   0.119631   0.191744
    6             0.000014   0.351755   0.288633   0.000000

               ----- POPULATIONS IN EACH AO -----
                             MULLIKEN      LOWDIN
              1  H  1  S      0.46731     0.43250
              2  H  1  S      0.08243     0.19458
              3  O  2  S      1.99414     1.97673
              4  O  2  S      0.88424     0.69765
              5  O  2  X      0.84048     0.78200
              6  O  2  Y      0.94677     0.89621
              7  O  2  Z      1.14398     1.12391
              8  O  2  S      0.96413     0.46341
              9  O  2  X      0.49396     0.55923
             10  O  2  Y      0.60793     0.65721
             11  O  2  Z      0.80563     0.81283
             12  O  2 XX      0.01258     0.18575
             13  O  2 YY      0.01813     0.18777
             14  O  2 ZZ     -0.01162     0.16021
             15  O  2 XY      0.00729     0.01556
             16  O  2 XZ      0.00281     0.00749
             17  O  2 YZ      0.00122     0.00123
             18  C  3  S      1.99338     1.97922
             19  C  3  S      0.66319     0.35504
             20  C  3  X      0.57064     0.51972
             21  C  3  Y      0.75339     0.67317
             22  C  3  Z      0.74269     0.66055
             23  C  3  S      0.58440     0.33023
             24  C  3  X      0.13552     0.27490
             25  C  3  Y      0.37810     0.48436
             26  C  3  Z      0.35548     0.48288
             27  C  3 XX      0.01510     0.16184
             28  C  3 YY      0.00931     0.15243
             29  C  3 ZZ      0.00811     0.15147
             30  C  3 XY      0.01212     0.02568
             31  C  3 XZ      0.01623     0.03522
             32  C  3 YZ      0.00726     0.01309
             33  H  4  S      0.53247     0.49733
             34  H  4  S      0.30632     0.35665
             35  H  5  S      0.53232     0.49712
             36  H  5  S      0.30551     0.35624
             37  H  6  S      0.53139     0.49583
             38  H  6  S      0.28565     0.34277

          ----- MULLIKEN ATOMIC OVERLAP POPULATIONS -----
          (OFF-DIAGONAL ELEMENTS NEED TO BE MULTIPLIED BY 2)

             1           2           3           4           5

    1    0.3217259
    2    0.2584516   8.3318879
    3   -0.0282239   0.2353117   4.8734654
    4   -0.0038749  -0.0382507   0.3854600   0.5696236
    5   -0.0038848  -0.0379939   0.3854212  -0.0416101   0.5684831
    6    0.0055422  -0.0377331   0.3934892  -0.0325535  -0.0325802

             6

    6    0.5208728

          TOTAL MULLIKEN AND LOWDIN ATOMIC POPULATIONS
       ATOM         MULL.POP.    CHARGE          LOW.POP.     CHARGE
    1 H             0.549736    0.450264         0.627088    0.372912
    2 O             8.711673   -0.711673         8.527167   -0.527167
    3 C             6.244924   -0.244924         6.299812   -0.299812
    4 H             0.838794    0.161206         0.853977    0.146023
    5 H             0.837835    0.162165         0.853360    0.146640
    6 H             0.817037    0.182963         0.838596    0.161404

          -------------------------------
          BOND ORDER AND VALENCE ANALYSIS     BOND ORDER THRESHOLD=0.050
          -------------------------------

                   BOND                       BOND                       BOND
  ATOM PAIR DIST  ORDER      ATOM PAIR DIST  ORDER      ATOM PAIR DIST  ORDER
    1   2  0.946  0.758        2   3  1.400  0.926        3   4  1.087  0.944
    3   5  1.087  0.943        3   6  1.081  0.950

                       TOTAL       BONDED        FREE
      ATOM            VALENCE     VALENCE     VALENCE
    1 H                 0.763       0.763      -0.000
    2 O                 1.687       1.687      -0.000
    3 C                 3.762       3.762       0.000
    4 H                 0.925       0.925       0.000
    5 H                 0.925       0.925      -0.000
    6 H                 0.926       0.926       0.000

    **** A SOLVENT MODEL IS IN USE IN THIS RUN ****
 ELECTRICAL PROPERTIES (MOMENTS, DENSITY, FIELD/GRADIENT, AND/OR POTENTIAL)
 ARE COMPUTED USING THE SOLVATED SYSTEM'S DENSITY MATRIX, BUT
 ONLY WITH AO INTEGRAL CONTRIBUTIONS FROM THE QUANTUM SOLUTE.
 THE ONE EXCEPTION IS THE DIPOLE, WHICH IS ALSO PRINTED FOR THE TOTAL SYSTEM.

          ----------------------------
          SOLUTE ELECTROSTATIC MOMENTS
          ----------------------------

 POINT   1           X           Y           Z (BOHR)    CHARGE
                -0.015103    0.012839    0.000000        0.00 (A.U.)
         DX          DY          DZ         /D/  (DEBYE)
     1.022776    1.850384    0.009900    2.114259

          ----------------------------
          SYSTEM ELECTROSTATIC MOMENTS
          ----------------------------

 POINT   1           X           Y           Z (BOHR)    CHARGE
                -0.015103    0.012839    0.000000        0.00 (A.U.)
         DX          DY          DZ         /D/  (DEBYE)
     1.022776    1.850384    0.009900    2.114259
 INCLUDING PCM SURFACE CHARGES, TOTAL CHARGE=   -0.012210, AND TOTAL DIPOLE IS
         DX          DY          DZ         /D/  (DEBYE)
    -0.153231    0.250378   -0.037633    0.295948
 ...... END OF PROPERTY EVALUATION ......
 STEP CPU TIME =     0.00 TOTAL CPU TIME =       13.4 (    0.2 MIN)
 TOTAL WALL CLOCK TIME=       13.4 SECONDS, CPU UTILIZATION IS  99.55%

 .... DONE WITH PCM CONTRIBUTION TO GRADIENT ....
 STEP CPU TIME =     0.04 TOTAL CPU TIME =       13.4 (    0.2 MIN)
 TOTAL WALL CLOCK TIME=       13.5 SECONDS, CPU UTILIZATION IS  99.63%

 BEGINNING ONE ELECTRON GRADIENT...
 ..... END OF 1-ELECTRON GRADIENT ......
 STEP CPU TIME =     0.00 TOTAL CPU TIME =       13.4 (    0.2 MIN)
 TOTAL WALL CLOCK TIME=       13.5 SECONDS, CPU UTILIZATION IS  99.56%

          ----------------------
          GRADIENT OF THE ENERGY
          ----------------------
 MEMORY FOR GRID POINT CONTRIBUTIONS TO THE DFT GRADIENT=    417537 WORDS.
 STEP CPU TIME =     3.11 TOTAL CPU TIME =       16.5 (    0.3 MIN)
 TOTAL WALL CLOCK TIME=       16.6 SECONDS, CPU UTILIZATION IS  99.58%

 THE MINIMUM MEMORY REQUIRED FOR THIS RUN IS      80435 WORDS.
 USING     958403 WORDS FOR 2E- DERIVATIVE INTEGRAL CONTRIBUTIONS.
 THE COARSE/FINE SCHWARZ SCREENINGS SKIPPED           12/         153 BLOCKS.
 THE NUMBER OF GRADIENT INTEGRAL BLOCKS COMPUTED WAS      9017
 ...... END OF 2-ELECTRON GRADIENT ......
 STEP CPU TIME =     0.07 TOTAL CPU TIME =       16.6 (    0.3 MIN)
 TOTAL WALL CLOCK TIME=       16.7 SECONDS, CPU UTILIZATION IS  99.58%

          NSERCH=  0     ENERGY=    -115.6598015

                                 -----------------------
                                 GRADIENT (HARTREE/BOHR)
                                 -----------------------
        ATOM     ZNUC       DE/DX         DE/DY         DE/DZ
 --------------------------------------------------------------
    1  H            1.0     0.0089242    -0.0225288    -0.0003742
    2  O            8.0     0.0119288     0.0244948    -0.0001828
    3  C            6.0    -0.0117015    -0.0027393     0.0004121
    4  H            1.0    -0.0029043    -0.0031414     0.0054573
    5  H            1.0    -0.0027779    -0.0031485    -0.0053586
    6  H            1.0    -0.0034692     0.0070631     0.0000463


                     --------------------
                     INTERNAL COORDINATES
                     --------------------

                 - - ATOMS - -         COORDINATE        GRADIENT
 NO.   TYPE    I  J  K  L  M  N         (ANG,DEG)     (H/B,H/RAD)
 ----------------------------------------------------------------
   1 STRETCH   1  2                     0.9462956      -0.0242306
   2 STRETCH   2  3                     1.3995643      -0.0209316
   3 STRETCH   3  4                     1.0874442      -0.0068824
   4 STRETCH   3  5                     1.0874442      -0.0068112
   5 STRETCH   3  6                     1.0810635      -0.0078476
   6 BEND      1  2  3                109.4470112       0.0013229
   7 BEND      2  3  4                112.0368519      -0.0012617
   8 BEND      2  3  5                112.0368519      -0.0008876
   9 BEND      2  3  6                107.1706012      -0.0013944
  10 TORSION   1  2  3  4             -61.2264374       0.0002245
  11 TORSION   1  2  3  5              61.2264374       0.0000902
  12 TORSION   1  2  3  6             180.0000000       0.0001421

 NOTE: CARTESIAN GRADIENTS ARE ALWAYS TAKEN TO TEST CONVERGENCE,
       SO THE FOLLOWING GRADIENTS ARE CARTESIAN.

          MAXIMUM GRADIENT = 0.0243390    RMS GRADIENT = 0.0094960

 NSERCH:   0  E=     -115.6598015357  GRAD. MAX=  0.0243390  R.M.S.=  0.0094960

          FORCE CONSTANT MATRIX NOT UPDATED --- TAKING FIRST STEP
          MIN SEARCH, CORRECT HESSIAN, TRYING PURE NR STEP
               NR STEP HAS LENGTH         =   0.093224
          RADIUS OF STEP TAKEN=   0.09322  CURRENT TRUST RADIUS=   0.30000
          TRANSFORMING DISPLACEMENT FROM INTERNALS TO CARTESIANS
          THE ROOT MEAN SQUARE ERROR IN ITERATION   1 IS   0.00020400
          THE ROOT MEAN SQUARE ERROR IN ITERATION   2 IS   0.00000004
          THE ROOT MEAN SQUARE ERROR IN ITERATION   3 IS   0.00000000

 BEGINNING GEOMETRY SEARCH POINT NSERCH=   1 ...

 COORDINATES OF ALL ATOMS ARE (ANGS)
   ATOM   CHARGE       X              Y              Z
 ------------------------------------------------------------
 H           1.0  -1.0846546883   0.8350444788   0.0004888792
 O           8.0  -0.7011430684  -0.0678479552   0.0000285473
 C           6.0   0.7240785451   0.0297108423  -0.0000887814
 H           1.0   1.1074142797   0.5454401957  -0.8903004189
 H           1.0   1.1057666841   0.5459067533   0.8904268904
 H           1.0   1.1236664765  -0.9874630599  -0.0000113119


                     --------------------
                     INTERNAL COORDINATES
                     --------------------

                 - - ATOMS - -         COORDINATE      COORDINATE
 NO.   TYPE    I  J  K  L  M  N        (BOHR,RAD)       (ANG,DEG)
 ----------------------------------------------------------------
   1 STRETCH   1  2                     1.8537587       0.9809669
   2 STRETCH   2  3                     2.6995808       1.4285567
   3 STRETCH   3  4                     2.0747434       1.0979070
   4 STRETCH   3  5                     2.0745389       1.0977988
   5 STRETCH   3  6                     2.0651803       1.0928464
   6 BEND      1  2  3                  1.9041177     109.0979085
   7 BEND      2  3  4                  1.9611139     112.3635514
   8 BEND      2  3  5                  1.9594233     112.2666860
   9 BEND      2  3  6                  1.8767712     107.5310669
  10 TORSION   1  2  3  4              -1.0695008     -61.2778819
  11 TORSION   1  2  3  5               1.0682420      61.2057607
  12 TORSION   1  2  3  6               3.1410242     179.9674306

          INTERNUCLEAR DISTANCES (ANGS.)
          ------------------------------

                1 H          2 O          3 C          4 H          5 H     

   1 H       0.0000000    0.9809669 *  1.9799188 *  2.3838084 *  2.3819186 *
   2 O       0.9809669 *  0.0000000    1.4285567 *  2.1070566 *  2.1058079 *
   3 C       1.9799188 *  1.4285567 *  0.0000000    1.0979070 *  1.0977988 *
   4 H       2.3838084 *  2.1070566 *  1.0979070 *  0.0000000    1.7807281 *
   5 H       2.3819186 *  2.1058079 *  1.0977988 *  1.7807281 *  0.0000000  
   6 H       2.8632528 *  2.0434338 *  1.0928464 *  1.7727581 *  1.7732523 *

                6 H     

   1 H       2.8632528 *
   2 O       2.0434338 *
   3 C       1.0928464 *
   4 H       1.7727581 *
   5 H       1.7732523 *
   6 H       0.0000000  

  * ... LESS THAN  3.000

 ...... END OF ONE-ELECTRON INTEGRALS ......
 STEP CPU TIME =     0.00 TOTAL CPU TIME =       16.6 (    0.3 MIN)
 TOTAL WALL CLOCK TIME=       16.7 SECONDS, CPU UTILIZATION IS  99.58%
 TOTAL NUMBER OF NONZERO TWO-ELECTRON INTEGRALS =              260809
         18 INTEGRAL RECORDS WERE STORED ON DISK FILE  8.
  ...... END OF TWO-ELECTRON INTEGRALS .....
 STEP CPU TIME =     0.02 TOTAL CPU TIME =       16.6 (    0.3 MIN)
 TOTAL WALL CLOCK TIME=       16.7 SECONDS, CPU UTILIZATION IS  99.58%

     ----------------------------
     INPUT FOR TESSERA DEFINITION
     ----------------------------
     NTSALL  =        60     MTHALL  =         4
     MTHAUT  =         0     AUTFRE  =    2.0000
     NTSFRZ  =        60     KEEPSM  =         0
     AREAKP  =   10.0000     BONDRY  =    1.0000
     AREATL  =    0.0100

     SPHERE     INITS       METHOD
          1        60       FIXPVA
          2        60       FIXPVA
          3        60       FIXPVA
          4        60       FIXPVA
          5        60       FIXPVA
          6        60       FIXPVA

     ------------------------------
      FIXPVA TESSELLATION FOR PCM
         PEIFENG SU AND HUI LI
     UNIVERSITY OF NEBRASKA-LINCOLN
     ------------------------------


     INPUT FOR CAVITY DEFINITION 
     ---------------------------
   ATOM               COORDINATES                RADIUS       EPS
      1     -1.0847      0.8350      0.0005      1.2000     78.3550
      2     -0.7011     -0.0678      0.0000      1.5200     78.3550
      3      0.7241      0.0297     -0.0001      1.8500     78.3550
      4      1.1074      0.5454     -0.8903      1.2000     78.3550
      5      1.1058      0.5459      0.8904      1.2000     78.3550
      6      1.1237     -0.9875     -0.0000      1.2000     78.3550

 MEMORY USED TO GENERATE CAVITY=    202522


 TOTAL NUMBER OF SPHERES=     6
 SPHERE           CENTER  (X,Y,Z) (A)               RADIUS (A)      AREA(A*A)
     1  -1.084654688   0.835044479   0.000488879   1.200000000   3.268646805
     2  -0.701143068  -0.067847955   0.000028547   1.520000000   9.742691274
     3   0.724078545   0.029710842  -0.000088781   1.850000000  12.718246229
     4   1.107414280   0.545440196  -0.890300419   1.200000000   4.432159826
     5   1.105766684   0.545906753   0.890426890   1.200000000   4.455596328
     6   1.123666477  -0.987463060  -0.000011312   1.200000000   4.376097304

 TOTAL NUMBER OF TESSERAE=     142
 SURFACE AREA=    38.99343777(A**2)    CAVITY VOLUME=     26.83239499 (A**3)
 STEP CPU TIME =     0.00 TOTAL CPU TIME =       16.6 (    0.3 MIN)
 TOTAL WALL CLOCK TIME=       16.7 SECONDS, CPU UTILIZATION IS  99.58%

          THE SOLUTE IS ENCLOSED IN ONE CAVITY
 DONE CHECKING SEPARATION.
 STEP CPU TIME =     0.00 TOTAL CPU TIME =       16.6 (    0.3 MIN)
 TOTAL WALL CLOCK TIME=       16.7 SECONDS, CPU UTILIZATION IS  99.58%

 ..... DONE SETTING UP PCM CALCULATION .....
 STEP CPU TIME =     0.00 TOTAL CPU TIME =       16.6 (    0.3 MIN)
 TOTAL WALL CLOCK TIME=       16.7 SECONDS, CPU UTILIZATION IS  99.58%
 NUCLEI-NUCLEAR CHARGE POLARIZATION ADJUSTMENT TO VNN=        0.0000000000

          --------------------------
            R-M06-2X SCF CALCULATION
          --------------------------
         DENSITY MATRIX CONVERGENCE THRESHOLD=  5.00E-05
     COARSE -> FINE DFT GRID SWITCH THRESHOLD=  1.50E-03 (SWITCH IN $DFT)
                   HF -> DFT SWITCH THRESHOLD=  5.00E-03 (SWOFF IN $DFT)

 ITER EX DEM     TOTAL ENERGY        E CHANGE  DENSITY CHANGE    DIIS ERROR
          * * *   INITIATING DIIS PROCEDURE   * * *
   1  0  0     -115.6600730896  -115.6600730896   0.018191660   0.014029462
   2  1  0     -115.6605774203    -0.0005043307   0.007768126   0.007535064
   3  2  0     -115.6606869502    -0.0001095299   0.003194438   0.002790556
   4  3  0     -115.6607022994    -0.0000153492   0.000506682   0.000560330
   5  4  0     -115.6607035850    -0.0000012856   0.000160966   0.000223980
   6  5  0     -115.6607040490    -0.0000004640   0.000061683   0.000030112
   7  6  0     -115.6607041023    -0.0000000533   0.000006396   0.000002866
   8  7  0     -115.6607041127    -0.0000000104   0.000000860   0.000000484

          -----------------
          DENSITY CONVERGED
          -----------------
     TIME TO FORM FOCK OPERATORS=      11.7 SECONDS (       1.5 SEC/ITER)
     TIME TO SOLVE SCF EQUATIONS=       0.0 SECONDS (       0.0 SEC/ITER)

 FINAL R-M06-2X ENERGY IS     -115.6607041127 AFTER   8 ITERATIONS
 DFT EXCHANGE + CORRELATION ENERGY =        -7.4397492829
 TOTAL ELECTRON NUMBER             =        17.9999994563
 TOTAL KINETIC ENERGY DENSITY      =       114.6696866068
  
   PCM ASC=     -0.0142955864
   GCAVP  =      0.0000000000
   GDISP  =      0.0000000000
   GREP   =      0.0000000000
 ...... END OF RHF CALCULATION ......
 STEP CPU TIME =    11.78 TOTAL CPU TIME =       28.4 (    0.5 MIN)
 TOTAL WALL CLOCK TIME=       28.5 SECONDS, CPU UTILIZATION IS  99.61%

 .... DONE WITH PCM CONTRIBUTION TO GRADIENT ....
 STEP CPU TIME =     0.03 TOTAL CPU TIME =       28.4 (    0.5 MIN)
 TOTAL WALL CLOCK TIME=       28.6 SECONDS, CPU UTILIZATION IS  99.61%
 ..... END OF 1-ELECTRON GRADIENT ......
 STEP CPU TIME =     0.01 TOTAL CPU TIME =       28.5 (    0.5 MIN)
 TOTAL WALL CLOCK TIME=       28.6 SECONDS, CPU UTILIZATION IS  99.61%
 MEMORY FOR GRID POINT CONTRIBUTIONS TO THE DFT GRADIENT=    417537 WORDS.
 STEP CPU TIME =     3.11 TOTAL CPU TIME =       31.6 (    0.5 MIN)
 TOTAL WALL CLOCK TIME=       31.7 SECONDS, CPU UTILIZATION IS  99.62%
 ...... END OF 2-ELECTRON GRADIENT ......
 STEP CPU TIME =     0.07 TOTAL CPU TIME =       31.6 (    0.5 MIN)
 TOTAL WALL CLOCK TIME=       31.8 SECONDS, CPU UTILIZATION IS  99.62%

          NSERCH=  1     ENERGY=    -115.6607041

                                 -----------------------
                                 GRADIENT (HARTREE/BOHR)
                                 -----------------------
        ATOM     ZNUC       DE/DX         DE/DY         DE/DZ
 --------------------------------------------------------------
    1  H            1.0    -0.0064445     0.0093156    -0.0003223
    2  O            8.0    -0.0002007    -0.0078474    -0.0003465
    3  C            6.0     0.0013922    -0.0017773     0.0006066
    4  H            1.0     0.0017183     0.0001696    -0.0002735
    5  H            1.0     0.0016151     0.0001991     0.0003425
    6  H            1.0     0.0019196    -0.0000596    -0.0000069


                     --------------------
                     INTERNAL COORDINATES
                     --------------------

                 - - ATOMS - -         COORDINATE        GRADIENT
 NO.   TYPE    I  J  K  L  M  N         (ANG,DEG)     (H/B,H/RAD)
 ----------------------------------------------------------------
   1 STRETCH   1  2                     0.9809669       0.0110890
   2 STRETCH   2  3                     1.4285567       0.0065326
   3 STRETCH   3  4                     1.0979070       0.0009375
   4 STRETCH   3  5                     1.0977988       0.0009014
   5 STRETCH   3  6                     1.0928464       0.0007527
   6 BEND      1  2  3                109.0979085       0.0042594
   7 BEND      2  3  4                112.3635514       0.0029554
   8 BEND      2  3  5                112.2666860       0.0029790
   9 BEND      2  3  6                107.5310669       0.0036637
  10 TORSION   1  2  3  4             -61.2778819      -0.0000922
  11 TORSION   1  2  3  5              61.2057607       0.0002147
  12 TORSION   1  2  3  6             179.9674306       0.0002567

 NOTE: CARTESIAN GRADIENTS ARE ALWAYS TAKEN TO TEST CONVERGENCE,
       SO THE FOLLOWING GRADIENTS ARE CARTESIAN.

          MAXIMUM GRADIENT = 0.0093082    RMS GRADIENT = 0.0033794

 NSERCH:   1  E=     -115.6607041127  GRAD. MAX=  0.0093082  R.M.S.=  0.0033794

          HESSIAN UPDATED USING THE BFGS FORMULA
             ACTUAL ENERGY CHANGE WAS  -0.0009025770
          PREDICTED ENERGY CHANGE WAS  -0.0016031814 RATIO=  0.563
          MIN SEARCH, CORRECT HESSIAN, TRYING PURE NR STEP
               NR STEP HAS LENGTH         =   0.031920
          RADIUS OF STEP TAKEN=   0.03192  CURRENT TRUST RADIUS=   0.09322
          TRANSFORMING DISPLACEMENT FROM INTERNALS TO CARTESIANS
          THE ROOT MEAN SQUARE ERROR IN ITERATION   1 IS   0.00018120
          THE ROOT MEAN SQUARE ERROR IN ITERATION   2 IS   0.00000002
          THE ROOT MEAN SQUARE ERROR IN ITERATION   3 IS   0.00000000

 BEGINNING GEOMETRY SEARCH POINT NSERCH=   2 ...

 COORDINATES OF ALL ATOMS ARE (ANGS)
   ATOM   CHARGE       X              Y              Z
 ------------------------------------------------------------
 H           1.0  -1.0651389375   0.8307148635   0.0007746091
 O           8.0  -0.6980730700  -0.0680104330   0.0000168340
 C           6.0   0.7216806110   0.0302292846  -0.0001377268
 H           1.0   1.0945402097   0.5476698836  -0.8930601989
 H           1.0   1.0928067555   0.5479678905   0.8932448352
 H           1.0   1.1098134260  -0.9910186334   0.0004134762


                     --------------------
                     INTERNAL COORDINATES
                     --------------------

                 - - ATOMS - -         COORDINATE      COORDINATE
 NO.   TYPE    I  J  K  L  M  N        (BOHR,RAD)       (ANG,DEG)
 ----------------------------------------------------------------
   1 STRETCH   1  2                     1.8345386       0.9707961
   2 STRETCH   2  3                     2.6893607       1.4231485
   3 STRETCH   3  4                     2.0736069       1.0973056
   4 STRETCH   3  5                     2.0734697       1.0972330
   5 STRETCH   3  6                     2.0645589       1.0925176
   6 BEND      1  2  3                  1.8894635     108.2582826
   7 BEND      2  3  4                  1.9515549     111.8158589
   8 BEND      2  3  5                  1.9497141     111.7103919
   9 BEND      2  3  6                  1.8649086     106.8513919
  10 TORSION   1  2  3  4              -1.0692683     -61.2645630
  11 TORSION   1  2  3  5               1.0675966      61.1687812
  12 TORSION   1  2  3  6               3.1402465     179.9228695

          INTERNUCLEAR DISTANCES (ANGS.)
          ------------------------------

                1 H          2 O          3 C          4 H          5 H     

[...]
   10  O  2  Y   -0.000376  -0.000127  -0.040176   0.045190   0.216838
   11  O  2  Z   -0.000009  -0.000005  -0.000951   0.001244   0.006427
   12  O  2 XX   -0.005780  -0.000903  -0.008860  -0.014906  -0.011322
   13  O  2 YY   -0.005685  -0.000045  -0.013824   0.013761   0.030491
   14  O  2 ZZ   -0.005589  -0.000013   0.010601  -0.001670  -0.002281
   15  O  2 XY   -0.000006  -0.000056   0.005009  -0.010877  -0.001728
   16  O  2 XZ    0.000000  -0.000001   0.000180  -0.000299  -0.000020
   17  O  2 YZ   -0.000003  -0.000001  -0.000795   0.000516   0.001062
   18  C  3  S   -0.000015   0.994021   0.071107   0.178658  -0.029747
   19  C  3  S    0.000201   0.040896  -0.130166  -0.352519   0.056131
   20  C  3  X   -0.000377  -0.000871   0.098663  -0.057901   0.206549
   21  C  3  Y   -0.000061  -0.000040   0.002757   0.017532   0.207033
   22  C  3  Z   -0.000001  -0.000002  -0.000054   0.000289   0.005637
   23  C  3  S   -0.000378  -0.012217  -0.057412  -0.335576   0.091234
   24  C  3  X    0.000320  -0.000414   0.002681  -0.031691   0.069257
   25  C  3  Y    0.000328   0.000059  -0.005399   0.000454   0.097507
   26  C  3  Z    0.000006  -0.000002   0.000066   0.000074   0.002356
   27  C  3 XX    0.000170  -0.006542  -0.020608   0.005068  -0.017292
   28  C  3 YY   -0.000057  -0.007066   0.005428  -0.005956   0.001529
   29  C  3 ZZ   -0.000020  -0.007067   0.005945  -0.004277   0.015189
   30  C  3 XY    0.000002   0.000026  -0.000399  -0.002566  -0.009650
   31  C  3 XZ   -0.000000   0.000001   0.000016  -0.000071  -0.000321
   32  C  3 YZ    0.000001  -0.000000  -0.000020   0.000021   0.000379
   33  H  4  S   -0.000021   0.000022  -0.022963  -0.128933   0.110744
   34  H  4  S   -0.000102   0.002414  -0.001168  -0.034290   0.060359
   35  H  5  S   -0.000024   0.000024  -0.023082  -0.128589   0.116216
   36  H  5  S   -0.000103   0.002412  -0.001326  -0.033970   0.063618
   37  H  6  S    0.000046   0.000034  -0.023967  -0.139368  -0.030659
   38  H  6  S    0.000063   0.002465  -0.006189  -0.040241  -0.017511

                      6          7          8          9         10
                   -0.5055    -0.4906    -0.4032    -0.3448     0.1365
                     A          A          A          A          A   
    1  H  1  S    0.000542  -0.033248   0.141520   0.000013   0.104174
    2  H  1  S    0.000252  -0.037174   0.094048  -0.000542   1.143246
    3  O  2  S    0.000150   0.029988   0.051256  -0.000127   0.090700
    4  O  2  S   -0.000191  -0.057941  -0.099378   0.000630  -0.113887
    5  O  2  X    0.000574   0.383325   0.171658   0.000983  -0.010484
    6  O  2  Y   -0.008247   0.152174   0.378743  -0.016296  -0.210892
    7  O  2  Z    0.313629   0.003479   0.010664   0.558236  -0.004891
    8  O  2  S   -0.000771  -0.134987  -0.257606  -0.000067  -1.147434
    9  O  2  X    0.000545   0.249913   0.136028   0.000532  -0.060464
   10  O  2  Y   -0.005668   0.109299   0.283334  -0.013448  -0.433135
   11  O  2  Z    0.212697   0.002640   0.008031   0.461470  -0.010678
   12  O  2 XX    0.000129   0.010099   0.006332   0.000158   0.029448
   13  O  2 YY   -0.000488   0.004634   0.029072  -0.001021   0.024037
   14  O  2 ZZ    0.000574  -0.001611  -0.002306   0.001117   0.045148
   15  O  2 XY   -0.000361   0.026425   0.003973  -0.000111  -0.004391
   16  O  2 XZ    0.013409   0.000677   0.000085   0.005026  -0.000129
   17  O  2 YZ    0.013513   0.000181   0.000835   0.020632  -0.000561
   18  C  3  S    0.000058   0.000081  -0.007803   0.000050   0.034534
   19  C  3  S    0.000057   0.001462   0.019590   0.000016  -0.041654
   20  C  3  X   -0.000416  -0.289594  -0.097201  -0.000301  -0.205134
   21  C  3  Y   -0.011407   0.258058  -0.323211   0.006836  -0.038985
   22  C  3  Z    0.398185   0.007200  -0.009982  -0.229929  -0.003743
   23  C  3  S   -0.000461  -0.025920   0.003367  -0.000455  -0.673550
   24  C  3  X    0.000372  -0.108538  -0.027780  -0.000494  -0.688158
   25  C  3  Y   -0.005934   0.146581  -0.140240   0.002406  -0.069042
   26  C  3  Z    0.190702   0.003571  -0.004815  -0.087452  -0.013716
   27  C  3 XX   -0.000058   0.020147   0.006559   0.000120  -0.010506
   28  C  3 YY    0.000802  -0.020668   0.011098  -0.000575   0.015337
   29  C  3 ZZ   -0.000673  -0.000390  -0.017537   0.000538   0.009170
   30  C  3 XY   -0.000081   0.005637  -0.024356   0.000997   0.004189
   31  C  3 XZ    0.000032   0.000159  -0.000656  -0.031865   0.000082
   32  C  3 YZ    0.016439   0.000634  -0.000882  -0.015586   0.000344
   33  H  4  S   -0.189315   0.007283  -0.117062   0.166441   0.007963
   34  H  4  S   -0.136031  -0.001096  -0.116046   0.180789   0.503980
   35  H  5  S    0.181738   0.016643  -0.131183  -0.159822   0.010705
   36  H  5  S    0.130494   0.005750  -0.128407  -0.172616   0.528569
   37  H  6  S    0.007837  -0.209701   0.202489  -0.007066   0.006767
   38  H  6  S    0.005114  -0.144428   0.183048  -0.007675   0.375225

                     11         12         13         14         15
                    0.1941     0.2267     0.2363     0.2619     0.5989
                     A          A          A          A          A   
    1  H  1  S   -0.060958   0.041125   0.001065   0.064330   0.116941
    2  H  1  S   -0.567291   0.283239  -0.002830   0.984017  -0.178483
    3  O  2  S   -0.055454  -0.011724  -0.002668  -0.039295  -0.006536
    4  O  2  S    0.048513   0.017964   0.002927   0.044873   0.133637
    5  O  2  X    0.079938   0.134084   0.007896   0.347406   0.282984
    6  O  2  Y    0.118229   0.022782  -0.002866  -0.163844   0.080883
    7  O  2  Z    0.001479   0.000850   0.091234  -0.007423   0.001591
    8  O  2  S    0.769182   0.175126   0.039552   0.584269  -0.717125
    9  O  2  X    0.224566   0.266463   0.024603   0.858074  -0.173371
   10  O  2  Y    0.221333   0.118300  -0.008634  -0.351086   0.029259
   11  O  2  Z    0.002206   0.005067   0.239610  -0.017004   0.000200
   12  O  2 XX   -0.034185   0.003462  -0.000613   0.002652  -0.122209
   13  O  2 YY   -0.019003  -0.005600  -0.000828  -0.018699   0.077825
   14  O  2 ZZ   -0.029056   0.000069  -0.001467  -0.019777   0.071436
   15  O  2 XY    0.006852  -0.012344   0.000911   0.010261  -0.002858
   16  O  2 XZ    0.000338  -0.000519  -0.011511   0.000675   0.000062
   17  O  2 YZ    0.000116   0.000959   0.013433  -0.000735   0.000823
   18  C  3  S    0.150125   0.021998   0.003271   0.056564   0.028605
   19  C  3  S   -0.195979  -0.021538  -0.003845  -0.069945  -0.356633
   20  C  3  X   -0.047997   0.101169   0.006728   0.271049   0.882061
   21  C  3  Y    0.021730  -0.381053   0.018295   0.099685   0.312595
   22  C  3  Z    0.006769  -0.013805  -0.417545   0.014485   0.007309
   23  C  3  S   -2.402204  -0.264423  -0.051373  -0.728934   0.476389
   24  C  3  X   -0.141613   0.454294   0.035726   1.291484  -1.252493
   25  C  3  Y    0.055904  -1.296565   0.064461   0.581339  -0.667354
   26  C  3  Z    0.021476  -0.046804  -1.394605   0.050010  -0.013631
   27  C  3 XX    0.008884   0.009852   0.000393   0.022003   0.059173
   28  C  3 YY   -0.000518  -0.021259   0.000732  -0.007717  -0.062377
   29  C  3 ZZ    0.003930   0.011194  -0.001497  -0.027843   0.006962
   30  C  3 XY   -0.002885   0.013654  -0.000347   0.005501   0.027313
   31  C  3 XZ   -0.000123   0.000302   0.006727  -0.000131   0.000286
   32  C  3 YZ   -0.000405   0.001211   0.020130  -0.000745   0.001610
   33  H  4  S    0.017849   0.033101  -0.072516  -0.060086   0.176430
   34  H  4  S    1.066568   0.758254  -1.606413  -0.371130   0.096669
   35  H  5  S    0.015266   0.039264   0.066688  -0.065874   0.184660
   36  H  5  S    1.017302   0.886143   1.534740  -0.488470   0.102981
   37  H  6  S    0.016542  -0.103174   0.003167  -0.014087  -0.125817
   38  H  6  S    1.152281  -1.736299   0.105365   0.496383  -0.080070

                     16         17         18         19
                    0.6251     0.6259     0.8564     0.9310
                     A          A          A          A   
    1  H  1  S    0.085170  -0.015734  -0.890377  -0.002348
    2  H  1  S    0.222471  -0.031738   0.550381   0.011833
    3  O  2  S    0.015458  -0.002362  -0.023683   0.000194
    4  O  2  S   -0.207142   0.031961  -0.043725   0.025729
    5  O  2  X   -0.007785   0.002484   0.181438  -0.009293
    6  O  2  Y    0.028393  -0.001061   0.307902  -0.012926
    7  O  2  Z   -0.034355  -0.208984   0.014370  -0.230305
    8  O  2  S    0.381394  -0.062729   0.080923  -0.042796
    9  O  2  X    0.011513  -0.004526  -0.451943   0.015968
   10  O  2  Y    0.165647  -0.021711   0.156959   0.014935
   11  O  2  Z   -0.025029  -0.177025  -0.000270   0.328152
   12  O  2 XX   -0.000120  -0.000443  -0.052929   0.009364
   13  O  2 YY   -0.069778   0.010358  -0.141579   0.008378
   14  O  2 ZZ   -0.069421   0.011283   0.042021   0.008077
   15  O  2 XY   -0.007249   0.001580   0.134887   0.000927
   16  O  2 XZ   -0.001643  -0.006955   0.002709   0.095122
   17  O  2 YZ   -0.001486  -0.019164  -0.005488   0.018415
   18  C  3  S   -0.015301   0.002442  -0.004770   0.002141
   19  C  3  S    0.146734  -0.022722  -0.063082   0.007832
   20  C  3  X   -0.437129   0.069829   0.065633  -0.003912
   21  C  3  Y    0.668677  -0.091049   0.452348   0.015943
   22  C  3  Z   -0.103079  -0.736901   0.003066   0.839328
   23  C  3  S   -0.109690   0.018293   0.358133  -0.035002
   24  C  3  X    0.673497  -0.111201  -0.020639  -0.001081
   25  C  3  Y   -1.504327   0.203844  -0.921585  -0.032469
   26  C  3  Z    0.240578   1.694723  -0.014129  -1.427899
   27  C  3 XX   -0.005346   0.001394   0.104553  -0.002729
   28  C  3 YY   -0.070938   0.007682  -0.003726   0.001037
   29  C  3 ZZ    0.084355  -0.009779  -0.071939   0.003426
   30  C  3 XY    0.035272  -0.004819  -0.134021  -0.001933
   31  C  3 XZ   -0.003786  -0.026507  -0.001776  -0.149164
   32  C  3 YZ   -0.011823  -0.100429  -0.002011  -0.147255
   33  H  4  S    0.213695   0.385472  -0.321609   0.673286
   34  H  4  S    0.163490   0.354381   0.438884  -1.417790
   35  H  5  S    0.104869  -0.423191  -0.327110  -0.649201
   36  H  5  S    0.059579  -0.377937   0.469393   1.436942
   37  H  6  S   -0.485100   0.064862   0.273353   0.019024
   38  H  6  S   -0.387439   0.049268  -0.961205  -0.015147

     ---------------------------------------------------------------------
     PROPERTIES FOR THE M06-2X   DFT FUNCTIONAL (RHF  TYPE) DENSITY MATRIX
     ---------------------------------------------------------------------

          ---------------------------------------
          MULLIKEN AND LOWDIN POPULATION ANALYSES
          ---------------------------------------

     ATOMIC MULLIKEN POPULATION IN EACH MOLECULAR ORBITAL

                      1          2          3          4          5

                  2.000000   2.000000   2.000000   2.000000   2.000000

    1            -0.000050   0.000014   0.108760   0.077634   0.261859
    2             2.000113   0.000053   1.641646   0.386653   0.988161
    3            -0.000060   1.998489   0.232481   1.089717   0.526665
    4            -0.000002   0.000477   0.004736   0.140210   0.102983
    5            -0.000002   0.000477   0.004868   0.139159   0.113471
    6             0.000002   0.000490   0.007509   0.166626   0.006862

                      6          7          8          9

                  2.000000   2.000000   2.000000   2.000000

    1             0.000002   0.009304   0.092350   0.000001
    2             0.544965   0.866690   0.878307   1.410451
    3             0.904323   0.773169   0.505582   0.218861
    4             0.286456   0.000257   0.106832   0.192938
    5             0.263784   0.001224   0.132722   0.177405
    6             0.000471   0.349355   0.284208   0.000345

               ----- POPULATIONS IN EACH AO -----
                             MULLIKEN      LOWDIN
              1  H  1  S      0.45696     0.42489
              2  H  1  S      0.09292     0.20139
              3  O  2  S      1.99418     1.97678
              4  O  2  S      0.88577     0.70206
              5  O  2  X      0.83208     0.77513
              6  O  2  Y      0.93235     0.88227
              7  O  2  Z      1.14558     1.12539
              8  O  2  S      0.97820     0.47145
              9  O  2  X      0.50248     0.56731
             10  O  2  Y      0.61232     0.66099
             11  O  2  Z      0.80574     0.81474
             12  O  2 XX      0.01226     0.18619
             13  O  2 YY      0.01807     0.18962
             14  O  2 ZZ     -0.01240     0.16250
             15  O  2 XY      0.00662     0.01392
             16  O  2 XZ      0.00260     0.00673
             17  O  2 YZ      0.00117     0.00118
             18  C  3  S      1.99336     1.97930
             19  C  3  S      0.66173     0.35617
             20  C  3  X      0.55909     0.50954
             21  C  3  Y      0.74761     0.66875
             22  C  3  Z      0.73891     0.65810
             23  C  3  S      0.59859     0.33580
             24  C  3  X      0.14090     0.27877
             25  C  3  Y      0.38206     0.48854
             26  C  3  Z      0.36193     0.48706
             27  C  3 XX      0.01405     0.15975
             28  C  3 YY      0.00918     0.15309
             29  C  3 ZZ      0.00811     0.15237
             30  C  3 XY      0.01136     0.02361
             31  C  3 XZ      0.01512     0.03224
             32  C  3 YZ      0.00722     0.01288
             33  H  4  S      0.52823     0.49346
             34  H  4  S      0.30666     0.35873
             35  H  5  S      0.52799     0.49309
             36  H  5  S      0.30512     0.35777
             37  H  6  S      0.52678     0.49185
             38  H  6  S      0.28909     0.34661

          ----- MULLIKEN ATOMIC OVERLAP POPULATIONS -----
          (OFF-DIAGONAL ELEMENTS NEED TO BE MULTIPLIED BY 2)

             1           2           3           4           5

    1    0.3264784
    2    0.2532574   8.3423783
    3   -0.0274478   0.2294729   4.8913147
    4   -0.0034546  -0.0366640   0.3823869   0.5645037
    5   -0.0041529  -0.0355921   0.3827538  -0.0397940   0.5611226
    6    0.0051936  -0.0358141   0.3907465  -0.0320913  -0.0312303

             6

    6    0.5190626

          TOTAL MULLIKEN AND LOWDIN ATOMIC POPULATIONS
       ATOM         MULL.POP.    CHARGE          LOW.POP.     CHARGE
    1 H             0.549874    0.450126         0.626282    0.373718
    2 O             8.717038   -0.717038         8.536254   -0.536254
    3 C             6.249227   -0.249227         6.295951   -0.295951
    4 H             0.834887    0.165113         0.852194    0.147806
    5 H             0.833107    0.166893         0.850853    0.149147
    6 H             0.815867    0.184133         0.838466    0.161534

          -------------------------------
          BOND ORDER AND VALENCE ANALYSIS     BOND ORDER THRESHOLD=0.050
          -------------------------------

                   BOND                       BOND                       BOND
  ATOM PAIR DIST  ORDER      ATOM PAIR DIST  ORDER      ATOM PAIR DIST  ORDER
    1   2  0.969  0.759        2   3  1.422  0.919        3   4  1.096  0.941
    3   5  1.096  0.942        3   6  1.092  0.949

                       TOTAL       BONDED        FREE
      ATOM            VALENCE     VALENCE     VALENCE
    1 H                 0.764       0.764       0.000
    2 O                 1.682       1.682       0.000
    3 C                 3.751       3.751       0.000
    4 H                 0.925       0.925      -0.000
    5 H                 0.925       0.925      -0.000
    6 H                 0.927       0.927       0.000

    **** A SOLVENT MODEL IS IN USE IN THIS RUN ****
 ELECTRICAL PROPERTIES (MOMENTS, DENSITY, FIELD/GRADIENT, AND/OR POTENTIAL)
 ARE COMPUTED USING THE SOLVATED SYSTEM'S DENSITY MATRIX, BUT
 ONLY WITH AO INTEGRAL CONTRIBUTIONS FROM THE QUANTUM SOLUTE.
 THE ONE EXCEPTION IS THE DIPOLE, WHICH IS ALSO PRINTED FOR THE TOTAL SYSTEM.

          ----------------------------
          SOLUTE ELECTROSTATIC MOMENTS
          ----------------------------

 POINT   1           X           Y           Z (BOHR)    CHARGE
                -0.015103    0.012839    0.000000        0.00 (A.U.)
         DX          DY          DZ         /D/  (DEBYE)
     1.113872    1.898882    0.072350    2.202657

          ----------------------------
          SYSTEM ELECTROSTATIC MOMENTS
          ----------------------------

 POINT   1           X           Y           Z (BOHR)    CHARGE
                -0.015103    0.012839    0.000000        0.00 (A.U.)
         DX          DY          DZ         /D/  (DEBYE)
     1.113872    1.898882    0.072350    2.202657
 INCLUDING PCM SURFACE CHARGES, TOTAL CHARGE=   -0.013298, AND TOTAL DIPOLE IS
         DX          DY          DZ         /D/  (DEBYE)
    -0.128480    0.238004   -0.023170    0.271459
 ...... END OF PROPERTY EVALUATION ......
 STEP CPU TIME =     0.00 TOTAL CPU TIME =      165.5 (    2.8 MIN)
 TOTAL WALL CLOCK TIME=      166.1 SECONDS, CPU UTILIZATION IS  99.64%
  $VIB   
          IVIB=   0 IATOM=   0 ICOORD=   0 E=     -115.6609525601
  4.311222380E-07-7.764101786E-07 1.626596847E-07-2.533797508E-06 3.236820406E-07
 -2.829767311E-07 2.707897952E-06-2.216235122E-08 1.313866656E-07-8.948891638E-08
  7.351919213E-09 8.277733753E-07 2.401226411E-08 1.106701489E-07-8.821898508E-07
 -5.397460304E-07 3.568684211E-07 4.334685632E-08
  1.113872017E+00 1.898881723E+00 7.234976672E-02
 ......END OF GEOMETRY SEARCH......
 STEP CPU TIME =     0.01 TOTAL CPU TIME =      165.5 (    2.8 MIN)
 TOTAL WALL CLOCK TIME=      166.1 SECONDS, CPU UTILIZATION IS  99.64%

             ----------------------------------------------
             -------   RESULTS OF SMD CALCULATION   -------
             ----------------------------------------------
 INTERNAL ENERGY IN SOLVENT = <PSI| H(0) |PSI>       =     -115.6531433980 A.U.
 TOTAL ENERGY IN SOLVENT = <PSI| H(0)+V/2 |PSI>      =     -115.6649221017 A.U.
 ELECTROSTATIC INTERACTION <PSI| V/2 |PSI>           =       -0.0117787037 A.U.
 CDS INTERACTION                                     =        0.0039695416 A.U.
 TOTAL FREE ENERGY IN SOLVENT                        =     -115.6609525601 A.U.

 ELECTROSTATIC INTERACTION    =          -7.39 KCAL/MOL
 CDS INTERACTION              =           2.49 KCAL/MOL

 .... DONE PRINTING SMD SOLVENT SUMMARY ....
 STEP CPU TIME =     0.00 TOTAL CPU TIME =      165.5 (    2.8 MIN)
 TOTAL WALL CLOCK TIME=      166.1 SECONDS, CPU UTILIZATION IS  99.64%
               994386  WORDS OF DYNAMIC MEMORY USED
 EXECUTION OF GAMESS TERMINATED NORMALLY Fri Jun  2 05:03:44 2017
 DDI: 263640 bytes (0.3 MB / 0 MWords) used by master data server.

 ----------------------------------------
 CPU timing information for all processes
 ========================================
 0: 165.370 + 0.103 = 165.474
 ----------------------------------------
 ddikick.x: exited gracefully.
unset echo
----- accounting info -----
Files used on the master node compute-0-8.local were:
-rw-rw-r-- 1 sarom sarom    1700 Jun  2 05:00 /scratch/smd-rdft-opt.F05
-rw-rw-r-- 1 sarom sarom 3240288 Jun  2 05:03 /scratch/smd-rdft-opt.F08
-rw-rw-r-- 1 sarom sarom 2159520 Jun  2 05:03 /scratch/smd-rdft-opt.F10
-rw-rw-r-- 1 sarom sarom 3278976 Jun  2 05:03 /scratch/smd-rdft-opt.F22
-rw-rw-r-- 1 sarom sarom       8 Jun  2 05:03 /scratch/smd-rdft-opt.F26
-rw-rw-r-- 1 sarom sarom       0 Jun  2 05:00 /scratch/smd-rdft-opt.F27
rm: cannot remove `/scratch/sarom': Is a directory
rm: cannot remove `/scratch/tmp': Is a directory
ls: No match.
ls: No match.
ls: No match.
Fri Jun  2 05:03:47 CDT 2017
0.259u 0.266s 2:49.69 0.3%	0+0k 8+376io 0pf+0w
Deleting shmid=2785280.
Deleting shmid=2818049.
/opt/gridengine/default/spool/compute-0-8/active_jobs/24014.1/pe_hostfile compute-0-8.local
