----- GAMESS execution script 'rungms' -----
This job is running on host compute-3-0
under operating system Linux at Tue Nov 29 00:12:08 CST 2016
Available scratch disk space (Kbyte units) at beginning of the job is
Filesystem            1K-blocks       Used  Available Use% Mounted on
bolt.local:/export/home/sarom
                     9590469632 1553389568 7549912064  18% /home/sarom
Copying input file smd-rhf-grad.inp to your run's scratch directory...
cp smd-rhf-grad.inp .//smd-rhf-grad.F05
unset echo
/home/sarom/gamessGH/ddikick.x /home/sarom/gamessGH/gamess.00.x smd-rhf-grad -ddi 1 1 localhost -scr ./

 Distributed Data Interface kickoff program.
 Initiating 1 compute processes on 1 nodes to run the following command:
 /home/sarom/gamessGH/gamess.00.x smd-rhf-grad 

          ******************************************************
          *         GAMESS VERSION = 18 AUG 2016 (R1)          *
          *             FROM IOWA STATE UNIVERSITY             *
          * M.W.SCHMIDT, K.K.BALDRIDGE, J.A.BOATZ, S.T.ELBERT, *
          *   M.S.GORDON, J.H.JENSEN, S.KOSEKI, N.MATSUNAGA,   *
          *          K.A.NGUYEN, S.J.SU, T.L.WINDUS,           *
          *       TOGETHER WITH M.DUPUIS, J.A.MONTGOMERY       *
          *         J.COMPUT.CHEM.  14, 1347-1363(1993)        *
          **************** 64 BIT LINUX VERSION ****************

  SINCE 1993, STUDENTS AND POSTDOCS WORKING AT IOWA STATE UNIVERSITY
  AND ALSO IN THEIR VARIOUS JOBS AFTER LEAVING ISU HAVE MADE IMPORTANT
  CONTRIBUTIONS TO THE CODE:
     IVANA ADAMOVIC, CHRISTINE AIKENS, YURI ALEXEEV, POOJA ARORA,
     ANDREY ASADCHEV, ROB BELL, PRADIPTA BANDYOPADHYAY, JONATHAN BENTZ,
     BRETT BODE, KURT BRORSEN, CALEB CARLIN, GALINA CHABAN, WEI CHEN,
     CHEOL HO CHOI, PAUL DAY, ALBERT DEFUSCO, NUWAN DESILVA, TIM DUDLEY,
     DMITRI FEDOROV, GRAHAM FLETCHER, MARK FREITAG, KURT GLAESEMANN,
     DAN KEMP, GRANT MERRILL, NORIYUKI MINEZAWA, JONATHAN MULLIN,
     TAKESHI NAGATA, SEAN NEDD, HEATHER NETZLOFF, BOSILJKA NJEGIC, RYAN OLSON,
     MIKE PAK, SPENCER PRUITT, LUKE ROSKOP, JIM SHOEMAKER, LYUDMILA SLIPCHENKO,
     TONY SMITH, SAROM SOK LEANG, JIE SONG, TETSUYA TAKETSUGU, SIMON WEBB,
     PENG XU, SOOHAENG YOO, FEDERICO ZAHARIEV

  ADDITIONAL CODE HAS BEEN PROVIDED BY COLLABORATORS IN OTHER GROUPS:
     IOWA STATE UNIVERSITY:
          JOE IVANIC, AARON WEST, LAIMUTIS BYTAUTAS, KLAUS RUEDENBERG
     UNIVERSITY OF TOKYO: KIMIHIKO HIRAO, TAKAHITO NAKAJIMA,
          TAKAO TSUNEDA, MUNEAKI KAMIYA, SUSUMU YANAGISAWA,
          KIYOSHI YAGI, MAHITO CHIBA, SEIKEN TOKURA, NAOAKI KAWAKAMI
     UNIVERSITY OF AARHUS: FRANK JENSEN
     UNIVERSITY OF IOWA: VISVALDAS KAIRYS, HUI LI
     NATIONAL INST. OF STANDARDS AND TECHNOLOGY: WALT STEVENS, DAVID GARMER
     UNIVERSITY OF PISA: BENEDETTA MENNUCCI, JACOPO TOMASI
     UNIVERSITY OF MEMPHIS: HENRY KURTZ, PRAKASHAN KORAMBATH
     UNIVERSITY OF ALBERTA: TOBY ZENG, MARIUSZ KLOBUKOWSKI
     UNIVERSITY OF NEW ENGLAND: MARK SPACKMAN
     MIE UNIVERSITY: HIROAKI UMEDA
     NAT. INST. OF ADVANCED INDUSTRIAL SCIENCE AND TECHNOLOGY: KAZUO KITAURA
     MICHIGAN STATE UNIVERSITY:
          KAROL KOWALSKI, MARTA WLOCH, JEFFREY GOUR, JESSE LUTZ,
          WEI LI, PIOTR PIECUCH
     UNIVERSITY OF SILESIA: MONIKA MUSIAL, STANISLAW KUCHARSKI
     FACULTES UNIVERSITAIRES NOTRE-DAME DE LA PAIX:
          OLIVIER QUINET, BENOIT CHAMPAGNE
     UNIVERSITY OF CALIFORNIA - SANTA BARBARA: BERNARD KIRTMAN
     INSTITUTE FOR MOLECULAR SCIENCE:
          KAZUYA ISHIMURA, MICHIO KATOUDA, AND SHIGERU NAGASE
     UNIVERSITY OF NOTRE DAME: ANNA POMOGAEVA, DAN CHIPMAN
     KYUSHU UNIVERSITY:
          HARUYUKI NAKANO,
          FENG LONG GU, JACEK KORCHOWIEC, MARCIN MAKOWSKI, AND YURIKO AOKI,
          HIROTOSHI MORI AND EISAKU MIYOSHI
     PENNSYLVANIA STATE UNIVERSITY:
          TZVETELIN IORDANOV, CHET SWALINA, JONATHAN SKONE,
          SHARON HAMMES-SCHIFFER
     WASEDA UNIVERSITY:
          MASATO KOBAYASHI, TOMOKO AKAMA, TSUGUKI TOUMA,
          TAKESHI YOSHIKAWA, YASUHIRO IKABATA, JUNJI SEINO,
          YUYA NAKAJIMA, HIROMI NAKAI
     NANJING UNIVERSITY: SHUHUA LI
     UNIVERSITY OF NEBRASKA:
          PEIFENG SU, DEJUN SI, NANDUN THELLAMUREGE, YALI WANG, HUI LI
     UNIVERSITY OF ZURICH: ROBERTO PEVERATI, KIM BALDRIDGE
     N. COPERNICUS UNIVERSITY AND JACKSON STATE UNIVERSITY:
          MARIA BARYSZ
     UNIVERSITY OF COPENHAGEN: Jimmy Kromann, CASPER STEINMANN
     TOKYO INSTITUTE OF TECHNOLOGY: HIROYA NAKATA
     NAGOYA UNIVERSITY: YOSHIO NISHIMOTO, STEPHAN IRLE
     MOSCOW STATE UNIVERSITY: VLADIMIR MIRONOV

 EXECUTION OF GAMESS BEGUN Tue Nov 29 00:12:09 2016

            ECHO OF THE FIRST FEW INPUT CARDS -
 INPUT CARD>!   5-fluorouracil in fluorobenzene.                                            
 INPUT CARD>!   Analytical gradients in solution based on SMD/IEF-PCM protocol              
 INPUT CARD>!                                                                               
 INPUT CARD>!   FINAL RHF E= -511.3216643608, 13 iters, RMS= 0.013606702                    
 INPUT CARD>!                                                                               
 INPUT CARD>!   This run takes 69 seconds on 2.66 GHz Cloverton (22 Oct 2015)               
 INPUT CARD>!                                                                               
 INPUT CARD> $CONTRL SCFTYP=RHF RUNTYP=GRADIENT $end                                        
 INPUT CARD> $system mwords=1 $end                                                          
 INPUT CARD> $BASIS  GBASIS=N31 NGAUSS=6 NDFUNC=1 $END                                      
 INPUT CARD>                                                                                
 INPUT CARD> $PCM    SMD=.T. IEF=-3 SOLVNT=C6H5F $END                                       
 INPUT CARD>!      note that a solvent can be defined by giving its explicit                
 INPUT CARD>!      parameters, such as those for fluorobenzene below:                       
 INPUT CARD>x$PCM    SMD=.T. IEF=-3                                                         
 INPUT CARD>x        EPS=5.42 SOLA=0.0 SOLB=0.1 SOLC=0.857                                  
 INPUT CARD>x        SOLG=38.37 SOLH=0.143 SOLN=1.4684 $END                                 
 INPUT CARD> $TESCAV MTHALL=2 NTSALL=240 $END                                               
 INPUT CARD>                                                                                
 INPUT CARD> $DATA                                                                          
 INPUT CARD> SMD/HF/6-31G(d) analytical gradients - 5-fluorouracil in fluorobenzene         
 INPUT CARD>C1                                                                              
 INPUT CARD>    C          6                     1.141467   -0.533867    0.000024           
 INPUT CARD>    C          6                     0.219183   -1.510611    0.000115           
 INPUT CARD>    C          6                     0.766783    0.881395    0.000604           
 INPUT CARD>    F          9                     2.450890   -0.803045   -0.000175           
 INPUT CARD>    N          7                    -1.129467   -1.213616    0.000057           
 INPUT CARD>    C          6                    -1.635462    0.083524   -0.000622           
 INPUT CARD>    N          7                    -0.630954    1.049278   -0.000017           
 INPUT CARD>    O          8                    -2.827821    0.336192    0.000137           
 INPUT CARD>    O          8                     1.527895    1.832549   -0.000124           
 INPUT CARD>    H          1                     0.499004   -2.558073    0.000208           
 INPUT CARD>    H          1                    -1.828595   -1.956260    0.000242           
 INPUT CARD>    H          1                    -0.957890    2.019536    0.000013           
 INPUT CARD> $END                                                                           
 INPUT CARD>                                                                                
 INPUT CARD>                                                                                
    1000000 WORDS OF MEMORY AVAILABLE

     BASIS OPTIONS
     -------------
     GBASIS=N31          IGAUSS=       6      POLAR=POPN31  
     NDFUNC=       1     NFFUNC=       0     DIFFSP=       F
     NPFUNC=       0      DIFFS=       F     BASNAM=        


     RUN TITLE
     ---------
  SMD/HF/6-31G(d) analytical gradients - 5-fluorouracil in fluorobenzene         

 THE POINT GROUP OF THE MOLECULE IS C1      
 THE ORDER OF THE PRINCIPAL AXIS IS     0

 ATOM      ATOMIC                      COORDINATES (BOHR)
           CHARGE         X                   Y                   Z
 C           6.0     2.1570598540       -1.0088623439        0.0000453534
 C           6.0     0.4141958112       -2.8546408640        0.0002173185
 C           6.0     1.4490097620        1.6655950369        0.0011413945
 F           9.0     4.6315105260       -1.5175350058       -0.0003307020
 N           7.0    -2.1343831422       -2.2934016943        0.0001077144
 C           6.0    -3.0905750433        0.1578374734       -0.0011754096
 N           7.0    -1.1923301709        1.9828479049       -0.0000321253
 O           8.0    -5.3438068323        0.6353107593        0.0002588925
 O           8.0     2.8873028880        3.4630154691       -0.0002343260
 H           1.0     0.9429808268       -4.8340570266        0.0003930630
 H           1.0    -3.4555434925       -3.6967953607        0.0004573137
 H           1.0    -1.8101496264        3.8163696623        0.0000245664

          INTERNUCLEAR DISTANCES (ANGS.)
          ------------------------------

                1 C          2 C          3 C          4 F          5 N     

   1 C       0.0000000    1.3433676 *  1.4640201 *  1.3368042 *  2.3704852 *
   2 C       1.3433676 *  0.0000000    2.4538864 *  2.3411890 *  1.3809645 *
   3 C       1.4640201 *  2.4538864 *  0.0000000    2.3819226 *  2.8257451 *
   4 F       1.3368042 *  2.3411890 *  2.3819226 *  0.0000000    3.6038209  
   5 N       2.3704852 *  1.3809645 *  2.8257451 *  3.6038209    0.0000000  
   6 C       2.8447332 *  2.4456032 *  2.5312804 *  4.1814205    1.3923375 *
   7 N       2.3765152 *  2.6973625 *  1.4077833 *  3.5956728    2.3171544 *
   8 O       4.0635268    3.5629924    3.6357151    5.4002454    2.2991979 *
   9 O       2.3977596 *  3.5901875    1.2181896 *  2.7925393 *  4.0423624  
  10 H       2.1237158 *  1.0841939 *  3.4498762    2.6248776 *  2.1117487 *
  11 H       3.2930943    2.0957094 *  3.8455524    4.4321436    1.0199510 *
  12 H       3.3056265    3.7212147    2.0663645 *  4.4256914    3.2377014  

                6 C          7 N          8 O          9 O         10 H     

   1 C       2.8447332 *  2.3765152 *  4.0635268    2.3977596 *  2.1237158 *
   2 C       2.4456032 *  2.6973625 *  3.5629924    3.5901875    1.0841939 *
   3 C       2.5312804 *  1.4077833 *  3.6357151    1.2181896 *  3.4498762  
   4 F       4.1814205    3.5956728    5.4002454    2.7925393 *  2.6248776 *
   5 N       1.3923375 *  2.3171544 *  2.2991979 *  4.0423624    2.1117487 *
   6 C       0.0000000    1.3934552 *  1.2188362 *  3.6146807    3.3961714  
   7 N       1.3934552 *  0.0000000    2.3097005 *  2.2965501 *  3.7801834  
   8 O       1.2188362 *  2.3097005 *  0.0000000    4.6055777    4.4095957  
   9 O       3.6146807    2.2965501 *  4.6055777    0.0000000    4.5095652  
  10 H       3.3961714    3.7801834    4.4095957    4.5095652    0.0000000  
  11 H       2.0489070 *  3.2353675    2.5007576 *  5.0617288    2.4041414 *
  12 H       2.0511574 *  1.0238592 *  2.5160066 *  2.4928079 *  4.8038572  

               11 H         12 H     

   1 C       3.2930943    3.3056265  
   2 C       2.0957094 *  3.7212147  
   3 C       3.8455524    2.0663645 *
   4 F       4.4321436    4.4256914  
   5 N       1.0199510 *  3.2377014  
   6 C       2.0489070 *  2.0511574 *
   7 N       3.2353675    1.0238592 *
   8 O       2.5007576 *  2.5160066 *
   9 O       5.0617288    2.4928079 *
  10 H       2.4041414 *  4.8038572  
  11 H       0.0000000    4.0700222  
  12 H       4.0700222    0.0000000  

  * ... LESS THAN  3.000


     ATOMIC BASIS SET
     ----------------
 THE CONTRACTED PRIMITIVE FUNCTIONS HAVE BEEN UNNORMALIZED
 THE CONTRACTED BASIS FUNCTIONS ARE NOW NORMALIZED TO UNITY

  SHELL TYPE  PRIMITIVE        EXPONENT          CONTRACTION COEFFICIENT(S)

 C         

      1   S       1          3047.5248800    0.001834737132
      1   S       2           457.3695180    0.014037322813
      1   S       3           103.9486850    0.068842622264
      1   S       4            29.2101553    0.232184443216
      1   S       5             9.2866630    0.467941348435
      1   S       6             3.1639270    0.362311985337

      2   L       7             7.8682723   -0.119332419775    0.068999066591
      2   L       8             1.8812885   -0.160854151696    0.316423960957
      2   L       9             0.5442493    1.143456437840    0.744308290898

      3   L      10             0.1687145    1.000000000000    1.000000000000

      4   D      11             0.8000000    1.000000000000

 C         

      5   S      12          3047.5248800    0.001834737132
      5   S      13           457.3695180    0.014037322813
      5   S      14           103.9486850    0.068842622264
      5   S      15            29.2101553    0.232184443216
      5   S      16             9.2866630    0.467941348435
      5   S      17             3.1639270    0.362311985337

      6   L      18             7.8682723   -0.119332419775    0.068999066591
      6   L      19             1.8812885   -0.160854151696    0.316423960957
      6   L      20             0.5442493    1.143456437840    0.744308290898

      7   L      21             0.1687145    1.000000000000    1.000000000000

      8   D      22             0.8000000    1.000000000000

 C         

      9   S      23          3047.5248800    0.001834737132
      9   S      24           457.3695180    0.014037322813
      9   S      25           103.9486850    0.068842622264
      9   S      26            29.2101553    0.232184443216
      9   S      27             9.2866630    0.467941348435
      9   S      28             3.1639270    0.362311985337

     10   L      29             7.8682723   -0.119332419775    0.068999066591
     10   L      30             1.8812885   -0.160854151696    0.316423960957
     10   L      31             0.5442493    1.143456437840    0.744308290898

     11   L      32             0.1687145    1.000000000000    1.000000000000

     12   D      33             0.8000000    1.000000000000

 F         

     13   S      34          7001.7130900    0.001819616901
     13   S      35          1051.3660900    0.013916079607
     13   S      36           239.2856900    0.068405324535
     13   S      37            67.3974453    0.233185760119
     13   S      38            21.5199573    0.471267439240
     13   S      39             7.4031013    0.356618546182

     14   L      40            20.8479528   -0.108506975109    0.071628724237
     14   L      41             4.8083083   -0.146451658147    0.345912102697
     14   L      42             1.3440699    1.128688581135    0.722469956367

     15   L      43             0.3581514    1.000000000000    1.000000000000

     16   D      44             0.8000000    1.000000000000

 N         

     17   S      45          4173.5114600    0.001834772160
     17   S      46           627.4579110    0.013994627002
     17   S      47           142.9020930    0.068586551812
     17   S      48            40.2343293    0.232240873040
     17   S      49            12.8202129    0.469069948082
     17   S      50             4.3904370    0.360455199063

     18   L      51            11.6263619   -0.114961181702    0.067579743878
     18   L      52             2.7162798   -0.169117478561    0.323907295893
     18   L      53             0.7722184    1.145851947027    0.740895139755

     19   L      54             0.2120315    1.000000000000    1.000000000000

     20   D      55             0.8000000    1.000000000000

 C         

     21   S      56          3047.5248800    0.001834737132
     21   S      57           457.3695180    0.014037322813
     21   S      58           103.9486850    0.068842622264
     21   S      59            29.2101553    0.232184443216
     21   S      60             9.2866630    0.467941348435
     21   S      61             3.1639270    0.362311985337

     22   L      62             7.8682723   -0.119332419775    0.068999066591
     22   L      63             1.8812885   -0.160854151696    0.316423960957
     22   L      64             0.5442493    1.143456437840    0.744308290898

     23   L      65             0.1687145    1.000000000000    1.000000000000

     24   D      66             0.8000000    1.000000000000

 N         

     25   S      67          4173.5114600    0.001834772160
     25   S      68           627.4579110    0.013994627002
     25   S      69           142.9020930    0.068586551812
     25   S      70            40.2343293    0.232240873040
     25   S      71            12.8202129    0.469069948082
     25   S      72             4.3904370    0.360455199063

     26   L      73            11.6263619   -0.114961181702    0.067579743878
     26   L      74             2.7162798   -0.169117478561    0.323907295893
     26   L      75             0.7722184    1.145851947027    0.740895139755

     27   L      76             0.2120315    1.000000000000    1.000000000000

     28   D      77             0.8000000    1.000000000000

 O         

     29   S      78          5484.6716600    0.001831074430
     29   S      79           825.2349460    0.013950172200
     29   S      80           188.0469580    0.068445078098
     29   S      81            52.9645000    0.232714335992
     29   S      82            16.8975704    0.470192897984
     29   S      83             5.7996353    0.358520852987

     30   L      84            15.5396162   -0.110777549525    0.070874268231
     30   L      85             3.5999336   -0.148026262701    0.339752839147
     30   L      86             1.0137618    1.130767015354    0.727158577316

     31   L      87             0.2700058    1.000000000000    1.000000000000

     32   D      88             0.8000000    1.000000000000

 O         

     33   S      89          5484.6716600    0.001831074430
     33   S      90           825.2349460    0.013950172200
     33   S      91           188.0469580    0.068445078098
     33   S      92            52.9645000    0.232714335992
     33   S      93            16.8975704    0.470192897984
     33   S      94             5.7996353    0.358520852987

     34   L      95            15.5396162   -0.110777549525    0.070874268231
     34   L      96             3.5999336   -0.148026262701    0.339752839147
     34   L      97             1.0137618    1.130767015354    0.727158577316

     35   L      98             0.2700058    1.000000000000    1.000000000000

     36   D      99             0.8000000    1.000000000000

 H         

     37   S     100            18.7311370    0.033494604338
     37   S     101             2.8253944    0.234726953484
     37   S     102             0.6401217    0.813757326146

     38   S     103             0.1612778    1.000000000000

 H         

     39   S     104            18.7311370    0.033494604338
     39   S     105             2.8253944    0.234726953484
     39   S     106             0.6401217    0.813757326146

     40   S     107             0.1612778    1.000000000000

 H         

     41   S     108            18.7311370    0.033494604338
     41   S     109             2.8253944    0.234726953484
     41   S     110             0.6401217    0.813757326146

     42   S     111             0.1612778    1.000000000000

 TOTAL NUMBER OF BASIS SET SHELLS             =   42
 NUMBER OF CARTESIAN GAUSSIAN BASIS FUNCTIONS =  141
 NUMBER OF ELECTRONS                          =   66
 CHARGE OF MOLECULE                           =    0
 SPIN MULTIPLICITY                            =    1
 NUMBER OF OCCUPIED ORBITALS (ALPHA)          =   33
 NUMBER OF OCCUPIED ORBITALS (BETA )          =   33
 TOTAL NUMBER OF ATOMS                        =   12
 THE NUCLEAR REPULSION ENERGY IS      439.0190655070

     $CONTRL OPTIONS
     ---------------
 SCFTYP=RHF          RUNTYP=GRADIENT     EXETYP=RUN     
 MPLEVL=       0     CITYP =NONE         CCTYP =NONE         VBTYP =NONE    
 DFTTYP=NONE         TDDFT =NONE    
 MULT  =       1     ICHARG=       0     NZVAR =       0     COORD =UNIQUE  
 PP    =NONE         RELWFN=NONE         LOCAL =NONE         NUMGRD=       F
 ISPHER=      -1     NOSYM =       0     MAXIT =      30     UNITS =ANGS    
 PLTORB=       F     MOLPLT=       F     AIMPAC=       F     FRIEND=        
 NPRINT=       7     IREST =       0     GEOM  =INPUT   
 NORMF =       0     NORMP =       0     ITOL  =      20     ICUT  =       9
 INTTYP=BEST         GRDTYP=BEST         QMTTOL= 1.0E-06

     $SYSTEM OPTIONS
     ---------------
  REPLICATED MEMORY=     1000000 WORDS (ON EVERY NODE).
 DISTRIBUTED MEMDDI=           0 MILLION WORDS IN AGGREGATE,
 MEMDDI DISTRIBUTED OVER   1 PROCESSORS IS           0 WORDS/PROCESSOR.
 TOTAL MEMORY REQUESTED ON EACH PROCESSOR=     1000000 WORDS.
 TIMLIM=      525600.00 MINUTES, OR     365.0 DAYS.
 PARALL= F  BALTYP=  DLB     KDIAG=    0  COREFL= F
 MXSEQ2=     300 MXSEQ3=     150  mem10=         0

     -----------------------------------
     INPUT FOR PCM SOLVATION CALCULATION 
     -----------------------------------
     IEF   =      -3
     ICOMP =       0     IFIELD=       0     ICAV  =       0
     IDISP =       0     IREP  =       0     IDP   =       0

     SOLVNT=   5F        EPS   =  5.4200     EPSINF=  2.1562
     VMOL  =  0.0000     TCE   =  0.00000000 STEN  =  0.0000
     DSTEN =  0.0000     CMF   =  0.0000     RSOLV =  0.0000

     NESFP =       0
     OMEGA = 40.0000     RET   =100.0000     FRO   =  0.7000

     TABS  =298.0000     IPRINT=       0

     ----------------------------------
     INPUT FOR ITERATIVE IEF-PCM METHOD 
     ----------------------------------
     IPCMIT  =         1     MXDIIS  =        50
     MXITR1  =        50     MXITR2  =        50
     THRES   = 0.100E-09     IMUL    =         3
     RCUT(1) =   15.0000     RCUT(2) =   30.0000

     IDIRCT  =         1
     IMGABI  =         0     RABI    =    4.0000
     IMGASC  =         0     RASC    =   20.0000
     THRSLS  = 0.500E-03     DENSLS  =    0.0100
     IEFPOL  =         1     REFPOL  =    0.0000

     ------------------------------------
     INPUT FOR NONAQUEOUS SMD CALCULATION 
     ------------------------------------
     SOLVNT= fluorobenzene                   EPS   =  5.4200
     SOLA  =  0.0000     SOLB  =  0.1000     SOLC  =  0.8570
     SOLG  = 38.3700     SOLH  =  0.1430     SOLN  =  1.4684

     INPUT FOR ISOTROPIC DIELECTRICS
     -------------------------------
     EPS=     5.42

     INPUT FOR CAVITY DEFINITION 
     ---------------------------
   ATOM               COORDINATES                RADIUS       EPS
      1      1.1415     -0.5339      0.0000      1.8500      5.4200
      2      0.2192     -1.5106      0.0001      1.8500      5.4200
      3      0.7668      0.8814      0.0006      1.8500      5.4200
      4      2.4509     -0.8030     -0.0002      1.7300      5.4200
      5     -1.1295     -1.2136      0.0001      1.8900      5.4200
      6     -1.6355      0.0835     -0.0006      1.8500      5.4200
      7     -0.6310      1.0493     -0.0000      1.8900      5.4200
      8     -2.8278      0.3362      0.0001      2.2940      5.4200
      9      1.5279      1.8325     -0.0001      2.2940      5.4200
     10      0.4990     -2.5581      0.0002      1.2000      5.4200
     11     -1.8286     -1.9563      0.0002      1.2000      5.4200
     12     -0.9579      2.0195      0.0000      1.2000      5.4200

     ----------------------------
     INPUT FOR TESSERA DEFINITION
     ----------------------------
     NTSALL  =       240     MTHALL  =         2
     MTHAUT  =         0     AUTFRE  =    2.0000
     NTSFRZ  =        60     KEEPSM  =         0
     AREAKP  =   10.0000     BONDRY  =    1.0000
     AREATL  =    0.0100

     SPHERE     INITS       METHOD
          1       240     GEPOL-AS
          2       240     GEPOL-AS
          3       240     GEPOL-AS
          4       240     GEPOL-AS
          5       240     GEPOL-AS
          6       240     GEPOL-AS
          7       240     GEPOL-AS
          8       240     GEPOL-AS
          9       240     GEPOL-AS
         10       240     GEPOL-AS
         11       240     GEPOL-AS
         12       240     GEPOL-AS

     -----------------------------
     INPUT FOR PCM GRADIENT METHOD
     -----------------------------
     IPCDER  =         2     IFAST   =         0
     VARIABLE-TESSERA-NUMBER GRADIENT EQUATIONS
  

 PCM DIMENSIONS: MXSP=  2000, MXTS=      2880, MEMORY=         91363

          ----------------
          PROPERTIES INPUT
          ----------------

     MOMENTS            FIELD           POTENTIAL          DENSITY
 IEMOM =       1   IEFLD =       0   IEPOT =       0   IEDEN =       0
 WHERE =COMASS     WHERE =NUCLEI     WHERE =NUCLEI     WHERE =NUCLEI  
 OUTPUT=BOTH       OUTPUT=BOTH       OUTPUT=BOTH       OUTPUT=BOTH    
 IEMINT=       0   IEFINT=       0                     IEDINT=       0
                                                       MORB  =       0
          EXTRAPOLATION IN EFFECT
          SOSCF IN EFFECT
 ORBITAL PRINTING OPTION: NPREO=     1   141     2     1

     -------------------------------
     INTEGRAL TRANSFORMATION OPTIONS
     -------------------------------
     NWORD  =            0
     CUTOFF = 1.0E-09     MPTRAN =       0
     DIRTRF =       F     AOINTS =DUP     

          ----------------------
          INTEGRAL INPUT OPTIONS
          ----------------------
 NOPK  =       1 NORDER=       0 SCHWRZ=       T

     ------------------------------------------
     THE POINT GROUP IS C1 , NAXIS= 1, ORDER= 1
     ------------------------------------------

     DIMENSIONS OF THE SYMMETRY SUBSPACES ARE
 A   =  141

 ..... DONE SETTING UP THE RUN .....
 STEP CPU TIME =     0.03 TOTAL CPU TIME =        0.0 (    0.0 MIN)
 TOTAL WALL CLOCK TIME=        0.2 SECONDS, CPU UTILIZATION IS  18.75%

                    --------------------------------
                    SINGLE POINT ENERGY AND GRADIENT
                    --------------------------------

          ********************
          1 ELECTRON INTEGRALS
          ********************
 ...... END OF ONE-ELECTRON INTEGRALS ......
 STEP CPU TIME =     0.01 TOTAL CPU TIME =        0.0 (    0.0 MIN)
 TOTAL WALL CLOCK TIME=        0.2 SECONDS, CPU UTILIZATION IS  23.53%

          -------------
          GUESS OPTIONS
          -------------
          GUESS =HUCKEL            NORB  =       0          NORDER=       0
          MIX   =       F          PRTMO =       F          PUNMO =       F
          TOLZ  = 1.0E-08          TOLE  = 1.0E-05
          SYMDEN=       F          PURIFY=       F

 INITIAL GUESS ORBITALS GENERATED BY HUCKEL   ROUTINE.
 HUCKEL GUESS REQUIRES    162993 WORDS.

 SYMMETRIES FOR INITIAL GUESS ORBITALS FOLLOW.   BOTH SET(S).
    33 ORBITALS ARE OCCUPIED (    9 CORE ORBITALS).
    10=A       11=A       12=A       13=A       14=A       15=A       16=A   
    17=A       18=A       19=A       20=A       21=A       22=A       23=A   
    24=A       25=A       26=A       27=A       28=A       29=A       30=A   
    31=A       32=A       33=A       34=A       35=A       36=A       37=A   
    38=A       39=A       40=A       41=A       42=A       43=A   
 ...... END OF INITIAL ORBITAL SELECTION ......
 STEP CPU TIME =     0.05 TOTAL CPU TIME =        0.1 (    0.0 MIN)
 TOTAL WALL CLOCK TIME=        0.2 SECONDS, CPU UTILIZATION IS  40.91%

                    ----------------------
                    AO INTEGRAL TECHNOLOGY
                    ----------------------
     S,P,L SHELL ROTATED AXIS INTEGRALS, REPROGRAMMED BY
        KAZUYA ISHIMURA (IMS) AND JOSE SIERRA (SYNSTAR).
     S,P,D,L SHELL ROTATED AXIS INTEGRALS PROGRAMMED BY
        KAZUYA ISHIMURA (INSTITUTE FOR MOLECULAR SCIENCE).
     S,P,D,F,G SHELL TO TOTAL QUARTET ANGULAR MOMENTUM SUM 5,
        ERIC PROGRAM BY GRAHAM FLETCHER (ELORET AND NASA ADVANCED
        SUPERCOMPUTING DIVISION, AMES RESEARCH CENTER).
     S,P,D,F,G,L SHELL GENERAL RYS QUADRATURE PROGRAMMED BY
        MICHEL DUPUIS (PACIFIC NORTHWEST NATIONAL LABORATORY).

          --------------------
          2 ELECTRON INTEGRALS
          --------------------

 THE -PK- OPTION IS OFF, THE INTEGRALS ARE NOT IN SUPERMATRIX FORM.
 STORING   15000 INTEGRALS/RECORD ON DISK, USING 12 BYTES/INTEGRAL.
 TWO ELECTRON INTEGRAL EVALUATION REQUIRES   91299 WORDS OF MEMORY.
 SCHWARZ INEQUALITY OVERHEAD:      9782 INTEGRALS, T=        0.01
 II,JST,KST,LST =  1  1  1  1 NREC =         1 INTLOC =    1
 II,JST,KST,LST =  2  1  1  1 NREC =         1 INTLOC =    2
 II,JST,KST,LST =  3  1  1  1 NREC =         1 INTLOC =   34
 II,JST,KST,LST =  4  1  1  1 NREC =         1 INTLOC =  214
 II,JST,KST,LST =  5  1  1  1 NREC =         1 INTLOC = 1189
 II,JST,KST,LST =  6  1  1  1 NREC =         1 INTLOC = 3193
 II,JST,KST,LST =  7  1  1  1 NREC =         2 INTLOC =  910
 II,JST,KST,LST =  8  1  1  1 NREC =         3 INTLOC = 8028
 II,JST,KST,LST =  9  1  1  1 NREC =         7 INTLOC = 5803
 II,JST,KST,LST = 10  1  1  1 NREC =         8 INTLOC = 2624
 II,JST,KST,LST = 11  1  1  1 NREC =        13 INTLOC =  530
 II,JST,KST,LST = 12  1  1  1 NREC =        19 INTLOC =14258
 II,JST,KST,LST = 13  1  1  1 NREC =        34 INTLOC = 5220
 II,JST,KST,LST = 14  1  1  1 NREC =        36 INTLOC = 7232
 II,JST,KST,LST = 15  1  1  1 NREC =        49 INTLOC =10608
 II,JST,KST,LST = 16  1  1  1 NREC =        68 INTLOC = 2474
 II,JST,KST,LST = 17  1  1  1 NREC =       103 INTLOC = 4655
 II,JST,KST,LST = 18  1  1  1 NREC =       106 INTLOC =11036
 II,JST,KST,LST = 19  1  1  1 NREC =       129 INTLOC = 8305
 II,JST,KST,LST = 20  1  1  1 NREC =       165 INTLOC = 4997
 II,JST,KST,LST = 21  1  1  1 NREC =       217 INTLOC = 9512
 II,JST,KST,LST = 22  1  1  1 NREC =       223 INTLOC =12644
 II,JST,KST,LST = 23  1  1  1 NREC =       267 INTLOC =14415
 II,JST,KST,LST = 24  1  1  1 NREC =       331 INTLOC = 1580
 II,JST,KST,LST = 25  1  1  1 NREC =       420 INTLOC =  993
 II,JST,KST,LST = 26  1  1  1 NREC =       432 INTLOC = 3343
 II,JST,KST,LST = 27  1  1  1 NREC =       506 INTLOC = 1564
 II,JST,KST,LST = 28  1  1  1 NREC =       609 INTLOC = 5358
 II,JST,KST,LST = 29  1  1  1 NREC =       761 INTLOC = 4685
 II,JST,KST,LST = 30  1  1  1 NREC =       772 INTLOC = 5103
 II,JST,KST,LST = 31  1  1  1 NREC =       840 INTLOC =14116
 II,JST,KST,LST = 32  1  1  1 NREC =       958 INTLOC = 1972
 II,JST,KST,LST = 33  1  1  1 NREC =      1107 INTLOC = 7705
 II,JST,KST,LST = 34  1  1  1 NREC =      1121 INTLOC =10371
 II,JST,KST,LST = 35  1  1  1 NREC =      1215 INTLOC =11139
 II,JST,KST,LST = 36  1  1  1 NREC =      1386 INTLOC = 8071
 II,JST,KST,LST = 37  1  1  1 NREC =      1591 INTLOC = 3392
 II,JST,KST,LST = 38  1  1  1 NREC =      1626 INTLOC =13476
 II,JST,KST,LST = 39  1  1  1 NREC =      1684 INTLOC = 9929
 II,JST,KST,LST = 40  1  1  1 NREC =      1723 INTLOC = 2296
 II,JST,KST,LST = 41  1  1  1 NREC =      1782 INTLOC =10966
 II,JST,KST,LST = 42  1  1  1 NREC =      1827 INTLOC = 8728
 SCHWARZ INEQUALITY TEST SKIPPED      124843 INTEGRAL BLOCKS.
 TOTAL NUMBER OF NONZERO TWO-ELECTRON INTEGRALS =            28379258
       1892 INTEGRAL RECORDS WERE STORED ON DISK FILE  8.
  ...... END OF TWO-ELECTRON INTEGRALS .....
 STEP CPU TIME =     1.77 TOTAL CPU TIME =        1.9 (    0.0 MIN)
 TOTAL WALL CLOCK TIME=        2.1 SECONDS, CPU UTILIZATION IS  88.57%

          -------------------------------------
          ---- POLARISABLE CONTINUUM MODEL ----
          ----      UNIVERSITY OF PISA     ----
          -------------------------------------

     ----------------------------
     INPUT FOR TESSERA DEFINITION
     ----------------------------
     NTSALL  =       240     MTHALL  =         2
     MTHAUT  =         0     AUTFRE  =    2.0000
     NTSFRZ  =        60     KEEPSM  =         0
     AREAKP  =   10.0000     BONDRY  =    1.0000
     AREATL  =    0.0100

     SPHERE     INITS       METHOD
          1       240     GEPOL-AS
          2       240     GEPOL-AS
          3       240     GEPOL-AS
          4       240     GEPOL-AS
          5       240     GEPOL-AS
          6       240     GEPOL-AS
          7       240     GEPOL-AS
          8       240     GEPOL-AS
          9       240     GEPOL-AS
         10       240     GEPOL-AS
         11       240     GEPOL-AS
         12       240     GEPOL-AS

     INPUT FOR CAVITY DEFINITION 
     ---------------------------
   ATOM               COORDINATES                RADIUS       EPS
      1      1.1415     -0.5339      0.0000      1.8500      5.4200
      2      0.2192     -1.5106      0.0001      1.8500      5.4200
      3      0.7668      0.8814      0.0006      1.8500      5.4200
      4      2.4509     -0.8030     -0.0002      1.7300      5.4200
      5     -1.1295     -1.2136      0.0001      1.8900      5.4200
      6     -1.6355      0.0835     -0.0006      1.8500      5.4200
      7     -0.6310      1.0493     -0.0000      1.8900      5.4200
      8     -2.8278      0.3362      0.0001      2.2940      5.4200
      9      1.5279      1.8325     -0.0001      2.2940      5.4200
     10      0.4990     -2.5581      0.0002      1.2000      5.4200
     11     -1.8286     -1.9563      0.0002      1.2000      5.4200
     12     -0.9579      2.0195      0.0000      1.2000      5.4200

 MEMORY USED TO GENERATE CAVITY=    562882

 DONE WITH AREA SCALING.
 STEP CPU TIME =     0.03 TOTAL CPU TIME =        1.9 (    0.0 MIN)
 TOTAL WALL CLOCK TIME=        2.1 SECONDS, CPU UTILIZATION IS  88.73%

 TOTAL NUMBER OF SPHERES=    12
 SPHERE           CENTER  (X,Y,Z) (A)               RADIUS (A)      AREA(A*A)
     1   1.141467000  -0.533867000   0.000024000   1.850000000   5.904361711
     2   0.219183000  -1.510611000   0.000115000   1.850000000  11.359307243
     3   0.766783000   0.881395000   0.000604000   1.850000000   1.718720137
     4   2.450890000  -0.803045000  -0.000175000   1.730000000  20.878315874
     5  -1.129467000  -1.213616000   0.000057000   1.890000000  11.689074965
     6  -1.635462000   0.083524000  -0.000622000   1.850000000   1.451800550
     7  -0.630954000   1.049278000  -0.000017000   1.890000000   8.862615063
     8  -2.827821000   0.336192000   0.000137000   2.294000000  45.947308226
     9   1.527895000   1.832549000  -0.000124000   2.294000000  44.437565919
    10   0.499004000  -2.558073000   0.000208000   1.200000000   6.241640175
    11  -1.828595000  -1.956260000   0.000242000   1.200000000   4.634386673
    12  -0.957890000   2.019536000   0.000013000   1.200000000   4.287257597

 TOTAL NUMBER OF TESSERAE=    1167
 SURFACE AREA=   167.41235413(A**2)    CAVITY VOLUME=    157.43335700 (A**3)
 STEP CPU TIME =     0.00 TOTAL CPU TIME =        1.9 (    0.0 MIN)
 TOTAL WALL CLOCK TIME=        2.1 SECONDS, CPU UTILIZATION IS  88.73%

          THE SOLUTE IS ENCLOSED IN ONE CAVITY
 DONE CHECKING SEPARATION.
 STEP CPU TIME =     0.00 TOTAL CPU TIME =        1.9 (    0.0 MIN)
 TOTAL WALL CLOCK TIME=        2.1 SECONDS, CPU UTILIZATION IS  88.73%

 ..... DONE GENERATING CAVITY .....
 STEP CPU TIME =     0.00 TOTAL CPU TIME =        1.9 (    0.0 MIN)
 TOTAL WALL CLOCK TIME=        2.1 SECONDS, CPU UTILIZATION IS  88.73%
 NUCLEI-NUCLEAR CHARGE POLARIZATION ADJUSTMENT TO VNN=        0.0000000000

          --------------------------
                 RHF SCF CALCULATION
          --------------------------

     NUCLEAR ENERGY =       439.0190655070
     MAXIT =   30     NPUNCH=    2
     EXTRAP=T  DAMP=F  SHIFT=F  RSTRCT=F  DIIS=F  DEM=F  SOSCF=T
     DENSITY MATRIX CONV=  1.00E-05
     SOSCF WILL OPTIMIZE    3564 ORBITAL ROTATIONS, SOGTOL=   0.250
     MEMORY REQUIRED FOR RHF ITERS=    392095 WORDS.

 ITER EX DEM     TOTAL ENERGY        E CHANGE  DENSITY CHANGE     ORB. GRAD
   1  0  0     -509.6842505810  -509.6842505810   0.406757772   0.000000000
          ---------------START SECOND ORDER SCF---------------
   2  1  0     -510.9956814200    -1.3114308390   0.290657893   0.119246831
   3  2  0     -511.0302768549    -0.0345954349   0.137406119   0.096359972
   4  3  0     -511.3140810336    -0.2838041788   0.061312680   0.013908696
   5  4  0     -511.3210795676    -0.0069985340   0.007354371   0.005085432
   6  5  0     -511.3216100618    -0.0005304942   0.002899824   0.001202432
   7  6  0     -511.3216518175    -0.0000417556   0.000959180   0.000556931
   8  7  0     -511.3216628017    -0.0000109842   0.000651922   0.000219812
   9  8  0     -511.3216641357    -0.0000013340   0.000284670   0.000055861
  10  9  0     -511.3216643403    -0.0000002046   0.000056878   0.000025483
  11 10  0     -511.3216643583    -0.0000000179   0.000016574   0.000005057
  12 11  0     -511.3216643604    -0.0000000022   0.000009165   0.000002867
  13 12  0     -511.3216643608    -0.0000000003   0.000002545   0.000000627

          -----------------
          DENSITY CONVERGED
          -----------------
     TIME TO FORM FOCK OPERATORS=      28.3 SECONDS (       2.2 SEC/ITER)
     TIME TO SOLVE SCF EQUATIONS=       0.1 SECONDS (       0.0 SEC/ITER)

 FINAL RHF ENERGY IS     -511.3216643608 AFTER  13 ITERATIONS
  
   PCM ASC=     -0.0069212644
   GCAVP  =      0.0000000000
   GDISP  =      0.0000000000
   GREP   =      0.0000000000

          ------------
          EIGENVECTORS
          ------------

                      1          2          3          4          5
                  -26.3235   -20.5554   -20.5498   -15.6370   -15.6294
                     A          A          A          A          A   
    1  C  1  S   -0.000012   0.000002  -0.000001   0.000029   0.000019
    2  C  1  S    0.000303   0.000001  -0.000014   0.000128   0.000067
    3  C  1  X    0.000560   0.000002  -0.000007   0.000018  -0.000004
    4  C  1  Y   -0.000139  -0.000004   0.000007   0.000039  -0.000068
    5  C  1  Z   -0.000000   0.000000  -0.000000  -0.000000  -0.000000
    6  C  1  S    0.000461  -0.000145   0.000538  -0.002180  -0.001626
    7  C  1  X   -0.000096  -0.000015  -0.000188   0.001300   0.001434
    8  C  1  Y    0.000109  -0.000234   0.000044  -0.000391   0.000421
    9  C  1  Z    0.000000  -0.000000   0.000000  -0.000000   0.000000
   10  C  1 XX    0.000267   0.000047   0.000019  -0.000011  -0.000001
   11  C  1 YY    0.000032  -0.000025  -0.000009   0.000046   0.000018
   12  C  1 ZZ   -0.000086  -0.000013   0.000003   0.000028   0.000011
   13  C  1 XY   -0.000049  -0.000084  -0.000008  -0.000014   0.000021
   14  C  1 XZ   -0.000000  -0.000000  -0.000000   0.000000   0.000000
   15  C  1 YZ    0.000000   0.000000   0.000000  -0.000000   0.000000
   16  C  2  S    0.000004   0.000005   0.000007   0.000009   0.000002
   17  C  2  S    0.000096   0.000035   0.000040   0.000180  -0.000014
   18  C  2  X   -0.000017   0.000014  -0.000024  -0.000210  -0.000013
   19  C  2  Y   -0.000013   0.000013   0.000008   0.000040   0.000024
   20  C  2  Z    0.000000   0.000000  -0.000000  -0.000000   0.000000
   21  C  2  S   -0.000199  -0.000182  -0.000339   0.002635   0.001763
   22  C  2  X   -0.000142  -0.000066   0.000015  -0.000861   0.000043
   23  C  2  Y   -0.000189  -0.000122  -0.000315   0.001584   0.000728
   24  C  2  Z   -0.000000   0.000000   0.000000  -0.000000  -0.000000
   25  C  2 XX   -0.000105   0.000024   0.000037  -0.000169   0.000028
   26  C  2 YY   -0.000034  -0.000015  -0.000017  -0.000033   0.000018
   27  C  2 ZZ    0.000000   0.000010   0.000017  -0.000091  -0.000003
   28  C  2 XY   -0.000039   0.000016   0.000012  -0.000007   0.000014
   29  C  2 XZ    0.000000   0.000000  -0.000000   0.000000   0.000000
   30  C  2 YZ    0.000000  -0.000000   0.000000   0.000000  -0.000000
   31  C  3  S    0.000005  -0.000009   0.000012  -0.000005  -0.000007
   32  C  3  S    0.000091   0.000480   0.000044  -0.000038   0.000110
   33  C  3  X   -0.000001  -0.000043  -0.000029  -0.000029  -0.000229
   34  C  3  Y    0.000018  -0.000046   0.000003  -0.000005   0.000014
   35  C  3  Z    0.000000   0.000000  -0.000000  -0.000000  -0.000000
   36  C  3  S   -0.000217  -0.000434  -0.000160   0.001279   0.001715
   37  C  3  X   -0.000268  -0.000217   0.000162  -0.000485  -0.002305
   38  C  3  Y    0.000209  -0.000718   0.000391  -0.000795  -0.000891
   39  C  3  Z    0.000000   0.000000   0.000000  -0.000001  -0.000001
   40  C  3 XX   -0.000040  -0.000363   0.000047   0.000012  -0.000120
   41  C  3 YY   -0.000057  -0.000543   0.000012   0.000013  -0.000076
   42  C  3 ZZ    0.000004  -0.000047   0.000023  -0.000010  -0.000097
   43  C  3 XY    0.000044  -0.000459  -0.000019  -0.000003   0.000035
   44  C  3 XZ    0.000000   0.000000   0.000000   0.000000   0.000000
   45  C  3 YZ   -0.000000   0.000000  -0.000000   0.000000  -0.000000
   46  F  4  S    0.994429   0.000006   0.000002   0.000019   0.000015
   47  F  4  S    0.017817   0.000025   0.000010   0.000114   0.000094
   48  F  4  X   -0.000949   0.000002  -0.000002   0.000003   0.000006
   49  F  4  Y    0.000178   0.000002   0.000001   0.000002  -0.000006
   50  F  4  Z    0.000000  -0.000000   0.000000   0.000000  -0.000000
   51  F  4  S    0.007990  -0.000077  -0.000026  -0.000505  -0.000488
   52  F  4  X    0.000680   0.000032   0.000024   0.000003   0.000010
   53  F  4  Y   -0.000136   0.000017  -0.000007  -0.000006  -0.000017
   54  F  4  Z   -0.000000   0.000000  -0.000000  -0.000000   0.000000
   55  F  4 XX   -0.005022  -0.000006  -0.000003   0.000086   0.000070
   56  F  4 YY   -0.004527   0.000026   0.000010   0.000067   0.000058
   57  F  4 ZZ   -0.004523   0.000034   0.000008   0.000058   0.000027
   58  F  4 XY    0.000122  -0.000011   0.000004  -0.000010   0.000006
   59  F  4 XZ    0.000000  -0.000000   0.000000   0.000000   0.000000
   60  F  4 YZ   -0.000000   0.000000   0.000000  -0.000000   0.000000
   61  N  5  S   -0.000002  -0.000002  -0.000014   0.994971   0.001421
   62  N  5  S   -0.000011  -0.000006  -0.000050   0.025465   0.000062
   63  N  5  X    0.000007   0.000006   0.000023   0.000263   0.000033
   64  N  5  Y   -0.000011   0.000004  -0.000020   0.000197  -0.000044
   65  N  5  Z    0.000000   0.000000  -0.000000  -0.000001   0.000000
   66  N  5  S    0.000056   0.000180   0.000287  -0.004509  -0.000814
   67  N  5  X    0.000038  -0.000009   0.000036  -0.000934  -0.000739
   68  N  5  Y    0.000110   0.000090   0.000165  -0.001292  -0.000253
   69  N  5  Z   -0.000000  -0.000000  -0.000000   0.000001  -0.000000
   70  N  5 XX    0.000017  -0.000011  -0.000090  -0.003418   0.000054
   71  N  5 YY    0.000005  -0.000003   0.000039  -0.003432   0.000024
   72  N  5 ZZ   -0.000007   0.000005  -0.000057  -0.003312  -0.000015
   73  N  5 XY   -0.000018   0.000012   0.000072   0.000003  -0.000011
   74  N  5 XZ    0.000000  -0.000000  -0.000000  -0.000000   0.000000
   75  N  5 YZ   -0.000000  -0.000000  -0.000000   0.000000  -0.000000
   76  C  6  S   -0.000001   0.000010  -0.000006   0.000009   0.000004
   77  C  6  S    0.000007   0.000034   0.000516   0.000182   0.000188
   78  C  6  X   -0.000008   0.000022   0.000052   0.000113   0.000187
   79  C  6  Y    0.000004   0.000027  -0.000013  -0.000241   0.000150
   80  C  6  Z   -0.000000   0.000000  -0.000000   0.000000   0.000000
   81  C  6  S   -0.000135   0.000018  -0.000790   0.001646   0.001550
   82  C  6  X   -0.000092  -0.000249   0.000462   0.001446   0.001940
   83  C  6  Y    0.000004   0.000197  -0.000107  -0.001498   0.000757
   84  C  6  Z   -0.000000  -0.000000  -0.000000   0.000001   0.000001
   85  C  6 XX   -0.000012   0.000019  -0.000850  -0.000041  -0.000087
   86  C  6 YY   -0.000021   0.000041  -0.000071  -0.000136  -0.000149
   87  C  6 ZZ   -0.000001   0.000018  -0.000039  -0.000072  -0.000078
   88  C  6 XY   -0.000002   0.000026   0.000197   0.000003  -0.000072
   89  C  6 XZ   -0.000000  -0.000000   0.000001   0.000000   0.000000
   90  C  6 YZ    0.000000   0.000000  -0.000000  -0.000000   0.000000
   91  N  7  S    0.000002  -0.000010  -0.000011  -0.001383   0.994984
   92  N  7  S    0.000004  -0.000033  -0.000039  -0.000001   0.025484
   93  N  7  X    0.000008  -0.000041   0.000029   0.000049  -0.000007
   94  N  7  Y    0.000005  -0.000015   0.000007   0.000026  -0.000265
   95  N  7  Z    0.000000   0.000000  -0.000000   0.000000  -0.000000
   96  N  7  S   -0.000079   0.000159   0.000235  -0.000907  -0.004963
   97  N  7  X   -0.000106   0.000226  -0.000091  -0.000566  -0.000454
   98  N  7  Y   -0.000080   0.000041  -0.000183   0.000546   0.001360
   99  N  7  Z   -0.000000   0.000000   0.000000  -0.000000  -0.000000
  100  N  7 XX    0.000015  -0.000046  -0.000117   0.000068  -0.003410
  101  N  7 YY    0.000003  -0.000009   0.000072   0.000039  -0.003399
  102  N  7 ZZ    0.000002  -0.000049  -0.000050  -0.000001  -0.003298
  103  N  7 XY    0.000012  -0.000095   0.000014  -0.000007   0.000017
  104  N  7 XZ    0.000000   0.000000   0.000000   0.000000  -0.000000
  105  N  7 YZ    0.000000  -0.000000   0.000000  -0.000000  -0.000000
  106  O  8  S    0.000001  -0.000002   0.994680  -0.000031  -0.000033
  107  O  8  S    0.000006   0.000051   0.021016  -0.000172  -0.000182
  108  O  8  X    0.000002   0.000004   0.001593  -0.000033  -0.000029
  109  O  8  Y   -0.000000   0.000000  -0.000336  -0.000004   0.000015
  110  O  8  Z   -0.000000  -0.000000  -0.000001   0.000000   0.000000
  111  O  8  S   -0.000039  -0.000319   0.004627   0.001080   0.001139
  112  O  8  X   -0.000002  -0.000085   0.000018   0.000259   0.000148
  113  O  8  Y    0.000001  -0.000004  -0.000005   0.000273  -0.000359
  114  O  8  Z    0.000000   0.000000   0.000000  -0.000001  -0.000001
  115  O  8 XX    0.000007   0.000024  -0.003618  -0.000075  -0.000132
  116  O  8 YY    0.000004   0.000033  -0.003933  -0.000121  -0.000071
  117  O  8 ZZ    0.000004   0.000033  -0.004098  -0.000125  -0.000132
  118  O  8 XY   -0.000002   0.000002  -0.000084   0.000073  -0.000075
  119  O  8 XZ    0.000000   0.000000  -0.000000  -0.000000  -0.000000
  120  O  8 YZ   -0.000000   0.000000   0.000000  -0.000000   0.000000
  121  O  9  S    0.000004   0.994681   0.000026  -0.000014  -0.000040
  122  O  9  S    0.000002   0.020975   0.000057  -0.000061  -0.000214
  123  O  9  X    0.000006  -0.001023  -0.000004   0.000012   0.000016
  124  O  9  Y   -0.000007  -0.001236  -0.000003  -0.000001   0.000025
  125  O  9  Z   -0.000000   0.000001   0.000000  -0.000000  -0.000000
  126  O  9  S    0.000013   0.004733  -0.000363   0.000433   0.001403
  127  O  9  X    0.000020  -0.000053   0.000067  -0.000077   0.000067
  128  O  9  Y   -0.000034  -0.000006   0.000054  -0.000016  -0.000405
  129  O  9  Z    0.000000  -0.000000  -0.000000   0.000000   0.000001
  130  O  9 XX    0.000009  -0.003805   0.000032  -0.000030  -0.000183
  131  O  9 YY    0.000018  -0.003742   0.000032  -0.000050  -0.000059
  132  O  9 ZZ    0.000022  -0.004138   0.000035  -0.000040  -0.000145
  133  O  9 XY   -0.000002   0.000190  -0.000004  -0.000002  -0.000012
  134  O  9 XZ    0.000000  -0.000000   0.000000  -0.000000  -0.000000
  135  O  9 YZ   -0.000000  -0.000000   0.000000  -0.000000  -0.000000
  136  H 10  S    0.000018   0.000005  -0.000009   0.000024  -0.000006
  137  H 10  S   -0.000082  -0.000039  -0.000105   0.000441   0.000110
  138  H 11  S    0.000019  -0.000001  -0.000002   0.000196  -0.000088
  139  H 11  S    0.000015   0.000002   0.000005  -0.000006  -0.000013
  140  H 12  S    0.000015  -0.000010   0.000003  -0.000088   0.000232
  141  H 12  S   -0.000007  -0.000015  -0.000001   0.000002   0.000076

                      6          7          8          9         10
                  -11.4204   -11.3914   -11.3327   -11.3268    -1.6360
                     A          A          A          A          A   
    1  C  1  S   -0.000012   0.006488   0.986700  -0.134212  -0.059979
    2  C  1  S    0.000293   0.000068   0.027404  -0.003853   0.102981
    3  C  1  X    0.000082   0.000024   0.001568  -0.000121   0.090421
    4  C  1  Y   -0.000015  -0.000052  -0.000236   0.000200  -0.017964
    5  C  1  Z    0.000000  -0.000000   0.000000  -0.000000  -0.000011
    6  C  1  S   -0.006310   0.006116  -0.014581   0.004895   0.027989
    7  C  1  X    0.002818  -0.001872   0.008103  -0.001160  -0.015355
    8  C  1  Y   -0.000594   0.003647  -0.001785  -0.002405   0.003471
    9  C  1  Z   -0.000002   0.000003  -0.000003  -0.000000   0.000001
   10  C  1 XX   -0.000155  -0.000391  -0.000606  -0.000239   0.021664
   11  C  1 YY   -0.000016  -0.000619  -0.001492  -0.000143  -0.009178
   12  C  1 ZZ    0.000041  -0.000221  -0.002108   0.000243  -0.010456
   13  C  1 XY    0.000017   0.000086  -0.000088   0.000057  -0.007586
   14  C  1 XZ    0.000000   0.000000  -0.000000   0.000000  -0.000005
   15  C  1 YZ   -0.000000  -0.000000   0.000000  -0.000000   0.000001
   16  C  2  S   -0.000196  -0.000001   0.133578   0.986670  -0.008649
   17  C  2  S   -0.000540  -0.000256   0.003268   0.027050   0.016632
   18  C  2  X    0.000104  -0.000048  -0.000208  -0.000974   0.013003
   19  C  2  Y   -0.000139  -0.000092  -0.000025   0.000596   0.008084
   20  C  2  Z    0.000000  -0.000000   0.000000  -0.000000  -0.000001
   21  C  2  S    0.003577  -0.000002   0.007752  -0.009969   0.000864
   22  C  2  X   -0.000153   0.001002  -0.000978  -0.002276   0.011277
   23  C  2  Y    0.003828   0.000410   0.005074  -0.001155  -0.002805
   24  C  2  Z   -0.000001  -0.000000   0.000000   0.000000   0.000000
   25  C  2 XX    0.000107   0.000064  -0.000510  -0.001155   0.003638
   26  C  2 YY    0.000068   0.000103  -0.000346  -0.001573   0.000122
   27  C  2 ZZ   -0.000203  -0.000099  -0.000456  -0.002435  -0.000664
   28  C  2 XY   -0.000032   0.000039   0.000031   0.000041   0.002994
   29  C  2 XZ    0.000000  -0.000000   0.000000   0.000000  -0.000000
   30  C  2 YZ   -0.000000   0.000000  -0.000000  -0.000000  -0.000000
   31  C  3  S   -0.000565   0.995889  -0.006901   0.000887  -0.009521
   32  C  3  S   -0.000593   0.026518  -0.000362  -0.000212   0.018076
   33  C  3  X    0.000121  -0.000637  -0.000071  -0.000021   0.008735
   34  C  3  Y    0.000042   0.000219   0.000008   0.000005  -0.009624
   35  C  3  Z    0.000000  -0.000000   0.000000  -0.000000  -0.000007
   36  C  3  S    0.001392  -0.007285   0.006680   0.000420   0.003370
   37  C  3  X   -0.001686   0.001347  -0.002804  -0.000135   0.010920
   38  C  3  Y   -0.004379   0.007797  -0.004349  -0.001110  -0.000524
   39  C  3  Z   -0.000000   0.000000  -0.000001  -0.000000   0.000001
   40  C  3 XX   -0.000063  -0.000847  -0.000393   0.000062   0.000634
   41  C  3 YY   -0.000116  -0.000822  -0.000452   0.000235   0.004490
   42  C  3 ZZ   -0.000219  -0.002200  -0.000193  -0.000022  -0.001266
   43  C  3 XY   -0.000042   0.000468   0.000190   0.000019  -0.002097
   44  C  3 XZ    0.000000  -0.000000   0.000000   0.000000  -0.000002
   45  C  3 YZ    0.000000  -0.000001  -0.000000   0.000000   0.000001
   46  F  4  S    0.000025  -0.000069   0.000257   0.000018  -0.220663
   47  F  4  S    0.000132  -0.000442   0.002481  -0.000120   0.511361
   48  F  4  X    0.000011   0.000043  -0.000471   0.000064  -0.067628
   49  F  4  Y   -0.000007   0.000005   0.000094  -0.000012   0.013649
   50  F  4  Z   -0.000000   0.000000  -0.000000  -0.000000   0.000012
   51  F  4  S   -0.000640   0.001419  -0.008277  -0.000010   0.442817
   52  F  4  X   -0.000113  -0.000273   0.002854  -0.000281  -0.042933
   53  F  4  Y    0.000038  -0.000208  -0.000597   0.000199   0.007850
   54  F  4  Z    0.000000  -0.000000  -0.000000   0.000000   0.000009
   55  F  4 XX    0.000175  -0.000177   0.000237   0.000272   0.036752
   56  F  4 YY    0.000065  -0.000252   0.001612  -0.000024   0.020395
   57  F  4 ZZ    0.000070  -0.000351   0.001784  -0.000142   0.019325
   58  F  4 XY   -0.000027   0.000006   0.000387  -0.000026  -0.004076
   59  F  4 XZ   -0.000000   0.000000   0.000000  -0.000000  -0.000003
   60  F  4 YZ   -0.000000   0.000000  -0.000000   0.000000   0.000001
   61  N  5  S   -0.000225   0.000038   0.000057  -0.000245  -0.001414
   62  N  5  S    0.000359   0.000172   0.000309   0.000386   0.003044
   63  N  5  X   -0.000044  -0.000044   0.000036   0.000097   0.001510
   64  N  5  Y    0.000059   0.000013   0.000017  -0.000020   0.000666
   65  N  5  Z    0.000000  -0.000000   0.000000   0.000000  -0.000000
   66  N  5  S   -0.000082  -0.002030  -0.004200  -0.000288   0.006995
   67  N  5  X   -0.000011   0.000385  -0.001851  -0.002565   0.002387
   68  N  5  Y   -0.000980  -0.001453  -0.000725  -0.000031  -0.003574
   69  N  5  Z   -0.000000   0.000002  -0.000000   0.000000   0.000001
   70  N  5 XX   -0.000241   0.000082   0.000152  -0.000825   0.000060
   71  N  5 YY   -0.000589  -0.000004   0.000187  -0.000168  -0.000127
   72  N  5 ZZ    0.000122   0.000060   0.000134   0.000132   0.000047
   73  N  5 XY    0.000252  -0.000025   0.000079   0.000219   0.000347
   74  N  5 XZ   -0.000000   0.000000   0.000000   0.000000  -0.000000
   75  N  5 YZ    0.000000   0.000000   0.000000   0.000000   0.000000
   76  C  6  S    0.995877   0.000351   0.000048   0.000055  -0.000695
   77  C  6  S    0.025782  -0.000458  -0.000108  -0.000392   0.001840
   78  C  6  X    0.000620  -0.000139   0.000033  -0.000001   0.001026
   79  C  6  Y   -0.000078  -0.000134  -0.000032   0.000024  -0.000195
   80  C  6  Z    0.000001  -0.000000   0.000000   0.000000   0.000001
   81  C  6  S   -0.002644  -0.000792   0.000851   0.000748   0.004692
   82  C  6  X   -0.004076   0.002488   0.002373   0.003925  -0.000442
   83  C  6  Y    0.001043  -0.003029  -0.000243   0.001074  -0.000260
   84  C  6  Z    0.000001  -0.000000   0.000000  -0.000001   0.000002
   85  C  6 XX   -0.000416  -0.000158   0.000003   0.000061   0.000459
   86  C  6 YY   -0.001091  -0.000048   0.000016   0.000084   0.000407
   87  C  6 ZZ   -0.002281  -0.000201  -0.000041  -0.000122  -0.000051
   88  C  6 XY   -0.000156   0.000021  -0.000019  -0.000051  -0.000012
   89  C  6 XZ   -0.000000   0.000000   0.000000   0.000000  -0.000000
   90  C  6 YZ    0.000000  -0.000000   0.000000   0.000000  -0.000000
   91  N  7  S   -0.000243  -0.000251   0.000078   0.000063  -0.001644
   92  N  7  S    0.000277   0.000242   0.000180   0.000257   0.003758
   93  N  7  X   -0.000085   0.000193  -0.000019  -0.000012   0.001655
   94  N  7  Y   -0.000039   0.000091   0.000001  -0.000014  -0.001087
   95  N  7  Z    0.000000   0.000000   0.000000  -0.000000  -0.000000
   96  N  7  S    0.000450   0.001485  -0.003949  -0.003010   0.006113
   97  N  7  X    0.001124  -0.002779  -0.000681   0.000661   0.002941
   98  N  7  Y    0.001036  -0.001302   0.001048   0.001461   0.002442
   99  N  7  Z   -0.000000  -0.000001  -0.000001   0.000002   0.000003
  100  N  7 XX   -0.000449  -0.000879   0.000231   0.000111   0.000345
  101  N  7 YY   -0.000418  -0.000145   0.000222   0.000076   0.000111
  102  N  7 ZZ    0.000069   0.000045   0.000073   0.000113   0.000168
  103  N  7 XY   -0.000354   0.000078  -0.000036  -0.000046  -0.000239
  104  N  7 XZ   -0.000000  -0.000001  -0.000000  -0.000000   0.000000
  105  N  7 YZ   -0.000000  -0.000000   0.000000  -0.000000  -0.000000
  106  O  8  S   -0.000194  -0.000115  -0.000070  -0.000105  -0.000147
  107  O  8  S    0.000967  -0.000506  -0.000310  -0.000464   0.000783
  108  O  8  X    0.000339  -0.000000  -0.000025  -0.000023   0.000202
  109  O  8  Y   -0.000071  -0.000016   0.000003   0.000006  -0.000044
  110  O  8  Z   -0.000000   0.000000   0.000000   0.000000  -0.000000
  111  O  8  S   -0.005411   0.003490   0.002080   0.003252  -0.001775
  112  O  8  X   -0.002266   0.000939   0.000447   0.000596  -0.000686
  113  O  8  Y    0.000461   0.000216  -0.000130  -0.000431   0.000214
  114  O  8  Z    0.000003  -0.000002  -0.000001  -0.000001   0.000000
  115  O  8 XX    0.000300  -0.000217  -0.000178  -0.000310   0.000041
  116  O  8 YY    0.000425  -0.000373  -0.000201  -0.000292   0.000203
  117  O  8 ZZ    0.000582  -0.000298  -0.000189  -0.000255   0.000178
  118  O  8 XY    0.000035   0.000013  -0.000013  -0.000043   0.000059
  119  O  8 XZ    0.000001  -0.000000  -0.000000  -0.000000   0.000000
  120  O  8 YZ   -0.000000  -0.000000   0.000000   0.000000  -0.000000
  121  O  9  S   -0.000123  -0.000163  -0.000074  -0.000038  -0.005268
  122  O  9  S   -0.000546   0.001136  -0.000406  -0.000157   0.012070
  123  O  9  X    0.000004  -0.000241  -0.000001   0.000023  -0.001702
  124  O  9  Y   -0.000006  -0.000223   0.000018   0.000022  -0.005388
  125  O  9  Z   -0.000000   0.000000  -0.000000  -0.000000   0.000002
  126  O  9  S    0.003893  -0.006572   0.002612   0.000958   0.004338
  127  O  9  X   -0.000728   0.002159  -0.000353  -0.000114   0.000218
  128  O  9  Y   -0.000525   0.001493  -0.000316  -0.000138  -0.000580
  129  O  9  Z    0.000002  -0.000003   0.000001   0.000000  -0.000002
  130  O  9 XX   -0.000309   0.000308  -0.000202  -0.000133   0.000113
  131  O  9 YY   -0.000341   0.000537  -0.000153  -0.000106   0.000977
  132  O  9 ZZ   -0.000305   0.000709  -0.000264  -0.000092  -0.000052
  133  O  9 XY    0.000064  -0.000154   0.000020  -0.000029   0.000014
  134  O  9 XZ   -0.000000   0.000001  -0.000000   0.000000  -0.000000
  135  O  9 YZ   -0.000000   0.000000  -0.000000   0.000000  -0.000000
  136  H 10  S    0.000204  -0.000020   0.000113  -0.000131   0.002283
  137  H 10  S    0.001347   0.000301   0.001530   0.001700  -0.000443
  138  H 11  S   -0.000065  -0.000018  -0.000107  -0.000252  -0.000202
  139  H 11  S   -0.000091  -0.000123  -0.000082  -0.000415  -0.000590
  140  H 12  S   -0.000103   0.000005  -0.000041  -0.000055  -0.000011
  141  H 12  S    0.000039   0.000064   0.000118  -0.000109  -0.000540

                     11         12         13         14         15
                   -1.4260    -1.3994    -1.2986    -1.2329    -1.0757
                     A          A          A          A          A   
    1  C  1  S   -0.014871  -0.011806  -0.034156   0.003143  -0.144226
    2  C  1  S    0.027292   0.024485   0.062040  -0.006330   0.285496
    3  C  1  X   -0.018874  -0.007751  -0.046625   0.006946  -0.109855
    4  C  1  Y    0.013607   0.030189  -0.014570   0.029359  -0.029025
    5  C  1  Z    0.000004   0.000007   0.000007   0.000003   0.000044
    6  C  1  S    0.053190  -0.012147   0.086024  -0.002720   0.199006
    7  C  1  X   -0.025417   0.010611  -0.051443  -0.009505  -0.062045
    8  C  1  Y    0.000743   0.001669   0.005835  -0.015529   0.025365
    9  C  1  Z    0.000000  -0.000022   0.000006  -0.000003   0.000027
   10  C  1 XX   -0.000485  -0.002811   0.000917  -0.000953  -0.002015
   11  C  1 YY    0.005005   0.007928   0.001465   0.000969   0.011719
   12  C  1 ZZ   -0.001333  -0.000778  -0.003353   0.000035  -0.010212
   13  C  1 XY    0.000687  -0.000221   0.003184  -0.004949   0.007207
   14  C  1 XZ   -0.000000   0.000001  -0.000001  -0.000001  -0.000004
   15  C  1 YZ    0.000002   0.000002   0.000001   0.000001   0.000006
   16  C  2  S   -0.021624   0.003664  -0.078556   0.052108  -0.112543
   17  C  2  S    0.046200  -0.006731   0.153132  -0.103383   0.224008
   18  C  2  X   -0.022514   0.009786  -0.067953   0.062049   0.110899
   19  C  2  Y    0.015708   0.001521   0.039456  -0.008179   0.081588
   20  C  2  Z   -0.000003   0.000001  -0.000005   0.000002   0.000005
   21  C  2  S   -0.022952   0.004721   0.008884  -0.053223   0.141948
   22  C  2  X    0.004452   0.002251   0.015816  -0.013633   0.039478
   23  C  2  Y   -0.035140   0.003221  -0.033413   0.007181  -0.012662
   24  C  2  Z    0.000006   0.000001   0.000008  -0.000003   0.000000
   25  C  2 XX    0.003274  -0.002148   0.014023  -0.011865  -0.001482
   26  C  2 YY   -0.000211   0.000462   0.000455   0.001326   0.013077
   27  C  2 ZZ   -0.001643   0.000742  -0.009190   0.005937  -0.008944
   28  C  2 XY   -0.002065   0.000679  -0.004306   0.003435   0.011105
   29  C  2 XZ    0.000001   0.000000   0.000001  -0.000001  -0.000001
   30  C  2 YZ   -0.000000  -0.000000  -0.000001   0.000001  -0.000002
   31  C  3  S   -0.062740  -0.107387  -0.008846  -0.027815  -0.049471
   32  C  3  S    0.127085   0.208195   0.020961   0.060010   0.106953
   33  C  3  X    0.007927   0.082239  -0.076185  -0.143047  -0.004650
   34  C  3  Y    0.045367   0.118807  -0.056564  -0.042094  -0.129951
   35  C  3  Z   -0.000053  -0.000098   0.000006  -0.000007  -0.000009
   36  C  3  S    0.006388   0.047850  -0.032901   0.014223   0.036118
   37  C  3  X    0.013332  -0.019152   0.028076   0.029253  -0.005075
   38  C  3  Y    0.005372  -0.042613   0.019551  -0.004266  -0.015158
   39  C  3  Z    0.000021   0.000030   0.000015   0.000005   0.000009
   40  C  3 XX    0.005381   0.002275   0.006939   0.017195  -0.003695
   41  C  3 YY    0.003325   0.009560  -0.003206  -0.008982   0.011492
   42  C  3 ZZ   -0.008803  -0.017108  -0.000092  -0.002429  -0.003819
   43  C  3 XY    0.009498   0.021560  -0.007436  -0.011175  -0.006922
   44  C  3 XZ   -0.000004  -0.000015   0.000009   0.000015   0.000002
   45  C  3 YZ   -0.000009  -0.000019   0.000007   0.000007   0.000009
   46  F  4  S    0.010017   0.012472   0.009298  -0.003331   0.045425
   47  F  4  S   -0.024109  -0.027803  -0.027412   0.007409  -0.112828
   48  F  4  X   -0.002068  -0.002519  -0.008865   0.003444  -0.110286
   49  F  4  Y    0.002470   0.006213  -0.002297   0.001145   0.009291
   50  F  4  Z    0.000001   0.000001   0.000002  -0.000000   0.000024
   51  F  4  S   -0.018521  -0.032294  -0.004648   0.011028  -0.109736
   52  F  4  X   -0.000189  -0.000718  -0.007225   0.001243  -0.072042
   53  F  4  Y    0.001606   0.003278  -0.000261  -0.000028   0.005849
   54  F  4  Z   -0.000000   0.000004   0.000001  -0.000000   0.000012
   55  F  4 XX   -0.001477  -0.000417  -0.002166  -0.000084   0.005635
   56  F  4 YY   -0.001004  -0.000090  -0.003864  -0.000066  -0.008756
   57  F  4 ZZ   -0.001065  -0.000732  -0.003246   0.000509  -0.009071
   58  F  4 XY   -0.000151  -0.000483  -0.000047  -0.000202  -0.001981
   59  F  4 XZ    0.000000  -0.000001  -0.000000   0.000000  -0.000003
   60  F  4 YZ   -0.000000  -0.000000  -0.000000  -0.000000   0.000000
   61  N  5  S   -0.060736   0.023215  -0.136140   0.105815   0.060205
   62  N  5  S    0.122929  -0.048909   0.276444  -0.220532  -0.128952
   63  N  5  X   -0.008677   0.011096   0.042950  -0.012389   0.106560
   64  N  5  Y    0.035740  -0.013087   0.017748   0.021410  -0.038223
   65  N  5  Z   -0.000012   0.000006  -0.000019   0.000010   0.000031
   66  N  5  S    0.139818  -0.036851   0.334509  -0.243897  -0.142479
   67  N  5  X    0.004294   0.006922   0.041338  -0.004716   0.059675
   68  N  5  Y    0.029107  -0.005053   0.028240   0.005086  -0.014575
   69  N  5  Z   -0.000002  -0.000008  -0.000023   0.000015   0.000016
   70  N  5 XX    0.004568  -0.002021   0.010489  -0.011438   0.005790
   71  N  5 YY    0.008534  -0.003862   0.007950  -0.004450  -0.012011
   72  N  5 ZZ   -0.004470   0.001360  -0.009974   0.006130   0.002207
   73  N  5 XY   -0.003328   0.001898   0.003171  -0.001688  -0.002438
   74  N  5 XZ    0.000003  -0.000002  -0.000000  -0.000002  -0.000002
   75  N  5 YZ   -0.000006   0.000001  -0.000010   0.000005   0.000008
   76  C  6  S   -0.119629   0.056129  -0.015668  -0.012863   0.044022
   77  C  6  S    0.241032  -0.108946   0.037325   0.028347  -0.095996
   78  C  6  X   -0.082760   0.082797   0.183915   0.080442  -0.083072
   79  C  6  Y    0.020584  -0.002147  -0.070604   0.133745   0.055937
   80  C  6  Z    0.000106  -0.000054  -0.000012   0.000002  -0.000020
   81  C  6  S    0.018698  -0.015034  -0.024849  -0.000397  -0.033472
   82  C  6  X    0.003343  -0.025805  -0.040536  -0.011428  -0.022255
   83  C  6  Y    0.001547   0.008344   0.012421  -0.013424  -0.002865
   84  C  6  Z   -0.000041   0.000018  -0.000011  -0.000010   0.000008
   85  C  6 XX    0.020829  -0.010727  -0.013514   0.005613   0.007678
   86  C  6 YY   -0.006019   0.005474   0.021183  -0.002462  -0.014953
   87  C  6 ZZ   -0.018458   0.009694  -0.000204  -0.001248   0.004674
   88  C  6 XY   -0.006284   0.006931   0.003697   0.021832  -0.001675
   89  C  6 XZ   -0.000018   0.000014   0.000025   0.000008  -0.000009
   90  C  6 YZ    0.000003  -0.000001  -0.000009   0.000012   0.000006
   91  N  7  S   -0.072750  -0.021410  -0.070461  -0.160840   0.024740
   92  N  7  S    0.148297   0.044888   0.139259   0.331247  -0.053486
   93  N  7  X   -0.010374   0.048940   0.006521   0.003518   0.067355
   94  N  7  Y   -0.024781   0.013254  -0.033522  -0.006061  -0.001676
   95  N  7  Z   -0.000002   0.000008  -0.000002   0.000004   0.000028
   96  N  7  S    0.158750   0.039250   0.197173   0.395724  -0.056201
   97  N  7  X    0.000461   0.028565   0.017893   0.009030   0.024729
   98  N  7  Y   -0.021580   0.010037  -0.037828  -0.016695  -0.002700
   99  N  7  Z    0.000010  -0.000012   0.000003   0.000010   0.000004
  100  N  7 XX    0.011176   0.006052   0.000745   0.009688   0.002357
  101  N  7 YY    0.005738  -0.000370   0.005874   0.011746  -0.006101
  102  N  7 ZZ   -0.005016  -0.001155  -0.006011  -0.010048   0.000847
  103  N  7 XY    0.004387  -0.002408  -0.000441  -0.002852  -0.004948
  104  N  7 XZ    0.000008   0.000002   0.000006   0.000014  -0.000000
  105  N  7 YZ    0.000002   0.000002   0.000003   0.000004  -0.000003
  106  O  8  S   -0.138681   0.089082   0.106266   0.021993  -0.039161
  107  O  8  S    0.302378  -0.190772  -0.228048  -0.047094   0.087673
  108  O  8  X    0.102992  -0.061275  -0.053106  -0.002305  -0.005170
  109  O  8  Y   -0.021725   0.014970   0.006911   0.025009   0.009918
  110  O  8  Z   -0.000049   0.000031   0.000039   0.000007  -0.000010
  111  O  8  S    0.279506  -0.199602  -0.249191  -0.054047   0.089040
  112  O  8  X    0.043881  -0.029552  -0.024409  -0.000204  -0.004200
  113  O  8  Y   -0.009411   0.007305   0.002146   0.016236   0.006452
  114  O  8  Z   -0.000014   0.000020   0.000030   0.000008  -0.000000
  115  O  8 XX    0.013912  -0.007071  -0.005746   0.000872   0.000644
  116  O  8 YY   -0.002067   0.002298   0.002061  -0.001234   0.000641
  117  O  8 ZZ   -0.002266   0.002656   0.003416   0.000809  -0.000242
  118  O  8 XY   -0.003986   0.002883   0.001032   0.004263   0.001208
  119  O  8 XZ   -0.000009   0.000008   0.000011   0.000001  -0.000002
  120  O  8 YZ    0.000002  -0.000002  -0.000001  -0.000005  -0.000001
  121  O  9  S   -0.071690  -0.167136   0.049120   0.060364   0.030281
  122  O  9  S    0.158482   0.361181  -0.105405  -0.130334  -0.068355
  123  O  9  X   -0.036400  -0.075528   0.012562   0.001917   0.008123
  124  O  9  Y   -0.040616  -0.091059   0.021536   0.024708  -0.013671
  125  O  9  Z    0.000025   0.000057  -0.000017  -0.000020  -0.000008
  126  O  9  S    0.134685   0.363601  -0.118222  -0.146890  -0.069537
  127  O  9  X   -0.015998  -0.036549   0.004386  -0.002133   0.001159
  128  O  9  Y   -0.014405  -0.040156   0.010762   0.015538  -0.008576
  129  O  9  Z    0.000003   0.000034  -0.000018  -0.000016  -0.000002
  130  O  9 XX    0.003443   0.003545   0.000328   0.001927  -0.002602
  131  O  9 YY    0.003828   0.006792  -0.001831  -0.003388   0.001261
  132  O  9 ZZ   -0.000662  -0.004203   0.001648   0.001826   0.000208
  133  O  9 XY    0.005202   0.011141  -0.001808  -0.001329  -0.000130
  134  O  9 XZ   -0.000003  -0.000009   0.000003   0.000001   0.000003
  135  O  9 YZ   -0.000003  -0.000009   0.000005   0.000006   0.000001
  136  H 10  S    0.004178  -0.001435   0.024875  -0.021753   0.054819
  137  H 10  S   -0.013222  -0.000447  -0.010049   0.003416  -0.005653
  138  H 11  S    0.026580  -0.011891   0.063796  -0.064914  -0.056697
  139  H 11  S    0.001189   0.000001   0.000758  -0.000241   0.002018
  140  H 12  S    0.032368   0.010388   0.028320   0.090731  -0.025694
  141  H 12  S    0.000003   0.000003   0.000048  -0.000858  -0.000322

                     16         17         18         19         20
                   -0.9262    -0.8946    -0.8076    -0.7847    -0.7077
                     A          A          A          A          A   
    1  C  1  S    0.054308   0.039360   0.056693   0.004432  -0.000010
    2  C  1  S   -0.111607  -0.076716  -0.111802  -0.009021   0.000020
    3  C  1  X   -0.031179   0.006123  -0.189261   0.063944  -0.000512
    4  C  1  Y   -0.203012   0.100170   0.043608   0.230787   0.000119
    5  C  1  Z   -0.000047   0.000021   0.000022   0.000047   0.181865
    6  C  1  S   -0.101250  -0.094683  -0.093238   0.021410   0.000062
    7  C  1  X    0.025352   0.013971   0.022477   0.005295   0.000003
    8  C  1  Y   -0.010856  -0.015685  -0.001428   0.067401   0.000012
    9  C  1  Z   -0.000014  -0.000020  -0.000012   0.000028   0.109621
   10  C  1 XX    0.000408  -0.002898  -0.015577   0.002089  -0.000080
   11  C  1 YY   -0.008680   0.002158   0.007774   0.002148   0.000064
   12  C  1 ZZ    0.004912   0.003231   0.007139  -0.000526   0.000013
   13  C  1 XY    0.009356  -0.006362   0.006287   0.000055   0.000012
   14  C  1 XZ    0.000003  -0.000001   0.000002   0.000000   0.013107
   15  C  1 YZ   -0.000013   0.000003   0.000001   0.000009  -0.004278
   16  C  2  S   -0.110293   0.010386  -0.029578   0.004868  -0.000059
   17  C  2  S    0.222566  -0.020456   0.060289  -0.005562   0.000108
   18  C  2  X   -0.024566  -0.118270  -0.085231  -0.221609   0.000637
   19  C  2  Y   -0.071900  -0.068690   0.064971  -0.057150  -0.000403
   20  C  2  Z    0.000004   0.000017  -0.000005   0.000022   0.082158
   21  C  2  S    0.203012  -0.026668   0.051996  -0.045191   0.000350
   22  C  2  X    0.033289  -0.034489  -0.028433  -0.051329   0.000125
   23  C  2  Y   -0.013987   0.003360   0.035470  -0.013305  -0.000115
   24  C  2  Z    0.000004   0.000009  -0.000001  -0.000004   0.033085
   25  C  2 XX    0.008743   0.007234  -0.001504   0.011032  -0.000060
   26  C  2 YY    0.008088  -0.004508   0.003086  -0.007079   0.000061
   27  C  2 ZZ   -0.010952  -0.000488  -0.003938  -0.001406   0.000003
   28  C  2 XY   -0.002988  -0.002862  -0.009655  -0.009275   0.000034
   29  C  2 XZ   -0.000000  -0.000001   0.000001   0.000000   0.003348
   30  C  2 YZ   -0.000003   0.000003  -0.000000   0.000002   0.006828
   31  C  3  S    0.080841  -0.073915  -0.029034  -0.007033  -0.000109
   32  C  3  S   -0.177430   0.160322   0.061287   0.015744   0.000236
   33  C  3  X   -0.012240  -0.150172  -0.070744   0.168887   0.000268
   34  C  3  Y    0.169842   0.012049  -0.016274  -0.145480  -0.000287
   35  C  3  Z    0.000027  -0.000024  -0.000014   0.000002   0.082739
   36  C  3  S   -0.120951   0.099694   0.041267   0.037616   0.000319
   37  C  3  X   -0.026114  -0.002022  -0.032547   0.034785  -0.000017
   38  C  3  Y    0.052862  -0.056085  -0.024121  -0.017793  -0.000112
   39  C  3  Z    0.000005   0.000007   0.000009  -0.000005   0.027814
   40  C  3 XX    0.000699   0.011740   0.002563  -0.007732  -0.000015
   41  C  3 YY   -0.008704  -0.005711  -0.003136   0.006233   0.000018
   42  C  3 ZZ    0.006281  -0.007659  -0.003183   0.000926  -0.000015
   43  C  3 XY    0.005860  -0.011225   0.009687  -0.000888   0.000019
   44  C  3 XZ    0.000001   0.000010   0.000006  -0.000011   0.000993
   45  C  3 YZ   -0.000012  -0.000000   0.000001   0.000008  -0.002692
   46  F  4  S   -0.017565  -0.016545  -0.044255   0.001359  -0.000052
   47  F  4  S    0.042357   0.039983   0.106891  -0.003843   0.000116
   48  F  4  X    0.063940   0.092345   0.369192   0.040838   0.000978
   49  F  4  Y   -0.102002   0.018024  -0.070039   0.260320  -0.000422
   50  F  4  Z   -0.000031  -0.000006  -0.000058   0.000058   0.576921
   51  F  4  S    0.050567   0.051092   0.136816  -0.002922   0.000176
   52  F  4  X    0.042297   0.060483   0.249831   0.028307   0.000688
   53  F  4  Y   -0.063921   0.011606  -0.048128   0.174391  -0.000297
   54  F  4  Z   -0.000018  -0.000001  -0.000038   0.000037   0.398567
   55  F  4 XX   -0.002851  -0.006521  -0.021381  -0.005456  -0.000059
   56  F  4 YY    0.000936   0.003328   0.008693   0.004466   0.000011
   57  F  4 ZZ    0.003159   0.003763   0.010072  -0.000424   0.000020
   58  F  4 XY    0.007715  -0.000857   0.006779  -0.013309   0.000025
   59  F  4 XZ    0.000003   0.000001   0.000007  -0.000002  -0.024136
   60  F  4 YZ   -0.000002   0.000000  -0.000001   0.000004   0.004741
   61  N  5  S    0.015042  -0.038718   0.021764  -0.008162   0.000061
   62  N  5  S   -0.031252   0.083409  -0.049815   0.020093  -0.000123
   63  N  5  X    0.162645  -0.001040   0.200396   0.181594  -0.000850
   64  N  5  Y   -0.132280  -0.210134   0.137868  -0.168839  -0.000473
   65  N  5  Z    0.000046   0.000073  -0.000027   0.000081   0.066052
   66  N  5  S   -0.058244   0.118456  -0.071695   0.009148  -0.000276
   67  N  5  X    0.097496  -0.017485   0.119752   0.104672  -0.000577
   68  N  5  Y   -0.075401  -0.108289   0.100340  -0.099312  -0.000367
   69  N  5  Z    0.000034   0.000025  -0.000020   0.000058   0.041056
   70  N  5 XX    0.010123   0.009644  -0.000296   0.006645   0.000002
   71  N  5 YY   -0.009398  -0.003953  -0.006865  -0.005985   0.000030
   72  N  5 ZZ    0.000802  -0.001553  -0.000372   0.000399   0.000000
   73  N  5 XY   -0.001452   0.007920  -0.010911   0.002439   0.000026
   74  N  5 XZ   -0.000005  -0.000002   0.000000  -0.000005   0.002445
   75  N  5 YZ    0.000010   0.000007  -0.000001   0.000010   0.001636
   76  C  6  S    0.032380   0.101795  -0.009062   0.010683  -0.000118
   77  C  6  S   -0.074852  -0.229723   0.019231  -0.025218   0.000289
   78  C  6  X   -0.021316  -0.154794   0.055192   0.043518  -0.000304
   79  C  6  Y    0.154702  -0.044898  -0.015017   0.227667   0.000295
   80  C  6  Z   -0.000028  -0.000038   0.000010  -0.000019   0.049585
   81  C  6  S   -0.026961  -0.090327  -0.012371  -0.016518   0.000166
   82  C  6  X   -0.009734  -0.039680  -0.009975  -0.003167   0.000086
   83  C  6  Y   -0.019413   0.023742   0.004698   0.010000  -0.000005
   84  C  6  Z    0.000010   0.000018  -0.000009   0.000002   0.016790
   85  C  6 XX    0.001757  -0.000112   0.010420   0.004383  -0.000012
   86  C  6 YY   -0.005984  -0.008714  -0.010177  -0.004785  -0.000007
   87  C  6 ZZ    0.003132   0.010505  -0.001042   0.000933  -0.000006
   88  C  6 XY    0.007431  -0.006280  -0.006869   0.009033   0.000044
   89  C  6 XZ   -0.000003  -0.000013   0.000006   0.000002   0.002014
   90  C  6 YZ    0.000013  -0.000001   0.000000   0.000016  -0.000328
   91  N  7  S   -0.040683  -0.018689   0.023284  -0.000302   0.000019
   92  N  7  S    0.087593   0.039226  -0.054415  -0.001575  -0.000038
   93  N  7  X   -0.106785   0.264298   0.106576  -0.195204  -0.000295
   94  N  7  Y    0.108368   0.156182  -0.174729  -0.058577  -0.000190
   95  N  7  Z   -0.000030   0.000144   0.000024  -0.000101   0.069361
   96  N  7  S    0.122021   0.062238  -0.070533   0.014030  -0.000136
   97  N  7  X   -0.077548   0.158232   0.065749  -0.122441  -0.000217
   98  N  7  Y    0.055633   0.089840  -0.121895  -0.039058  -0.000097
   99  N  7  Z   -0.000038   0.000092   0.000003  -0.000070   0.046336
  100  N  7 XX   -0.003199   0.008192   0.004613  -0.002578   0.000008
  101  N  7 YY    0.008758  -0.005004  -0.011800   0.002250  -0.000008
  102  N  7 ZZ   -0.001766  -0.001055  -0.000648  -0.000602   0.000001
  103  N  7 XY    0.000378  -0.016207   0.005007   0.003507   0.000010
  104  N  7 XZ   -0.000000   0.000003   0.000004  -0.000001   0.001620
  105  N  7 YZ    0.000004  -0.000009   0.000000   0.000005  -0.002412
  106  O  8  S   -0.014124  -0.049199  -0.017360  -0.006683   0.000163
  107  O  8  S    0.031314   0.113816   0.037483   0.015450  -0.000378
  108  O  8  X   -0.003627  -0.068993  -0.031260   0.007066   0.000648
  109  O  8  Y    0.053602  -0.016133   0.008048   0.114206  -0.000095
  110  O  8  Z   -0.000005   0.000009   0.000021   0.000000   0.031560
  111  O  8  S    0.040230   0.123574   0.058204   0.020773  -0.000556
  112  O  8  X   -0.001257  -0.043554  -0.011251   0.004894   0.000376
  113  O  8  Y    0.033050  -0.010704   0.002639   0.069607  -0.000049
  114  O  8  Z   -0.000005   0.000015   0.000017  -0.000000   0.019656
  115  O  8 XX    0.000926  -0.004531  -0.002854   0.002336   0.000052
  116  O  8 YY   -0.001325   0.004420  -0.000360  -0.003042  -0.000016
  117  O  8 ZZ   -0.000300   0.001039  -0.000018   0.000371  -0.000017
  118  O  8 XY    0.005007  -0.000855   0.000455   0.009576  -0.000007
  119  O  8 XZ   -0.000003   0.000001   0.000006  -0.000002   0.003312
  120  O  8 YZ   -0.000004   0.000002  -0.000001  -0.000008  -0.000702
  121  O  9  S   -0.040199   0.047650   0.000005   0.005113   0.000030
  122  O  9  S    0.091093  -0.110135  -0.005370  -0.012316  -0.000071
  123  O  9  X   -0.007460  -0.073793  -0.012255   0.087762   0.000125
  124  O  9  Y    0.058246  -0.018569   0.004836  -0.081170  -0.000219
  125  O  9  Z    0.000000   0.000012  -0.000007   0.000004   0.058669
  126  O  9  S    0.115515  -0.123985   0.025021  -0.025150  -0.000096
  127  O  9  X    0.000583  -0.044437  -0.011489   0.053501   0.000076
  128  O  9  Y    0.027619  -0.008189  -0.003590  -0.047641  -0.000125
  129  O  9  Z   -0.000000   0.000016   0.000005  -0.000005   0.039255
  130  O  9 XX    0.002995   0.003626  -0.000575  -0.008577  -0.000018
  131  O  9 YY   -0.004203  -0.002772  -0.003793   0.009538   0.000013
  132  O  9 ZZ    0.000414  -0.001333  -0.001465  -0.001126   0.000006
  133  O  9 XY   -0.001418   0.004763   0.000891  -0.002184  -0.000001
  134  O  9 XZ   -0.000002  -0.000006   0.000000   0.000006  -0.003594
  135  O  9 YZ   -0.000000   0.000000   0.000002  -0.000004  -0.005218
  136  H 10  S    0.109853   0.008129  -0.012061  -0.004065   0.000359
  137  H 10  S    0.031426   0.013816   0.003486  -0.001479   0.000208
  138  H 11  S   -0.016239   0.100897  -0.135628   0.008195   0.000456
  139  H 11  S    0.000027   0.015652  -0.023330  -0.000530   0.000107
  140  H 12  S    0.090543   0.043060  -0.117581   0.002942  -0.000069
  141  H 12  S    0.011977   0.007877  -0.018221   0.002540  -0.000042

                     21         22         23         24         25
                   -0.7036    -0.6931    -0.6773    -0.6571    -0.6484
                     A          A          A          A          A   
    1  C  1  S    0.000247  -0.043344   0.025440  -0.002713   0.000022
    2  C  1  S   -0.003684   0.091291  -0.051845   0.000180  -0.000035
    3  C  1  X    0.135521  -0.216295   0.067931  -0.007168   0.000089
    4  C  1  Y   -0.048689   0.006782   0.016948   0.000343  -0.000022
    5  C  1  Z    0.000521  -0.000036  -0.000014   0.000010   0.032827
    6  C  1  S    0.002288   0.085781  -0.037591   0.062454  -0.000141
    7  C  1  X   -0.011561  -0.016207   0.015982  -0.035698   0.000095
    8  C  1  Y   -0.017005   0.024183   0.006226   0.033743  -0.000017
    9  C  1  Z    0.000339  -0.000030  -0.000012   0.000021   0.011915
   10  C  1 XX    0.023283  -0.010751   0.002603   0.003547   0.000008
   11  C  1 YY   -0.019767   0.006337  -0.000110  -0.005656  -0.000009
   12  C  1 ZZ   -0.003786   0.001103   0.001300  -0.000428   0.000006
   13  C  1 XY   -0.002538   0.015348   0.009673   0.012071  -0.000003
[...]

                  2.000000   2.000000   2.000000   2.000000   2.000000

    1             0.075511   0.216238   0.033900   0.004196   0.010031
    2             0.305591   0.363249   0.171003   0.119079   0.063826
    3             0.071767   0.076025   0.102210   0.183148   0.125324
    4             0.319565   0.308915   0.286609   0.746339   0.199385
    5             0.473160   0.023753   0.242166   0.050726   0.387580
    6             0.090853   0.050669   0.137075   0.028630   0.422047
    7             0.074487   0.579790   0.147429   0.058396   0.446999
    8             0.274013   0.017595   0.271639   0.046969   0.275501
    9             0.053439   0.033804   0.396329   0.700228   0.069307
   10             0.130674   0.124599   0.083709   0.061062   0.000000
   11             0.113026   0.001132   0.104866   0.000875   0.000000
   12             0.017914   0.204233   0.023065   0.000352   0.000000

                     26         27         28         29         30

                  2.000000   2.000000   2.000000   2.000000   2.000000

    1             0.005811   0.183597   0.016728   0.130979   0.069879
    2             0.145047   0.246132   0.013413   0.415137   0.058445
    3             0.085055   0.245072   0.496620   0.004003   0.049848
    4             0.049779   0.439951   0.031132   0.061258   0.009550
    5             0.125437   0.090576   0.248329   0.630759   0.099487
    6             0.267003   0.061677   0.118985   0.113130   0.076071
    7             0.066421   0.092654   0.122413   0.145396   0.079575
    8             0.982232   0.069191   0.204006   0.495668   1.063637
    9             0.203480   0.392019   0.748374   0.003671   0.433283
   10             0.056579   0.089155   0.000000   0.000000   0.031015
   11             0.003313   0.044991   0.000000   0.000000   0.007367
   12             0.009841   0.044985   0.000000  -0.000000   0.021841

                     31         32         33

                  2.000000   2.000000   2.000000

    1             0.120646   0.000150   0.751411
    2             0.019122   0.000263   0.359055
    3             0.071355   0.027900   0.018417
    4             0.013921   0.000296   0.112922
    5             0.025986   0.004952   0.432250
    6             0.040825   0.021135   0.017605
    7             0.157618   0.981317   0.003559
    8             0.510587   0.441481   0.154326
    9             1.033901   0.522505   0.150454
   10             0.001145   0.000000   0.000000
   11             0.002250   0.000000   0.000000
   12             0.002645   0.000000   0.000000

               ----- POPULATIONS IN EACH AO -----
                             MULLIKEN      LOWDIN
              1  C  1  S      1.99668     1.97617
              2  C  1  S      0.64480     0.34284
              3  C  1  X      0.54516     0.48736
              4  C  1  Y      0.74239     0.65088
              5  C  1  Z      0.66902     0.61084
              6  C  1  S      0.44488     0.26444
              7  C  1  X      0.07060     0.21681
              8  C  1  Y      0.07130     0.30427
              9  C  1  Z      0.48071     0.50337
             10  C  1 XX      0.02914     0.19547
             11  C  1 YY      0.02344     0.18061
             12  C  1 ZZ     -0.01825     0.09892
             13  C  1 XY      0.02535     0.05464
             14  C  1 XZ      0.01706     0.03522
             15  C  1 YZ      0.00379     0.00698
             16  C  2  S      1.99656     1.97839
             17  C  2  S      0.68063     0.35464
             18  C  2  X      0.68116     0.60240
             19  C  2  Y      0.78739     0.69663
             20  C  2  Z      0.49356     0.45051
             21  C  2  S      0.40550     0.29158
             22  C  2  X      0.10158     0.27609
             23  C  2  Y      0.27706     0.38953
             24  C  2  Z      0.38233     0.43619
             25  C  2 XX      0.02634     0.18771
             26  C  2 YY      0.03358     0.18261
             27  C  2 ZZ     -0.02134     0.09777
             28  C  2 XY      0.01701     0.03120
             29  C  2 XZ      0.01725     0.03562
             30  C  2 YZ      0.00576     0.00772
             31  C  3  S      1.99693     1.97255
             32  C  3  S      0.69636     0.34923
             33  C  3  X      0.66274     0.57960
             34  C  3  Y      0.75610     0.65797
             35  C  3  Z      0.42408     0.37225
             36  C  3  S      0.23215     0.24928
             37  C  3  X     -0.01308     0.26851
             38  C  3  Y      0.05420     0.28514
             39  C  3  Z      0.25381     0.34139
             40  C  3 XX      0.04016     0.21264
             41  C  3 YY      0.04510     0.22096
             42  C  3 ZZ     -0.02554     0.08970
             43  C  3 XY      0.02580     0.04959
             44  C  3 XZ      0.02084     0.04082
             45  C  3 YZ      0.01866     0.03493
             46  F  4  S      1.99539     1.97779
             47  F  4  S      0.97622     0.85530
             48  F  4  X      0.91931     0.86649
             49  F  4  Y      1.18203     1.15021
             50  F  4  Z      1.19308     1.16490
             51  F  4  S      0.87584     0.49892
             52  F  4  X      0.62573     0.63594
             53  F  4  Y      0.75301     0.75991
             54  F  4  Z      0.75054     0.76762
             55  F  4 XX      0.04966     0.17355
             56  F  4 YY      0.02891     0.16071
             57  F  4 ZZ      0.02788     0.15960
             58  F  4 XY      0.00427     0.00838
             59  F  4 XZ      0.00432     0.01112
             60  F  4 YZ      0.00014     0.00031
             61  N  5  S      1.99546     1.97645
             62  N  5  S      0.73606     0.48862
             63  N  5  X      0.78018     0.71303
             64  N  5  Y      0.78298     0.72085
             65  N  5  Z      0.96674     0.93583
             66  N  5  S      0.87190     0.33199
             67  N  5  X      0.45343     0.42065
             68  N  5  Y      0.47322     0.43742
             69  N  5  Z      0.75882     0.71796
             70  N  5 XX      0.02673     0.18962
             71  N  5 YY      0.02521     0.18602
             72  N  5 ZZ     -0.01667     0.12604
             73  N  5 XY      0.01520     0.03053
             74  N  5 XZ      0.00416     0.00901
             75  N  5 YZ      0.00230     0.00417
             76  C  6  S      1.99675     1.97191
             77  C  6  S      0.69510     0.34184
             78  C  6  X      0.73041     0.63444
             79  C  6  Y      0.65304     0.56959
             80  C  6  Z      0.43456     0.37875
             81  C  6  S      0.10161     0.23057
             82  C  6  X     -0.06113     0.25302
             83  C  6  Y      0.01973     0.27702
             84  C  6  Z      0.22445     0.33674
             85  C  6 XX      0.04206     0.21837
             86  C  6 YY      0.02060     0.17345
             87  C  6 ZZ     -0.02779     0.08162
             88  C  6 XY      0.05996     0.11919
             89  C  6 XZ      0.03287     0.06332
             90  C  6 YZ      0.01627     0.03240
             91  N  7  S      1.99554     1.97641
             92  N  7  S      0.73924     0.49856
             93  N  7  X      0.77661     0.71221
             94  N  7  Y      0.79249     0.73335
             95  N  7  Z      0.95280     0.92234
             96  N  7  S      0.89748     0.33591
             97  N  7  X      0.43858     0.39603
             98  N  7  Y      0.53042     0.46855
             99  N  7  Z      0.77423     0.72447
            100  N  7 XX      0.02269     0.19044
            101  N  7 YY      0.02968     0.19073
            102  N  7 ZZ     -0.01682     0.13186
            103  N  7 XY      0.01206     0.02300
            104  N  7 XZ      0.00326     0.00692
            105  N  7 YZ      0.00153     0.00207
            106  O  8  S      1.99554     1.97755
            107  O  8  S      0.89711     0.70752
            108  O  8  X      0.87303     0.81472
            109  O  8  Y      1.08584     1.04669
            110  O  8  Z      0.89158     0.85244
            111  O  8  S      0.98258     0.46893
            112  O  8  X      0.48496     0.54938
            113  O  8  Y      0.71791     0.72870
            114  O  8  Z      0.67333     0.68599
            115  O  8 XX      0.01529     0.19593
            116  O  8 YY      0.00210     0.17386
            117  O  8 ZZ     -0.00071     0.17150
            118  O  8 XY      0.00750     0.01213
            119  O  8 XZ      0.01149     0.01298
            120  O  8 YZ      0.00057     0.00071
            121  O  9  S      1.99556     1.97755
            122  O  9  S      0.90025     0.70872
            123  O  9  X      1.01875     0.97401
            124  O  9  Y      0.96986     0.91749
            125  O  9  Z      0.85262     0.81285
            126  O  9  S      0.98882     0.46695
            127  O  9  X      0.63197     0.66088
            128  O  9  Y      0.57335     0.61922
            129  O  9  Z      0.65103     0.66704
            130  O  9 XX      0.00541     0.17986
            131  O  9 YY      0.00846     0.18354
            132  O  9 ZZ     -0.00099     0.17073
            133  O  9 XY      0.01010     0.01765
            134  O  9 XZ      0.00492     0.00565
            135  O  9 YZ      0.00757     0.00855
            136  H 10  S      0.50630     0.46753
            137  H 10  S      0.18517     0.30857
            138  H 11  S      0.46278     0.42897
            139  H 11  S      0.07476     0.22172
            140  H 12  S      0.46238     0.43086
            141  H 12  S      0.08380     0.22660

          ----- MULLIKEN ATOMIC OVERLAP POPULATIONS -----
          (OFF-DIAGONAL ELEMENTS NEED TO BE MULTIPLIED BY 2)

             1           2           3           4           5

    1    4.7563532
    2    0.5803942   4.8606482
    3    0.3808193  -0.0749731   4.1073465
    4    0.2473043  -0.0359372  -0.0251649   9.1980485
    5   -0.0303170   0.2219421  -0.0039984   0.0013781   7.3148998
    6    0.0016981  -0.0398065  -0.0111798   0.0000093   0.3001533
    7   -0.1037012   0.0090594   0.2113495   0.0016022  -0.1228122
    8   -0.0000799   0.0016769   0.0005012   0.0000000  -0.0871841
    9   -0.0695602   0.0032532   0.6093323  -0.0007864  -0.0000439
   10   -0.0212652   0.3740462   0.0023952  -0.0001015  -0.0284008
   11    0.0007945  -0.0151456  -0.0002605  -0.0000097   0.3068023
   12    0.0036133  -0.0007951  -0.0078574  -0.0000154   0.0032993

             6           7           8           9          10

    6    3.7773174
    7    0.2713047   7.5545064
    8    0.6563434  -0.0828926   8.1427512
    9    0.0005989  -0.0858859  -0.0000136   8.1564491
   10    0.0012512  -0.0003507  -0.0000364  -0.0000226   0.3657522
   11   -0.0086638   0.0035468   0.0040187   0.0000018  -0.0017988
   12   -0.0105311   0.2940611   0.0030258   0.0043206   0.0000074

            11          12

   11    0.2483039
   12   -0.0000507   0.2570996

          TOTAL MULLIKEN AND LOWDIN ATOMIC POPULATIONS
       ATOM         MULL.POP.    CHARGE          LOW.POP.     CHARGE
    1 C             5.746053    0.253947         5.928832    0.071168
    2 C             5.884363    0.115637         6.018597   -0.018597
    3 C             5.188310    0.811690         5.724562    0.275438
    4 F             9.386327   -0.386327         9.190756   -0.190756
    5 N             7.875718   -0.875718         7.288180   -0.288180
    6 C             4.938495    1.061505         5.682229    0.317771
    7 N             7.949787   -0.949787         7.312851   -0.312851
    8 O             8.638110   -0.638110         8.399040   -0.399040
    9 O             8.617643   -0.617643         8.370705   -0.370705
   10 H             0.691476    0.308524         0.776104    0.223896
   11 H             0.537539    0.462461         0.650689    0.349311
   12 H             0.546177    0.453823         0.657454    0.342546

          -------------------------------
          BOND ORDER AND VALENCE ANALYSIS     BOND ORDER THRESHOLD=0.050
          -------------------------------

                   BOND                       BOND                       BOND
  ATOM PAIR DIST  ORDER      ATOM PAIR DIST  ORDER      ATOM PAIR DIST  ORDER
    1   2  1.343  1.711        1   3  1.464  1.030        1   4  1.337  0.838
    1   5  2.370  0.062        2   5  1.381  0.950        2  10  1.084  0.894
    3   7  1.408  0.908        3   9  1.218  1.768        5   6  1.392  0.991
    5  11  1.020  0.763        6   7  1.393  0.971        6   8  1.219  1.789
    7  12  1.024  0.763

                       TOTAL       BONDED        FREE
      ATOM            VALENCE     VALENCE     VALENCE
    1 C                 3.664       3.664      -0.000
    2 C                 3.620       3.620       0.000
    3 C                 3.733       3.733       0.000
    4 F                 0.913       0.913      -0.000
    5 N                 2.779       2.779      -0.000
    6 C                 3.752       3.752       0.000
    7 N                 2.678       2.678      -0.000
    8 O                 1.873       1.873       0.000
    9 O                 1.874       1.874      -0.000
   10 H                 0.880       0.880       0.000
   11 H                 0.774       0.774      -0.000
   12 H                 0.785       0.785      -0.000

    **** A SOLVENT MODEL IS IN USE IN THIS RUN ****
 ELECTRICAL PROPERTIES (MOMENTS, DENSITY, FIELD/GRADIENT, AND/OR POTENTIAL)
 ARE COMPUTED USING THE SOLVATED SYSTEM'S DENSITY MATRIX, BUT
 ONLY WITH AO INTEGRAL CONTRIBUTIONS FROM THE QUANTUM SOLUTE.
 THE ONE EXCEPTION IS THE DIPOLE, WHICH IS ALSO PRINTED FOR THE TOTAL SYSTEM.

          ----------------------------
          SOLUTE ELECTROSTATIC MOMENTS
          ----------------------------

 POINT   1           X           Y           Z (BOHR)    CHARGE
                 0.068570    0.024156   -0.000009       -0.00 (A.U.)
         DX          DY          DZ         /D/  (DEBYE)
    -1.651612   -5.222534   -0.000265    5.477471

          ----------------------------
          SYSTEM ELECTROSTATIC MOMENTS
          ----------------------------

 POINT   1           X           Y           Z (BOHR)    CHARGE
                 0.068570    0.024156   -0.000009       -0.00 (A.U.)
         DX          DY          DZ         /D/  (DEBYE)
    -1.651612   -5.222534   -0.000265    5.477471
 INCLUDING PCM SURFACE CHARGES, TOTAL CHARGE=   -0.006921, AND TOTAL DIPOLE IS
         DX          DY          DZ         /D/  (DEBYE)
    -0.403093   -1.078228    0.002380    1.151115
 ...... END OF PROPERTY EVALUATION ......
 STEP CPU TIME =     0.02 TOTAL CPU TIME =       30.3 (    0.5 MIN)
 TOTAL WALL CLOCK TIME=       44.8 SECONDS, CPU UTILIZATION IS  67.56%

 .... DONE WITH PCM CONTRIBUTION TO GRADIENT ....
 STEP CPU TIME =     2.56 TOTAL CPU TIME =       32.9 (    0.5 MIN)
 TOTAL WALL CLOCK TIME=       47.4 SECONDS, CPU UTILIZATION IS  69.31%

 BEGINNING ONE ELECTRON GRADIENT...
 ..... END OF 1-ELECTRON GRADIENT ......
 STEP CPU TIME =     0.05 TOTAL CPU TIME =       32.9 (    0.5 MIN)
 TOTAL WALL CLOCK TIME=       47.5 SECONDS, CPU UTILIZATION IS  69.34%

          ----------------------
          GRADIENT OF THE ENERGY
          ----------------------

 THE MINIMUM MEMORY REQUIRED FOR THIS RUN IS     175976 WORDS.
 USING     907616 WORDS FOR 2E- DERIVATIVE INTEGRAL CONTRIBUTIONS.
 THE COARSE/FINE SCHWARZ SCREENINGS SKIPPED       109202/       67157 BLOCKS.
 THE NUMBER OF GRADIENT INTEGRAL BLOCKS COMPUTED WAS    215643
 ...... END OF 2-ELECTRON GRADIENT ......
 STEP CPU TIME =     4.66 TOTAL CPU TIME =       37.6 (    0.6 MIN)
 TOTAL WALL CLOCK TIME=       52.1 SECONDS, CPU UTILIZATION IS  72.07%

                         ----------------------
                         GRADIENT OF THE ENERGY
                         ----------------------

 UNITS ARE HARTREE/BOHR    E'X               E'Y               E'Z 
    1 C                0.008512844       0.007727475      -0.000060086
    2 C               -0.008074235      -0.011403202       0.000005201
    3 C               -0.002459766      -0.021897047       0.000329008
    4 F                0.007433451      -0.000274686      -0.000018627
    5 N                0.017208986      -0.007606547       0.000091732
    6 C                0.006412616       0.005758125      -0.000368428
    7 N                0.005869668      -0.013196748      -0.000027158
    8 O               -0.044600051       0.006965554       0.000164342
    9 O                0.028779417       0.035861449      -0.000139245
   10 H                0.004280291      -0.009222592       0.000013007
   11 H               -0.016667233      -0.013015825      -0.000006924
   12 H               -0.006695990       0.020304043       0.000017178

                   MAXIMUM GRADIENT =    0.044600051
                       RMS GRADIENT =    0.013606705
  $VIB   
          IVIB=   0 IATOM=   0 ICOORD=   0 E=     -511.3216643608
  8.512844291E-03 7.727475391E-03-6.008588533E-05-8.074235376E-03-1.140320152E-02
  5.201456593E-06-2.459765775E-03-2.189704666E-02 3.290076630E-04 7.433451488E-03
 -2.746858815E-04-1.862703153E-05 1.720898623E-02-7.606546912E-03 9.173162894E-05
  6.412615972E-03 5.758124523E-03-3.684279644E-04 5.869668387E-03-1.319674806E-02
 -2.715844349E-05-4.460005064E-02 6.965554042E-03 1.643423440E-04 2.877941694E-02
  3.586144875E-02-1.392447026E-04 4.280291376E-03-9.222592002E-03 1.300748135E-05
 -1.666723294E-02-1.301582458E-02-6.924307876E-06-6.695989946E-03 2.030404290E-02
  1.717776140E-05
 -1.651611905E+00-5.222534200E+00-2.648047541E-04

..... END OF SINGLE POINT GRADIENT .....
 STEP CPU TIME =     0.00 TOTAL CPU TIME =       37.6 (    0.6 MIN)
 TOTAL WALL CLOCK TIME=       52.1 SECONDS, CPU UTILIZATION IS  72.07%

             ----------------------------------------------
             -------   RESULTS OF SMD CALCULATION   -------
             ----------------------------------------------
 INTERNAL ENERGY IN SOLVENT = <PSI| H(0) |PSI>       =     -511.2964743262 A.U.
 TOTAL ENERGY IN SOLVENT = <PSI| H(0)+V/2 |PSI>      =     -511.3165014145 A.U.
 ELECTROSTATIC INTERACTION <PSI| V/2 |PSI>           =       -0.0200270883 A.U.
 CDS INTERACTION                                     =       -0.0051629462 A.U.
 TOTAL FREE ENERGY IN SOLVENT                        =     -511.3216643608 A.U.

 ELECTROSTATIC INTERACTION    =         -12.57 KCAL/MOL
 CDS INTERACTION              =          -3.24 KCAL/MOL

 .... DONE PRINTING SMD SOLVENT SUMMARY ....
 STEP CPU TIME =     0.00 TOTAL CPU TIME =       37.6 (    0.6 MIN)
 TOTAL WALL CLOCK TIME=       52.1 SECONDS, CPU UTILIZATION IS  72.07%
               999123  WORDS OF DYNAMIC MEMORY USED
 EXECUTION OF GAMESS TERMINATED NORMALLY Tue Nov 29 00:13:01 2016
 DDI: 263640 bytes (0.3 MB / 0 MWords) used by master data server.

 ----------------------------------------
 CPU timing information for all processes
 ========================================
 0: 36.397 + 1.189 = 37.587
 ----------------------------------------
 ddikick.x: exited gracefully.
unset echo
----- accounting info -----
Files used on the master node compute-3-0 were:
-rw-rw-r-- 1 sarom sarom    327339 Nov 29  2016 .//smd-rhf-grad.dat
-rw-rw-r-- 1 sarom sarom      1595 Nov 29  2016 .//smd-rhf-grad.F05
-rw-rw-r-- 1 sarom sarom 340590272 Nov 29  2016 .//smd-rhf-grad.F08
-rw-rw-r-- 1 sarom sarom   2977520 Nov 29  2016 .//smd-rhf-grad.F10
-rw-rw-r-- 1 sarom sarom         8 Nov 29  2016 .//smd-rhf-grad.F26
-rw-rw-r-- 1 sarom sarom         0 Nov 29  2016 .//smd-rhf-grad.F27
-rw-rw-r-- 1 sarom sarom      1595 Nov 27 05:47 .//smd-rhf-grad.inp
-rw-rw-r-- 1 sarom sarom    351955 Nov 29  2016 .//smd-rhf-grad.log
Tue Nov 29 00:13:04 CST 2016
0.216u 0.399s 0:55.89 1.0%	0+0k 0+144io 0pf+0w
