-catch_rsh /opt/gridengine/default/spool/compute-0-7/active_jobs/35830.1/pe_hostfile
compute-0-7
The primary node assigned by SGE to this run is compute-0-7
Warning: no access to tty (Bad file descriptor).
Thus no job control in this shell.
source /home/sarom/dir.git.branch.saromleang-travis-ci/install.info
setenv GMS_PATH /home/sarom/dir.git.branch.saromleang-travis-ci
setenv GMS_BUILD_DIR /home/sarom/dir.git.branch.saromleang-travis-ci
setenv GMS_TARGET linux64
setenv GMS_FORTRAN gfortran
setenv GMS_GFORTRAN_VERNO 4.4
setenv GMS_MATHLIB mkl-so
setenv GMS_MATHLIB none
setenv GMS_MATHLIB_PATH /share/apps/intel/compilers_and_libraries_2017.1.132/linux/mkl/lib/intel64
setenv GMS_MKL_VERNO 12
setenv GMS_DDI_COMM sockets
setenv GMS_LIBCCHEM false
setenv GMS_EIGEN_PATH
setenv GMS_PHI false
setenv GMS_SHMTYPE sysv
setenv GMS_OPENMP false
unset echo
smvle-rhf-e
/home/sarom/dir.git.branch.saromleang-travis-ci/tests/solvent/mnsol
----- GAMESS execution script 'rungms' -----
This job is running on host compute-0-7.local
under operating system Linux at Wed Aug 9 20:22:56 CDT 2017
Available scratch disk space (Kbyte units) at beginning of the job is
Filesystem           1K-blocks      Used Available Use% Mounted on
/dev/sda1             16126920   3962060  11345660  26% /
GAMESS temporary binary files will be written to /scratch
GAMESS supplementary output files will be written to /home/sarom/restart
Copying input file smvle-rhf-e.inp to your run's scratch directory...
cp /home/sarom/dir.git.branch.saromleang-travis-ci/tests/solvent/mnsol/smvle-rhf-e.inp /scratch/smvle-rhf-e.F05
unset echo
The generated host list is
compute-0-7.local
/home/sarom/dir.git.branch.saromleang-travis-ci/ddikick.x /home/sarom/dir.git.branch.saromleang-travis-ci/gamess.00.x smvle-rhf-e -ddi 1 1 compute-0-7.local -scr /scratch

 Distributed Data Interface kickoff program.
 Initiating 1 compute processes on 1 nodes to run the following command:
 /home/sarom/dir.git.branch.saromleang-travis-ci/gamess.00.x smvle-rhf-e 

          ******************************************************
          *         GAMESS VERSION = 20 APR 2017 (R1)          *
          *             FROM IOWA STATE UNIVERSITY             *
          * M.W.SCHMIDT, K.K.BALDRIDGE, J.A.BOATZ, S.T.ELBERT, *
          *   M.S.GORDON, J.H.JENSEN, S.KOSEKI, N.MATSUNAGA,   *
          *          K.A.NGUYEN, S.J.SU, T.L.WINDUS,           *
          *       TOGETHER WITH M.DUPUIS, J.A.MONTGOMERY       *
          *         J.COMPUT.CHEM.  14, 1347-1363(1993)        *
          **************** 64 BIT LINUX VERSION ****************

  SINCE 1993, STUDENTS AND POSTDOCS WORKING AT IOWA STATE UNIVERSITY
  AND ALSO IN THEIR VARIOUS JOBS AFTER LEAVING ISU HAVE MADE IMPORTANT
  CONTRIBUTIONS TO THE CODE:
     IVANA ADAMOVIC, CHRISTINE AIKENS, YURI ALEXEEV, POOJA ARORA,
     ANDREY ASADCHEV, ROB BELL, PRADIPTA BANDYOPADHYAY, JONATHAN BENTZ,
     BRETT BODE, KURT BRORSEN, CALEB CARLIN, GALINA CHABAN, WEI CHEN,
     CHEOL HO CHOI, PAUL DAY, ALBERT DEFUSCO, NUWAN DESILVA, TIM DUDLEY,
     DMITRI FEDOROV, GRAHAM FLETCHER, MARK FREITAG, KURT GLAESEMANN,
     DAN KEMP, GRANT MERRILL, NORIYUKI MINEZAWA, JONATHAN MULLIN,
     TAKESHI NAGATA, SEAN NEDD, HEATHER NETZLOFF, BOSILJKA NJEGIC, RYAN OLSON,
     MIKE PAK, SPENCER PRUITT, LUKE ROSKOP, JIM SHOEMAKER, LYUDMILA SLIPCHENKO,
     TONY SMITH, SAROM SOK LEANG, JIE SONG, TETSUYA TAKETSUGU, SIMON WEBB,
     PENG XU, SOOHAENG YOO, FEDERICO ZAHARIEV

  ADDITIONAL CODE HAS BEEN PROVIDED BY COLLABORATORS IN OTHER GROUPS:
     IOWA STATE UNIVERSITY:
          JOE IVANIC, AARON WEST, LAIMUTIS BYTAUTAS, KLAUS RUEDENBERG
     UNIVERSITY OF TOKYO: KIMIHIKO HIRAO, TAKAHITO NAKAJIMA,
          TAKAO TSUNEDA, MUNEAKI KAMIYA, SUSUMU YANAGISAWA,
          KIYOSHI YAGI, MAHITO CHIBA, SEIKEN TOKURA, NAOAKI KAWAKAMI
     UNIVERSITY OF AARHUS: FRANK JENSEN
     UNIVERSITY OF IOWA: VISVALDAS KAIRYS, HUI LI
     NATIONAL INST. OF STANDARDS AND TECHNOLOGY: WALT STEVENS, DAVID GARMER
     UNIVERSITY OF PISA: BENEDETTA MENNUCCI, JACOPO TOMASI
     UNIVERSITY OF MEMPHIS: HENRY KURTZ, PRAKASHAN KORAMBATH
     UNIVERSITY OF ALBERTA: TOBY ZENG, MARIUSZ KLOBUKOWSKI
     UNIVERSITY OF NEW ENGLAND: MARK SPACKMAN
     MIE UNIVERSITY: HIROAKI UMEDA
     NAT. INST. OF ADVANCED INDUSTRIAL SCIENCE AND TECHNOLOGY: KAZUO KITAURA
     MICHIGAN STATE UNIVERSITY:
          KAROL KOWALSKI, MARTA WLOCH, JEFFREY GOUR, JESSE LUTZ,
          WEI LI, PIOTR PIECUCH
     UNIVERSITY OF SILESIA: MONIKA MUSIAL, STANISLAW KUCHARSKI
     FACULTES UNIVERSITAIRES NOTRE-DAME DE LA PAIX:
          OLIVIER QUINET, BENOIT CHAMPAGNE
     UNIVERSITY OF CALIFORNIA - SANTA BARBARA: BERNARD KIRTMAN
     INSTITUTE FOR MOLECULAR SCIENCE:
          KAZUYA ISHIMURA, MICHIO KATOUDA, AND SHIGERU NAGASE
     UNIVERSITY OF NOTRE DAME: ANNA POMOGAEVA, DAN CHIPMAN
     KYUSHU UNIVERSITY:
          HARUYUKI NAKANO,
          FENG LONG GU, JACEK KORCHOWIEC, MARCIN MAKOWSKI, AND YURIKO AOKI,
          HIROTOSHI MORI AND EISAKU MIYOSHI
     PENNSYLVANIA STATE UNIVERSITY:
          TZVETELIN IORDANOV, CHET SWALINA, JONATHAN SKONE,
          SHARON HAMMES-SCHIFFER
     WASEDA UNIVERSITY:
          MASATO KOBAYASHI, TOMOKO AKAMA, TSUGUKI TOUMA,
          TAKESHI YOSHIKAWA, YASUHIRO IKABATA, JUNJI SEINO,
          YUYA NAKAJIMA, HIROMI NAKAI
     NANJING UNIVERSITY: SHUHUA LI
     UNIVERSITY OF NEBRASKA:
          PEIFENG SU, DEJUN SI, NANDUN THELLAMUREGE, YALI WANG, HUI LI
     UNIVERSITY OF ZURICH: ROBERTO PEVERATI, KIM BALDRIDGE
     N. COPERNICUS UNIVERSITY AND JACKSON STATE UNIVERSITY:
          MARIA BARYSZ
     UNIVERSITY OF COPENHAGEN: Jimmy Kromann, CASPER STEINMANN
     TOKYO INSTITUTE OF TECHNOLOGY: HIROYA NAKATA
     NAGOYA UNIVERSITY: YOSHIO NISHIMOTO, STEPHAN IRLE
     MOSCOW STATE UNIVERSITY: VLADIMIR MIRONOV

 EXECUTION OF GAMESS BEGUN Wed Aug  9 20:22:56 2017

            ECHO OF THE FIRST FEW INPUT CARDS -
 INPUT CARD>!   CF3COO- in water...133 AOs                                                  
 INPUT CARD>!   Aqueous solvation energy based on the SMVLE/SVP protocol                    
 INPUT CARD>!                                                                               
 INPUT CARD>!   FINAL RHF ENERGY IS     -523.9549097618 AFTER  13 ITERATIONS                
 INPUT CARD>!                                                                               
 INPUT CARD>!   SMVLE  SOLVATION METHOD ENERGIES                                            
 INPUT CARD>! ----------------------------------                                            
 INPUT CARD>! TOTAL SVPE FREE ENERGY        GSVPE = -523.95490976                           
 INPUT CARD>! LOCAL ELECTROSTATIC EFFECTS      GL =   -0.01091631   ( -6.85009 KCAL/MOL)    
 INPUT CARD>! NON-BULK-ELECTROSTATIC EFFECTS GCDS =    0.00813230   (  5.10309 KCAL/MOL)    
 INPUT CARD>! TOTAL SMVLE FREE ENERGY      GSMVLE = -523.95769377                           
 INPUT CARD>! SMVLE SOLV FREE ENERGY  GSMVLE-EGAS =   -0.09809766   (-61.55721 KCAL/MOL)    
 INPUT CARD>! SMVLE SOLV FREE ENERGY  GSMVLE-EGAS =   -0.09507924   (-59.66312 KCAL/MOL)    
 INPUT CARD>!    for (1 ATM STANDARD STATE)                                                 
 INPUT CARD>!                                                                               
 INPUT CARD>!   SMVLE  SOLVATION METHOD PROPERTIES                                          
 INPUT CARD>! ------------------------------------                                          
 INPUT CARD>! CAVITY SURFACE AREA FOR CDS CALC   =     458.68129 (    128.44386 ANG**2 )    
 INPUT CARD>!                                                                               
 INPUT CARD>!   this run takes 355 seconds on 2.66 GHz Cloverton (24 Oct 2013)              
 INPUT CARD>!     answers almost invariant since 2010                                       
 INPUT CARD>!                                                                               
 INPUT CARD> $CONTRL SCFTYP=RHF RUNTYP=ENERGY ICHARG=-1 $end                                
 INPUT CARD> $SYSTEM MWORDS=5 $END                                                          
 INPUT CARD> $BASIS  GBASIS=N31 NGAUSS=6 NDFUNC=1 DIFFSP=.TRUE. $END                        
 INPUT CARD>                                                                                
 INPUT CARD> $SVP    NVLPL=5 DIELST=78.5 RHOISO=0.001 NPTLEB=1202                           
 INPUT CARD>         EGAS=-523.8595961062 SMVLE=.T. $END                                    
 INPUT CARD>                                                                                
 INPUT CARD> $DATA                                                                          
 INPUT CARD>SMVLE/HF/6-31+G(d) solvation energy relative to EGAS - CF3COO- in water         
 INPUT CARD>C1                                                                              
 INPUT CARD>CARB1           6.0         0.512211   0.000040  -0.012117                      
 INPUT CARD>CARB2           6.0        -1.061796   0.000003  -0.036672                      
 INPUT CARD>OXYG3           8.0        -1.547400   1.150225  -0.006609                      
 INPUT CARD>OXYG4           8.0        -1.547182  -1.150320  -0.006608                      
 INPUT CARD>FLUO5           9.0         1.061911   1.087605  -0.610341                      
 INPUT CARD>FLUO6           9.0         1.061963  -1.086426  -0.612313                      
 INPUT CARD>FLUO7           9.0         0.993255  -0.001122   1.266928                      
 INPUT CARD> $END                                                                           
 INPUT CARD>                                                                                
 INPUT CARD>                                                                                
    5000000 WORDS OF MEMORY AVAILABLE

     BASIS OPTIONS
     -------------
     GBASIS=N31          IGAUSS=       6      POLAR=POPN31  
     NDFUNC=       1     NFFUNC=       0     DIFFSP=       T
     NPFUNC=       0      DIFFS=       F     BASNAM=        


     RUN TITLE
     ---------
 SMVLE/HF/6-31+G(d) solvation energy relative to EGAS - CF3COO- in water         

 THE POINT GROUP OF THE MOLECULE IS C1      
 THE ORDER OF THE PRINCIPAL AXIS IS     0

 ATOM      ATOMIC                      COORDINATES (BOHR)
           CHARGE         X                   Y                   Z
 CARB1       6.0     0.9679384379        0.0000755890       -0.0228978098
 CARB2       6.0    -2.0065034949        0.0000056692       -0.0693000314
 OXYG3       8.0    -2.9241619934        2.1736100742       -0.0124891991
 OXYG4       8.0    -2.9237500331       -2.1737895982       -0.0124873093
 FLUO5       9.0     2.0067208133        2.0552754329       -1.1533772491
 FLUO6       9.0     2.0068190791       -2.0530474459       -1.1571037887
 FLUO7       9.0     1.8769797859       -0.0021202726        2.3941467662

          INTERNUCLEAR DISTANCES (ANGS.)
          ------------------------------

                1 CARB       2 CARB       3 OXYG       4 OXYG       5 FLUO  

   1 CARB    0.0000000    1.5741985 *  2.3590153 *  2.3589103 *  1.3575123 *
   2 CARB    1.5741985 *  0.0000000    1.2488898 *  1.2488981 *  2.4539979 *
   3 OXYG    2.3590153 *  1.2488898 *  0.0000000    2.3005450 *  2.6789769 *
   4 OXYG    2.3589103 *  1.2488981 *  2.3005450 *  0.0000000    3.4900098  
   5 FLUO    1.3575123 *  2.4539979 *  2.6789769 *  3.4900098    0.0000000  
   6 FLUO    1.3575238 *  2.4539851 *  3.4897364    2.6792907 *  2.1740319 *
   7 FLUO    1.3665141 *  2.4336411 *  3.0663373    3.0653499    2.1712160 *

                6 FLUO       7 FLUO  

   1 CARB    1.3575238 *  1.3665141 *
   2 CARB    2.4539851 *  2.4336411 *
   3 OXYG    3.4897364    3.0663373  
   4 OXYG    2.6792907 *  3.0653499  
   5 FLUO    2.1740319 *  2.1712160 *
   6 FLUO    0.0000000    2.1712099 *
   7 FLUO    2.1712099 *  0.0000000  

  * ... LESS THAN  3.000


     ATOMIC BASIS SET
     ----------------
 THE CONTRACTED PRIMITIVE FUNCTIONS HAVE BEEN UNNORMALIZED
 THE CONTRACTED BASIS FUNCTIONS ARE NOW NORMALIZED TO UNITY

  SHELL TYPE  PRIMITIVE        EXPONENT          CONTRACTION COEFFICIENT(S)

 CARB1     

      1   S       1          3047.5248800    0.001834737132
      1   S       2           457.3695180    0.014037322813
      1   S       3           103.9486850    0.068842622264
      1   S       4            29.2101553    0.232184443216
      1   S       5             9.2866630    0.467941348435
      1   S       6             3.1639270    0.362311985337

      2   L       7             7.8682723   -0.119332419775    0.068999066591
      2   L       8             1.8812885   -0.160854151696    0.316423960957
      2   L       9             0.5442493    1.143456437840    0.744308290898

      3   L      10             0.1687145    1.000000000000    1.000000000000

      4   L      11             0.0438000    1.000000000000    1.000000000000

      5   D      12             0.8000000    1.000000000000

 CARB2     

      6   S      13          3047.5248800    0.001834737132
      6   S      14           457.3695180    0.014037322813
      6   S      15           103.9486850    0.068842622264
      6   S      16            29.2101553    0.232184443216
      6   S      17             9.2866630    0.467941348435
      6   S      18             3.1639270    0.362311985337

      7   L      19             7.8682723   -0.119332419775    0.068999066591
      7   L      20             1.8812885   -0.160854151696    0.316423960957
      7   L      21             0.5442493    1.143456437840    0.744308290898

      8   L      22             0.1687145    1.000000000000    1.000000000000

      9   L      23             0.0438000    1.000000000000    1.000000000000

     10   D      24             0.8000000    1.000000000000

 OXYG3     

     11   S      25          5484.6716600    0.001831074430
     11   S      26           825.2349460    0.013950172200
     11   S      27           188.0469580    0.068445078098
     11   S      28            52.9645000    0.232714335992
     11   S      29            16.8975704    0.470192897984
     11   S      30             5.7996353    0.358520852987

     12   L      31            15.5396162   -0.110777549525    0.070874268231
     12   L      32             3.5999336   -0.148026262701    0.339752839147
     12   L      33             1.0137618    1.130767015354    0.727158577316

     13   L      34             0.2700058    1.000000000000    1.000000000000

     14   L      35             0.0845000    1.000000000000    1.000000000000

     15   D      36             0.8000000    1.000000000000

 OXYG4     

     16   S      37          5484.6716600    0.001831074430
     16   S      38           825.2349460    0.013950172200
     16   S      39           188.0469580    0.068445078098
     16   S      40            52.9645000    0.232714335992
     16   S      41            16.8975704    0.470192897984
     16   S      42             5.7996353    0.358520852987

     17   L      43            15.5396162   -0.110777549525    0.070874268231
     17   L      44             3.5999336   -0.148026262701    0.339752839147
     17   L      45             1.0137618    1.130767015354    0.727158577316

     18   L      46             0.2700058    1.000000000000    1.000000000000

     19   L      47             0.0845000    1.000000000000    1.000000000000

     20   D      48             0.8000000    1.000000000000

 FLUO5     

     21   S      49          7001.7130900    0.001819616901
     21   S      50          1051.3660900    0.013916079607
     21   S      51           239.2856900    0.068405324535
     21   S      52            67.3974453    0.233185760119
     21   S      53            21.5199573    0.471267439240
     21   S      54             7.4031013    0.356618546182

     22   L      55            20.8479528   -0.108506975109    0.071628724237
     22   L      56             4.8083083   -0.146451658147    0.345912102697
     22   L      57             1.3440699    1.128688581135    0.722469956367

     23   L      58             0.3581514    1.000000000000    1.000000000000

     24   L      59             0.1076000    1.000000000000    1.000000000000

     25   D      60             0.8000000    1.000000000000

 FLUO6     

     26   S      61          7001.7130900    0.001819616901
     26   S      62          1051.3660900    0.013916079607
     26   S      63           239.2856900    0.068405324535
     26   S      64            67.3974453    0.233185760119
     26   S      65            21.5199573    0.471267439240
     26   S      66             7.4031013    0.356618546182

     27   L      67            20.8479528   -0.108506975109    0.071628724237
     27   L      68             4.8083083   -0.146451658147    0.345912102697
     27   L      69             1.3440699    1.128688581135    0.722469956367

     28   L      70             0.3581514    1.000000000000    1.000000000000

     29   L      71             0.1076000    1.000000000000    1.000000000000

     30   D      72             0.8000000    1.000000000000

 FLUO7     

     31   S      73          7001.7130900    0.001819616901
     31   S      74          1051.3660900    0.013916079607
     31   S      75           239.2856900    0.068405324535
     31   S      76            67.3974453    0.233185760119
     31   S      77            21.5199573    0.471267439240
     31   S      78             7.4031013    0.356618546182

     32   L      79            20.8479528   -0.108506975109    0.071628724237
     32   L      80             4.8083083   -0.146451658147    0.345912102697
     32   L      81             1.3440699    1.128688581135    0.722469956367

     33   L      82             0.3581514    1.000000000000    1.000000000000

     34   L      83             0.1076000    1.000000000000    1.000000000000

     35   D      84             0.8000000    1.000000000000

 TOTAL NUMBER OF BASIS SET SHELLS             =   35
 NUMBER OF CARTESIAN GAUSSIAN BASIS FUNCTIONS =  133
 NUMBER OF ELECTRONS                          =   56
 CHARGE OF MOLECULE                           =   -1
 SPIN MULTIPLICITY                            =    1
 NUMBER OF OCCUPIED ORBITALS (ALPHA)          =   28
 NUMBER OF OCCUPIED ORBITALS (BETA )          =   28
 TOTAL NUMBER OF ATOMS                        =    7
 THE NUCLEAR REPULSION ENERGY IS      321.4092089038

     $CONTRL OPTIONS
     ---------------
 SCFTYP=RHF          RUNTYP=ENERGY       EXETYP=RUN     
 MPLEVL=       0     CITYP =NONE         CCTYP =NONE         VBTYP =NONE    
 DFTTYP=NONE         TDDFT =NONE    
 MULT  =       1     ICHARG=      -1     NZVAR =       0     COORD =UNIQUE  
 PP    =NONE         RELWFN=NONE         LOCAL =NONE         NUMGRD=       F
 ISPHER=      -1     NOSYM =       0     MAXIT =      30     UNITS =ANGS    
 PLTORB=       F     MOLPLT=       F     AIMPAC=       F     FRIEND=        
 NPRINT=       7     IREST =       0     GEOM  =INPUT   
 NORMF =       0     NORMP =       0     ITOL  =      20     ICUT  =       9
 INTTYP=BEST         GRDTYP=BEST         QMTTOL= 1.0E-06

     $SYSTEM OPTIONS
     ---------------
  REPLICATED MEMORY=     5000000 WORDS (ON EVERY NODE).
 DISTRIBUTED MEMDDI=           0 MILLION WORDS IN AGGREGATE,
 MEMDDI DISTRIBUTED OVER   1 PROCESSORS IS           0 WORDS/PROCESSOR.
 TOTAL MEMORY REQUESTED ON EACH PROCESSOR=     5000000 WORDS.
 TIMLIM=      525600.00 MINUTES, OR     365.0 DAYS.
 PARALL= F  BALTYP=  DLB     KDIAG=    0  COREFL= F
 MXSEQ2=     300 MXSEQ3=     150  mem10=         0

          -------------
          -SVP- SOLVENT
          -------------

 ----- INPUT GROUP $SVP -----
 NVLPL =   5 ISHAPE=   0 ITRCAV=  99 NDRCAV=   0
 INTCAV=   0 NPTLEB=1202 NPTTHE=   8 NPTPHI=  16
 ITRNGR=   2 IROTGR=   2 IOPPRD=   0 IDEF  =   0
 LINEQ =   1 IRDRF =   0 IPNRF =   0 IVERT =   0
 RHOISO=    0.001000 TOLCAV=  0.1000D-09 RADSPH=    2.645617 TOLCHG=  0.1000D-05
 DIELST=   78.500000 DIELOP=    1.776000 CVGLIN=  0.1000D-06 CSDIAG=    1.104000
 ROTTHE=    0.000000 ROTPHI=    0.000000 ROTCHI=    0.000000
 TRANX =    0.000000 TRANY =    0.000000 TRANZ =    0.000000
 EGAS  = -523.859596

     -----------------------------------
     INPUT FOR AQUEOUS SMVLE CALCULATION 
     -----------------------------------
     DIELST= 78.5000

          ----------------
          PROPERTIES INPUT
          ----------------

     MOMENTS            FIELD           POTENTIAL          DENSITY
 IEMOM =       1   IEFLD =       0   IEPOT =       0   IEDEN =       0
 WHERE =COMASS     WHERE =NUCLEI     WHERE =NUCLEI     WHERE =NUCLEI  
 OUTPUT=BOTH       OUTPUT=BOTH       OUTPUT=BOTH       OUTPUT=BOTH    
 IEMINT=       0   IEFINT=       0                     IEDINT=       0
                                                       MORB  =       0
          EXTRAPOLATION IN EFFECT
          SOSCF IN EFFECT
 ORBITAL PRINTING OPTION: NPREO=     1   133     2     1

     -------------------------------
     INTEGRAL TRANSFORMATION OPTIONS
     -------------------------------
     NWORD  =            0
     CUTOFF = 1.0E-09     MPTRAN =       0
     DIRTRF =       F     AOINTS =DUP     

          ----------------------
          INTEGRAL INPUT OPTIONS
          ----------------------
 NOPK  =       1 NORDER=       0 SCHWRZ=       T

     ------------------------------------------
     THE POINT GROUP IS C1 , NAXIS= 0, ORDER= 1
     ------------------------------------------

     DIMENSIONS OF THE SYMMETRY SUBSPACES ARE
 A   =  133

 ..... DONE SETTING UP THE RUN .....
 STEP CPU TIME =     0.01 TOTAL CPU TIME =        0.0 (    0.0 MIN)
 TOTAL WALL CLOCK TIME=        0.0 SECONDS, CPU UTILIZATION IS  50.00%

          ********************
          1 ELECTRON INTEGRALS
          ********************
 ...... END OF ONE-ELECTRON INTEGRALS ......
 STEP CPU TIME =     0.01 TOTAL CPU TIME =        0.0 (    0.0 MIN)
 TOTAL WALL CLOCK TIME=        0.0 SECONDS, CPU UTILIZATION IS 100.00%

          -------------
          GUESS OPTIONS
          -------------
          GUESS =HUCKEL            NORB  =       0          NORDER=       0
          MIX   =       F          PRTMO =       F          PUNMO =       F
          TOLZ  = 1.0E-08          TOLE  = 1.0E-05
          SYMDEN=       F          PURIFY=       F

 INITIAL GUESS ORBITALS GENERATED BY HUCKEL   ROUTINE.
 HUCKEL GUESS REQUIRES    138866 WORDS.

 SYMMETRIES FOR INITIAL GUESS ORBITALS FOLLOW.   BOTH SET(S).
    28 ORBITALS ARE OCCUPIED (    7 CORE ORBITALS).
     8=A        9=A       10=A       11=A       12=A       13=A       14=A   
    15=A       16=A       17=A       18=A       19=A       20=A       21=A   
    22=A       23=A       24=A       25=A       26=A       27=A       28=A   
    29=A       30=A       31=A       32=A       33=A       34=A       35=A   
    36=A       37=A       38=A   
 ...... END OF INITIAL ORBITAL SELECTION ......
 STEP CPU TIME =     0.02 TOTAL CPU TIME =        0.0 (    0.0 MIN)
 TOTAL WALL CLOCK TIME=        0.0 SECONDS, CPU UTILIZATION IS  80.00%

                    ----------------------
                    AO INTEGRAL TECHNOLOGY
                    ----------------------
     S,P,L SHELL ROTATED AXIS INTEGRALS, REPROGRAMMED BY
        KAZUYA ISHIMURA (IMS) AND JOSE SIERRA (SYNSTAR).
     S,P,D,L SHELL ROTATED AXIS INTEGRALS PROGRAMMED BY
        KAZUYA ISHIMURA (INSTITUTE FOR MOLECULAR SCIENCE).
     S,P,D,F,G SHELL TO TOTAL QUARTET ANGULAR MOMENTUM SUM 5,
        ERIC PROGRAM BY GRAHAM FLETCHER (ELORET AND NASA ADVANCED
        SUPERCOMPUTING DIVISION, AMES RESEARCH CENTER).
     S,P,D,F,G,L SHELL GENERAL RYS QUADRATURE PROGRAMMED BY
        MICHEL DUPUIS (PACIFIC NORTHWEST NATIONAL LABORATORY).

          --------------------
          2 ELECTRON INTEGRALS
          --------------------

 THE -PK- OPTION IS OFF, THE INTEGRALS ARE NOT IN SUPERMATRIX FORM.
 STORING   15000 INTEGRALS/RECORD ON DISK, USING 12 BYTES/INTEGRAL.
 TWO ELECTRON INTEGRAL EVALUATION REQUIRES   91026 WORDS OF MEMORY.
 SCHWARZ INEQUALITY OVERHEAD:      8880 INTEGRALS, T=        0.00
 II,JST,KST,LST =  1  1  1  1 NREC =         1 INTLOC =    1
 II,JST,KST,LST =  2  1  1  1 NREC =         1 INTLOC =    2
 II,JST,KST,LST =  3  1  1  1 NREC =         1 INTLOC =   34
 II,JST,KST,LST =  4  1  1  1 NREC =         1 INTLOC =  214
 II,JST,KST,LST =  5  1  1  1 NREC =         1 INTLOC =  776
 II,JST,KST,LST =  6  1  1  1 NREC =         1 INTLOC = 2864
 II,JST,KST,LST =  7  1  1  1 NREC =         1 INTLOC = 6059
 II,JST,KST,LST =  8  1  1  1 NREC =         2 INTLOC =12773
 II,JST,KST,LST =  9  1  1  1 NREC =         5 INTLOC = 2620
 II,JST,KST,LST = 10  1  1  1 NREC =         8 INTLOC = 6895
 II,JST,KST,LST = 11  1  1  1 NREC =        16 INTLOC = 1458
 II,JST,KST,LST = 12  1  1  1 NREC =        17 INTLOC =12735
 II,JST,KST,LST = 13  1  1  1 NREC =        27 INTLOC = 2761
 II,JST,KST,LST = 14  1  1  1 NREC =        39 INTLOC = 9725
 II,JST,KST,LST = 15  1  1  1 NREC =        55 INTLOC = 8861
 II,JST,KST,LST = 16  1  1  1 NREC =        86 INTLOC =14213
 II,JST,KST,LST = 17  1  1  1 NREC =        91 INTLOC =11789
 II,JST,KST,LST = 18  1  1  1 NREC =       118 INTLOC =11040
 II,JST,KST,LST = 19  1  1  1 NREC =       153 INTLOC =   13
 II,JST,KST,LST = 20  1  1  1 NREC =       193 INTLOC =13926
 II,JST,KST,LST = 21  1  1  1 NREC =       266 INTLOC = 6799
 II,JST,KST,LST = 22  1  1  1 NREC =       276 INTLOC = 2044
 II,JST,KST,LST = 23  1  1  1 NREC =       328 INTLOC = 2227
 II,JST,KST,LST = 24  1  1  1 NREC =       401 INTLOC =14638
 II,JST,KST,LST = 25  1  1  1 NREC =       488 INTLOC = 8634
 II,JST,KST,LST = 26  1  1  1 NREC =       627 INTLOC =13087
 II,JST,KST,LST = 27  1  1  1 NREC =       645 INTLOC = 3011
 II,JST,KST,LST = 28  1  1  1 NREC =       742 INTLOC =   30
 II,JST,KST,LST = 29  1  1  1 NREC =       875 INTLOC = 3929
 II,JST,KST,LST = 30  1  1  1 NREC =      1028 INTLOC = 4815
 II,JST,KST,LST = 31  1  1  1 NREC =      1266 INTLOC =10618
 II,JST,KST,LST = 32  1  1  1 NREC =      1296 INTLOC = 1986
 II,JST,KST,LST = 33  1  1  1 NREC =      1466 INTLOC = 9079
 II,JST,KST,LST = 34  1  1  1 NREC =      1689 INTLOC = 8763
 II,JST,KST,LST = 35  1  1  1 NREC =      1940 INTLOC = 2981
 SCHWARZ INEQUALITY TEST SKIPPED       28843 INTEGRAL BLOCKS.
 TOTAL NUMBER OF NONZERO TWO-ELECTRON INTEGRALS =            35084581
       2339 INTEGRAL RECORDS WERE STORED ON DISK FILE  8.
  ...... END OF TWO-ELECTRON INTEGRALS .....
 STEP CPU TIME =     1.35 TOTAL CPU TIME =        1.4 (    0.0 MIN)
 TOTAL WALL CLOCK TIME=        1.4 SECONDS, CPU UTILIZATION IS 100.00%

          --------------------------
                 RHF SCF CALCULATION
          --------------------------

     NUCLEAR ENERGY =       321.4092089038
     MAXIT =   30     NPUNCH=    2
     EXTRAP=T  DAMP=F  SHIFT=F  RSTRCT=F  DIIS=F  DEM=F  SOSCF=T
     DENSITY MATRIX CONV=  1.00E-05
     SOSCF WILL OPTIMIZE    2940 ORBITAL ROTATIONS, SOGTOL=   0.250
     MEMORY REQUIRED FOR RHF ITERS=   3069073 WORDS.

 ITER EX DEM     TOTAL ENERGY        E CHANGE  DENSITY CHANGE     ORB. GRAD
   1  0  0     -522.4167233856  -522.4167233856   0.302343050   0.000000000
          ---------------START SECOND ORDER SCF---------------
   2  1  0     -523.8113524928    -1.3946291072   0.174370764   0.088661454
   3  2  0     -523.8979554156    -0.0866029229   0.071160374   0.062124472
   4  3  0     -523.9539959824    -0.0560405668   0.015492736   0.005611727
   5  4  0     -523.9548475733    -0.0008515909   0.006920519   0.001669938
   6  5  0     -523.9548842354    -0.0000366621   0.001785971   0.000813358
   7  6  0     -523.9549067676    -0.0000225322   0.000495833   0.000143591
   8  7  0     -523.9549102053    -0.0000034377   0.000127461   0.000046084
   9  8  0     -523.9549099605     0.0000002448   0.000034914   0.000015100
  10  9  0     -523.9549098642     0.0000000963   0.000007392   0.000003329
  11 10  0     -523.9549097525     0.0000001117   0.000003084   0.000001105
  12 11  0     -523.9549097580    -0.0000000055   0.000001121   0.000000454
  13 12  0     -523.9549097644    -0.0000000063   0.000000992   0.000000157

          -----------------
          DENSITY CONVERGED
          -----------------
     TIME TO FORM FOCK OPERATORS=     192.1 SECONDS (      14.8 SEC/ITER)
     TIME TO SOLVE SCF EQUATIONS=       0.1 SECONDS (       0.0 SEC/ITER)

 FINAL RHF ENERGY IS     -523.9549097644 AFTER  13 ITERATIONS

   SVPE   (LONG-RANGE DIELECTRIC) SOLVATION ENERGY          (G = FREE ENERGY)
 --------------------------------------------------------------------------------
                                                           AU           KCAL/MOL
 EGAS = INTERNAL ENERGY OF SOLUTE IN GAS PHASE       -523.85959611
 EINT = INTERNAL ENERGY OF SOLUTE IN SOLUTION        -523.85839243
 DINT = EINT-EGAS PORTION OF G OF SOLVATION             0.00120368       0.75532
        DUE TO POLARIZATION OF SOLUTE BY   SVPE  
   [SURFACE POLARIZATION ENERGY  /2] =       -0.08145398 (  -51.11314 KCAL/MOL )
   [VOLUME  POLARIZATION ENERGY  /2] =       -0.01506336 (   -9.45240 KCAL/MOL )

   SVPE   PORTION OF G OF SOLVATION=ERXNFIELD/2        -0.09651734     -60.56554

 EINT  +    SVPE    G  IN  SOLUTION                  -523.95490976
 DINT  +    SVPE    G  OF  SOLVATION                   -0.09531366     -59.81022

 (N.B.- THESE SOLVATION RESULTS ONLY TREAT             ELECTRONIC ENERGIES, AND SO DO NOT
  INCLUDE ANY             POSSIBLE CHANGES IN VIBRATIONAL OR ROTATIONAL/                   LIBRATIONAL  FREE
  ENERGIES UPON SOLVATION,                  EXCEPT TO THE EXTENT THAT THESE MAY BE INHERENTLY
  INCLUDED IN SOME  OVERALL AVERAGE MANNER THROUGH            THE EMPIRICAL OPTIMIZATION
  OF VARIOUS FITTED               PARAMETERS THAT ARE USED)

   SMVLE  SOLVATION METHOD ENERGIES
 ----------------------------------
 TOTAL SVPE FREE ENERGY        GSVPE = -523.95490976
 LOCAL SMVLE ELECTROSTATICS:      GL =   -0.01091631     (   -6.85009 KCAL/MOL )
 NON-BULK-ELECTROSTATIC EFFECTS GCDS =    0.00813230     (    5.10309 KCAL/MOL )
 TOTAL SMVLE FREE ENERGY      GSMVLE = -523.95769378
 SMVLE SOLV FREE ENERGY  GSMVLE-EGAS =   -0.09809767     (  -61.55721 KCAL/MOL )
 SMVLE SOLV FREE ENERGY  GSMVLE-EGAS =   -0.09507924     (  -59.66312 KCAL/MOL ) (1 ATM STANDARD STATE)

   SVPE   SOLVATION METHOD PROPERTIES
 ------------------------------------
 CONVERGENCE ON SURFACE CHARGES     =      0.426950D-07
 CAVITY SURFACE AREA                =     404.27826 (    113.20946 ANG**2 )
 CAVITY VOLUME                      =     642.19190 (     95.16304 ANG**3 )
 TOTAL SURFACE  POLARIZATION CHARGE =    0.80697564
 TOTAL VOLUME   POLARIZATION CHARGE =    0.18027881
 TOTAL SURF+VOL POLARIZATION CHARGE =    0.98725444
 CHARGE PENETRATION FROM GAUSS LAW  =   -0.18261177
 CHARGE PENETRATION FROM NUM INTEG  =   -0.18260498
 CHARGE PENETRATION DISCREPANCY     =   -0.00000679

   SMVLE  SOLVATION METHOD PROPERTIES
 ------------------------------------
 CAVITY SURFACE AREA FOR CDS CALC   =     458.68129 (    128.44386 ANG**2 )
 
 CAVITY TRANSLATED TO XYZ (AU)      =     -0.000000    0.000000   -0.000000
                      XYZ (ANG)     =     -0.000000    0.000000   -0.000000
 CAVITY   ROTATED  BY TPC (RAD)     =      0.000000    0.000000    0.000000
                      TPC (DEG)     =       0.00000     0.00000     0.00000
 
 SOLUTE/CAVITY PROXIMITY
 -----------------------
 IAT =     1 ICAV =       5 DIST =   3.3818 (   1.7895  ANG ) 
 IAT =     2 ICAV =     396 DIST =   3.3381 (   1.7664  ANG ) 
 IAT =     3 ICAV =    1034 DIST =   3.3578 (   1.7769  ANG ) 
 IAT =     4 ICAV =    1032 DIST =   3.3578 (   1.7769  ANG ) 
 IAT =     5 ICAV =     981 DIST =   3.0273 (   1.6020  ANG ) 
 IAT =     6 ICAV =     979 DIST =   3.0274 (   1.6020  ANG ) 
 IAT =     7 ICAV =     751 DIST =   3.0286 (   1.6026  ANG ) 

          ------------
          EIGENVECTORS
          ------------

                      1          2          3          4          5
                  -26.3523   -26.3504   -26.3504   -20.5365   -20.5365
                     A          A          A          A          A   
    1  C  1  S   -0.000066  -0.000014  -0.000103  -0.000001  -0.000014
    2  C  1  S   -0.000126  -0.000028  -0.000205  -0.000002  -0.000024
    3  C  1  X    0.000259   0.000057   0.000412   0.000008   0.000078
    4  C  1  Y   -0.000000  -0.000607   0.000084   0.000004  -0.000000
    5  C  1  Z    0.000499  -0.000046  -0.000333   0.000000   0.000001
    6  C  1  S    0.002147   0.000507   0.003699   0.000047   0.000446
    7  C  1  X    0.000802   0.000165   0.001204  -0.000014  -0.000134
    8  C  1  Y   -0.000001  -0.001491   0.000206  -0.000714   0.000077
    9  C  1  Z    0.000822  -0.000091  -0.000658   0.000006   0.000054
   10  C  1  S    0.001217   0.000679   0.004962  -0.000088  -0.000786
   11  C  1  X   -0.000004  -0.000107  -0.000786   0.000022   0.000199
   12  C  1  Y   -0.000001  -0.000910   0.000126  -0.000511   0.000055
   13  C  1  Z    0.000585  -0.000062  -0.000448   0.000004   0.000037
   14  C  1 XX   -0.000021  -0.000000  -0.000001  -0.000010  -0.000097
   15  C  1 YY   -0.000023   0.000059   0.000434  -0.000003  -0.000031
   16  C  1 ZZ    0.000435   0.000014   0.000095  -0.000004  -0.000039
   17  C  1 XY   -0.000000  -0.000306   0.000042   0.000098  -0.000011
   18  C  1 XZ    0.000225  -0.000025  -0.000182   0.000001   0.000009
   19  C  1 YZ   -0.000000   0.000311  -0.000042   0.000007  -0.000001
   20  C  2  S    0.000008   0.000003   0.000023  -0.000002  -0.000021
   21  C  2  S    0.000081   0.000024   0.000172   0.000074   0.000687
   22  C  2  X   -0.000028   0.000001   0.000005  -0.000008  -0.000075
   23  C  2  Y   -0.000000  -0.000011   0.000002   0.000330  -0.000036
   24  C  2  Z   -0.000012   0.000000   0.000001  -0.000000  -0.000000
   25  C  2  S    0.000126  -0.000083  -0.000610   0.000090   0.000822
   26  C  2  X   -0.000140  -0.000040  -0.000295  -0.000047  -0.000434
   27  C  2  Y    0.000000   0.001175  -0.000163   0.002023  -0.000219
   28  C  2  Z   -0.000147   0.000021   0.000154   0.000003   0.000023
   29  C  2  S   -0.000136  -0.000540  -0.003952   0.000192   0.001750
   30  C  2  X    0.000085  -0.000157  -0.001147   0.000013   0.000116
   31  C  2  Y    0.000000   0.000454  -0.000063   0.001368  -0.000148
   32  C  2  Z   -0.000172   0.000025   0.000183   0.000004   0.000036
   33  C  2 XX   -0.000036  -0.000007  -0.000049  -0.000020  -0.000190
   34  C  2 YY    0.000015  -0.000003  -0.000025  -0.000084  -0.000779
   35  C  2 ZZ   -0.000008   0.000006   0.000045  -0.000015  -0.000143
   36  C  2 XY    0.000000   0.000038  -0.000005   0.000189  -0.000020
   37  C  2 XZ   -0.000065   0.000006   0.000040   0.000000   0.000003
   38  C  2 YZ    0.000000  -0.000005   0.000001  -0.000009   0.000001
   39  O  3  S    0.000003   0.000006   0.000006   0.774772   0.623726
   40  O  3  S    0.000009   0.000042   0.000021   0.016370   0.013077
   41  O  3  X    0.000001  -0.000010   0.000009   0.000430   0.000359
   42  O  3  Y   -0.000008  -0.000009  -0.000006  -0.001056  -0.000855
   43  O  3  Z   -0.000000   0.000002   0.000003  -0.000029  -0.000023
   44  O  3  S   -0.000055  -0.000528  -0.000019   0.002830   0.003249
   45  O  3  X    0.000017  -0.000084   0.000077  -0.000609   0.000025
   46  O  3  Y    0.000083   0.000155  -0.000047   0.000986   0.000446
   47  O  3  Z    0.000013  -0.000002  -0.000024   0.000040  -0.000000
   48  O  3  S   -0.000216  -0.000437   0.000498  -0.002375  -0.001237
   49  O  3  X   -0.000101   0.000025   0.000158  -0.000006  -0.000086
   50  O  3  Y   -0.000031   0.000121  -0.000062  -0.000111   0.000023
   51  O  3  Z    0.000026   0.000073  -0.000084   0.000021  -0.000010
   52  O  3 XX    0.000013   0.000025   0.000027  -0.003183  -0.002494
   53  O  3 YY   -0.000008   0.000016   0.000019  -0.003118  -0.002588
   54  O  3 ZZ    0.000020  -0.000015   0.000029  -0.003228  -0.002689
   55  O  3 XY    0.000004   0.000003  -0.000014   0.000092  -0.000133
   56  O  3 XZ   -0.000001   0.000006  -0.000005   0.000003  -0.000013
   57  O  3 YZ   -0.000005  -0.000002   0.000005  -0.000008   0.000007
   58  O  4  S    0.000003  -0.000004   0.000008  -0.623749   0.774754
   59  O  4  S    0.000009  -0.000035   0.000032  -0.013201   0.016271
   60  O  4  X    0.000001   0.000012   0.000006  -0.000343   0.000442
   61  O  4  Y    0.000008  -0.000007   0.000008  -0.000849   0.001061
   62  O  4  Z   -0.000000  -0.000001   0.000003   0.000024  -0.000028
   63  O  4  S   -0.000056   0.000503  -0.000163  -0.002072   0.003779
   64  O  4  X    0.000017   0.000101   0.000051   0.000600  -0.000106
   65  O  4  Y   -0.000083   0.000161   0.000002   0.000868  -0.000646
   66  O  4  Z    0.000013  -0.000005  -0.000024  -0.000039   0.000009
   67  O  4  S   -0.000216   0.000554   0.000360   0.002055  -0.001715
   68  O  4  X   -0.000101   0.000018   0.000159  -0.000013  -0.000085
   69  O  4  Y    0.000031   0.000133   0.000027  -0.000113   0.000001
   70  O  4  Z    0.000026  -0.000093  -0.000062  -0.000023  -0.000005
   71  O  4 XX    0.000013  -0.000016   0.000033   0.002577  -0.003116
   72  O  4 YY   -0.000008  -0.000011   0.000023   0.002494  -0.003194
   73  O  4 ZZ    0.000020   0.000022   0.000024   0.002579  -0.003316
   74  O  4 XY   -0.000004   0.000007   0.000013   0.000118   0.000110
   75  O  4 XZ   -0.000001  -0.000008  -0.000003  -0.000006  -0.000012
   76  O  4 YZ    0.000005  -0.000004  -0.000005  -0.000009  -0.000005
   77  F  5  S   -0.004239  -0.600800   0.792200   0.000010   0.000012
   78  F  5  S    0.000108  -0.010209   0.013682   0.000043   0.000067
   79  F  5  X   -0.000001   0.000241  -0.000320  -0.000006  -0.000009
   80  F  5  Y   -0.000022   0.000483  -0.000678   0.000000   0.000001
   81  F  5  Z    0.000007  -0.000263   0.000367  -0.000004   0.000005
   82  F  5  S   -0.000691  -0.006604   0.007982  -0.000055  -0.000253
   83  F  5  X    0.000014  -0.000354   0.000453  -0.000001   0.000037
   84  F  5  Y    0.000260  -0.000492   0.001258  -0.000019   0.000005
   85  F  5  Z   -0.000243   0.000378  -0.000617   0.000033  -0.000028
   86  F  5  S   -0.000239   0.001537  -0.002746   0.000413   0.000092
   87  F  5  X   -0.000095  -0.000022   0.000025  -0.000037  -0.000049
   88  F  5  Y   -0.000030   0.000122   0.000049  -0.000039   0.000024
   89  F  5  Z   -0.000092   0.000077  -0.000009   0.000146   0.000015
   90  F  5 XX    0.000139   0.003257  -0.004158   0.000027   0.000037
   91  F  5 YY    0.000074   0.003330  -0.004535   0.000027   0.000059
   92  F  5 ZZ    0.000033   0.003292  -0.004192   0.000063   0.000044
   93  F  5 XY    0.000019   0.000142  -0.000193  -0.000007  -0.000006
   94  F  5 XZ    0.000015  -0.000105   0.000091  -0.000005   0.000008
   95  F  5 YZ    0.000089  -0.000151   0.000241   0.000007  -0.000004
   96  F  6  S   -0.004249   0.792192   0.600811  -0.000007   0.000014
   97  F  6  S    0.000108   0.013521   0.010422  -0.000028   0.000075
   98  F  6  X   -0.000001  -0.000318  -0.000244   0.000004  -0.000011
   99  F  6  Y    0.000022   0.000647   0.000522   0.000000  -0.000001
  100  F  6  Z    0.000007   0.000353   0.000284   0.000005   0.000004
  101  F  6  S   -0.000691   0.008513   0.005906   0.000001  -0.000258
  102  F  6  X    0.000014   0.000463   0.000340   0.000008   0.000036
  103  F  6  Y   -0.000260  -0.000812  -0.001077  -0.000019  -0.000001
  104  F  6  Z   -0.000243  -0.000531  -0.000494  -0.000039  -0.000021
  105  F  6  S   -0.000239  -0.002220  -0.002229  -0.000383   0.000177
  106  F  6  X   -0.000095   0.000027   0.000018   0.000025  -0.000056
  107  F  6  Y    0.000030   0.000104  -0.000080  -0.000043  -0.000016
  108  F  6  Z   -0.000092  -0.000076   0.000012  -0.000139   0.000046
  109  F  6 XX    0.000139  -0.004258  -0.003126  -0.000019   0.000041
  110  F  6 YY    0.000075  -0.004429  -0.003468  -0.000014   0.000063
  111  F  6 ZZ    0.000033  -0.004302  -0.003149  -0.000052   0.000057
  112  F  6 XY   -0.000019   0.000188   0.000147  -0.000005   0.000008
  113  F  6 XZ    0.000015   0.000126   0.000060   0.000007   0.000007
  114  F  6 YZ   -0.000089  -0.000211  -0.000192   0.000008   0.000002
  115  F  7  S    0.994238   0.000834   0.006013   0.000001   0.000009
  116  F  7  S    0.017004   0.000049   0.000359   0.000005   0.000044
  117  F  7  X   -0.000355  -0.000000  -0.000001  -0.000001  -0.000008
  118  F  7  Y    0.000001  -0.000002   0.000000  -0.000010   0.000001
  119  F  7  Z   -0.000937  -0.000006  -0.000043  -0.000001  -0.000009
  120  F  7  S    0.010621  -0.000118  -0.000861  -0.000018  -0.000173
  121  F  7  X    0.000451  -0.000002  -0.000016   0.000003   0.000028
  122  F  7  Y   -0.000001   0.000180  -0.000025   0.000076  -0.000008
  123  F  7  Z    0.001383   0.000071   0.000514   0.000006   0.000056
  124  F  7  S   -0.002813  -0.000046  -0.000331  -0.000012  -0.000107
  125  F  7  X   -0.000014  -0.000015  -0.000105   0.000002   0.000014
  126  F  7  Y    0.000000   0.000192  -0.000026  -0.000013   0.000001
  127  F  7  Z   -0.000046  -0.000002  -0.000020  -0.000001  -0.000012
  128  F  7 XX   -0.005293   0.000018   0.000130   0.000004   0.000037
  129  F  7 YY   -0.005218   0.000013   0.000094   0.000004   0.000037
  130  F  7 ZZ   -0.005799  -0.000010  -0.000072   0.000004   0.000038
  131  F  7 XY    0.000000  -0.000034   0.000005  -0.000004   0.000000
  132  F  7 XZ   -0.000231   0.000004   0.000029  -0.000001  -0.000008
  133  F  7 YZ    0.000001  -0.000115   0.000016  -0.000022   0.000002

                      6          7          8          9         10
                  -11.5074   -11.3788    -1.7213    -1.6286    -1.6279
                     A          A          A          A          A   
    1  C  1  S    0.996568  -0.002002  -0.085627  -0.000001   0.000580
    2  C  1  S    0.025708   0.000314   0.182720   0.000003  -0.001405
    3  C  1  X    0.002232  -0.000169   0.057292  -0.000001  -0.005472
    4  C  1  Y   -0.000000  -0.000000   0.000001   0.121897  -0.000104
    5  C  1  Z    0.000112   0.000009   0.001040   0.000103   0.118883
    6  C  1  S   -0.018804   0.002237  -0.077646  -0.000004   0.002315
    7  C  1  X   -0.000456  -0.001000  -0.037292  -0.000001   0.001390
    8  C  1  Y   -0.000001   0.000002  -0.000016  -0.023545   0.000024
    9  C  1  Z    0.000057  -0.000691   0.000673  -0.000011  -0.015522
   10  C  1  S   -0.003077   0.003017  -0.028506  -0.000014   0.020243
   11  C  1  X    0.000822  -0.000666  -0.004808   0.000004  -0.005363
   12  C  1  Y    0.000000  -0.000001   0.000001  -0.008191   0.000005
   13  C  1  Z    0.000056  -0.000136   0.000061  -0.000003  -0.004056
   14  C  1 XX   -0.000165  -0.000521  -0.006102  -0.000001  -0.000930
   15  C  1 YY    0.000105  -0.000144   0.002614   0.000031  -0.017128
   16  C  1 ZZ    0.000104  -0.000177   0.002198  -0.000030   0.018355
   17  C  1 XY   -0.000000   0.000000   0.000001   0.019128  -0.000014
   18  C  1 XZ   -0.000011  -0.000040  -0.000480   0.000017   0.017050
   19  C  1 YZ    0.000000   0.000000   0.000001  -0.018863  -0.000038
   20  C  2  S    0.001754   0.996114  -0.009929  -0.000000  -0.000062
   21  C  2  S    0.000008   0.026889   0.014016   0.000001   0.000172
   22  C  2  X    0.000258   0.000019   0.014973  -0.000001   0.000703
   23  C  2  Y    0.000000  -0.000000   0.000001   0.007167  -0.000006
   24  C  2  Z   -0.000011   0.000034   0.000409   0.000003   0.003873
   25  C  2  S    0.002640  -0.014459   0.021052   0.000010  -0.007183
   26  C  2  X    0.001873  -0.001044   0.013865  -0.000003   0.001711
   27  C  2  Y    0.000001  -0.000001   0.000034   0.015646  -0.000012
   28  C  2  Z    0.000000  -0.000008  -0.000064   0.000006   0.006257
   29  C  2  S    0.001810  -0.005116   0.013850   0.000018  -0.023803
   30  C  2  X    0.000640  -0.001183   0.006121   0.000006  -0.007606
   31  C  2  Y   -0.000000   0.000000   0.000003   0.003448  -0.000001
   32  C  2  Z    0.000028   0.000071   0.000022   0.000001   0.000660
   33  C  2 XX   -0.000183  -0.001219   0.007766  -0.000000  -0.000057
   34  C  2 YY   -0.000223  -0.000066   0.001070   0.000001  -0.000728
   35  C  2 ZZ   -0.000151  -0.001743  -0.001822  -0.000001   0.000446
   36  C  2 XY    0.000000  -0.000000  -0.000001   0.001169  -0.000001
   37  C  2 XZ   -0.000004   0.000008   0.000172   0.000002   0.002017
   38  C  2 YZ    0.000000  -0.000000   0.000000  -0.000106  -0.000000
   39  O  3  S   -0.000025  -0.000235  -0.003555  -0.002491   0.000156
   40  O  3  S   -0.000180   0.000419   0.007835   0.005864  -0.001023
   41  O  3  X   -0.000048   0.000047   0.002985   0.002339  -0.000466
   42  O  3  Y    0.000026  -0.000156  -0.002447  -0.001248  -0.000005
   43  O  3  Z   -0.000003  -0.000008  -0.000170  -0.000300   0.000930
   44  O  3  S    0.000502  -0.000931   0.004145  -0.002974   0.001818
   45  O  3  X   -0.000005  -0.000230  -0.001317   0.001159   0.000455
   46  O  3  Y   -0.000274   0.000474   0.000007   0.001428  -0.002193
   47  O  3  Z    0.000024   0.000055   0.000372  -0.000189  -0.000422
   48  O  3  S   -0.000265   0.004390  -0.002543  -0.000517   0.005534
   49  O  3  X   -0.000466   0.001498  -0.002303   0.001320   0.001974
   50  O  3  Y    0.000068  -0.001681   0.000235  -0.000022  -0.000519
   51  O  3  Z   -0.000018  -0.000145   0.000174   0.000504  -0.000529
   52  O  3 XX   -0.000024   0.000066   0.000136   0.000965  -0.000568
   53  O  3 YY   -0.000000  -0.000004  -0.000055   0.000343   0.000027
   54  O  3 ZZ   -0.000167   0.000316  -0.000092  -0.000276  -0.000455
   55  O  3 XY   -0.000036   0.000178   0.000136  -0.000199  -0.000271
   56  O  3 XZ    0.000009   0.000010   0.000064  -0.000151   0.000261
   57  O  3 YZ    0.000007  -0.000023  -0.000045   0.000030   0.000052
   58  O  4  S   -0.000025  -0.000235  -0.003557   0.002490   0.000151
   59  O  4  S   -0.000180   0.000419   0.007829  -0.005859  -0.001014
   60  O  4  X   -0.000048   0.000047   0.002984  -0.002337  -0.000462
   61  O  4  Y   -0.000026   0.000156   0.002448  -0.001248   0.000007
   62  O  4  Z   -0.000003  -0.000008  -0.000170   0.000302   0.000931
   63  O  4  S    0.000503  -0.000930   0.004193   0.002966   0.001818
   64  O  4  X   -0.000005  -0.000230  -0.001303  -0.001162   0.000458
   65  O  4  Y    0.000275  -0.000474   0.000007   0.001422   0.002192
   66  O  4  Z    0.000024   0.000055   0.000371   0.000189  -0.000419
   67  O  4  S   -0.000265   0.004388  -0.002516   0.000506   0.005531
   68  O  4  X   -0.000466   0.001496  -0.002298  -0.001324   0.001973
   69  O  4  Y   -0.000067   0.001681  -0.000231  -0.000023   0.000517
   70  O  4  Z   -0.000018  -0.000145   0.000173  -0.000505  -0.000532
   71  O  4 XX   -0.000024   0.000066   0.000134  -0.000963  -0.000566
   72  O  4 YY   -0.000000  -0.000005  -0.000058  -0.000342   0.000027
   73  O  4 ZZ   -0.000167   0.000316  -0.000096   0.000278  -0.000456
   74  O  4 XY    0.000036  -0.000178  -0.000134  -0.000199   0.000271
   75  O  4 XZ    0.000009   0.000010   0.000064   0.000152   0.000261
   76  O  4 YZ   -0.000007   0.000023   0.000045   0.000030  -0.000052
   77  F  5  S   -0.000049  -0.000037  -0.120467  -0.160539   0.091992
   78  F  5  S    0.000604  -0.000244   0.279109   0.381178  -0.219476
   79  F  5  X   -0.000141   0.000056  -0.016602  -0.019046   0.010436
   80  F  5  Y   -0.000239   0.000015  -0.044325  -0.027279   0.022623
   81  F  5  Z    0.000135  -0.000026   0.024618   0.021735  -0.000075
   82  F  5  S   -0.000759   0.000596   0.243619   0.310568  -0.174822
   83  F  5  X    0.000277  -0.000026  -0.015874  -0.015017   0.007688
   84  F  5  Y    0.000562   0.000042  -0.045142  -0.023661   0.017260
   85  F  5  Z   -0.000339   0.000091   0.024485   0.017008  -0.002622
   86  F  5  S    0.003600  -0.000976   0.032167   0.017472  -0.012187
   87  F  5  X   -0.001146   0.000321   0.004140   0.001126   0.001098
   88  F  5  Y   -0.001410   0.000032  -0.000626   0.006026  -0.000285
   89  F  5  Z    0.000852  -0.000234   0.001317  -0.000332   0.003645
   90  F  5 XX    0.000323  -0.000097   0.012731   0.020127  -0.011914
   91  F  5 YY   -0.000221  -0.000185   0.023211   0.024712  -0.015699
   92  F  5 ZZ    0.000235  -0.000216   0.014507   0.021034  -0.011409
   93  F  5 XY   -0.000301   0.000030   0.005844   0.004319  -0.002891
   94  F  5 XZ    0.000164  -0.000015  -0.003111  -0.002778   0.000719
   95  F  5 YZ    0.000426  -0.000057  -0.007983  -0.004724   0.002017
   96  F  6  S   -0.000049  -0.000037  -0.120468   0.160531   0.092007
   97  F  6  S    0.000604  -0.000243   0.279110  -0.381158  -0.219514
   98  F  6  X   -0.000141   0.000056  -0.016604   0.019046   0.010439
   99  F  6  Y    0.000239  -0.000015   0.044279  -0.027235  -0.022624
  100  F  6  Z    0.000136  -0.000026   0.024698  -0.021783  -0.000117
  101  F  6  S   -0.000759   0.000595   0.243623  -0.310549  -0.174845
  102  F  6  X    0.000277  -0.000026  -0.015878   0.015017   0.007689
  103  F  6  Y   -0.000561  -0.000042   0.045095  -0.023624  -0.017255
  104  F  6  Z   -0.000340   0.000092   0.024564  -0.017050  -0.002651
  105  F  6  S    0.003599  -0.000971   0.032143  -0.017463  -0.012177
  106  F  6  X   -0.001146   0.000320   0.004147  -0.001128   0.001097
  107  F  6  Y    0.001408  -0.000030   0.000617   0.006027   0.000282
  108  F  6  Z    0.000855  -0.000233   0.001313   0.000343   0.003646
  109  F  6 XX    0.000323  -0.000097   0.012731  -0.020127  -0.011917
  110  F  6 YY   -0.000220  -0.000185   0.023185  -0.024695  -0.015696
  111  F  6 ZZ    0.000234  -0.000216   0.014531  -0.021048  -0.011418
  112  F  6 XY    0.000301  -0.000030  -0.005838   0.004314   0.002890
  113  F  6 XZ    0.000165  -0.000015  -0.003121   0.002786   0.000724
  114  F  6 YZ   -0.000427   0.000057   0.008001  -0.004732  -0.002026
  115  F  7  S   -0.000062  -0.000028  -0.119455   0.000009  -0.186078
  116  F  7  S    0.000511  -0.000205   0.275719  -0.000019   0.443153
  117  F  7  X   -0.000124   0.000071  -0.013579   0.000001  -0.019435
  118  F  7  Y    0.000000  -0.000000   0.000046   0.012239   0.000037
  119  F  7  Z   -0.000287   0.000053  -0.050425   0.000013  -0.039755
  120  F  7  S   -0.000404   0.000454   0.244324  -0.000022   0.356233
  121  F  7  X    0.000239  -0.000157  -0.013496   0.000002  -0.015354
  122  F  7  Y   -0.000001  -0.000000   0.000049   0.007712   0.000029
  123  F  7  Z    0.000703  -0.000215  -0.051181   0.000010  -0.032917
  124  F  7  S    0.002968   0.000736   0.024862  -0.000003   0.019730
  125  F  7  X   -0.000931  -0.000008   0.005727  -0.000002  -0.000289
  126  F  7  Y    0.000001   0.000001  -0.000003   0.005166  -0.000005
  127  F  7  Z   -0.001549  -0.000329   0.001352   0.000004   0.005313
  128  F  7 XX    0.000284  -0.000051   0.011818  -0.000000   0.023659
  129  F  7 YY    0.000379  -0.000232   0.010041   0.000002   0.021679
  130  F  7 ZZ   -0.000550  -0.000088   0.026773  -0.000003   0.032506
  131  F  7 XY    0.000000  -0.000000  -0.000005  -0.000841  -0.000005
  132  F  7 XZ   -0.000307   0.000068   0.005585  -0.000001   0.005241
  133  F  7 YZ    0.000001  -0.000000  -0.000018  -0.001493  -0.000011

                     11         12         13         14         15
                   -1.4006    -1.3075    -0.9897    -0.8538    -0.8125
                     A          A          A          A          A   
    1  C  1  S   -0.013561  -0.000002  -0.152684  -0.007016  -0.000755
    2  C  1  S    0.030064   0.000010   0.347468   0.024554   0.003366
    3  C  1  X   -0.048155  -0.000007  -0.068891   0.318951   0.007462
    4  C  1  Y   -0.000003  -0.008185  -0.000000  -0.000001  -0.000061
    5  C  1  Z   -0.000463  -0.000000  -0.000772   0.006413  -0.295544
    6  C  1  S    0.007346  -0.000016   0.196470  -0.102178  -0.009757
    7  C  1  X    0.006200   0.000004  -0.049202   0.062562   0.002948
    8  C  1  Y    0.000016  -0.024057  -0.000011  -0.000024  -0.000023
    9  C  1  Z   -0.002466  -0.000001  -0.000635   0.007251  -0.056082
   10  C  1  S   -0.021552  -0.000045  -0.086240  -0.165125  -0.048546
   11  C  1  X    0.002027   0.000014   0.005780   0.060009   0.012407
   12  C  1  Y   -0.000006   0.002987   0.000002  -0.000003   0.000008
   13  C  1  Z    0.001526   0.000000   0.000495   0.001764   0.001083
   14  C  1 XX    0.010044   0.000001   0.004914  -0.004026   0.001203
   15  C  1 YY   -0.001967   0.000000  -0.004209   0.004081   0.010547
   16  C  1 ZZ   -0.001874  -0.000001  -0.003312   0.002896  -0.012443
   17  C  1 XY    0.000000   0.003439   0.000000  -0.000000  -0.000007
   18  C  1 XZ    0.000132   0.000000   0.000085  -0.000209  -0.024890
   19  C  1 YZ    0.000000  -0.000188   0.000000   0.000001   0.000037
   20  C  2  S   -0.135989  -0.000003  -0.040519   0.062445  -0.002102
   21  C  2  S    0.264113   0.000005   0.084263  -0.134681   0.003324
   22  C  2  X   -0.074339   0.000027   0.161342  -0.162702  -0.002267
   23  C  2  Y   -0.000000  -0.263721   0.000015  -0.000009  -0.000005
   24  C  2  Z    0.005602   0.000000   0.000117   0.000187  -0.038295
   25  C  2  S    0.061863   0.000014   0.100938  -0.123278   0.024453
   26  C  2  X    0.039435  -0.000000   0.025811  -0.031021   0.001884
   27  C  2  Y   -0.000011   0.057921   0.000029   0.000020  -0.000002
   28  C  2  Z   -0.001051   0.000000   0.000087  -0.003247  -0.015375
   29  C  2  S    0.034555   0.000039   0.072625   0.135435   0.058765
   30  C  2  X    0.010923   0.000012   0.025687   0.023705   0.020144
   31  C  2  Y    0.000003  -0.013077   0.000008   0.000015  -0.000007
   32  C  2  Z   -0.000205  -0.000000  -0.000728  -0.002600  -0.003225
   33  C  2 XX   -0.012439  -0.000004   0.021755  -0.009543   0.000362
   34  C  2 YY    0.030515   0.000006  -0.008438   0.005285   0.000676
   35  C  2 ZZ   -0.021571  -0.000001  -0.003820   0.005047  -0.000792
   36  C  2 XY   -0.000006   0.028487   0.000000  -0.000001  -0.000002
   37  C  2 XZ   -0.000233   0.000000   0.000491  -0.000461  -0.004837
   38  C  2 YZ   -0.000000  -0.001877   0.000000   0.000000  -0.000001
   39  O  3  S   -0.131561   0.150572   0.034500  -0.038943   0.000760
   40  O  3  S    0.288199  -0.325629  -0.077029   0.089411  -0.000001
   41  O  3  X    0.034541  -0.042581   0.040759  -0.077138  -0.002101
   42  O  3  Y   -0.090548   0.069166  -0.001753   0.027718  -0.003714
   43  O  3  Z   -0.001619   0.002211   0.000298   0.001612  -0.020902
   44  O  3  S    0.273464  -0.350223  -0.101117   0.121773  -0.007410
   45  O  3  X    0.012414  -0.027330   0.016627  -0.041410  -0.004361
   46  O  3  Y   -0.045549   0.034096   0.006236   0.008981   0.002268
   47  O  3  Z   -0.000520   0.001427   0.000795   0.001694  -0.012548
   48  O  3  S   -0.002864  -0.018281  -0.018832   0.016527  -0.012794
   49  O  3  X   -0.005385  -0.001794  -0.004797   0.004648  -0.005127
   50  O  3  Y    0.001493   0.009991   0.003745  -0.001646   0.000237
   51  O  3  Z   -0.000132   0.000189   0.000912   0.001932   0.001873
   52  O  3 XX   -0.001358  -0.001289   0.002355  -0.003022   0.000206
   53  O  3 YY    0.013712  -0.005529  -0.002946   0.001526   0.000486
   54  O  3 ZZ   -0.001603   0.003531  -0.000112   0.001539   0.001042
   55  O  3 XY   -0.005611   0.008042  -0.002696   0.005594   0.000477
   56  O  3 XZ    0.000095   0.000255   0.000170   0.000422  -0.001291
   57  O  3 YZ    0.000309  -0.000483  -0.000156  -0.000100   0.001880
   58  O  4  S   -0.131553  -0.150577   0.034506  -0.038947   0.000765
   59  O  4  S    0.288182   0.325640  -0.077050   0.089417  -0.000010
   60  O  4  X    0.034522   0.042570   0.040763  -0.077132  -0.002092
   61  O  4  Y    0.090549   0.069177   0.001760  -0.027741   0.003717
   62  O  4  Z   -0.001619  -0.002211   0.000298   0.001612  -0.020894
   63  O  4  S    0.273434   0.350237  -0.101099   0.121813  -0.007432
   64  O  4  X    0.012404   0.027326   0.016642  -0.041401  -0.004357
   65  O  4  Y    0.045547   0.034103  -0.006222  -0.008986  -0.002267
   66  O  4  Z   -0.000520  -0.001426   0.000795   0.001693  -0.012544
   67  O  4  S   -0.002875   0.018277  -0.018810   0.016537  -0.012780
   68  O  4  X   -0.005387   0.001789  -0.004792   0.004646  -0.005115
   69  O  4  Y   -0.001497   0.009989  -0.003750   0.001631  -0.000229
   70  O  4  Z   -0.000132  -0.000188   0.000911   0.001932   0.001886
   71  O  4 XX   -0.001359   0.001286   0.002354  -0.003020   0.000208
   72  O  4 YY    0.013714   0.005531  -0.002947   0.001523   0.000487
   73  O  4 ZZ   -0.001603  -0.003531  -0.000115   0.001538   0.001042
   74  O  4 XY    0.005608   0.008041   0.002698  -0.005595  -0.000477
   75  O  4 XZ    0.000096  -0.000255   0.000170   0.000422  -0.001290
   76  O  4 YZ   -0.000309  -0.000483   0.000156   0.000100  -0.001880
   77  F  5  S    0.010024  -0.006047   0.052326   0.019292   0.019327
   78  F  5  S   -0.022578   0.013451  -0.130343  -0.052214  -0.049184
   79  F  5  X   -0.008231   0.005940  -0.106320   0.129260  -0.091358
   80  F  5  Y    0.000004   0.000305  -0.161194  -0.193230  -0.250854
   81  F  5  Z    0.000587  -0.001847   0.088175   0.112748  -0.136721
   82  F  5  S   -0.024119   0.020285  -0.137140  -0.043171  -0.060167
   83  F  5  X   -0.003586   0.003979  -0.063934   0.081125  -0.057080
   84  F  5  Y    0.001863  -0.001454  -0.101774  -0.130153  -0.159546
   85  F  5  Z   -0.000463   0.001270   0.055385   0.075458  -0.091167
   86  F  5  S   -0.007272   0.005288  -0.011279   0.019193  -0.009155
   87  F  5  X    0.003051  -0.000595   0.007374  -0.003868  -0.005819
   88  F  5  Y    0.002509   0.000465   0.002198  -0.010055  -0.011519
   89  F  5  Z   -0.001637   0.001734  -0.000019   0.006133  -0.005339
   90  F  5 XX   -0.000028  -0.000867  -0.006681  -0.012048  -0.003180
   91  F  5 YY   -0.000949   0.000462   0.002777   0.008077   0.010080
   92  F  5 ZZ   -0.000352   0.001006  -0.007536  -0.002565  -0.011642
   93  F  5 XY    0.000175  -0.000214   0.009430  -0.002639   0.008344
   94  F  5 XZ   -0.000282   0.000219  -0.005058   0.001210   0.001827
   95  F  5 YZ    0.000450  -0.000110  -0.009300  -0.010022   0.001829
   96  F  6  S    0.010022   0.006043   0.052325   0.019293   0.019402
   97  F  6  S   -0.022577  -0.013448  -0.130343  -0.052210  -0.049377
   98  F  6  X   -0.008229  -0.005935  -0.106327   0.129254  -0.091749
   99  F  6  Y   -0.000005   0.000299   0.161029   0.193033   0.251470
  100  F  6  Z    0.000588   0.001852   0.088466   0.113104  -0.135716
  101  F  6  S   -0.024104  -0.020258  -0.137130  -0.043184  -0.060394
  102  F  6  X   -0.003587  -0.003981  -0.063940   0.081125  -0.057323
  103  F  6  Y   -0.001861  -0.001445   0.101671   0.130018   0.159933
  104  F  6  Z   -0.000462  -0.001271   0.055567   0.075694  -0.090532
  105  F  6  S   -0.007253  -0.005272  -0.011301   0.019172  -0.009248
  106  F  6  X    0.003048   0.000591   0.007381  -0.003865  -0.005820
  107  F  6  Y   -0.002493   0.000469  -0.002207   0.010036   0.011525
  108  F  6  Z   -0.001635  -0.001735  -0.000027   0.006146  -0.005296
  109  F  6 XX   -0.000030   0.000864  -0.006681  -0.012048  -0.003191
  110  F  6 YY   -0.000949  -0.000463   0.002746   0.008048   0.010079
  111  F  6 ZZ   -0.000355  -0.001009  -0.007509  -0.002531  -0.011650
  112  F  6 XY   -0.000174  -0.000214  -0.009421   0.002636  -0.008367
  113  F  6 XZ   -0.000283  -0.000220  -0.005076   0.001214   0.001794
  114  F  6 YZ   -0.000451  -0.000109   0.009321   0.010044  -0.001759
  115  F  7  S    0.009250   0.000007   0.051953   0.017669  -0.038890
  116  F  7  S   -0.022997  -0.000021  -0.131214  -0.046371   0.099472
  117  F  7  X   -0.007221  -0.000007  -0.096855   0.148527   0.167628
  118  F  7  Y   -0.000000  -0.002356   0.000172   0.000189  -0.000596
  119  F  7  Z   -0.001339  -0.000005  -0.189327  -0.207681   0.321463
  120  F  7  S   -0.018757  -0.000015  -0.132150  -0.041481   0.119614
  121  F  7  X   -0.004218  -0.000008  -0.058950   0.095756   0.105081
  122  F  7  Y   -0.000003   0.001083   0.000111   0.000129  -0.000378
  123  F  7  Z    0.000280  -0.000001  -0.119715  -0.139543   0.199884
  124  F  7  S   -0.001924  -0.000002  -0.017739   0.010068   0.026539
  125  F  7  X    0.001389  -0.000000   0.008935  -0.001188   0.006156
  126  F  7  Y    0.000003   0.000806  -0.000008   0.000005  -0.000030
  127  F  7  Z   -0.001280   0.000002   0.004319  -0.006513   0.013280
  128  F  7 XX   -0.001266  -0.000000  -0.007994  -0.011234   0.007457
  129  F  7 YY   -0.001476  -0.000002  -0.012755  -0.006002   0.011050
  130  F  7 ZZ   -0.002018  -0.000003   0.007336   0.013151  -0.008226
  131  F  7 XY   -0.000000   0.000456  -0.000009   0.000005   0.000018
  132  F  7 XZ    0.000656   0.000002   0.009993  -0.004771  -0.012105
  133  F  7 YZ    0.000001  -0.000471  -0.000021  -0.000021   0.000035

                     16         17         18         19         20
                   -0.8118    -0.7127    -0.7066    -0.7047    -0.6592
                     A          A          A          A          A   
    1  C  1  S   -0.000001   0.011014   0.000001   0.005477  -0.000000
    2  C  1  S    0.000007  -0.025349  -0.000003  -0.014632  -0.000001
    3  C  1  X    0.000006  -0.017409  -0.000009  -0.016055   0.000001
    4  C  1  Y    0.296283  -0.000108   0.089253   0.000169  -0.092088
    5  C  1  Z   -0.000059   0.041001   0.000184  -0.071227  -0.000243
    6  C  1  S   -0.000032  -0.010822   0.000011   0.016327   0.000011
    7  C  1  X    0.000005   0.027184  -0.000005   0.008926  -0.000008
    8  C  1  Y    0.047483   0.000016  -0.009680   0.000004   0.026830
    9  C  1  Z   -0.000000   0.003775   0.000014  -0.011047   0.000059
   10  C  1  S   -0.000124  -0.011450   0.000061  -0.015916   0.000013
   11  C  1  X    0.000032   0.015689  -0.000015   0.011468  -0.000005
   12  C  1  Y   -0.005328   0.000031  -0.023585  -0.000049   0.024766
   13  C  1  Z    0.000001  -0.008636  -0.000036   0.013862   0.000068
   14  C  1 XX   -0.000000   0.021997   0.000004   0.013376   0.000006
   15  C  1 YY    0.000029  -0.024570   0.000016   0.021243  -0.000000
   16  C  1 ZZ   -0.000031   0.006610  -0.000019  -0.031932  -0.000006
   17  C  1 XY    0.027259   0.000011  -0.009112  -0.000021  -0.028450
   18  C  1 XZ   -0.000003  -0.005540  -0.000027   0.012435  -0.000067
   19  C  1 YZ   -0.011084  -0.000006  -0.036980   0.000014   0.025905
   20  C  2  S   -0.000005  -0.101445  -0.000004  -0.057073  -0.000000
   21  C  2  S    0.000007   0.231543   0.000011   0.133291   0.000001
   22  C  2  X   -0.000013  -0.065107   0.000003  -0.018036   0.000015
   23  C  2  Y    0.020312  -0.000033   0.032399   0.000069   0.019195
   24  C  2  Z   -0.000008   0.023983   0.000099  -0.037840   0.000090
   25  C  2  S    0.000068   0.213036  -0.000011   0.101519   0.000010
   26  C  2  X    0.000003   0.012258  -0.000005   0.003024  -0.000003
   27  C  2  Y    0.021005  -0.000060   0.039925   0.000052  -0.007274
   28  C  2  Z   -0.000001   0.013869   0.000060  -0.024538   0.000035
   29  C  2  S    0.000154   0.015111  -0.000063   0.015744  -0.000008
   30  C  2  X    0.000053   0.000772  -0.000020   0.006403  -0.000002
   31  C  2  Y    0.004207  -0.000025   0.016778   0.000030  -0.004179
   32  C  2  Z    0.000003   0.007154   0.000031  -0.012140  -0.000007
   33  C  2 XX   -0.000001  -0.005057  -0.000001  -0.002698  -0.000001
   34  C  2 YY    0.000002   0.005346   0.000001   0.005883   0.000002
   35  C  2 ZZ   -0.000002  -0.010746  -0.000000  -0.007814   0.000000
   36  C  2 XY    0.007250  -0.000007   0.004203   0.000007   0.002411
   37  C  2 XZ   -0.000001   0.001139   0.000007  -0.002533  -0.000002
   38  C  2 YZ    0.000580  -0.000001  -0.002888   0.000002  -0.000340
   39  O  3  S    0.010639   0.059578   0.009694   0.033301   0.007061
   40  O  3  S   -0.024061  -0.134022  -0.022314  -0.078142  -0.017807
   41  O  3  X    0.024333   0.051094   0.034037   0.049210   0.034679
   42  O  3  Y   -0.008305  -0.229696  -0.017259  -0.116583  -0.006399
   43  O  3  Z    0.001224   0.011831  -0.009001  -0.031031  -0.003541
   44  O  3  S   -0.040919  -0.221833  -0.045535  -0.113888  -0.019975
   45  O  3  X    0.013819   0.015826   0.020141   0.027830   0.024800
   46  O  3  Y   -0.001290  -0.119997  -0.003077  -0.062634  -0.003616
   47  O  3  Z    0.000887   0.007760  -0.007185  -0.018853  -0.002614
   48  O  3  S   -0.006738  -0.032849  -0.020552  -0.019690   0.004501
   49  O  3  X    0.001846   0.003176   0.002559  -0.000501   0.004392
   50  O  3  Y    0.000452  -0.008382   0.002806  -0.002701  -0.005401
   51  O  3  Z    0.002333  -0.001876  -0.001826   0.002399  -0.001080
   52  O  3 XX    0.001722  -0.005755   0.001995  -0.001788   0.001507
   53  O  3 YY    0.000422   0.014041   0.000212   0.005272  -0.000786
   54  O  3 ZZ   -0.000804  -0.003272  -0.001236  -0.002995  -0.001068
   55  O  3 XY   -0.001356  -0.006223  -0.001759  -0.004114  -0.001541
   56  O  3 XZ    0.000114   0.001031  -0.001162  -0.001603  -0.000457
   57  O  3 YZ   -0.000007  -0.000647   0.000387   0.002363   0.000061
   58  O  4  S   -0.010635   0.059597  -0.009688   0.033262  -0.007062
   59  O  4  S    0.024065  -0.134061   0.022299  -0.078044   0.017810
   60  O  4  X   -0.024348   0.051121  -0.034012   0.049048  -0.034647
   61  O  4  Y   -0.008282   0.229722  -0.017250   0.116507  -0.006421
   62  O  4  Z   -0.001232   0.011834   0.009147  -0.031037   0.003708
   63  O  4  S    0.040875  -0.221946   0.045522  -0.113730   0.019968
   64  O  4  X   -0.013849   0.015838  -0.020124   0.027726  -0.024780
   65  O  4  Y   -0.001302   0.119989  -0.003066   0.062605  -0.003638
   66  O  4  Z   -0.000894   0.007765   0.007278  -0.018863   0.002725
   67  O  4  S    0.006667  -0.032908   0.020564  -0.019647  -0.004511
   68  O  4  X   -0.001874   0.003180  -0.002553  -0.000522  -0.004391
   69  O  4  Y    0.000451   0.008374   0.002807   0.002704  -0.005406
   70  O  4  Z   -0.002333  -0.001876   0.001810   0.002401   0.001079
   71  O  4 XX   -0.001720  -0.005751  -0.001995  -0.001794  -0.001503
   72  O  4 YY   -0.000417   0.014044  -0.000212   0.005274   0.000784
   73  O  4 ZZ    0.000810  -0.003273   0.001234  -0.002988   0.001068
   74  O  4 XY   -0.001359   0.006221  -0.001757   0.004103  -0.001541
   75  O  4 XZ   -0.000114   0.001032   0.001171  -0.001604   0.000465
   76  O  4 YZ   -0.000008   0.000647   0.000399  -0.002364   0.000073
   77  F  5  S    0.033480  -0.003201   0.005290   0.001836  -0.001909
   78  F  5  S   -0.086760   0.010464  -0.016141  -0.002852   0.008036
   79  F  5  X   -0.169097   0.277026  -0.344944  -0.078957  -0.225751
   80  F  5  Y   -0.169076  -0.085129  -0.092170   0.112618   0.357279
   81  F  5  Z    0.248277  -0.097880  -0.152045   0.212657  -0.052105
   82  F  5  S   -0.098722   0.003114  -0.008829  -0.011824  -0.005117
   83  F  5  X   -0.106124   0.189858  -0.236747  -0.051991  -0.154191
   84  F  5  Y   -0.102963  -0.055832  -0.063300   0.082198   0.247901
   85  F  5  Z    0.158197  -0.069224  -0.104319   0.145271  -0.037433
   86  F  5  S   -0.026785  -0.002975   0.002619  -0.007057  -0.013905
   87  F  5  X   -0.004766   0.018015  -0.022923  -0.005348  -0.014564
   88  F  5  Y   -0.003603  -0.007077  -0.002123   0.011546   0.023023
   89  F  5  Z    0.010924  -0.006225  -0.012249   0.012869  -0.005196
   90  F  5 XX   -0.005841  -0.004873   0.006247   0.002735   0.010376
   91  F  5 YY   -0.002845   0.006947   0.000946  -0.007847  -0.013761
   92  F  5 ZZ   -0.001513  -0.000388  -0.009801   0.006198   0.003804
   93  F  5 XY    0.008499  -0.008576   0.012402   0.000910   0.000874
   94  F  5 XZ   -0.008333   0.006365  -0.004388  -0.003109  -0.002995
   95  F  5 YZ   -0.011016   0.002494   0.002626  -0.005102   0.008764
   96  F  6  S   -0.033437  -0.003191  -0.005299   0.001825   0.001912
   97  F  6  S    0.086649   0.010434   0.016163  -0.002815  -0.008049
   98  F  6  X    0.168907   0.276531   0.345568  -0.078184   0.226096
   99  F  6  Y   -0.168055   0.085465  -0.092044  -0.113250   0.357307
  100  F  6  Z   -0.248885  -0.097931   0.151275   0.212814   0.053841
  101  F  6  S    0.098591   0.003106   0.008862  -0.011816   0.005129
  102  F  6  X    0.106003   0.189518   0.237173  -0.051458   0.154427
  103  F  6  Y   -0.102308   0.056067  -0.063209  -0.082630   0.247921
  104  F  6  Z   -0.158587  -0.069260   0.103786   0.145369   0.038634
  105  F  6  S    0.026787  -0.002968  -0.002628  -0.007035   0.013908
  106  F  6  X    0.004745   0.017987   0.022974  -0.005309   0.014594
  107  F  6  Y   -0.003552   0.007091  -0.002108  -0.011564   0.023020
  108  F  6  Z   -0.010938  -0.006229   0.012198   0.012885   0.005299
  109  F  6 XX    0.005832  -0.004866  -0.006263   0.002723  -0.010394
  110  F  6 YY    0.002904   0.006956  -0.000925  -0.007866   0.013733
  111  F  6 ZZ    0.001452  -0.000410   0.009794   0.006238  -0.003758
  112  F  6 XY    0.008465   0.008546   0.012410  -0.000875   0.000876
  113  F  6 XZ    0.008353   0.006374   0.004426  -0.003101   0.002983
  114  F  6 YZ   -0.011017  -0.002482   0.002588   0.005079   0.008836
  115  F  7  S   -0.000043   0.002280   0.000008  -0.006016  -0.000003
  116  F  7  S    0.000110  -0.005126  -0.000020   0.018053   0.000016
  117  F  7  X    0.000180  -0.035290  -0.000548   0.472570  -0.000387
  118  F  7  Y    0.275236   0.000247  -0.340389  -0.000386   0.298744
  119  F  7  Z    0.000610  -0.019710  -0.000311   0.003045   0.000894
  120  F  7  S    0.000127  -0.010284  -0.000033   0.011491  -0.000021
  121  F  7  X    0.000114  -0.023820  -0.000373   0.323940  -0.000263
  122  F  7  Y    0.180403   0.000164  -0.233180  -0.000267   0.205397
  123  F  7  Z    0.000390  -0.008962  -0.000208   0.002840   0.000623
  124  F  7  S    0.000018  -0.007198  -0.000004   0.005033  -0.000005
  125  F  7  X    0.000005  -0.003111  -0.000042   0.032484  -0.000033
  126  F  7  Y    0.015484   0.000010  -0.022118  -0.000013   0.017893
  127  F  7  Z    0.000030   0.003618  -0.000017  -0.005093   0.000047
  128  F  7 XX    0.000009   0.001700   0.000012  -0.007608   0.000019
  129  F  7 YY    0.000034  -0.001383  -0.000027   0.006008   0.000028
  130  F  7 ZZ   -0.000030  -0.000680   0.000016   0.003383  -0.000044
  131  F  7 XY   -0.005958  -0.000003   0.003009   0.000020  -0.005097
  132  F  7 XZ   -0.000019   0.000712   0.000023  -0.018112  -0.000001
  133  F  7 YZ   -0.013570  -0.000009   0.012724   0.000017  -0.009260

                     21         22         23         24         25
                   -0.6591    -0.6457    -0.6301    -0.6240    -0.5756
                     A          A          A          A          A   
    1  C  1  S    0.000299   0.000000  -0.011953  -0.000005   0.000179
    2  C  1  S   -0.000269   0.000001   0.018344   0.000008  -0.001522
    3  C  1  X    0.011235   0.000002  -0.158974  -0.000065   0.001619
    4  C  1  Y    0.000234   0.001106   0.000013  -0.014106  -0.000000
    5  C  1  Z   -0.095516   0.000005  -0.006138  -0.000002  -0.009410
    6  C  1  S   -0.006424  -0.000007   0.120144   0.000050   0.000275
    7  C  1  X    0.000253   0.000003  -0.022669  -0.000017  -0.005543
    8  C  1  Y   -0.000067  -0.007450  -0.000017   0.007766   0.000005
    9  C  1  Z    0.022462  -0.000006   0.005950   0.000003   0.014671
   10  C  1  S   -0.005465  -0.000037  -0.055492   0.000021   0.020042
   11  C  1  X   -0.000035   0.000011   0.028910  -0.000002  -0.006726
   12  C  1  Y   -0.000063  -0.003689   0.000001   0.010506  -0.000002
   13  C  1  Z    0.026836  -0.000008   0.001732   0.000001  -0.010902
   14  C  1 XX    0.000642  -0.000001   0.032357   0.000012  -0.000527
   15  C  1 YY    0.025786  -0.000000  -0.017231  -0.000017   0.003619
   16  C  1 ZZ   -0.026658   0.000001  -0.015634   0.000004  -0.003378
   17  C  1 XY    0.000069   0.000451   0.000009  -0.006057  -0.000000
   18  C  1 XZ   -0.025342   0.000001  -0.000512  -0.000001  -0.008049
   19  C  1 YZ    0.000014  -0.001109  -0.000003   0.004048   0.000010
   20  C  2  S   -0.000004   0.000000   0.005719   0.000005   0.002414
   21  C  2  S   -0.000041  -0.000001  -0.019553  -0.000015  -0.004386
   22  C  2  X   -0.010169  -0.000006   0.303347   0.000102  -0.001418
   23  C  2  Y   -0.000047   0.010932  -0.000135   0.367891  -0.000001
   24  C  2  Z    0.035271  -0.000020   0.004377   0.000004   0.327984
   25  C  2  S   -0.000977   0.000009   0.035407   0.000002  -0.012577
   26  C  2  X   -0.002405  -0.000002   0.085541   0.000027  -0.004137
   27  C  2  Y    0.000021   0.019588  -0.000044   0.085148  -0.000004
   28  C  2  Z    0.013660   0.000003   0.002586   0.000002   0.147463
   29  C  2  S    0.006914   0.000035   0.083301  -0.000005  -0.012383
   30  C  2  X    0.001484   0.000007   0.037507   0.000006  -0.000397
   31  C  2  Y    0.000012   0.009555  -0.000003  -0.019306   0.000001
   32  C  2  Z   -0.003055   0.000014   0.003838   0.000001   0.036272
   33  C  2 XX   -0.000337   0.000000   0.001811   0.000002  -0.000525
   34  C  2 YY   -0.000194  -0.000000   0.002677  -0.000003  -0.000938
   35  C  2 ZZ    0.000158  -0.000000   0.001913   0.000002   0.001463
   36  C  2 XY   -0.000006  -0.001310   0.000005  -0.014742   0.000000
   37  C  2 XZ   -0.001020   0.000001   0.000593   0.000000  -0.013695
   38  C  2 YZ    0.000000   0.000201  -0.000001   0.001772   0.000001
   39  O  3  S    0.000855   0.001269  -0.023720   0.053722   0.000588
   40  O  3  S   -0.001768  -0.000914   0.051952  -0.122642  -0.001426
   41  O  3  X   -0.004310   0.000494   0.151036   0.218924   0.003415
   42  O  3  Y   -0.008097  -0.010961   0.216263  -0.297087  -0.012588
   43  O  3  Z    0.032760   0.000571   0.009488  -0.010163   0.339236
   44  O  3  S   -0.003912  -0.016383   0.099223  -0.232941  -0.001808
   45  O  3  X   -0.002959  -0.004012   0.102276   0.124336   0.003405
   46  O  3  Y   -0.004336  -0.002734   0.126355  -0.154390  -0.007279
   47  O  3  Z    0.021646   0.000711   0.006744  -0.005154   0.231127
   48  O  3  S   -0.001784  -0.006212   0.007232  -0.047007  -0.004404
   49  O  3  X    0.000199   0.000469  -0.000047   0.011991  -0.001978
   50  O  3  Y   -0.000963  -0.004280   0.016152  -0.012689  -0.000556
   51  O  3  Z   -0.000084   0.000350  -0.001290  -0.000856   0.013861
   52  O  3 XX   -0.000122  -0.000268   0.009750   0.000967   0.000544
   53  O  3 YY    0.000712   0.001043  -0.017546   0.011926   0.000987
   54  O  3 ZZ   -0.000230   0.000616   0.001686  -0.006660  -0.001281
   55  O  3 XY    0.000007  -0.000267  -0.005565  -0.016081  -0.000702
   56  O  3 XZ    0.001547   0.000063   0.000531  -0.000388   0.011506
   57  O  3 YZ   -0.002457  -0.000030  -0.001002   0.000890  -0.025402
   58  O  4  S    0.000890  -0.001269  -0.023667  -0.053747   0.000589
   59  O  4  S   -0.001857   0.000915   0.051838   0.122698  -0.001426
   60  O  4  X   -0.004138  -0.000499   0.151288  -0.218731   0.003415
   61  O  4  Y    0.008126  -0.010958  -0.215976  -0.297334   0.012590
   62  O  4  Z    0.032749  -0.000618   0.009478   0.010175   0.339218
   63  O  4  S   -0.004007   0.016376   0.098975   0.233039  -0.001812
   64  O  4  X   -0.002834   0.004006   0.102413  -0.124215   0.003404
   65  O  4  Y    0.004354  -0.002736  -0.126215  -0.154535   0.007279
   66  O  4  Z    0.021637  -0.000749   0.006739   0.005162   0.231112
   67  O  4  S   -0.001757   0.006205   0.007183   0.047023  -0.004411
   68  O  4  X    0.000222  -0.000469  -0.000025  -0.011985  -0.001980
   69  O  4  Y    0.000990  -0.004280  -0.016132  -0.012707   0.000553
   70  O  4  Z   -0.000085  -0.000367  -0.001291   0.000855   0.013861
   71  O  4 XX   -0.000115   0.000268   0.009754  -0.000953   0.000544
   72  O  4 YY    0.000707  -0.001043  -0.017532  -0.011947   0.000988
   73  O  4 ZZ   -0.000236  -0.000616   0.001681   0.006662  -0.001281
   74  O  4 XY    0.000000  -0.000268   0.005583  -0.016074   0.000701
   75  O  4 XZ    0.001545  -0.000068   0.000531   0.000389   0.011499
   76  O  4 YZ    0.002458  -0.000034   0.001001   0.000892   0.025402
   77  F  5  S    0.000945   0.000129   0.002683  -0.000374  -0.001205
   78  F  5  S   -0.004773  -0.000762  -0.002488   0.001324   0.002163
   79  F  5  X    0.097565   0.016240   0.256004   0.078989  -0.060118
   80  F  5  Y   -0.036752  -0.204877  -0.012489   0.007155  -0.008390
   81  F  5  Z    0.329241  -0.346981  -0.000369   0.003473  -0.026701
   82  F  5  S    0.005227   0.001332  -0.026640  -0.000046   0.007501
   83  F  5  X    0.066258   0.010864   0.181412   0.055326  -0.041969
   84  F  5  Y   -0.026849  -0.142294  -0.001321   0.005208  -0.007553
   85  F  5  Z    0.227508  -0.239901  -0.004863   0.001973  -0.020008
   86  F  5  S    0.003787   0.003399  -0.008977  -0.007040   0.001814
   87  F  5  X    0.007844   0.001080   0.022097   0.007449  -0.007713
   88  F  5  Y   -0.002293  -0.016898  -0.001456   0.002414  -0.003375
   89  F  5  Z    0.018674  -0.026068   0.001307  -0.001960  -0.001856
   90  F  5 XX   -0.005575  -0.000749  -0.000706  -0.000778   0.000125
   91  F  5 YY   -0.000198   0.010011   0.000860   0.000417   0.000409
   92  F  5 ZZ    0.005064  -0.009508   0.001057   0.000546  -0.001171
   93  F  5 XY   -0.002460   0.003245  -0.008328  -0.002221   0.001991
   94  F  5 XZ   -0.004105   0.006630   0.004110   0.001323  -0.000645
   95  F  5 YZ   -0.010828   0.006877   0.001244  -0.000042   0.001088
   96  F  6  S    0.000938  -0.000129   0.002680   0.000376  -0.001208
   97  F  6  S   -0.004747   0.000763  -0.002480  -0.001326   0.002168
   98  F  6  X    0.096795  -0.016228   0.255939  -0.078717  -0.060297
   99  F  6  Y    0.034993  -0.205504   0.012417   0.007153   0.008384
  100  F  6  Z    0.329145   0.346586  -0.000397  -0.003450  -0.026620
  101  F  6  S    0.005215  -0.001331  -0.026631   0.000027   0.007523
  102  F  6  X    0.065732  -0.010855   0.181370  -0.055133  -0.042097
  103  F  6  Y    0.025631  -0.142725   0.001278   0.005200   0.007553
  104  F  6  Z    0.227440   0.239626  -0.004897  -0.001960  -0.019944
  105  F  6  S    0.003729  -0.003393  -0.009017   0.007021   0.001837
  106  F  6  X    0.007799  -0.001081   0.022101  -0.007424  -0.007739
  107  F  6  Y    0.002180  -0.016946   0.001431   0.002411   0.003387
  108  F  6  Z    0.018658   0.026035   0.001301   0.001968  -0.001849
  109  F  6 XX   -0.005541   0.000749  -0.000705   0.000776   0.000126
  110  F  6 YY   -0.000277  -0.010032   0.000862  -0.000417   0.000408
  111  F  6 ZZ    0.005110   0.009528   0.001053  -0.000544  -0.001173
  112  F  6 XY    0.002462   0.003257   0.008320  -0.002210  -0.001995
  113  F  6 XZ   -0.004112  -0.006625   0.004123  -0.001323  -0.000652
  114  F  6 YZ    0.010788   0.006835  -0.001248  -0.000042  -0.001084
  115  F  7  S   -0.001891   0.000000   0.001634   0.000001   0.001884
  116  F  7  S    0.008678  -0.000002   0.001768  -0.000001  -0.002642
  117  F  7  X   -0.260625  -0.000024   0.205016  -0.000011   0.112421
  118  F  7  Y   -0.000818   0.392257   0.000006  -0.023687   0.000006
  119  F  7  Z    0.377865   0.000348   0.032126  -0.000018  -0.000813
  120  F  7  S   -0.008127   0.000002  -0.027416  -0.000010  -0.014487
  121  F  7  X   -0.178417  -0.000018   0.147661  -0.000005   0.080622
  122  F  7  Y   -0.000565   0.272508  -0.000005  -0.016873  -0.000001
  123  F  7  Z    0.263544   0.000241   0.033431  -0.000009   0.001265
  124  F  7  S   -0.005965   0.000005  -0.019853  -0.000003  -0.008281
  125  F  7  X   -0.020345  -0.000003   0.019671  -0.000001   0.013318
  126  F  7  Y   -0.000048   0.030290  -0.000006  -0.001263  -0.000006
  127  F  7  Z    0.020845   0.000028   0.003186  -0.000006  -0.000145
  128  F  7 XX    0.011530  -0.000000   0.001435   0.000000  -0.000309
  129  F  7 YY    0.007290   0.000020   0.002919  -0.000001   0.000602
[...]
   34  C  2 YY   -0.194663   0.000682   0.129504
   35  C  2 ZZ   -0.072667   0.000288   0.053625
   36  C  2 XY    0.000033   0.020465  -0.000029
   37  C  2 XZ    0.068108  -0.000138   0.020105
   38  C  2 YZ    0.000193   0.027861   0.000037
   39  O  3  S   -0.078382   0.049998  -0.008061
   40  O  3  S   -0.199674   0.105224  -0.046353
   41  O  3  X   -0.039945  -0.015315  -0.014060
   42  O  3  Y    0.012246  -0.012161   0.036223
   43  O  3  Z    0.009342  -0.017383  -0.023559
   44  O  3  S    1.271131  -1.073545   0.092859
   45  O  3  X    0.184205   0.040015  -0.051638
   46  O  3  Y   -0.375443   0.136166  -0.134062
   47  O  3  Z   -0.074853   0.026958   0.062001
   48  O  3  S   -0.357209   0.841758   0.634537
   49  O  3  X   -0.158903   0.181183   0.039645
   50  O  3  Y   -0.024824  -0.144018  -0.172782
   51  O  3  Z    0.076103  -0.107785  -0.119411
   52  O  3 XX   -0.254360   0.223317   0.002424
   53  O  3 YY   -0.155335   0.140530  -0.016833
   54  O  3 ZZ   -0.297080   0.120774  -0.069059
   55  O  3 XY   -0.093677   0.014206   0.029055
   56  O  3 XZ    0.038900  -0.012011   0.022499
   57  O  3 YZ    0.026405   0.009454  -0.012308
   58  O  4  S   -0.078653  -0.049388  -0.008538
   59  O  4  S   -0.200335  -0.103671  -0.048074
   60  O  4  X   -0.039942   0.015674  -0.014348
   61  O  4  Y   -0.012318  -0.012103  -0.036367
   62  O  4  Z    0.009468   0.017372  -0.023535
   63  O  4  S    1.276777   1.063773   0.104289
   64  O  4  X    0.184404  -0.041565  -0.049079
   65  O  4  Y    0.376307   0.133715   0.136535
   66  O  4  Z   -0.074910  -0.026743   0.061860
   67  O  4  S   -0.360387  -0.837626   0.636684
   68  O  4  X   -0.159653  -0.179525   0.039792
   69  O  4  Y    0.024261  -0.144202   0.174554
   70  O  4  Z    0.076896   0.107555  -0.119485
   71  O  4 XX   -0.255407  -0.221407   0.001263
   72  O  4 YY   -0.156087  -0.139190  -0.018215
   73  O  4 ZZ   -0.297840  -0.118465  -0.070671
   74  O  4 XY    0.093783   0.013532  -0.028609
   75  O  4 XZ    0.039093   0.011864   0.022477
   76  O  4 YZ   -0.026291   0.009535   0.012299
   77  F  5  S    0.375725  -0.657209  -0.586007
   78  F  5  S    1.518616  -2.714334  -2.642780
   79  F  5  X   -0.030981   0.063603   0.055514
   80  F  5  Y   -0.070933   0.125969   0.115989
   81  F  5  Z    0.045076  -0.077711  -0.063856
   82  F  5  S   -5.638262  10.127172  10.046208
   83  F  5  X    0.128375  -0.330615  -0.363148
   84  F  5  Y    0.348704  -0.484440  -1.042116
   85  F  5  Z   -0.087823   0.377618   0.587546
   86  F  5  S    1.860644  -3.467590  -2.034092
   87  F  5  X   -0.095725   0.316881   0.317307
   88  F  5  Y   -0.227911   0.820400  -0.153774
   89  F  5  Z    0.371328  -0.279117   0.108082
   90  F  5 XX    1.545084  -2.701478  -2.358385
   91  F  5 YY    1.480566  -2.538562  -2.176223
   92  F  5 ZZ    1.487295  -2.651809  -2.347672
   93  F  5 XY   -0.089168   0.078984   0.071277
   94  F  5 XZ   -0.010948  -0.085494  -0.040380
   95  F  5 YZ    0.101957  -0.086222  -0.162507
   96  F  6  S    0.379124   0.655128  -0.586147
   97  F  6  S    1.532388   2.705760  -2.643372
   98  F  6  X   -0.031238  -0.063421   0.055605
   99  F  6  Y    0.071485   0.125407  -0.115898
  100  F  6  Z    0.045579   0.077711  -0.064030
  101  F  6  S   -5.689864 -10.095411  10.047903
  102  F  6  X    0.129711   0.329828  -0.363468
  103  F  6  Y   -0.350780  -0.481470   1.041042
  104  F  6  Z   -0.090120  -0.378007   0.589246
  105  F  6  S    1.879343   3.457322  -2.035716
  106  F  6  X   -0.097304  -0.316219   0.317580
  107  F  6  Y    0.231736   0.818730   0.153448
  108  F  6  Z    0.373368   0.278534   0.107978
  109  F  6 XX    1.559081   2.692910  -2.358849
  110  F  6 YY    1.494042   2.530786  -2.177241
  111  F  6 ZZ    1.500719   2.643241  -2.347900
  112  F  6 XY    0.089527   0.078296  -0.071281
  113  F  6 XZ   -0.010405   0.085698  -0.040497
  114  F  6 YZ   -0.102344  -0.085877   0.162894
  115  F  7  S   -0.717556   0.001850  -0.614434
  116  F  7  S   -2.885521   0.007560  -2.766986
  117  F  7  X    0.063802  -0.000201   0.055394
  118  F  7  Y   -0.000149  -0.011179  -0.000141
  119  F  7  Z    0.165385  -0.000449   0.142037
  120  F  7  S   10.749262  -0.028075  10.497740
  121  F  7  X   -0.283016   0.000904  -0.328016
  122  F  7  Y    0.000835   0.190196   0.001257
  123  F  7  Z   -0.561784   0.001714  -1.243671
  124  F  7  S   -3.504545   0.008945  -2.141381
  125  F  7  X    0.085782  -0.000351   0.325352
  126  F  7  Y    0.000193   0.336152   0.000153
  127  F  7  Z    0.752026  -0.001614  -0.133419
  128  F  7 XX   -2.944489   0.007596  -2.475685
  129  F  7 YY   -2.945978   0.007548  -2.546594
  130  F  7 ZZ   -2.782467   0.007212  -2.202489
  131  F  7 XY   -0.000243  -0.068351  -0.000021
  132  F  7 XZ    0.106661  -0.000371   0.070387
  133  F  7 YZ   -0.000068   0.018450  -0.000428
 ...... END OF RHF CALCULATION ......
 STEP CPU TIME =   192.25 TOTAL CPU TIME =      193.6 (    3.2 MIN)
 TOTAL WALL CLOCK TIME=      193.7 SECONDS, CPU UTILIZATION IS  99.97%

     ----------------------------------------------------------------
     PROPERTY VALUES FOR THE RHF   SELF-CONSISTENT FIELD WAVEFUNCTION
     ----------------------------------------------------------------

          ---------------------------------------
          MULLIKEN AND LOWDIN POPULATION ANALYSES
          ---------------------------------------

     ATOMIC MULLIKEN POPULATION IN EACH MOLECULAR ORBITAL

                      1          2          3          4          5

                  2.000000   2.000000   2.000000   2.000000   2.000000

    1             0.000463   0.000391   0.000997  -0.000044  -0.000052
    2            -0.000010  -0.000039  -0.000278   0.000659   0.000286
    3            -0.000003   0.000002   0.000015   1.213131   0.786437
    4            -0.000003   0.000006   0.000010   0.786245   1.213323
    5             0.000024   0.730197   1.269227   0.000005   0.000002
    6             0.000024   1.269451   0.729974   0.000003   0.000004
    7             1.999505  -0.000009   0.000055  -0.000000  -0.000001

                      6          7          8          9         10

                  2.000000   2.000000   2.000000   2.000000   2.000000

    1             1.997132   0.000824   0.044844   0.079095   0.088422
    2             0.000935   1.997615   0.033993   0.005781   0.001832
    3            -0.000060   0.000820  -0.001471   0.000378  -0.000170
    4            -0.000060   0.000820  -0.001456   0.000380  -0.000169
    5             0.000727  -0.000060   0.648111   0.954893   0.315802
    6             0.000726  -0.000060   0.648080   0.954782   0.315898
    7             0.000601   0.000041   0.627900   0.004692   1.278385

                     11         12         13         14         15

                  2.000000   2.000000   2.000000   2.000000   2.000000

    1             0.001767   0.007500   0.653430   0.533696   0.364358
    2             0.510002   0.278320   0.241564   0.226469   0.014166
    3             0.742315   0.856382   0.044391   0.087833   0.003189
    4             0.742201   0.856452   0.044414   0.087847   0.003184
    5             0.000534   0.000734   0.339294   0.357425   0.462035
    6             0.000539   0.000734   0.339278   0.357440   0.462618
    7             0.002642  -0.000123   0.337628   0.349290   0.690450

                     16         17         18         19         20

                  2.000000   2.000000   2.000000   2.000000   2.000000

    1             0.355568   0.026718   0.050933   0.039222   0.057819
    2             0.006656   0.233533   0.007386   0.082632  -0.000806
    3             0.008128   0.431320   0.012590   0.132081   0.010224
    4             0.008139   0.431473   0.012592   0.131804   0.010222
    5             0.618232   0.435533   0.688920   0.297561   0.767078
    6             0.617643   0.434583   0.689683   0.297988   0.768570
    7             0.385634   0.006840   0.537896   1.018712   0.386893

                     21         22         23         24         25

                  2.000000   2.000000   2.000000   2.000000   2.000000

    1             0.062636   0.000126   0.109255  -0.000399   0.000374
    2             0.008556   0.000151   0.411909   0.382669   0.631392
    3             0.007127   0.000953   0.384906   0.781777   0.647224
    4             0.007117   0.000953   0.384609   0.782180   0.647145
    5             0.512257   0.678565   0.267500   0.025858   0.015107
    6             0.510855   0.678483   0.267349   0.025683   0.015164
    7             0.891453   0.640768   0.174472   0.002232   0.043594

                     26         27         28

                  2.000000   2.000000   2.000000

    1             0.013653   0.387470   0.000802
    2             0.050660   0.098360   0.041796
    3             0.960449   0.692354   0.975228
    4             0.959987   0.692841   0.975321
    5             0.007406   0.039578   0.002482
    6             0.007400   0.039593   0.002487
    7             0.000445   0.049804   0.001884

               ----- POPULATIONS IN EACH AO -----
                             MULLIKEN      LOWDIN
              1  C  1  S      1.99758     1.97256
              2  C  1  S      0.69006     0.32636
              3  C  1  X      0.72890     0.64887
              4  C  1  Y      0.46157     0.40646
              5  C  1  Z      0.45727     0.40420
              6  C  1  S      0.18783     0.17953
              7  C  1  X      0.09759     0.25047
              8  C  1  Y      0.02886     0.18485
              9  C  1  Z      0.03326     0.18224
             10  C  1  S     -0.00757     0.05194
             11  C  1  X      0.02685     0.04095
             12  C  1  Y      0.01181     0.03879
             13  C  1  Z      0.00793     0.03186
             14  C  1 XX      0.02978     0.17010
             15  C  1 YY      0.01834     0.15832
             16  C  1 ZZ      0.01940     0.16025
             17  C  1 XY      0.02727     0.05060
             18  C  1 XZ      0.02436     0.04556
             19  C  1 YZ      0.03592     0.07231
             20  C  2  S      1.99733     1.97004
             21  C  2  S      0.68550     0.33097
             22  C  2  X      0.64224     0.56301
             23  C  2  Y      0.73556     0.63402
             24  C  2  Z      0.42051     0.36124
             25  C  2  S      0.28852     0.18678
             26  C  2  X      0.10206     0.25764
             27  C  2  Y     -0.06943     0.22915
             28  C  2  Z      0.22332     0.26084
             29  C  2  S     -0.00332     0.05527
             30  C  2  X      0.03816     0.04806
             31  C  2  Y      0.01914     0.05053
             32  C  2  Z      0.02634     0.03033
             33  C  2 XX      0.02849     0.17805
             34  C  2 YY      0.06879     0.25505
             35  C  2 ZZ     -0.02868     0.07833
             36  C  2 XY      0.04650     0.08852
             37  C  2 XZ      0.00369     0.00672
             38  C  2 YZ      0.04147     0.07805
             39  O  3  S      1.99544     1.97729
             40  O  3  S      0.89199     0.69983
             41  O  3  X      1.05864     1.01657
             42  O  3  Y      0.89586     0.83257
             43  O  3  Z      0.89657     0.85285
             44  O  3  S      1.00907     0.41135
             45  O  3  X      0.68269     0.64667
             46  O  3  Y      0.48242     0.52299
             47  O  3  Z      0.67987     0.63984
             48  O  3  S      0.03694     0.11481
             49  O  3  X      0.04073     0.11036
             50  O  3  Y      0.01991     0.09467
             51  O  3  Z      0.05252     0.12062
             52  O  3 XX      0.00335     0.16341
             53  O  3 YY      0.01526     0.18082
             54  O  3 ZZ     -0.00015     0.16031
             55  O  3 XY      0.00682     0.01402
             56  O  3 XZ      0.00174     0.00183
             57  O  3 YZ      0.00788     0.00933
             58  O  4  S      1.99544     1.97729
             59  O  4  S      0.89199     0.69983
             60  O  4  X      1.05866     1.01659
             61  O  4  Y      0.89582     0.83253
             62  O  4  Z      0.89660     0.85288
             63  O  4  S      1.00907     0.41135
             64  O  4  X      0.68275     0.64670
             65  O  4  Y      0.48237     0.52297
             66  O  4  Z      0.67988     0.63985
             67  O  4  S      0.03694     0.11481
             68  O  4  X      0.04076     0.11037
             69  O  4  Y      0.01990     0.09467
             70  O  4  Z      0.05252     0.12061
             71  O  4 XX      0.00335     0.16341
             72  O  4 YY      0.01526     0.18083
             73  O  4 ZZ     -0.00015     0.16031
             74  O  4 XY      0.00681     0.01402
             75  O  4 XZ      0.00173     0.00182
             76  O  4 YZ      0.00788     0.00934
             77  F  5  S      1.99504     1.97775
             78  F  5  S      0.99119     0.85261
             79  F  5  X      1.14314     1.10477
             80  F  5  Y      1.01771     0.96941
             81  F  5  Z      1.13266     1.09302
             82  F  5  S      0.84358     0.44746
             83  F  5  X      0.70855     0.67267
             84  F  5  Y      0.65002     0.61199
             85  F  5  Z      0.70714     0.66797
             86  F  5  S      0.04065     0.10359
             87  F  5  X      0.01906     0.10324
             88  F  5  Y      0.02080     0.09931
             89  F  5  Z      0.03033     0.09926
             90  F  5 XX      0.03676     0.14771
             91  F  5 YY      0.04879     0.15511
             92  F  5 ZZ      0.03789     0.14829
             93  F  5 XY      0.00472     0.00763
             94  F  5 XZ      0.00176     0.00258
             95  F  5 YZ      0.00524     0.00709
             96  F  6  S      1.99504     1.97775
             97  F  6  S      0.99119     0.85261
             98  F  6  X      1.14313     1.10475
             99  F  6  Y      1.01805     0.96977
            100  F  6  Z      1.13233     1.09267
            101  F  6  S      0.84358     0.44746
            102  F  6  X      0.70855     0.67267
            103  F  6  Y      0.65019     0.61215
            104  F  6  Z      0.70697     0.66782
            105  F  6  S      0.04063     0.10360
            106  F  6  X      0.01906     0.10323
            107  F  6  Y      0.02081     0.09931
            108  F  6  Z      0.03029     0.09926
            109  F  6 XX      0.03676     0.14771
            110  F  6 YY      0.04875     0.15508
            111  F  6 ZZ      0.03791     0.14831
            112  F  6 XY      0.00471     0.00762
            113  F  6 XZ      0.00176     0.00260
            114  F  6 YZ      0.00525     0.00711
            115  F  7  S      1.99503     1.97776
            116  F  7  S      0.99199     0.85423
            117  F  7  X      1.15004     1.11300
            118  F  7  Y      1.18445     1.14802
            119  F  7  Z      0.95659     0.90602
            120  F  7  S      0.84306     0.44956
            121  F  7  X      0.71568     0.67949
            122  F  7  Y      0.73402     0.68996
            123  F  7  Z      0.61942     0.58769
            124  F  7  S      0.03453     0.10340
            125  F  7  X      0.02189     0.09972
            126  F  7  Y      0.03891     0.09951
            127  F  7  Z      0.01111     0.09935
            128  F  7 XX      0.03654     0.14851
            129  F  7 YY      0.03428     0.14652
            130  F  7 ZZ      0.05601     0.16133
            131  F  7 XY      0.00053     0.00064
            132  F  7 XZ      0.00521     0.00885
            133  F  7 YZ      0.00239     0.00440

          ----- MULLIKEN ATOMIC OVERLAP POPULATIONS -----
          (OFF-DIAGONAL ELEMENTS NEED TO BE MULTIPLIED BY 2)

             1           2           3           4           5

    1    4.4863801
    2    0.2743461   4.2980076
    3   -0.1554399   0.4136401   8.6201737
    4   -0.1555556   0.4136487  -0.1216841   8.6202481
    5    0.1327986  -0.0392468   0.0047631   0.0076049   9.3796819
    6    0.1328871  -0.0392976   0.0075894   0.0047774  -0.0275695
    7    0.1615824  -0.0549082   0.0085070   0.0085390  -0.0230051

             6           7

    6    9.3796156
    7   -0.0230293   9.3539978

          TOTAL MULLIKEN AND LOWDIN ATOMIC POPULATIONS
       ATOM         MULL.POP.    CHARGE          LOW.POP.     CHARGE
    1 CARB1         4.876999    1.123001         5.376202    0.623798
    2 CARB2         5.266190    0.733810         5.662581    0.337419
    3 OXYG3         8.777549   -0.777549         8.570138   -0.570138
    4 OXYG4         8.777578   -0.777578         8.570174   -0.570174
    5 FLUO5         9.435027   -0.435027         9.271474   -0.271474
    6 FLUO6         9.434973   -0.434973         9.271471   -0.271471
    7 FLUO7         9.431684   -0.431684         9.277961   -0.277961

          -------------------------------
          BOND ORDER AND VALENCE ANALYSIS     BOND ORDER THRESHOLD=0.050
          -------------------------------

                   BOND                       BOND                       BOND
  ATOM PAIR DIST  ORDER      ATOM PAIR DIST  ORDER      ATOM PAIR DIST  ORDER
    1   2  1.574  0.977        1   5  1.358  0.753        1   6  1.358  0.753
    1   7  1.367  0.773        2   3  1.249  1.466        2   4  1.249  1.466

                       TOTAL       BONDED        FREE
      ATOM            VALENCE     VALENCE     VALENCE
    1 CARB1             3.192       3.192      -0.000
    2 CARB2             3.828       3.828       0.000
    3 OXYG3             1.440       1.440      -0.000
    4 OXYG4             1.440       1.440      -0.000
    5 FLUO5             0.764       0.764       0.000
    6 FLUO6             0.764       0.764       0.000
    7 FLUO7             0.769       0.769      -0.000

    **** A SOLVENT MODEL IS IN USE IN THIS RUN ****
 ELECTRICAL PROPERTIES (MOMENTS, DENSITY, FIELD/GRADIENT, AND/OR POTENTIAL)
 ARE COMPUTED USING THE SOLVATED SYSTEM'S DENSITY MATRIX, BUT
 ONLY WITH AO INTEGRAL CONTRIBUTIONS FROM THE QUANTUM SOLUTE.
 THE ONE EXCEPTION IS THE DIPOLE, WHICH IS ALSO PRINTED FOR THE TOTAL SYSTEM.

          ---------------------
          ELECTROSTATIC MOMENTS
          ---------------------

 POINT   1           X           Y           Z (BOHR)    CHARGE
                 0.052315    0.000001    0.000740       -1.00 (A.U.)
         DX          DY          DZ         /D/  (DEBYE)
     5.750484    0.000706   -0.215950    5.754537
 ...... END OF PROPERTY EVALUATION ......
 STEP CPU TIME =     0.02 TOTAL CPU TIME =      193.7 (    3.2 MIN)
 TOTAL WALL CLOCK TIME=      193.7 SECONDS, CPU UTILIZATION IS  99.97%
              3071886  WORDS OF DYNAMIC MEMORY USED
 EXECUTION OF GAMESS TERMINATED NORMALLY Wed Aug  9 20:26:10 2017
 DDI: 263640 bytes (0.3 MB / 0 MWords) used by master data server.

 ----------------------------------------
 CPU timing information for all processes
 ========================================
 0: 192.907 + 0.766 = 193.674
 ----------------------------------------
 ddikick.x: exited gracefully.
unset echo
----- accounting info -----
Files used on the master node compute-0-7.local were:
-rw-rw-r-- 1 sarom sarom 1.7K Aug  9 20:22 /scratch/smvle-rhf-e.F05
-rw-rw-r-- 1 sarom sarom 402M Aug  9 20:22 /scratch/smvle-rhf-e.F08
-rw-rw-r-- 1 sarom sarom 2.8M Aug  9 20:26 /scratch/smvle-rhf-e.F10
-rw-rw-r-- 1 sarom sarom    0 Aug  9 20:22 /scratch/smvle-rhf-e.F26
-rw-rw-r-- 1 sarom sarom    0 Aug  9 20:22 /scratch/smvle-rhf-e.F27
rm: No match.
ls: No match.
ls: No match.
ls: No match.
Wed Aug  9 20:26:13 CDT 2017
0.265u 0.197s 3:17.31 0.2%	0+0k 8+360io 0pf+0w
/opt/gridengine/default/spool/compute-0-7/active_jobs/35830.1/pe_hostfile compute-0-7.local
