-catch_rsh /opt/gridengine/default/spool/compute-1-0/active_jobs/36044.1/pe_hostfile
compute-1-0
The primary node assigned by SGE to this run is compute-1-0
Warning: no access to tty (Bad file descriptor).
Thus no job control in this shell.
source /home/sarom/dir.git.branch.saromleang-travis-ci/install.info
setenv GMS_PATH /home/sarom/dir.git.branch.saromleang-travis-ci
setenv GMS_BUILD_DIR /home/sarom/dir.git.branch.saromleang-travis-ci
setenv GMS_TARGET linux64
setenv GMS_FORTRAN gfortran
setenv GMS_GFORTRAN_VERNO 4.4
setenv GMS_MATHLIB mkl-so
setenv GMS_MATHLIB none
setenv GMS_MATHLIB_PATH /share/apps/intel/compilers_and_libraries_2017.1.132/linux/mkl/lib/intel64
setenv GMS_MKL_VERNO 12
setenv GMS_DDI_COMM sockets
setenv GMS_LIBCCHEM false
setenv GMS_EIGEN_PATH
setenv GMS_PHI false
setenv GMS_SHMTYPE sysv
setenv GMS_OPENMP false
unset echo
h2o-grad-nesc
/home/sarom/dir.git.branch.saromleang-travis-ci/tests/relwfn/parallel
----- GAMESS execution script 'rungms' -----
This job is running on host compute-1-0.local
under operating system Linux at Wed Aug 9 21:15:26 CDT 2017
Available scratch disk space (Kbyte units) at beginning of the job is
Filesystem           1K-blocks      Used Available Use% Mounted on
/dev/sda1             16126920   9111844   6195876  60% /
GAMESS temporary binary files will be written to /scratch
GAMESS supplementary output files will be written to /home/sarom/restart
Copying input file h2o-grad-nesc.inp to your run's scratch directory...
cp /home/sarom/dir.git.branch.saromleang-travis-ci/tests/relwfn/parallel/h2o-grad-nesc.inp /scratch/h2o-grad-nesc.F05
unset echo
The generated host list is
compute-1-0.local
/home/sarom/dir.git.branch.saromleang-travis-ci/ddikick.x /home/sarom/dir.git.branch.saromleang-travis-ci/gamess.00.x h2o-grad-nesc -ddi 1 1 compute-1-0.local -scr /scratch

 Distributed Data Interface kickoff program.
 Initiating 1 compute processes on 1 nodes to run the following command:
 /home/sarom/dir.git.branch.saromleang-travis-ci/gamess.00.x h2o-grad-nesc 

          ******************************************************
          *         GAMESS VERSION = 20 APR 2017 (R1)          *
          *             FROM IOWA STATE UNIVERSITY             *
          * M.W.SCHMIDT, K.K.BALDRIDGE, J.A.BOATZ, S.T.ELBERT, *
          *   M.S.GORDON, J.H.JENSEN, S.KOSEKI, N.MATSUNAGA,   *
          *          K.A.NGUYEN, S.J.SU, T.L.WINDUS,           *
          *       TOGETHER WITH M.DUPUIS, J.A.MONTGOMERY       *
          *         J.COMPUT.CHEM.  14, 1347-1363(1993)        *
          **************** 64 BIT LINUX VERSION ****************

  SINCE 1993, STUDENTS AND POSTDOCS WORKING AT IOWA STATE UNIVERSITY
  AND ALSO IN THEIR VARIOUS JOBS AFTER LEAVING ISU HAVE MADE IMPORTANT
  CONTRIBUTIONS TO THE CODE:
     IVANA ADAMOVIC, CHRISTINE AIKENS, YURI ALEXEEV, POOJA ARORA,
     ANDREY ASADCHEV, ROB BELL, PRADIPTA BANDYOPADHYAY, JONATHAN BENTZ,
     BRETT BODE, KURT BRORSEN, CALEB CARLIN, GALINA CHABAN, WEI CHEN,
     CHEOL HO CHOI, PAUL DAY, ALBERT DEFUSCO, NUWAN DESILVA, TIM DUDLEY,
     DMITRI FEDOROV, GRAHAM FLETCHER, MARK FREITAG, KURT GLAESEMANN,
     DAN KEMP, GRANT MERRILL, NORIYUKI MINEZAWA, JONATHAN MULLIN,
     TAKESHI NAGATA, SEAN NEDD, HEATHER NETZLOFF, BOSILJKA NJEGIC, RYAN OLSON,
     MIKE PAK, SPENCER PRUITT, LUKE ROSKOP, JIM SHOEMAKER, LYUDMILA SLIPCHENKO,
     TONY SMITH, SAROM SOK LEANG, JIE SONG, TETSUYA TAKETSUGU, SIMON WEBB,
     PENG XU, SOOHAENG YOO, FEDERICO ZAHARIEV

  ADDITIONAL CODE HAS BEEN PROVIDED BY COLLABORATORS IN OTHER GROUPS:
     IOWA STATE UNIVERSITY:
          JOE IVANIC, AARON WEST, LAIMUTIS BYTAUTAS, KLAUS RUEDENBERG
     UNIVERSITY OF TOKYO: KIMIHIKO HIRAO, TAKAHITO NAKAJIMA,
          TAKAO TSUNEDA, MUNEAKI KAMIYA, SUSUMU YANAGISAWA,
          KIYOSHI YAGI, MAHITO CHIBA, SEIKEN TOKURA, NAOAKI KAWAKAMI
     UNIVERSITY OF AARHUS: FRANK JENSEN
     UNIVERSITY OF IOWA: VISVALDAS KAIRYS, HUI LI
     NATIONAL INST. OF STANDARDS AND TECHNOLOGY: WALT STEVENS, DAVID GARMER
     UNIVERSITY OF PISA: BENEDETTA MENNUCCI, JACOPO TOMASI
     UNIVERSITY OF MEMPHIS: HENRY KURTZ, PRAKASHAN KORAMBATH
     UNIVERSITY OF ALBERTA: TOBY ZENG, MARIUSZ KLOBUKOWSKI
     UNIVERSITY OF NEW ENGLAND: MARK SPACKMAN
     MIE UNIVERSITY: HIROAKI UMEDA
     NAT. INST. OF ADVANCED INDUSTRIAL SCIENCE AND TECHNOLOGY: KAZUO KITAURA
     MICHIGAN STATE UNIVERSITY:
          KAROL KOWALSKI, MARTA WLOCH, JEFFREY GOUR, JESSE LUTZ,
          WEI LI, PIOTR PIECUCH
     UNIVERSITY OF SILESIA: MONIKA MUSIAL, STANISLAW KUCHARSKI
     FACULTES UNIVERSITAIRES NOTRE-DAME DE LA PAIX:
          OLIVIER QUINET, BENOIT CHAMPAGNE
     UNIVERSITY OF CALIFORNIA - SANTA BARBARA: BERNARD KIRTMAN
     INSTITUTE FOR MOLECULAR SCIENCE:
          KAZUYA ISHIMURA, MICHIO KATOUDA, AND SHIGERU NAGASE
     UNIVERSITY OF NOTRE DAME: ANNA POMOGAEVA, DAN CHIPMAN
     KYUSHU UNIVERSITY:
          HARUYUKI NAKANO,
          FENG LONG GU, JACEK KORCHOWIEC, MARCIN MAKOWSKI, AND YURIKO AOKI,
          HIROTOSHI MORI AND EISAKU MIYOSHI
     PENNSYLVANIA STATE UNIVERSITY:
          TZVETELIN IORDANOV, CHET SWALINA, JONATHAN SKONE,
          SHARON HAMMES-SCHIFFER
     WASEDA UNIVERSITY:
          MASATO KOBAYASHI, TOMOKO AKAMA, TSUGUKI TOUMA,
          TAKESHI YOSHIKAWA, YASUHIRO IKABATA, JUNJI SEINO,
          YUYA NAKAJIMA, HIROMI NAKAI
     NANJING UNIVERSITY: SHUHUA LI
     UNIVERSITY OF NEBRASKA:
          PEIFENG SU, DEJUN SI, NANDUN THELLAMUREGE, YALI WANG, HUI LI
     UNIVERSITY OF ZURICH: ROBERTO PEVERATI, KIM BALDRIDGE
     N. COPERNICUS UNIVERSITY AND JACKSON STATE UNIVERSITY:
          MARIA BARYSZ
     UNIVERSITY OF COPENHAGEN: Jimmy Kromann, CASPER STEINMANN
     TOKYO INSTITUTE OF TECHNOLOGY: HIROYA NAKATA
     NAGOYA UNIVERSITY: YOSHIO NISHIMOTO, STEPHAN IRLE
     MOSCOW STATE UNIVERSITY: VLADIMIR MIRONOV

 EXECUTION OF GAMESS BEGUN Wed Aug  9 21:15:26 2017

            ECHO OF THE FIRST FEW INPUT CARDS -
 INPUT CARD>!   water...normalised elimination of small component                           
 INPUT CARD>!   all atoms are treated relativistically, 2e- integrals use averaged basis    
 INPUT CARD>!   and does the nuclear gradient.  Test is from Dmitri in his ToDai days.      
 INPUT CARD>!   the basis set is courtesy of K. Dyall                                       
 INPUT CARD>!                                                                               
 INPUT CARD>!   FINAL E=-76.0804440561, 7 iters, RMS grad=0.000069379                       
 INPUT CARD>!                                                                               
 INPUT CARD>!   This run takes 0 seconds on 2.66 GHz Cloverton (16 Apr 2015)                
 INPUT CARD>!   results have not changed since at least 2005.                               
 INPUT CARD>!                                                                               
 INPUT CARD> $contrl scftyp=rhf runtyp=gradient relwfn=nesc ispher=1 $end                   
 INPUT CARD> $system mwords=1 $end                                                          
 INPUT CARD> $guess  guess=moread $end                                                      
 INPUT CARD> $dataL                                                                         
 INPUT CARD>H2O molecule, large component at NR opt geom                                    
 INPUT CARD>Cnv 2                                                                           
 INPUT CARD>                                                                                
 INPUT CARD> O           8.0    .0000000000    .0000000000   -.0048345588                   
 INPUT CARD>  s 9                                                                           
 INPUT CARD>  1 1.1720000E+04  7.44044680157E-04                                            
 INPUT CARD>  2 1.7590000E+03  5.56870462130E-03                                            
 INPUT CARD>  3 4.0080000E+02  2.80763828518E-02                                            
 INPUT CARD>  4 1.1370000E+02  1.05191790218E-01                                            
 INPUT CARD>  5 3.7030000E+01  2.83329917867E-01                                            
 INPUT CARD>  6 1.3270000E+01  4.48337980954E-01                                            
 INPUT CARD>  7 5.0250000E+00  2.70266898852E-01                                            
 INPUT CARD>  8 1.0130000E+00  1.53634765310E-02                                            
 INPUT CARD>  9 3.0230000E-01 -2.56497431972E-03                                            
 INPUT CARD>  s 9                                                                           
 INPUT CARD>  1 1.1720000E+04  -1.67721663938E-04                                           
 INPUT CARD>  2 1.7590000E+03  -1.28952465760E-03                                           
 INPUT CARD>  3 4.0080000E+02  -6.33916230689E-03                                           
 INPUT CARD>  4 1.1370000E+02  -2.58933434608E-02                                           
 INPUT CARD>  5 3.7030000E+01  -7.11471075413E-02                                           
 INPUT CARD>  6 1.3270000E+01  -1.65833473039E-01                                           
 INPUT CARD>  7 5.0250000E+00  -1.16110339415E-01                                           
 INPUT CARD>  8 1.0130000E+00   5.60081019117E-01                                           
 INPUT CARD>  9 3.0230000E-01   5.69945620854E-01                                           
 INPUT CARD>  s 1                                                                           
 INPUT CARD>  1 3.0230000E-01  9.99993963493E-01                                            
 INPUT CARD>  p 4                                                                           
 INPUT CARD>  1 1.7700000E+01  4.30553387768E-02                                            
 INPUT CARD>  2 3.8540000E+00  2.28715136176E-01                                            
 INPUT CARD>  3 1.0460000E+00  5.04977579175E-01                                            
 INPUT CARD>  4 2.7530000E-01  4.64951562012E-01                                            
 INPUT CARD>  p 1                                                                           
 INPUT CARD>  1 2.7530000E-01  9.99990837899E-01                                            
 INPUT CARD>  d 1                                                                           
 INPUT CARD>  1 1.1850000E+00  9.99944801756E-01                                            
 INPUT CARD>                                                                                
    1000000 WORDS OF MEMORY AVAILABLE

 READING $DATAS GROUP FOR SMALL COMPONENT BASIS SET...


     RUN TITLE
     ---------
 H2O molecule, small component                                                   

 THE POINT GROUP OF THE MOLECULE IS CNV     
 THE ORDER OF THE PRINCIPAL AXIS IS     2
 *** WARNING! ATOM   1 SHELL    1 TYPE S HAS NORMALIZATION   1.00046490
 *** WARNING! ATOM   1 SHELL    2 TYPE S HAS NORMALIZATION   1.00006265
 *** WARNING! ATOM   1 SHELL    3 TYPE S HAS NORMALIZATION   1.00001811
 *** WARNING! ATOM   1 SHELL    4 TYPE P HAS NORMALIZATION   1.00014460
 *** WARNING! ATOM   1 SHELL    5 TYPE P HAS NORMALIZATION   1.00002749
 *** WARNING! ATOM   1 SHELL    6 TYPE D HAS NORMALIZATION   1.00016563
 *** WARNING! ATOM   2 SHELL    7 TYPE S HAS NORMALIZATION   1.00000785
 *** WARNING! ATOM   2 SHELL    8 TYPE S HAS NORMALIZATION   1.00000731
 *** WARNING! ATOM   2 SHELL    9 TYPE P HAS NORMALIZATION   1.00007258

 ATOM      ATOMIC                      COORDINATES (BOHR)
           CHARGE         X                   Y                   Z
 O           8.0     0.0000000000        0.0000000000       -0.0091359914
 H           1.0     0.0000000000        1.4149803979       -1.1025846643
 H           1.0     0.0000000000       -1.4149803979       -1.1025846643

          INTERNUCLEAR DISTANCES (ANGS.)
          ------------------------------

                1 O          2 H          3 H     

   1 O       0.0000000    0.9462955 *  0.9462955 *
   2 H       0.9462955 *  0.0000000    1.4975509 *
   3 H       0.9462955 *  1.4975509 *  0.0000000  

  * ... LESS THAN  3.000


     ATOMIC BASIS SET
     ----------------
 THE CONTRACTED PRIMITIVE FUNCTIONS HAVE BEEN UNNORMALIZED
 THE CONTRACTED BASIS FUNCTIONS ARE NOW NORMALIZED TO UNITY

  SHELL TYPE  PRIMITIVE        EXPONENT          CONTRACTION COEFFICIENT(S)

 O         

      1   S       1         11720.0000000    0.000714947553
      1   S       2          1759.0000000    0.005497331061
      1   S       3           400.8000000    0.027931245492
      1   S       4           113.7000000    0.105003175140
      1   S       5            37.0300000    0.283217400244
      1   S       6            13.2700000    0.448439637506
      1   S       7             5.0250000    0.270394371014
      1   S       8             1.0130000    0.015371512489
      1   S       9             0.3023000   -0.002566700211

      2   S      10         11720.0000000   -0.000160998782
      2   S      11          1759.0000000   -0.001272268460
      2   S      12           400.8000000   -0.006301518857
      2   S      13           113.7000000   -0.025832133388
      2   S      14            37.0300000   -0.071078488999
      2   S      15            13.2700000   -0.165785586753
      2   S      16             5.0250000   -0.116123980996
      2   S      17             1.0130000    0.560067284642
      2   S      18             0.3023000    0.569964283412

      3   S      19             0.3023000    0.999981890442

      4   P      20            17.7000000    0.042988400328
      4   P      21             3.8540000    0.228661481498
      4   P      22             1.0460000    0.504932700389
      4   P      23             0.2753000    0.464928541998

      5   P      24             0.2753000    0.999972513614

      6   D      25             1.1850000    0.999834402221

 H         

     10   S      26            13.0100000    0.019686206790
     10   S      27             1.9620000    0.137981446500
     10   S      28             0.4446000    0.478149251945
     10   S      29             0.1220000    0.501225973793

     11   S      30             0.1220000    0.999992691343

     12   P      31             0.7270000    0.999927420810

 TOTAL NUMBER OF BASIS SET SHELLS             =   12
 NUMBER OF CARTESIAN GAUSSIAN BASIS FUNCTIONS =   25
 NOTE: THIS RUN WILL RESTRICT THE MO VARIATION SPACE TO SPHERICAL HARMONICS.
 THE NUMBER OF ORBITALS KEPT IN THE VARIATIONAL SPACE WILL BE PRINTED LATER.
 NUMBER OF ELECTRONS                          =   10
 CHARGE OF MOLECULE                           =    0
 SPIN MULTIPLICITY                            =    1
 NUMBER OF OCCUPIED ORBITALS (ALPHA)          =    5
 NUMBER OF OCCUPIED ORBITALS (BETA )          =    5
 TOTAL NUMBER OF ATOMS                        =    3
 THE NUCLEAR REPULSION ENERGY IS        9.3007105374

     ---------------------------------
     RELATIVISTIC WAVEFUNCTION OPTIONS
     ---------------------------------
     METHOD=NESC     NORDER= 2       NESOC=  0      MODEQR=      0
     NRATOM=  0      QMTTOL= 1.000E-10      QRTOL= 0.000E+00
     CLIGHT=137.03598950     TAU= 3.500E+00
 AO NON-RELATIVISTIC NORMALISATION WILL BE OMITTED.

 READING $DATAL GROUP FOR LARGE COMPONENT BASIS SET...


     RUN TITLE
     ---------
 H2O molecule, large component at NR opt geom                                    

 THE POINT GROUP OF THE MOLECULE IS CNV     
 THE ORDER OF THE PRINCIPAL AXIS IS     2
 *** WARNING! ATOM   1 SHELL    1 TYPE S HAS NORMALIZATION   1.00038950
 *** WARNING! ATOM   1 SHELL    2 TYPE S HAS NORMALIZATION   1.00004149
 *** WARNING! ATOM   1 SHELL    3 TYPE S HAS NORMALIZATION   1.00000604
 *** WARNING! ATOM   1 SHELL    4 TYPE P HAS NORMALIZATION   1.00003359
 *** WARNING! ATOM   1 SHELL    5 TYPE P HAS NORMALIZATION   1.00000916
 *** WARNING! ATOM   1 SHELL    6 TYPE D HAS NORMALIZATION   1.00005520
 *** WARNING! ATOM   2 SHELL    7 TYPE S HAS NORMALIZATION   1.00000665
 *** WARNING! ATOM   2 SHELL    8 TYPE S HAS NORMALIZATION   1.00000244
 *** WARNING! ATOM   2 SHELL    9 TYPE P HAS NORMALIZATION   1.00002419

 ATOM      ATOMIC                      COORDINATES (BOHR)
           CHARGE         X                   Y                   Z
 O           8.0     0.0000000000        0.0000000000       -0.0091359914
 H           1.0     0.0000000000        1.4149803979       -1.1025846643
 H           1.0     0.0000000000       -1.4149803979       -1.1025846643

          INTERNUCLEAR DISTANCES (ANGS.)
          ------------------------------

                1 O          2 H          3 H     

   1 O       0.0000000    0.9462955 *  0.9462955 *
   2 H       0.9462955 *  0.0000000    1.4975509 *
   3 H       0.9462955 *  1.4975509 *  0.0000000  

  * ... LESS THAN  3.000


     ATOMIC BASIS SET
     ----------------
 THE CONTRACTED PRIMITIVE FUNCTIONS HAVE BEEN UNNORMALIZED
 THE CONTRACTED BASIS FUNCTIONS ARE NOW NORMALIZED TO UNITY

  SHELL TYPE  PRIMITIVE        EXPONENT          CONTRACTION COEFFICIENT(S)

 O         

      1   S       1         11720.0000000    0.000744044680
      1   S       2          1759.0000000    0.005568704621
      1   S       3           400.8000000    0.028076382852
      1   S       4           113.7000000    0.105191790218
      1   S       5            37.0300000    0.283329917867
      1   S       6            13.2700000    0.448337980954
      1   S       7             5.0250000    0.270266898852
      1   S       8             1.0130000    0.015363476531
      1   S       9             0.3023000   -0.002564974320

      2   S      10         11720.0000000   -0.000167721664
      2   S      11          1759.0000000   -0.001289524658
      2   S      12           400.8000000   -0.006339162307
      2   S      13           113.7000000   -0.025893343461
      2   S      14            37.0300000   -0.071147107541
      2   S      15            13.2700000   -0.165833473039
      2   S      16             5.0250000   -0.116110339415
      2   S      17             1.0130000    0.560081019117
      2   S      18             0.3023000    0.569945620854

      3   S      19             0.3023000    0.999993963493

      4   P      20            17.7000000    0.043055338777
      4   P      21             3.8540000    0.228715136176
      4   P      22             1.0460000    0.504977579175
      4   P      23             0.2753000    0.464951562012

      5   P      24             0.2753000    0.999990837899

      6   D      25             1.1850000    0.999944801756

 H         

     10   S      26            13.0100000    0.019689051231
     10   S      27             1.9620000    0.137985789892
     10   S      28             0.4446000    0.478150708254
     10   S      29             0.1220000    0.501221958354

     11   S      30             0.1220000    0.999997563783

     12   P      31             0.7270000    0.999975807132

 TOTAL NUMBER OF BASIS SET SHELLS             =   12
 NUMBER OF CARTESIAN GAUSSIAN BASIS FUNCTIONS =   25
 NOTE: THIS RUN WILL RESTRICT THE MO VARIATION SPACE TO SPHERICAL HARMONICS.
 THE NUMBER OF ORBITALS KEPT IN THE VARIATIONAL SPACE WILL BE PRINTED LATER.
 NUMBER OF ELECTRONS                          =   10
 CHARGE OF MOLECULE                           =    0
 SPIN MULTIPLICITY                            =    1
 NUMBER OF OCCUPIED ORBITALS (ALPHA)          =    5
 NUMBER OF OCCUPIED ORBITALS (BETA )          =    5
 TOTAL NUMBER OF ATOMS                        =    3
 THE NUCLEAR REPULSION ENERGY IS        9.3007105374

     ---------------------------------
     RELATIVISTIC WAVEFUNCTION OPTIONS
     ---------------------------------
     METHOD=NESC     NORDER= 2       NESOC=  0      MODEQR=      0
     NRATOM=  0      QMTTOL= 1.000E-10      QRTOL= 0.000E+00
     CLIGHT=137.03598950     TAU= 3.500E+00
 AO NON-RELATIVISTIC NORMALISATION WILL BE OMITTED.


     RUN TITLE
     ---------
 H2O molecule, FW basis set                                                      

 THE POINT GROUP OF THE MOLECULE IS CNV     
 THE ORDER OF THE PRINCIPAL AXIS IS     2

 ATOM      ATOMIC                      COORDINATES (BOHR)
           CHARGE         X                   Y                   Z
 O           8.0     0.0000000000        0.0000000000       -0.0091359914
 H           1.0     0.0000000000        1.4149803979       -1.1025846643
 H           1.0     0.0000000000       -1.4149803979       -1.1025846643

          INTERNUCLEAR DISTANCES (ANGS.)
          ------------------------------

                1 O          2 H          3 H     

   1 O       0.0000000    0.9462955 *  0.9462955 *
   2 H       0.9462955 *  0.0000000    1.4975509 *
   3 H       0.9462955 *  1.4975509 *  0.0000000  

  * ... LESS THAN  3.000


     ATOMIC BASIS SET
     ----------------
 THE CONTRACTED PRIMITIVE FUNCTIONS HAVE BEEN UNNORMALIZED
 THE CONTRACTED BASIS FUNCTIONS ARE NOW NORMALIZED TO UNITY

  SHELL TYPE  PRIMITIVE        EXPONENT          CONTRACTION COEFFICIENT(S)

 O         

      1   S       1         11720.0000000    0.000697868055
      1   S       2          1759.0000000    0.005558710125
      1   S       3           400.8000000    0.028181377620
      1   S       4           113.7000000    0.105405968897
      1   S       5            37.0300000    0.283558347726
      1   S       6            13.2700000    0.448405544731
      1   S       7             5.0250000    0.270210312267
      1   S       8             1.0130000    0.015353935303
      1   S       9             0.3023000   -0.002566552104

      2   S      10         11720.0000000   -0.000154012534
      2   S      11          1759.0000000   -0.001286581477
      2   S      12           400.8000000   -0.006353451476
      2   S      13           113.7000000   -0.025948040064
      2   S      14            37.0300000   -0.071194666666
      2   S      15            13.2700000   -0.165901685446
      2   S      16             5.0250000   -0.116087309265
      2   S      17             1.0130000    0.560107102424
      2   S      18             0.3023000    0.569941309942

      3   S      19             0.3023000    1.000000000000

      4   P      20            17.7000000    0.043074977590
      4   P      21             3.8540000    0.228742613602
      4   P      22             1.0460000    0.504989831799
      4   P      23             0.2753000    0.464951331673

      5   P      24             0.2753000    1.000000000000

      6   D      25             1.1850000    1.000000000000

 H         

     10   S      26            13.0100000    0.019689775312
     10   S      27             1.9620000    0.137990530014
     10   S      28             0.4446000    0.478155377919
     10   S      29             0.1220000    0.501220868481

     11   S      30             0.1220000    1.000000000000

     12   P      31             0.7270000    1.000000000000

 TOTAL NUMBER OF BASIS SET SHELLS             =   12
 NUMBER OF CARTESIAN GAUSSIAN BASIS FUNCTIONS =   25
 NOTE: THIS RUN WILL RESTRICT THE MO VARIATION SPACE TO SPHERICAL HARMONICS.
 THE NUMBER OF ORBITALS KEPT IN THE VARIATIONAL SPACE WILL BE PRINTED LATER.
 NUMBER OF ELECTRONS                          =   10
 CHARGE OF MOLECULE                           =    0
 SPIN MULTIPLICITY                            =    1
 NUMBER OF OCCUPIED ORBITALS (ALPHA)          =    5
 NUMBER OF OCCUPIED ORBITALS (BETA )          =    5
 TOTAL NUMBER OF ATOMS                        =    3
 THE NUCLEAR REPULSION ENERGY IS        9.3007105374

     ---------------------------------
     RELATIVISTIC WAVEFUNCTION OPTIONS
     ---------------------------------
     METHOD=NESC     NORDER= 2       NESOC=  0      MODEQR=      0
     NRATOM=  0      QMTTOL= 1.000E-10      QRTOL= 0.000E+00
     CLIGHT=137.03598950     TAU= 3.500E+00
 AO NON-RELATIVISTIC NORMALISATION WILL BE OMITTED.

     $CONTRL OPTIONS
     ---------------
 SCFTYP=RHF          RUNTYP=GRADIENT     EXETYP=RUN     
 MPLEVL=       0     CITYP =NONE         CCTYP =NONE         VBTYP =NONE    
 DFTTYP=NONE         TDDFT =NONE    
 MULT  =       1     ICHARG=       0     NZVAR =       0     COORD =UNIQUE  
 PP    =NONE         RELWFN=NESC         LOCAL =NONE         NUMGRD=       F
 ISPHER=       1     NOSYM =       0     MAXIT =      30     UNITS =ANGS    
 PLTORB=       F     MOLPLT=       F     AIMPAC=       F     FRIEND=        
 NPRINT=       7     IREST =       0     GEOM  =INPUT   
 NORMF =       0     NORMP =       0     ITOL  =      20     ICUT  =       9
 INTTYP=BEST         GRDTYP=BEST         QMTTOL= 1.0E-06

     $SYSTEM OPTIONS
     ---------------
  REPLICATED MEMORY=     1000000 WORDS (ON EVERY NODE).
 DISTRIBUTED MEMDDI=           0 MILLION WORDS IN AGGREGATE,
 MEMDDI DISTRIBUTED OVER   1 PROCESSORS IS           0 WORDS/PROCESSOR.
 TOTAL MEMORY REQUESTED ON EACH PROCESSOR=     1000000 WORDS.
 TIMLIM=      525600.00 MINUTES, OR     365.0 DAYS.
 PARALL= F  BALTYP=  DLB     KDIAG=    0  COREFL= F
 MXSEQ2=     300 MXSEQ3=     150  mem10=         0

          ----------------
          PROPERTIES INPUT
          ----------------

     MOMENTS            FIELD           POTENTIAL          DENSITY
 IEMOM =       1   IEFLD =       0   IEPOT =       0   IEDEN =       0
 WHERE =COMASS     WHERE =NUCLEI     WHERE =NUCLEI     WHERE =NUCLEI  
 OUTPUT=BOTH       OUTPUT=BOTH       OUTPUT=BOTH       OUTPUT=BOTH    
 IEMINT=       0   IEFINT=       0                     IEDINT=       0
                                                       MORB  =       0
          EXTRAPOLATION IN EFFECT
          SOSCF IN EFFECT
 ORBITAL PRINTING OPTION: NPREO=     1    25     2     1

     -------------------------------
     INTEGRAL TRANSFORMATION OPTIONS
     -------------------------------
     NWORD  =            0
     CUTOFF = 1.0E-09     MPTRAN =       0
     DIRTRF =       F     AOINTS =DUP     

          ----------------------
          INTEGRAL INPUT OPTIONS
          ----------------------
 NOPK  =       1 NORDER=       0 SCHWRZ=       F

     ------------------------------------------
     THE POINT GROUP IS CNV, NAXIS= 2, ORDER= 4
     ------------------------------------------

 -- VARIATIONAL SPACE WILL BE RESTRICTED TO PURE SPHERICAL HARMONICS ONLY --
 AFTER EXCLUDING CONTAMINANT COMBINATIONS FROM THE CARTESIAN GAUSSIAN BASIS
 SET, THE NUMBER OF SPHERICAL HARMONICS KEPT IN THE VARIATION SPACE IS   24

     DIMENSIONS OF THE SYMMETRY SUBSPACES ARE
 A1  =   11     A2  =    2     B1  =    4     B2  =    7

 ..... DONE SETTING UP THE RUN .....
 STEP CPU TIME =     0.04 TOTAL CPU TIME =        0.0 (    0.0 MIN)
 TOTAL WALL CLOCK TIME=        0.0 SECONDS, CPU UTILIZATION IS  80.00%

                    --------------------------------
                    SINGLE POINT ENERGY AND GRADIENT
                    --------------------------------

          ********************
          1 ELECTRON INTEGRALS
          ********************
 TIME TO DO ORDINARY INTEGRALS=      0.00

 --------------------------------------------------------
     NORMALISED ELIMINATION OF SMALL COMPONENT (NESC)
           CODED BY DMITRI FEDOROV, BASED UPON:
             K. G. DYALL JCP 100, 2118 (1994)
             K. G. DYALL JCP 106, 9618 (1997)
   K. G. DYALL AND T. ENEVOLDSEN, JCP 111, 10000 (1999)
 --------------------------------------------------------

 TIME TO DO  RELATIVISTIC INTS=      0.00
 ...... END OF ONE-ELECTRON INTEGRALS ......
 STEP CPU TIME =     0.00 TOTAL CPU TIME =        0.0 (    0.0 MIN)
 TOTAL WALL CLOCK TIME=        0.0 SECONDS, CPU UTILIZATION IS  80.00%

          -------------
          GUESS OPTIONS
          -------------
          GUESS =MOREAD            NORB  =       0          NORDER=       0
          MIX   =       F          PRTMO =       F          PUNMO =       F
          TOLZ  = 1.0E-08          TOLE  = 1.0E-05
          SYMDEN=       F          PURIFY=       F

 INITIAL GUESS ORBITALS GENERATED BY MOREAD   ROUTINE.

 STATISTICS FOR GENERATION OF SYMMETRY ORBITAL -Q- MATRIX
 NUMBER OF CARTESIAN ATOMIC ORBITALS=         25
 NUMBER OF SPHERICAL CONTAMINANTS DROPPED=     1
 NUMBER OF LINEARLY DEPENDENT MOS DROPPED=     0
 TOTAL NUMBER OF MOS IN VARIATION SPACE=      24

 SYMMETRIES FOR INITIAL GUESS ORBITALS FOLLOW.   BOTH SET(S).
     5 ORBITALS ARE OCCUPIED (    1 CORE ORBITALS).
     1=A1       2=A1       3=B2       4=A1       5=B1       6=A1       7=A1  
     8=A1       9=A1      10=A1      11=A1      12=A1      13=A1      14=A2  
    15=A2      16=B1      17=B1      18=B1      19=B2      20=B2      21=B2  
    22=B2      23=B2      24=B2  
 ...... END OF INITIAL ORBITAL SELECTION ......
 STEP CPU TIME =     0.00 TOTAL CPU TIME =        0.0 (    0.0 MIN)
 TOTAL WALL CLOCK TIME=        0.0 SECONDS, CPU UTILIZATION IS  80.00%

                    ----------------------
                    AO INTEGRAL TECHNOLOGY
                    ----------------------
     S,P,L SHELL ROTATED AXIS INTEGRALS, REPROGRAMMED BY
        KAZUYA ISHIMURA (IMS) AND JOSE SIERRA (SYNSTAR).
     S,P,D,L SHELL ROTATED AXIS INTEGRALS PROGRAMMED BY
        KAZUYA ISHIMURA (INSTITUTE FOR MOLECULAR SCIENCE).
     S,P,D,F,G SHELL TO TOTAL QUARTET ANGULAR MOMENTUM SUM 5,
        ERIC PROGRAM BY GRAHAM FLETCHER (ELORET AND NASA ADVANCED
        SUPERCOMPUTING DIVISION, AMES RESEARCH CENTER).
     S,P,D,F,G,L SHELL GENERAL RYS QUADRATURE PROGRAMMED BY
        MICHEL DUPUIS (PACIFIC NORTHWEST NATIONAL LABORATORY).

          --------------------
          2 ELECTRON INTEGRALS
          --------------------

 THE -PK- OPTION IS OFF, THE INTEGRALS ARE NOT IN SUPERMATRIX FORM.
 STORING   15000 INTEGRALS/RECORD ON DISK, USING 12 BYTES/INTEGRAL.
 TWO ELECTRON INTEGRAL EVALUATION REQUIRES   90474 WORDS OF MEMORY.
 II,JST,KST,LST =  1  1  1  1 NREC =         1 INTLOC =    1
 II,JST,KST,LST =  2  1  1  1 NREC =         1 INTLOC =    2
 II,JST,KST,LST =  3  1  1  1 NREC =         1 INTLOC =    7
 II,JST,KST,LST =  4  1  1  1 NREC =         1 INTLOC =   22
 II,JST,KST,LST =  5  1  1  1 NREC =         1 INTLOC =   67
 II,JST,KST,LST =  6  1  1  1 NREC =         1 INTLOC =  214
 II,JST,KST,LST =  7  1  1  1 NREC =         1 INTLOC = 1189
 II,JST,KST,LST =  8  1  1  1 NREC =         1 INTLOC = 1189
 II,JST,KST,LST =  9  1  1  1 NREC =         1 INTLOC = 1189
 II,JST,KST,LST = 10  1  1  1 NREC =         1 INTLOC = 1189
 II,JST,KST,LST = 11  1  1  1 NREC =         1 INTLOC = 2524
 II,JST,KST,LST = 12  1  1  1 NREC =         1 INTLOC = 4462
 TOTAL NUMBER OF NONZERO TWO-ELECTRON INTEGRALS =               13863
          1 INTEGRAL RECORDS WERE STORED ON DISK FILE  8.
  ...... END OF TWO-ELECTRON INTEGRALS .....
 STEP CPU TIME =     0.03 TOTAL CPU TIME =        0.1 (    0.0 MIN)
 TOTAL WALL CLOCK TIME=        0.1 SECONDS, CPU UTILIZATION IS  70.00%

          --------------------------
                 RHF SCF CALCULATION
          --------------------------

     NUCLEAR ENERGY =         9.3007105374
     MAXIT =   30     NPUNCH=    2
     EXTRAP=T  DAMP=F  SHIFT=F  RSTRCT=F  DIIS=F  DEM=F  SOSCF=T
     DENSITY MATRIX CONV=  1.00E-05
     SOSCF WILL OPTIMIZE      95 ORBITAL ROTATIONS, SOGTOL=   0.250
     MEMORY REQUIRED FOR RHF ITERS=     35105 WORDS.

 ITER EX DEM     TOTAL ENERGY        E CHANGE  DENSITY CHANGE     ORB. GRAD
   1  0  0      -76.0804364669   -76.0804364669   0.007023107   0.000000000
          ---------------START SECOND ORDER SCF---------------
   2  1  0      -76.0804430258    -0.0000065588   0.001746786   0.000542752
   3  2  0      -76.0804437714    -0.0000007456   0.000946228   0.000310329
   4  3  0      -76.0804440461    -0.0000002747   0.000223611   0.000033793
   5  4  0      -76.0804440550    -0.0000000090   0.000053603   0.000013140
   6  5  0      -76.0804440561    -0.0000000010   0.000008776   0.000002018
   7  6  0      -76.0804440561    -0.0000000000   0.000004125   0.000000577

          -----------------
          DENSITY CONVERGED
          -----------------
     TIME TO FORM FOCK OPERATORS=       0.0 SECONDS (       0.0 SEC/ITER)
     TIME TO SOLVE SCF EQUATIONS=       0.0 SECONDS (       0.0 SEC/ITER)

 FINAL RHF ENERGY IS      -76.0804440561 AFTER   7 ITERATIONS

          ------------
          EIGENVECTORS
          ------------

                      1          2          3          4          5
                  -20.5636    -1.3440    -0.7053    -0.5685    -0.4939
                     A1         A1         B2         A1         B1  
    1  O  1  S    1.000462  -0.009284   0.000000  -0.002220   0.000000
    2  O  1  S    0.002675   0.865521   0.000000   0.296160   0.000000
    3  O  1  S   -0.001604  -0.125861   0.000000   0.184609   0.000000
    4  O  1  X   -0.000000  -0.000000   0.000000   0.000000   0.923299
    5  O  1  Y   -0.000000  -0.000000   0.719079   0.000000   0.000000
    6  O  1  Z   -0.002639  -0.117861   0.000000   0.799910   0.000000
    7  O  1  X   -0.000000  -0.000000   0.000000   0.000000   0.066650
    8  O  1  Y   -0.000000  -0.000000  -0.115537   0.000000   0.000000
    9  O  1  Z    0.001683   0.069599   0.000000  -0.007294   0.000000
   10  O  1 XX   -0.000149  -0.003333   0.000000   0.012897   0.000000
   11  O  1 YY    0.000135   0.002098   0.000000   0.005083   0.000000
   12  O  1 ZZ    0.000014   0.001235   0.000000  -0.017979   0.000000
   13  O  1 XY   -0.000000  -0.000000   0.000000   0.000000   0.000000
   14  O  1 XZ   -0.000000  -0.000000   0.000000   0.000000  -0.018340
   15  O  1 YZ   -0.000000  -0.000000  -0.027084   0.000000   0.000000
   16  H  2  S   -0.000514   0.336507   0.562432  -0.351634   0.000000
   17  H  2  S    0.000684  -0.158988  -0.194398   0.137945   0.000000
   18  H  2  X   -0.000000  -0.000000   0.000000   0.000000   0.031486
   19  H  2  Y    0.000611  -0.038010  -0.023599   0.032120   0.000000
   20  H  2  Z   -0.000511   0.020715   0.033046   0.007687   0.000000
   21  H  3  S   -0.000514   0.336507  -0.562432  -0.351634   0.000000
   22  H  3  S    0.000684  -0.158988   0.194398   0.137945   0.000000
   23  H  3  X   -0.000000  -0.000000   0.000000   0.000000   0.031486
   24  H  3  Y   -0.000611   0.038010  -0.023599  -0.032120   0.000000
   25  H  3  Z   -0.000511   0.020715  -0.033046   0.007687   0.000000

                      6          7          8          9         10
                    0.1871     0.2578     0.7974     0.8640     1.1631
                     A1         B2         B2         A1         A1  
    1  O  1  S   -0.051869  -0.000000  -0.000000  -0.062165  -0.003364
    2  O  1  S    0.142507  -0.000000  -0.000000  -0.496740  -0.227215
    3  O  1  S    0.930987  -0.000000  -0.000000   0.604511  -0.650017
    4  O  1  X   -0.000000  -0.000000  -0.000000   0.000000  -0.000000
    5  O  1  Y   -0.000000  -0.409584  -0.387238   0.000000  -0.000000
    6  O  1  Z   -0.273111  -0.000000  -0.000000   0.481782  -1.099445
    7  O  1  X   -0.000000  -0.000000  -0.000000   0.000000  -0.000000
    8  O  1  Y   -0.000000  -0.481290  -0.302493   0.000000  -0.000000
    9  O  1  Z   -0.205624  -0.000000  -0.000000  -0.241860   1.807203
   10  O  1 XX   -0.012883  -0.000000  -0.000000  -0.094664   0.000631
   11  O  1 YY    0.005392  -0.000000  -0.000000   0.093455   0.010825
   12  O  1 ZZ    0.007491  -0.000000  -0.000000   0.001209  -0.011455
   13  O  1 XY   -0.000000  -0.000000  -0.000000   0.000000  -0.000000
   14  O  1 XZ   -0.000000  -0.000000  -0.000000   0.000000  -0.000000
   15  O  1 YZ   -0.000000   0.022020  -0.112646   0.000000  -0.000000
   16  H  2  S   -0.097057   0.039971   1.609727   1.322444   0.964721
   17  H  2  S   -0.785017   1.445121  -1.474968  -1.203591  -0.369868
   18  H  2  X   -0.000000  -0.000000  -0.000000   0.000000  -0.000000
   19  H  2  Y    0.018482  -0.021454   0.077160   0.305268  -0.089165
   20  H  2  Z   -0.016785   0.018102  -0.156467  -0.060374   0.243475
   21  H  3  S   -0.097057  -0.039971  -1.609727   1.322444   0.964721
   22  H  3  S   -0.785017  -1.445121   1.474968  -1.203591  -0.369868
   23  H  3  X   -0.000000  -0.000000  -0.000000   0.000000  -0.000000
   24  H  3  Y   -0.018482  -0.021454   0.077160  -0.305268   0.089165
   25  H  3  Z   -0.016785  -0.018102   0.156467  -0.060374   0.243475

                     11         12         13         14         15
                    1.2016     1.2530     1.4433     1.4788     1.6773
                     B1         B2         A1         A2         B1  
    1  O  1  S   -0.000000   0.000000  -0.202107  -0.000000  -0.000000
    2  O  1  S   -0.000000   0.000000  -1.042061  -0.000000  -0.000000
    3  O  1  S   -0.000000   0.000000   1.126081  -0.000000  -0.000000
    4  O  1  X   -1.416912   0.000000  -0.000000  -0.000000  -0.061279
    5  O  1  Y   -0.000000  -1.066572  -0.000000  -0.000000  -0.000000
    6  O  1  Z   -0.000000   0.000000  -0.175600  -0.000000  -0.000000
    7  O  1  X    1.692352   0.000000  -0.000000  -0.000000  -0.598121
    8  O  1  Y   -0.000000   2.272243  -0.000000  -0.000000  -0.000000
    9  O  1  Z   -0.000000   0.000000   0.808082  -0.000000  -0.000000
   10  O  1 XX   -0.000000   0.000000  -0.055875  -0.000000  -0.000000
   11  O  1 YY   -0.000000   0.000000  -0.057905  -0.000000  -0.000000
   12  O  1 ZZ   -0.000000   0.000000   0.113780  -0.000000  -0.000000
   13  O  1 XY   -0.000000   0.000000  -0.000000   0.129473  -0.000000
   14  O  1 XZ    0.004241   0.000000  -0.000000  -0.000000  -0.159783
   15  O  1 YZ   -0.000000  -0.048188  -0.000000  -0.000000  -0.000000
   16  H  2  S   -0.000000  -0.658295   0.555057  -0.000000  -0.000000
   17  H  2  S   -0.000000  -0.513364  -0.493844  -0.000000  -0.000000
   18  H  2  X   -0.003251   0.000000  -0.000000   0.686644   0.769562
   19  H  2  Y   -0.000000   0.301698  -0.319788  -0.000000  -0.000000
   20  H  2  Z   -0.000000  -0.192574  -0.553738  -0.000000  -0.000000
   21  H  3  S   -0.000000   0.658295   0.555057  -0.000000  -0.000000
   22  H  3  S   -0.000000   0.513364  -0.493844  -0.000000  -0.000000
   23  H  3  X   -0.003251   0.000000  -0.000000  -0.686644   0.769562
   24  H  3  Y   -0.000000   0.301698   0.319788  -0.000000  -0.000000
   25  H  3  Z   -0.000000   0.192574  -0.553738  -0.000000  -0.000000

                     16         17         18         19         20
                    1.8620     1.9464     2.4800     2.5174     3.2945
                     A1         B2         B2         A1         B1  
    1  O  1  S   -0.713679  -0.000000  -0.000000   0.298222  -0.000000
    2  O  1  S   -3.086943  -0.000000  -0.000000   1.503878  -0.000000
    3  O  1  S    4.816533  -0.000000  -0.000000  -0.079394  -0.000000
    4  O  1  X   -0.000000  -0.000000  -0.000000   0.000000   0.008806
    5  O  1  Y   -0.000000  -0.003744   1.249750   0.000000  -0.000000
    6  O  1  Z   -0.186485  -0.000000  -0.000000  -0.991867  -0.000000
    7  O  1  X   -0.000000  -0.000000  -0.000000   0.000000  -0.323569
    8  O  1  Y   -0.000000   0.906868  -0.428584   0.000000  -0.000000
    9  O  1  Z   -0.884199  -0.000000  -0.000000   0.289063  -0.000000
   10  O  1 XX    0.149402  -0.000000  -0.000000   0.222949  -0.000000
   11  O  1 YY   -0.036002  -0.000000  -0.000000  -0.167967  -0.000000
   12  O  1 ZZ   -0.113400  -0.000000  -0.000000  -0.054981  -0.000000
   13  O  1 XY   -0.000000  -0.000000  -0.000000   0.000000  -0.000000
   14  O  1 XZ   -0.000000  -0.000000  -0.000000   0.000000   1.046097
   15  O  1 YZ   -0.000000   0.030471   0.145501   0.000000  -0.000000
   16  H  2  S   -1.439268  -0.664578  -0.533171  -0.831490  -0.000000
   17  H  2  S    0.330950   0.241064  -0.060741   0.261955  -0.000000
   18  H  2  X   -0.000000  -0.000000  -0.000000   0.000000   0.406797
   19  H  2  Y    0.373585  -0.482006   0.729241   0.745714  -0.000000
   20  H  2  Z    0.028399  -0.692953  -0.560254  -0.537823  -0.000000
   21  H  3  S   -1.439268   0.664578   0.533171  -0.831490  -0.000000
   22  H  3  S    0.330950  -0.241064   0.060741   0.261955  -0.000000
   23  H  3  X   -0.000000  -0.000000  -0.000000   0.000000   0.406797
   24  H  3  Y   -0.373585  -0.482006   0.729241  -0.745714  -0.000000
   25  H  3  Z    0.028399   0.692953   0.560254  -0.537823  -0.000000

                     21         22         23         24
                    3.3498     3.5241     3.8779     4.1584
                     A2         A1         A1         B2  
    1  O  1  S    0.000000  -0.084361  -0.122782   0.000000
    2  O  1  S    0.000000  -0.301032  -0.266637   0.000000
    3  O  1  S    0.000000   0.764643   2.453436   0.000000
    4  O  1  X    0.000000  -0.000000   0.000000   0.000000
    5  O  1  Y    0.000000  -0.000000   0.000000  -0.723509
    6  O  1  Z    0.000000  -0.044662  -0.622563   0.000000
    7  O  1  X    0.000000  -0.000000   0.000000   0.000000
    8  O  1  Y    0.000000  -0.000000   0.000000  -0.824599
    9  O  1  Z    0.000000  -0.536779  -0.635897   0.000000
   10  O  1 XX    0.000000  -0.402754  -1.068773   0.000000
   11  O  1 YY    0.000000  -0.689305   0.948408   0.000000
   12  O  1 ZZ    0.000000   1.092059   0.120365   0.000000
   13  O  1 XY    1.070708  -0.000000   0.000000   0.000000
   14  O  1 XZ    0.000000  -0.000000   0.000000   0.000000
   15  O  1 YZ    0.000000  -0.000000   0.000000   1.330244
   16  H  2  S    0.000000  -0.556178  -2.168655   1.913397
   17  H  2  S    0.000000   0.238042   0.894872  -0.666822
   18  H  2  X   -0.378912  -0.000000   0.000000   0.000000
   19  H  2  Y    0.000000   0.362073   0.623363  -0.615793
   20  H  2  Z    0.000000   0.317707  -0.503753   0.497106
   21  H  3  S    0.000000  -0.556178  -2.168655  -1.913397
   22  H  3  S    0.000000   0.238042   0.894872   0.666822
   23  H  3  X    0.378912  -0.000000   0.000000   0.000000
   24  H  3  Y    0.000000  -0.362073  -0.623363  -0.615793
   25  H  3  Z    0.000000   0.317707  -0.503753  -0.497106
 ...... END OF RHF CALCULATION ......
 STEP CPU TIME =     0.00 TOTAL CPU TIME =        0.1 (    0.0 MIN)
 TOTAL WALL CLOCK TIME=        0.1 SECONDS, CPU UTILIZATION IS  70.00%

     ----------------------------------------------------------------
     PROPERTY VALUES FOR THE RHF   SELF-CONSISTENT FIELD WAVEFUNCTION
     ----------------------------------------------------------------

          -----------------
          ENERGY COMPONENTS
          -----------------

         WAVEFUNCTION NORMALIZATION =       1.0000000000

                ONE ELECTRON ENERGY =    -123.4117634733
                TWO ELECTRON ENERGY =      38.0306088798
           NUCLEAR REPULSION ENERGY =       9.3007105374
                                      ------------------
                       TOTAL ENERGY =     -76.0804440561

 ELECTRON-ELECTRON POTENTIAL ENERGY =      38.0306088798
  NUCLEUS-ELECTRON POTENTIAL ENERGY =    -199.6195728320
   NUCLEUS-NUCLEUS POTENTIAL ENERGY =       9.3007105374
                                      ------------------
             TOTAL POTENTIAL ENERGY =    -152.2882534147
               TOTAL KINETIC ENERGY =      76.2078093587
                 VIRIAL RATIO (V/T) =       1.9983287106

  ...... PI ENERGY ANALYSIS ......

 ENERGY ANALYSIS:
            FOCK ENERGY=    -47.3505442034
          BARE H ENERGY=   -123.4117634733
     ELECTRONIC ENERGY =    -85.3811538383
         KINETIC ENERGY=     76.2078093587
          N-N REPULSION=      9.3007105374
           TOTAL ENERGY=    -76.0804433009
        SIGMA PART(1+2)=    -77.7802614833
               (K,V1,2)=     71.6470096457   -180.8447032055     31.4174320765
           PI PART(1+2)=     -7.6008923550
               (K,V1,2)=      4.5607997130    -18.7748696264      6.6131775584
  SIGMA SKELETON, ERROR=    -68.4795509459     -0.0000000000
             MIXED PART= 0.00000E+00 0.00000E+00 0.00000E+00 0.00000E+00
 ...... END OF PI ENERGY ANALYSIS ......

          ---------------------------------------
          MULLIKEN AND LOWDIN POPULATION ANALYSES
          ---------------------------------------

     ATOMIC MULLIKEN POPULATION IN EACH MOLECULAR ORBITAL

                      1          2          3          4          5

                  2.000000   2.000000   2.000000   2.000000   2.000000

    1             2.000311   1.461939   1.161050   1.713947   1.954459
    2            -0.000156   0.269030   0.419475   0.143027   0.022770
    3            -0.000156   0.269030   0.419475   0.143027   0.022770

               ----- POPULATIONS IN EACH AO -----
                             MULLIKEN      LOWDIN
              1  O  1  S      2.00093     1.96286
              2  O  1  S      1.80988     0.71960
              3  O  1  S     -0.16497     0.35400
              4  O  1  X      1.84182     1.44686
              5  O  1  Y      1.34999     1.03712
              6  O  1  Z      1.56683     1.23745
              7  O  1  X      0.11151     0.44234
              8  O  1  Y     -0.19808     0.36537
              9  O  1  Z     -0.03874     0.43472
             10  O  1 XX      0.00141     0.17002
             11  O  1 YY      0.00085     0.19739
             12  O  1 ZZ      0.00000     0.18290
             13  O  1 XY      0.00113     0.00000
             14  O  1 XZ      0.00914     0.00039
             15  O  1 YZ      0.00000     0.02922
             16  H  2  S      1.09172     0.47953
             17  H  2  S     -0.32618     0.07461
             18  H  2  X      0.02277     0.05521
             19  H  2  Y      0.03868     0.05146
             20  H  2  Z      0.02715     0.04907
             21  H  3  S      1.09172     0.47953
             22  H  3  S     -0.32618     0.07461
             23  H  3  X      0.02277     0.05521
             24  H  3  Y      0.03868     0.05146
             25  H  3  Z      0.02715     0.04907

          ----- MULLIKEN ATOMIC OVERLAP POPULATIONS -----
          (OFF-DIAGONAL ELEMENTS NEED TO BE MULTIPLIED BY 2)

             1           2           3

    1    7.5524691
    2    0.3696188   0.5178907
    3    0.3696188  -0.0333628   0.5178907

          TOTAL MULLIKEN AND LOWDIN ATOMIC POPULATIONS
       ATOM         MULL.POP.    CHARGE          LOW.POP.     CHARGE
    1 O             8.291707   -0.291707         8.580249   -0.580249
    2 H             0.854147    0.145853         0.709875    0.290125
    3 H             0.854147    0.145853         0.709875    0.290125

          MULLIKEN SPHERICAL HARMONIC POPULATIONS
       ATOM           S       P       D      F      G      H      I    TOTAL
    1 O             3.65    4.63    0.01   0.00   0.00   0.00   0.00    8.29
    2 H             0.77    0.09    0.00   0.00   0.00   0.00   0.00    0.85
    3 H             0.77    0.09    0.00   0.00   0.00   0.00   0.00    0.85

          -------------------------------
          BOND ORDER AND VALENCE ANALYSIS     BOND ORDER THRESHOLD=0.050
          -------------------------------

                   BOND                       BOND                       BOND
  ATOM PAIR DIST  ORDER      ATOM PAIR DIST  ORDER      ATOM PAIR DIST  ORDER
    1   2  0.946  1.025        1   3  0.946  1.025

                       TOTAL       BONDED        FREE
      ATOM            VALENCE     VALENCE     VALENCE
    1 O                 2.051       2.051       0.000
    2 H                 1.034       1.034      -0.000
    3 H                 1.034       1.034      -0.000

          ---------------------
          ELECTROSTATIC MOMENTS
          ---------------------

 POINT   1           X           Y           Z (BOHR)    CHARGE
                 0.000000    0.000000   -0.131509        0.00 (A.U.)
         DX          DY          DZ         /D/  (DEBYE)
     0.000000    0.000000   -2.041635    2.041635
 ...... END OF PROPERTY EVALUATION ......
 STEP CPU TIME =     0.00 TOTAL CPU TIME =        0.1 (    0.0 MIN)
 TOTAL WALL CLOCK TIME=        0.1 SECONDS, CPU UTILIZATION IS  70.00%

 BEGINNING ONE ELECTRON GRADIENT...
 ..... END OF 1-ELECTRON GRADIENT ......
 STEP CPU TIME =     0.01 TOTAL CPU TIME =        0.1 (    0.0 MIN)
 TOTAL WALL CLOCK TIME=        0.1 SECONDS, CPU UTILIZATION IS  72.73%

          ----------------------
          GRADIENT OF THE ENERGY
          ----------------------

 THE MINIMUM MEMORY REQUIRED FOR THIS RUN IS      79905 WORDS.
 USING     994455 WORDS FOR 2E- DERIVATIVE INTEGRAL CONTRIBUTIONS.
 THE COARSE/FINE SCHWARZ SCREENINGS SKIPPED            0/           0 BLOCKS.
 THE NUMBER OF GRADIENT INTEGRAL BLOCKS COMPUTED WAS      1452
 ...... END OF 2-ELECTRON GRADIENT ......
 STEP CPU TIME =     0.01 TOTAL CPU TIME =        0.1 (    0.0 MIN)
 TOTAL WALL CLOCK TIME=        0.1 SECONDS, CPU UTILIZATION IS  69.23%

                         ----------------------
                         GRADIENT OF THE ENERGY
                         ----------------------

 UNITS ARE HARTREE/BOHR    E'X               E'Y               E'Z 
    1 O                0.000000000       0.000000000      -0.000028631
    2 H                0.000000000       0.000145071       0.000014316
    3 H                0.000000000      -0.000145071       0.000014316

                   MAXIMUM GRADIENT =    0.000145071
                       RMS GRADIENT =    0.000069379
  $VIB   
          IVIB=   0 IATOM=   0 ICOORD=   0 E=      -76.0804440561
  0.000000000E+00 0.000000000E+00-2.863115899E-05 0.000000000E+00 1.450711985E-04
  1.431557948E-05 0.000000000E+00-1.450711985E-04 1.431557948E-05
  2.354186152E-17 5.643854273E-16-2.041634769E+00

..... END OF SINGLE POINT GRADIENT .....
 STEP CPU TIME =     0.00 TOTAL CPU TIME =        0.1 (    0.0 MIN)
 TOTAL WALL CLOCK TIME=        0.1 SECONDS, CPU UTILIZATION IS  69.23%
               994455  WORDS OF DYNAMIC MEMORY USED
 EXECUTION OF GAMESS TERMINATED NORMALLY Wed Aug  9 21:15:26 2017
 DDI: 263640 bytes (0.3 MB / 0 MWords) used by master data server.

 ----------------------------------------
 CPU timing information for all processes
 ========================================
 0: 0.86 + 0.19 = 0.106
 ----------------------------------------
 ddikick.x: exited gracefully.
unset echo
----- accounting info -----
Files used on the master node compute-1-0.local were:
-rw-rw-r-- 1 sarom sarom  15K Aug  9 21:15 /scratch/h2o-grad-nesc.F05
-rw-rw-r-- 1 sarom sarom 176K Aug  9 21:15 /scratch/h2o-grad-nesc.F08
-rw-rw-r-- 1 sarom sarom 5.6M Aug  9 21:15 /scratch/h2o-grad-nesc.F10
rm: cannot remove `/scratch/tmp': Is a directory
ls: No match.
ls: No match.
ls: No match.
Wed Aug  9 21:15:29 CDT 2017
0.249u 0.147s 0:03.59 10.5%	0+0k 0+384io 0pf+0w
/opt/gridengine/default/spool/compute-1-0/active_jobs/36044.1/pe_hostfile compute-1-0.local
