-catch_rsh /opt/gridengine/default/spool/compute-1-0/active_jobs/36049.1/pe_hostfile
compute-1-0
The primary node assigned by SGE to this run is compute-1-0
Warning: no access to tty (Bad file descriptor).
Thus no job control in this shell.
source /home/sarom/dir.git.branch.saromleang-travis-ci/install.info
setenv GMS_PATH /home/sarom/dir.git.branch.saromleang-travis-ci
setenv GMS_BUILD_DIR /home/sarom/dir.git.branch.saromleang-travis-ci
setenv GMS_TARGET linux64
setenv GMS_FORTRAN gfortran
setenv GMS_GFORTRAN_VERNO 4.4
setenv GMS_MATHLIB mkl-so
setenv GMS_MATHLIB none
setenv GMS_MATHLIB_PATH /share/apps/intel/compilers_and_libraries_2017.1.132/linux/mkl/lib/intel64
setenv GMS_MKL_VERNO 12
setenv GMS_DDI_COMM sockets
setenv GMS_LIBCCHEM false
setenv GMS_EIGEN_PATH
setenv GMS_PHI false
setenv GMS_SHMTYPE sysv
setenv GMS_OPENMP false
unset echo
n2o2-soc
/home/sarom/dir.git.branch.saromleang-travis-ci/tests/relwfn/parallel
----- GAMESS execution script 'rungms' -----
This job is running on host compute-1-0.local
under operating system Linux at Wed Aug 9 21:16:41 CDT 2017
Available scratch disk space (Kbyte units) at beginning of the job is
Filesystem           1K-blocks      Used Available Use% Mounted on
/dev/sda1             16126920   9111844   6195876  60% /
GAMESS temporary binary files will be written to /scratch
GAMESS supplementary output files will be written to /home/sarom/restart
Copying input file n2o2-soc.inp to your run's scratch directory...
cp /home/sarom/dir.git.branch.saromleang-travis-ci/tests/relwfn/parallel/n2o2-soc.inp /scratch/n2o2-soc.F05
unset echo
The generated host list is
compute-1-0.local
/home/sarom/dir.git.branch.saromleang-travis-ci/ddikick.x /home/sarom/dir.git.branch.saromleang-travis-ci/gamess.00.x n2o2-soc -ddi 1 1 compute-1-0.local -scr /scratch

 Distributed Data Interface kickoff program.
 Initiating 1 compute processes on 1 nodes to run the following command:
 /home/sarom/dir.git.branch.saromleang-travis-ci/gamess.00.x n2o2-soc 

          ******************************************************
          *         GAMESS VERSION = 20 APR 2017 (R1)          *
          *             FROM IOWA STATE UNIVERSITY             *
          * M.W.SCHMIDT, K.K.BALDRIDGE, J.A.BOATZ, S.T.ELBERT, *
          *   M.S.GORDON, J.H.JENSEN, S.KOSEKI, N.MATSUNAGA,   *
          *          K.A.NGUYEN, S.J.SU, T.L.WINDUS,           *
          *       TOGETHER WITH M.DUPUIS, J.A.MONTGOMERY       *
          *         J.COMPUT.CHEM.  14, 1347-1363(1993)        *
          **************** 64 BIT LINUX VERSION ****************

  SINCE 1993, STUDENTS AND POSTDOCS WORKING AT IOWA STATE UNIVERSITY
  AND ALSO IN THEIR VARIOUS JOBS AFTER LEAVING ISU HAVE MADE IMPORTANT
  CONTRIBUTIONS TO THE CODE:
     IVANA ADAMOVIC, CHRISTINE AIKENS, YURI ALEXEEV, POOJA ARORA,
     ANDREY ASADCHEV, ROB BELL, PRADIPTA BANDYOPADHYAY, JONATHAN BENTZ,
     BRETT BODE, KURT BRORSEN, CALEB CARLIN, GALINA CHABAN, WEI CHEN,
     CHEOL HO CHOI, PAUL DAY, ALBERT DEFUSCO, NUWAN DESILVA, TIM DUDLEY,
     DMITRI FEDOROV, GRAHAM FLETCHER, MARK FREITAG, KURT GLAESEMANN,
     DAN KEMP, GRANT MERRILL, NORIYUKI MINEZAWA, JONATHAN MULLIN,
     TAKESHI NAGATA, SEAN NEDD, HEATHER NETZLOFF, BOSILJKA NJEGIC, RYAN OLSON,
     MIKE PAK, SPENCER PRUITT, LUKE ROSKOP, JIM SHOEMAKER, LYUDMILA SLIPCHENKO,
     TONY SMITH, SAROM SOK LEANG, JIE SONG, TETSUYA TAKETSUGU, SIMON WEBB,
     PENG XU, SOOHAENG YOO, FEDERICO ZAHARIEV

  ADDITIONAL CODE HAS BEEN PROVIDED BY COLLABORATORS IN OTHER GROUPS:
     IOWA STATE UNIVERSITY:
          JOE IVANIC, AARON WEST, LAIMUTIS BYTAUTAS, KLAUS RUEDENBERG
     UNIVERSITY OF TOKYO: KIMIHIKO HIRAO, TAKAHITO NAKAJIMA,
          TAKAO TSUNEDA, MUNEAKI KAMIYA, SUSUMU YANAGISAWA,
          KIYOSHI YAGI, MAHITO CHIBA, SEIKEN TOKURA, NAOAKI KAWAKAMI
     UNIVERSITY OF AARHUS: FRANK JENSEN
     UNIVERSITY OF IOWA: VISVALDAS KAIRYS, HUI LI
     NATIONAL INST. OF STANDARDS AND TECHNOLOGY: WALT STEVENS, DAVID GARMER
     UNIVERSITY OF PISA: BENEDETTA MENNUCCI, JACOPO TOMASI
     UNIVERSITY OF MEMPHIS: HENRY KURTZ, PRAKASHAN KORAMBATH
     UNIVERSITY OF ALBERTA: TOBY ZENG, MARIUSZ KLOBUKOWSKI
     UNIVERSITY OF NEW ENGLAND: MARK SPACKMAN
     MIE UNIVERSITY: HIROAKI UMEDA
     NAT. INST. OF ADVANCED INDUSTRIAL SCIENCE AND TECHNOLOGY: KAZUO KITAURA
     MICHIGAN STATE UNIVERSITY:
          KAROL KOWALSKI, MARTA WLOCH, JEFFREY GOUR, JESSE LUTZ,
          WEI LI, PIOTR PIECUCH
     UNIVERSITY OF SILESIA: MONIKA MUSIAL, STANISLAW KUCHARSKI
     FACULTES UNIVERSITAIRES NOTRE-DAME DE LA PAIX:
          OLIVIER QUINET, BENOIT CHAMPAGNE
     UNIVERSITY OF CALIFORNIA - SANTA BARBARA: BERNARD KIRTMAN
     INSTITUTE FOR MOLECULAR SCIENCE:
          KAZUYA ISHIMURA, MICHIO KATOUDA, AND SHIGERU NAGASE
     UNIVERSITY OF NOTRE DAME: ANNA POMOGAEVA, DAN CHIPMAN
     KYUSHU UNIVERSITY:
          HARUYUKI NAKANO,
          FENG LONG GU, JACEK KORCHOWIEC, MARCIN MAKOWSKI, AND YURIKO AOKI,
          HIROTOSHI MORI AND EISAKU MIYOSHI
     PENNSYLVANIA STATE UNIVERSITY:
          TZVETELIN IORDANOV, CHET SWALINA, JONATHAN SKONE,
          SHARON HAMMES-SCHIFFER
     WASEDA UNIVERSITY:
          MASATO KOBAYASHI, TOMOKO AKAMA, TSUGUKI TOUMA,
          TAKESHI YOSHIKAWA, YASUHIRO IKABATA, JUNJI SEINO,
          YUYA NAKAJIMA, HIROMI NAKAI
     NANJING UNIVERSITY: SHUHUA LI
     UNIVERSITY OF NEBRASKA:
          PEIFENG SU, DEJUN SI, NANDUN THELLAMUREGE, YALI WANG, HUI LI
     UNIVERSITY OF ZURICH: ROBERTO PEVERATI, KIM BALDRIDGE
     N. COPERNICUS UNIVERSITY AND JACKSON STATE UNIVERSITY:
          MARIA BARYSZ
     UNIVERSITY OF COPENHAGEN: Jimmy Kromann, CASPER STEINMANN
     TOKYO INSTITUTE OF TECHNOLOGY: HIROYA NAKATA
     NAGOYA UNIVERSITY: YOSHIO NISHIMOTO, STEPHAN IRLE
     MOSCOW STATE UNIVERSITY: VLADIMIR MIRONOV

 EXECUTION OF GAMESS BEGUN Wed Aug  9 21:16:41 2017

            ECHO OF THE FIRST FEW INPUT CARDS -
 INPUT CARD>!   spin orbit coupling in N2O2...various Hso operators tested.                 
 INPUT CARD>!                                                                               
 INPUT CARD>!   HSO1:   r.lative E= -0.238, 31935.421 (2), 31935.659                        
 INPUT CARD>!   HSO2:   r.lative E= -0.088, 31935.421 (2), 31935.509                        
 INPUT CARD>!   HSO2P:  RELATIVE E= -0.090, 31935.420 (2), 31935.510                        
 INPUT CARD>!   The run is set up to do the 3rd case, for which the full                    
 INPUT CARD>!   coupling between the singlet and the upper component of the                 
 INPUT CARD>!   triplet is 53.58, of which the 1e- portion is 87.23.                        
 INPUT CARD>!                                                                               
 INPUT CARD>!   This run takes 7 seconds on 2.66 GHz Cloverton (22 Apr 2015)                
 INPUT CARD>!   results have not changed since at least 2001                                
 INPUT CARD>!                                                                               
 INPUT CARD> $CONTRL SCFTYP=none cityp=guga RUNTYP=transitn $END                            
 INPUT CARD> $SYSTEM mwords=1 $END                                                          
 INPUT CARD> $BASIS  GBASIS=N31 NGAUSS=6 NDFUNC=1 $END                                      
 INPUT CARD> $GUESS  GUESS=MOREAD NORB=60 $END                                              
 INPUT CARD> $transt operat=hso2p NFZC=11 NOCC=19 NUMVEC=1 NUMCI=2 IROOTS(1)=1,1            
 INPUT CARD>         reclen=6710 skipdm=.false. $END                                        
 INPUT CARD> $DRT1   GROUP=C1 FORS=.T. Nfzc=11 Ndoc=4 Nval=4 $END                           
 INPUT CARD> $DRT2   GROUP=C1 FORS=.T. Nfzc=11 Ndoc=3 Nalp=2 Nval=3 $END                    
 INPUT CARD> $gugdia maxham=100 $end                                                        
 INPUT CARD> $DATA                                                                          
 INPUT CARD>N2O2 6-31G* MCSCF                                                               
 INPUT CARD>C1                                                                              
 INPUT CARD>N1          7.0    .6265666992   -.7001874655   -.0844797036                    
 INPUT CARD>N2          7.0   -.6264694346   -.7007864175    .0845522377                    
 INPUT CARD>O3          8.0  -1.0108189910    .6133994182   -.0526863861                    
 INPUT CARD>O4          8.0   1.0107338387    .6131117253    .0526228845                    
 INPUT CARD> $END                                                                           
 INPUT CARD>                                                                                
 INPUT CARD>--- OPTIMIZED MCSCF MO-S --- GENERATED AT 11:20:07 CST  4-NOV-1994              
 INPUT CARD>N2O2                                                                            
 INPUT CARD>E(MCSCF)=     -258.5484450742,  1 ITERS, E(NUC)=  108.5522256868                
 INPUT CARD> $VEC1                                                                          
 INPUT CARD> 1  1 3.89444409E-05 2.09751376E-04 1.67988276E-05-5.96373875E-05 1.43427823E-05
 INPUT CARD> 1  2 6.20772950E-05-9.77043432E-05-1.90332221E-04-3.59326070E-06 4.08846720E-05
 INPUT CARD> 1  3-1.36909591E-04 3.85962002E-06-3.04561982E-05-2.21262449E-06-2.18223087E-05
 INPUT CARD> 1  4 5.31261719E-06 2.19403490E-05 8.02531653E-07-1.20359211E-05-2.13022345E-05
 INPUT CARD> 1  5-2.41741574E-04 4.71471988E-05-8.43327932E-05 1.37749002E-06-9.60860921E-06
 INPUT CARD> 1  6-3.14299361E-05-1.61829765E-05-8.53163447E-06 1.08390593E-06 1.17290582E-05
 INPUT CARD> 1  7 2.11522162E-01 4.35185092E-03 4.43664012E-05-1.84833377E-04 2.14590056E-05
 INPUT CARD> 1  8 9.96476415E-04 3.87921403E-05-5.63818743E-05-2.59507005E-05-8.03979622E-04
 INPUT CARD> 1  9-8.75008310E-04-8.51796305E-04-4.44593557E-05-3.21763569E-05-3.97647927E-06
 INPUT CARD> 1 10 9.72074010E-01 2.02772209E-02-2.91213884E-04-6.33749786E-04-9.64877813E-05
 INPUT CARD> 1 11 3.44500845E-03 3.21375805E-04 6.21013303E-04 1.45210793E-04-3.87368011E-03
 INPUT CARD> 1 12-3.89303867E-03-3.57786797E-03 6.29288772E-05-1.71535728E-04 2.61083667E-06
 INPUT CARD> 2  1-1.19155042E-05-7.14498846E-05-8.63912302E-06 1.40151454E-05 1.68502950E-05
 INPUT CARD> 2  2-2.93819991E-04-8.05634300E-06-6.62390414E-06 1.76793661E-07-2.91939713E-05
 INPUT CARD> 2  3 2.72591059E-05-1.95343408E-05 2.27863818E-05 2.20218626E-06-2.94013063E-06
 INPUT CARD> 2  4 4.01255831E-05 2.19556690E-04-1.88721522E-05-5.93843582E-05-6.10287849E-06
    1000000 WORDS OF MEMORY AVAILABLE

     BASIS OPTIONS
     -------------
     GBASIS=N31          IGAUSS=       6      POLAR=POPN31  
     NDFUNC=       1     NFFUNC=       0     DIFFSP=       F
     NPFUNC=       0      DIFFS=       F     BASNAM=        


     RUN TITLE
     ---------
 N2O2 6-31G* MCSCF                                                               

 THE POINT GROUP OF THE MOLECULE IS C1      
 THE ORDER OF THE PRINCIPAL AXIS IS     0

 ATOM      ATOMIC                      COORDINATES (BOHR)
           CHARGE         X                   Y                   Z
 N1          7.0     1.1840393745       -1.3231624498       -0.1596434913
 N2          7.0    -1.1838555711       -1.3242943050        0.1597805609
 O3          8.0    -1.9101709162        1.1591568214       -0.0995628330
 O4          8.0     1.9100100017        1.1586131607        0.0994428324

          INTERNUCLEAR DISTANCES (ANGS.)
          ------------------------------

                1 N1         2 N2         3 O3         4 O4    

   1 N1      0.0000000    1.2643859 *  2.0994174 *  1.3751859 *
   2 N2      1.2643859 *  0.0000000    1.3760972 *  2.0994719 *
   3 O3      2.0994174 *  1.3760972 *  0.0000000    2.0242939 *
   4 O4      1.3751859 *  2.0994719 *  2.0242939 *  0.0000000  

  * ... LESS THAN  3.000


     ATOMIC BASIS SET
     ----------------
 THE CONTRACTED PRIMITIVE FUNCTIONS HAVE BEEN UNNORMALIZED
 THE CONTRACTED BASIS FUNCTIONS ARE NOW NORMALIZED TO UNITY

  SHELL TYPE  PRIMITIVE        EXPONENT          CONTRACTION COEFFICIENT(S)

 N1        

      1   S       1          4173.5114600    0.001834772160
      1   S       2           627.4579110    0.013994627002
      1   S       3           142.9020930    0.068586551812
      1   S       4            40.2343293    0.232240873040
      1   S       5            12.8202129    0.469069948082
      1   S       6             4.3904370    0.360455199063

      2   L       7            11.6263619   -0.114961181702    0.067579743878
      2   L       8             2.7162798   -0.169117478561    0.323907295893
      2   L       9             0.7722184    1.145851947027    0.740895139755

      3   L      10             0.2120315    1.000000000000    1.000000000000

      4   D      11             0.8000000    1.000000000000

 N2        

      5   S      12          4173.5114600    0.001834772160
      5   S      13           627.4579110    0.013994627002
      5   S      14           142.9020930    0.068586551812
      5   S      15            40.2343293    0.232240873040
      5   S      16            12.8202129    0.469069948082
      5   S      17             4.3904370    0.360455199063

      6   L      18            11.6263619   -0.114961181702    0.067579743878
      6   L      19             2.7162798   -0.169117478561    0.323907295893
      6   L      20             0.7722184    1.145851947027    0.740895139755

      7   L      21             0.2120315    1.000000000000    1.000000000000

      8   D      22             0.8000000    1.000000000000

 O3        

      9   S      23          5484.6716600    0.001831074430
      9   S      24           825.2349460    0.013950172200
      9   S      25           188.0469580    0.068445078098
      9   S      26            52.9645000    0.232714335992
      9   S      27            16.8975704    0.470192897984
      9   S      28             5.7996353    0.358520852987

     10   L      29            15.5396162   -0.110777549525    0.070874268231
     10   L      30             3.5999336   -0.148026262701    0.339752839147
     10   L      31             1.0137618    1.130767015354    0.727158577316

     11   L      32             0.2700058    1.000000000000    1.000000000000

     12   D      33             0.8000000    1.000000000000

 O4        

     13   S      34          5484.6716600    0.001831074430
     13   S      35           825.2349460    0.013950172200
     13   S      36           188.0469580    0.068445078098
     13   S      37            52.9645000    0.232714335992
     13   S      38            16.8975704    0.470192897984
     13   S      39             5.7996353    0.358520852987

     14   L      40            15.5396162   -0.110777549525    0.070874268231
     14   L      41             3.5999336   -0.148026262701    0.339752839147
     14   L      42             1.0137618    1.130767015354    0.727158577316

     15   L      43             0.2700058    1.000000000000    1.000000000000

     16   D      44             0.8000000    1.000000000000

 TOTAL NUMBER OF BASIS SET SHELLS             =   16
 NUMBER OF CARTESIAN GAUSSIAN BASIS FUNCTIONS =   60
 NUMBER OF ELECTRONS                          =   30
 CHARGE OF MOLECULE                           =    0
 SPIN MULTIPLICITY                            =    1
 NUMBER OF OCCUPIED ORBITALS (ALPHA)          =   15
 NUMBER OF OCCUPIED ORBITALS (BETA )          =   15
 TOTAL NUMBER OF ATOMS                        =    4
 THE NUCLEAR REPULSION ENERGY IS      108.5522256868

     $CONTRL OPTIONS
     ---------------
 SCFTYP=NONE         RUNTYP=TRANSITN     EXETYP=RUN     
 MPLEVL=       0     CITYP =GUGA         CCTYP =NONE         VBTYP =NONE    
 DFTTYP=NONE         TDDFT =NONE    
 MULT  =       1     ICHARG=       0     NZVAR =       0     COORD =UNIQUE  
 PP    =NONE         RELWFN=NONE         LOCAL =NONE         NUMGRD=       F
 ISPHER=      -1     NOSYM =       0     MAXIT =      30     UNITS =ANGS    
 PLTORB=       F     MOLPLT=       F     AIMPAC=       F     FRIEND=        
 NPRINT=       7     IREST =       0     GEOM  =INPUT   
 NORMF =       0     NORMP =       0     ITOL  =      20     ICUT  =       9
 INTTYP=BEST         GRDTYP=BEST         QMTTOL= 1.0E-06

     $SYSTEM OPTIONS
     ---------------
  REPLICATED MEMORY=     1000000 WORDS (ON EVERY NODE).
 DISTRIBUTED MEMDDI=           0 MILLION WORDS IN AGGREGATE,
 MEMDDI DISTRIBUTED OVER   1 PROCESSORS IS           0 WORDS/PROCESSOR.
 TOTAL MEMORY REQUESTED ON EACH PROCESSOR=     1000000 WORDS.
 TIMLIM=      525600.00 MINUTES, OR     365.0 DAYS.
 PARALL= F  BALTYP=  DLB     KDIAG=    0  COREFL= F
 MXSEQ2=     300 MXSEQ3=     150  mem10=         0

          ----------------
          PROPERTIES INPUT
          ----------------

     MOMENTS            FIELD           POTENTIAL          DENSITY
 IEMOM =       1   IEFLD =       0   IEPOT =       0   IEDEN =       0
 WHERE =COMASS     WHERE =NUCLEI     WHERE =NUCLEI     WHERE =NUCLEI  
 OUTPUT=BOTH       OUTPUT=BOTH       OUTPUT=BOTH       OUTPUT=BOTH    
 IEMINT=       0   IEFINT=       0                     IEDINT=       0
                                                       MORB  =       0
          EXTRAPOLATION IN EFFECT
          SOSCF IN EFFECT
 ORBITAL PRINTING OPTION: NPREO=     1    60     2     1

     -------------------------------
     INTEGRAL TRANSFORMATION OPTIONS
     -------------------------------
     NWORD  =            0
     CUTOFF = 1.0E-09     MPTRAN =       0
     DIRTRF =       F     AOINTS =DUP     

          ----------------------
          INTEGRAL INPUT OPTIONS
          ----------------------
 NOPK  =       1 NORDER=       0 SCHWRZ=       F

     ------------------------------------------
     THE POINT GROUP IS C1 , NAXIS= 0, ORDER= 1
     ------------------------------------------

     DIMENSIONS OF THE SYMMETRY SUBSPACES ARE
 A   =   60

 ..... DONE SETTING UP THE RUN .....
 STEP CPU TIME =     0.05 TOTAL CPU TIME =        0.0 (    0.0 MIN)
 TOTAL WALL CLOCK TIME=        0.1 SECONDS, CPU UTILIZATION IS  83.33%

     ------------------------
     TRANSITION MOMENT DRIVER
     ------------------------

     -------------------------------
     INPUT FOR TRANSITION MOMENT RUN
     -------------------------------
     OPERAT=HSO2P        NFZC  =      11     NOCC  =      19
     NUMCI =       2     NUMVEC=       1     SYMTOL=   1.0E-04
     IPRHSO=       0     NOSYM =       0     ETOL  =   100.000000
     UPPER ENERGY LIMIT FOR SPIN-ORBIT CI MATRIX   =      100.000 HARTREE.
     TMOMNT=       F     SKIPDM=       F     PRTPRM=       F
     SLOWFF=       F     PHYSRC=       F     MODPAR=       3
     JZ    =       0     PARMP =       0     ZEFTYP=TRUE    
     MCP2E =       0     ONECNT=       0     NFFBUF=      -1
     EEQTOL=   0.10E-05  ISTNO =  0  0
     DEGTOL= .0200 .0020

     IROOTS=         1  1
     NSTATE=         1  1
     IVEX  =         1  1
     ZEFF  =        7.0   7.0   8.0   8.0

          ********************
          1 ELECTRON INTEGRALS
          ********************
 ...... END OF ONE-ELECTRON INTEGRALS ......
 STEP CPU TIME =     0.00 TOTAL CPU TIME =        0.0 (    0.0 MIN)
 TOTAL WALL CLOCK TIME=        0.1 SECONDS, CPU UTILIZATION IS  83.33%
 OPENING FILE SOCCDAT WITH      12 LOGICAL RECORDS OF       0 WORDS
 WITH A MAXIMUM OF          12 PHYSICAL RECORDS OF    2048 WORDS


          ----------------------
          CORRESPONDING ORBITALS
          ----------------------
 THE CORRESPONDING ORBITAL OVERLAPS ARE
  1.0000000000 1.0000000000 1.0000000000 1.0000000000 1.0000000000
  1.0000000000 1.0000000000 1.0000000000 1.0000000000 1.0000000000
  1.0000000000 1.0000000000 1.0000000000 1.0000000000 1.0000000000
  1.0000000000 1.0000000000 1.0000000000 1.0000000000
 STEP CPU TIME =     0.01 TOTAL CPU TIME =        0.1 (    0.0 MIN)
 TOTAL WALL CLOCK TIME=        0.1 SECONDS, CPU UTILIZATION IS  85.71%

                    ----------------------
                    AO INTEGRAL TECHNOLOGY
                    ----------------------
     S,P,L SHELL ROTATED AXIS INTEGRALS, REPROGRAMMED BY
        KAZUYA ISHIMURA (IMS) AND JOSE SIERRA (SYNSTAR).
     S,P,D,L SHELL ROTATED AXIS INTEGRALS PROGRAMMED BY
        KAZUYA ISHIMURA (INSTITUTE FOR MOLECULAR SCIENCE).
     S,P,D,F,G SHELL TO TOTAL QUARTET ANGULAR MOMENTUM SUM 5,
        ERIC PROGRAM BY GRAHAM FLETCHER (ELORET AND NASA ADVANCED
        SUPERCOMPUTING DIVISION, AMES RESEARCH CENTER).
     S,P,D,F,G,L SHELL GENERAL RYS QUADRATURE PROGRAMMED BY
        MICHEL DUPUIS (PACIFIC NORTHWEST NATIONAL LABORATORY).

          --------------------
          2 ELECTRON INTEGRALS
          --------------------

 THE -PK- OPTION IS OFF, THE INTEGRALS ARE NOT IN SUPERMATRIX FORM.
 STORING   15000 INTEGRALS/RECORD ON DISK, USING 12 BYTES/INTEGRAL.
 TWO ELECTRON INTEGRAL EVALUATION REQUIRES   90532 WORDS OF MEMORY.
 II,JST,KST,LST =  1  1  1  1 NREC =         1 INTLOC =    1
 II,JST,KST,LST =  2  1  1  1 NREC =         1 INTLOC =    2
 II,JST,KST,LST =  3  1  1  1 NREC =         1 INTLOC =   34
 II,JST,KST,LST =  4  1  1  1 NREC =         1 INTLOC =  214
 II,JST,KST,LST =  5  1  1  1 NREC =         1 INTLOC = 1189
 II,JST,KST,LST =  6  1  1  1 NREC =         1 INTLOC = 3189
 II,JST,KST,LST =  7  1  1  1 NREC =         2 INTLOC =  913
 II,JST,KST,LST =  8  1  1  1 NREC =         3 INTLOC = 8131
 II,JST,KST,LST =  9  1  1  1 NREC =         7 INTLOC = 5977
 II,JST,KST,LST = 10  1  1  1 NREC =         8 INTLOC = 4680
 II,JST,KST,LST = 11  1  1  1 NREC =        13 INTLOC = 4268
 II,JST,KST,LST = 12  1  1  1 NREC =        20 INTLOC = 3947
 II,JST,KST,LST = 13  1  1  1 NREC =        35 INTLOC = 4002
 II,JST,KST,LST = 14  1  1  1 NREC =        38 INTLOC =   88
 II,JST,KST,LST = 15  1  1  1 NREC =        52 INTLOC =11895
 II,JST,KST,LST = 16  1  1  1 NREC =        71 INTLOC =13118
 TOTAL NUMBER OF NONZERO TWO-ELECTRON INTEGRALS =             1618703
        108 INTEGRAL RECORDS WERE STORED ON DISK FILE  8.
  ...... END OF TWO-ELECTRON INTEGRALS .....
 STEP CPU TIME =     0.08 TOTAL CPU TIME =        0.1 (    0.0 MIN)
 TOTAL WALL CLOCK TIME=        0.2 SECONDS, CPU UTILIZATION IS  87.50%
 ...... END OF ORBITAL SELECTION ......


     -------------------------
      1-ST     CI CALCULATION
     -------------------------

          -----------------------     ----------------------------
          GUGA DISTINCT ROW TABLE     WRITTEN BY B.R.BROOKS,P.SAXE
          -----------------------     ----------------------------

      GROUP=C1           NPRT=       0
       FORS=       T   INTACT=       F
       FOCI=       F   MXNINT=   50000
       SOCI=       F   MXNEME=   10000
     IEXCIT=       0

      -CORE-    -INTERNAL-  -EXTERNAL-
     NFZC=  11   NDOC=   4   NEXT=   0
     NMCC=   0   NAOS=   0   NFZV=   0
                 NBOS=   0
                 NALP=   0
                 NVAL=   4

 THE MAXIMUM ELECTRON EXCITATION WILL BE   8

 SYMMETRIES FOR THE  11 CORE,   8 ACTIVE,   0 EXTERNAL MO-S ARE
     CORE= A     A     A     A     A     A     A     A     A     A   
           A   
   ACTIVE= A     A     A     A     A     A     A     A   
           DOC   DOC   DOC   DOC   VAL   VAL   VAL   VAL 

 MOLECULAR CHARGE          =    0
 NUMBER OF ALPHA ELECTRONS =   15
 NUMBER OF  BETA ELECTRONS =   15

 THE ELECTRONIC STATE IS  1-A   

 THE DISTINCT ROW TABLE HAS        55 ROWS.
  THE WAVEFUNCTION CONTAINS      1764 WALKS (CSF-S).

 TOTAL NUMBER OF INTEGRALS =        814
 NUMBER OF INTEGRALS/GROUP =        814
 NUMBER OF INTEGRAL GROUPS =          1
 MAXIMUM RECORD SIZES ARE    1764 FOR UNIT 11    1764 FOR UNIT 12
                            30001 FOR UNIT 15   30001 FOR UNIT 16
 ...... END OF -DRT- GENERATION ...... 
 STEP CPU TIME =     0.01 TOTAL CPU TIME =        0.1 (    0.0 MIN)
 TOTAL WALL CLOCK TIME=        0.2 SECONDS, CPU UTILIZATION IS  93.75%

     --------------------------------------------
     PARTIAL TWO ELECTRON INTEGRAL TRANSFORMATION
     --------------------------------------------

 NUMBER OF CORE MOLECULAR ORBITALS     =   11
 NUMBER OF OCCUPIED MOLECULAR ORBITALS =   19
 TOTAL NUMBER OF MOLECULAR ORBITALS    =   19
 TOTAL NUMBER OF ATOMIC ORBITALS       =   60
 THRESHOLD FOR KEEPING TRANSFORMED 2E- INTEGRALS = 1.000E-09
 AO INTEGRALS WILL BE READ IN FROM DISK...
 EVALUATING THE FROZEN CORE ENERGY...
 ----- FROZEN CORE ENERGY =      -348.0625944687

 PLAN A: REQUIREMENTS FOR FULLY IN-MEMORY TRANSFORMATION:
 # OF WORDS AVAILABLE =               963972
 # OF WORDS NEEDED    =               956522

 CHOOSING IN MEMORY PARTIAL TRANSFORMATION...
 TOTAL NUMBER OF TRANSFORMED 2E- INTEGRALS KEPT =          666
 ... END OF INTEGRAL TRANSFORMATION ...
 STEP CPU TIME =     0.07 TOTAL CPU TIME =        0.2 (    0.0 MIN)
 TOTAL WALL CLOCK TIME=        0.2 SECONDS, CPU UTILIZATION IS  95.65%

          ------------------------
          GUGA-CI INTEGRAL SORTING
          ------------------------

     80161 WORDS NEEDED TO SORT            814 GUGA INTEGRALS IN MEMORY
    963972 WORDS ARE AVAILABLE
 CHOOSING IN-MEMORY SORTING...
 IN CORE ALGORITHM SORTED             36 NON-ZERO 1E- INTEGRALS
 IN CORE ALGORITHM SORTED            666 NON-ZERO 2E- INTEGRALS
 ...... END OF INTEGRAL SORTING ...... 
 STEP CPU TIME =     0.00 TOTAL CPU TIME =        0.2 (    0.0 MIN)
 TOTAL WALL CLOCK TIME=        0.2 SECONDS, CPU UTILIZATION IS  95.65%

 -------------------------     ---------------------------------------
 ENERGY MATRIX CALCULATION     WRITTEN BY B.R.BROOKS,W.D.LAIDIG,P.SAXE
 -------------------------     ---------------------------------------

 COMPUTING THE HAMILTONIAN FOR THE      1764 CSF-S...

      347575 IS THE TOTAL NUMBER OF GENERATED LOOPS
      347575 WERE CREATED BY THE LOOP-DRIVEN ALGORITHM
           0 WERE CREATED IMPLICITLY

      340905 IS THE TOTAL NUMBER OF PROCESSED LOOPS
        7507     DIAGONAL LOOPS ARE STORED ON WORK15 IN     1 BUFFERS OF  10000 ELEMENTS.
      333398 OFF DIAGONAL LOOPS ARE STORED ON WORK16 IN    34 BUFFERS OF  10000 ELEMENTS.
 ...... END OF ENERGY MATRIX CALCULATION ...... 
 STEP CPU TIME =     0.03 TOTAL CPU TIME =        0.3 (    0.0 MIN)
 TOTAL WALL CLOCK TIME=        0.3 SECONDS, CPU UTILIZATION IS  96.15%

          -----------------------------------------
          DAVIDSON METHOD CI-MATRIX DIAGONALIZATION
                   WRITTEN BY STEVE ELBERT
          -----------------------------------------
 NUMBER OF STATES REQUESTED =     1
 MAX. NUMB. OF EXPAN. VEC   =    30
 MAX. NUMB. IMPROVED STATES =     1
 MAX. NUMB. OF ITERATIONS   =    50
 CONVERGENCE CRITERION      =    1.0E-06

 CHOOSING OUT OF MEMORY STORAGE OF HAMILTONIAN,
 AND IN MEMORY STORAGE OF TRIAL VECTORS.

 NUMBER OF WORDS AVAILABLE =     963972
 NUMBER OF WORDS USED      =     153622
 ENERGY MATRIX BUFFER SIZE =      10000

 ITER. NO.JUST IMPROVED    ENERGY AND STATE
   0   7(MAX.TOL.STATE)   -256.548429224  1
   1   6  0.68015316  5   -256.777140465  1
   2   5  0.53006302  1   -256.999910972  1
   3   4  0.39609115  2   -257.166076267  1
   4   3  0.33784474  1   -257.313906514  1
   5   2  0.19749075  1   -257.380139186  1
   6   1  0.10721664  1   -257.400522607  1
   7   1  0.05868271  1   -257.406607638  1
   8   1  0.03552636  1   -257.408676239  1
   9   1  0.02338195  1   -257.409516180  1
  10   1  0.01055192  1   -257.409763985  1
  11   1  0.01101062  1   -257.409913320  1
  12   1  0.00677931  1   -257.409984015  1
  13   1  0.00430449  1   -257.410015692  1
  14   1  0.00295030  1   -257.410031427  1
  15   1  0.00196094  1   -257.410038324  1
  16   1  0.00113155  1   -257.410040697  1
  17   1  0.00067953  1   -257.410041443  1
  18   1  0.00040576  1   -257.410041697  1
  19   1  0.00028123  1   -257.410041813  1
  20   1  0.00018475  1   -257.410041864  1
  21   1  0.00015606  1   -257.410041892  1
  22   1  0.00009529  1   -257.410041905  1
  23   1  0.00005171  1   -257.410041909  1
  24   1  0.00002801  1   -257.410041911  1
  25   1  0.00001441  1   -257.410041911  1
  26   1  0.00000748  1   -257.410041911  1
  27   1  0.00000391  1   -257.410041911  1
  28   1  0.00000211  1   -257.410041911  1
  29   1  0.00000117  1   -257.410041911  1
  30   1  0.00000061  1   -257.410041911  1

 STATE #    1  ENERGY =    -257.410041911

      CSF      COEF    OCCUPANCY (IGNORING CORE)
      ---      ----    --------- --------- -----
      996   -0.080825  12001112
     1040   -0.056090  02101121
     1057   -0.087508  02001122
     1263    0.053378  02001221
     1275    0.074844  22202000
     1285    0.151763  22102001
     1305    0.140376  22002002
     1307   -0.053816  12102002
     1310   -0.099796  02202002
     1327    0.151706  12202010
     1346    0.272472  12102011
     1350    0.060961  12012011
     1354    0.067177  02112011
     1362    0.148755  12102011
     1365   -0.053762  02202011
     1380   -0.069475  21002012
     1381    0.295254  12002012
     1385   -0.072299  02102012
     1393   -0.072783  02012012
     1402    0.051566  12102020
     1405    0.149831  02202020
     1421    0.069373  12002021
     1424   -0.071822  11102021
     1425    0.306928  02102021
     1433    0.055306  02012021
     1441   -0.101377  11002022
     1442    0.306413  02002022
     1450    0.087978  22102100
     1485    0.109256  22002101
     1487   -0.056586  12102101
     1490   -0.053148  02202101
     1526   -0.171230  12102110
     1545   -0.218110  12002111
     1549    0.060132  02102111
     1557    0.057148  02012111
     1572    0.086474  12102110
     1591    0.116767  12002111
     1595   -0.070058  02102111
     1625   -0.203691  02102120
     1647    0.067203  11002121
     1648   -0.275657  02002121
     1711   -0.090490  12002210
     1732    0.050237  01102211
     1752    0.113801  02002220
     1764   -0.058334  00002222

 THE PROJECTION OF THIS CI STATE ONTO SPACE SYMMETRY A    WEIGHS 1.0000E+00

 ...... END OF CI-MATRIX DIAGONALIZATION ......
 STEP CPU TIME =     0.09 TOTAL CPU TIME =        0.3 (    0.0 MIN)
 TOTAL WALL CLOCK TIME=        0.3 SECONDS, CPU UTILIZATION IS  97.14%

          ---------------------
          STORE CSF INFORMATION
          --------------------

 READING THE DRT FILE
 TITLE=DRT1    Wed Aug  9 21:16:41 2017                                                
 NUMBER OF CONFIGURATIONS =       1764

 READING THE CI VECTOR FILE
 RUN TITLE=N2O2 6-31G* MCSCF                                                               
 DRT TITLE=DRT1    Wed Aug  9 21:16:41 2017                                                
     1 STATES WERE COMPUTED, NWKS=      1764

 STORING CSF AND CI COEF. INFORMATION FOR    1 STATES ON FILE  17.
     ENERGIES ARE ...
    -257.4100419
 SAVING CSFS WITH COEFS LARGER THAN 1.25E-05
 SAVED CSFS:       1755
 TOTAL CSFS:       1764

 ...... DONE STORING CSF INFORMATION ......
 STEP CPU TIME =     0.01 TOTAL CPU TIME =        0.3 (    0.0 MIN)
 TOTAL WALL CLOCK TIME=        0.3 SECONDS, CPU UTILIZATION IS 100.00%


     -------------------------
      2-ND     CI CALCULATION
     -------------------------

          -----------------------     ----------------------------
          GUGA DISTINCT ROW TABLE     WRITTEN BY B.R.BROOKS,P.SAXE
          -----------------------     ----------------------------

      GROUP=C1           NPRT=       0
       FORS=       T   INTACT=       F
       FOCI=       F   MXNINT=   50000
       SOCI=       F   MXNEME=   10000
     IEXCIT=       0

      -CORE-    -INTERNAL-  -EXTERNAL-
     NFZC=  11   NDOC=   3   NEXT=   0
     NMCC=   0   NAOS=   0   NFZV=   0
                 NBOS=   0
                 NALP=   2
                 NVAL=   3

 THE MAXIMUM ELECTRON EXCITATION WILL BE   8

 SYMMETRIES FOR THE  11 CORE,   8 ACTIVE,   0 EXTERNAL MO-S ARE
     CORE= A     A     A     A     A     A     A     A     A     A   
           A   
   ACTIVE= A     A     A     A     A     A     A     A   
           DOC   DOC   DOC   ALP   ALP   VAL   VAL   VAL 

 MOLECULAR CHARGE          =    0
 NUMBER OF ALPHA ELECTRONS =   16
 NUMBER OF  BETA ELECTRONS =   14

 THE ELECTRONIC STATE IS  3-A   

 THE DISTINCT ROW TABLE HAS        62 ROWS.
  THE WAVEFUNCTION CONTAINS      2352 WALKS (CSF-S).

 TOTAL NUMBER OF INTEGRALS =        814
 NUMBER OF INTEGRALS/GROUP =        814
 NUMBER OF INTEGRAL GROUPS =          1
 MAXIMUM RECORD SIZES ARE    2352 FOR UNIT 11    2352 FOR UNIT 12
                            30001 FOR UNIT 15   30001 FOR UNIT 16
 ...... END OF -DRT- GENERATION ...... 
 STEP CPU TIME =     0.00 TOTAL CPU TIME =        0.3 (    0.0 MIN)
 TOTAL WALL CLOCK TIME=        0.4 SECONDS, CPU UTILIZATION IS  97.22%

     --------------------------------------------
     PARTIAL TWO ELECTRON INTEGRAL TRANSFORMATION
     --------------------------------------------

 NUMBER OF CORE MOLECULAR ORBITALS     =   11
 NUMBER OF OCCUPIED MOLECULAR ORBITALS =   19
 TOTAL NUMBER OF MOLECULAR ORBITALS    =   19
 TOTAL NUMBER OF ATOMIC ORBITALS       =   60
 THRESHOLD FOR KEEPING TRANSFORMED 2E- INTEGRALS = 1.000E-09
 AO INTEGRALS WILL BE READ IN FROM DISK...
 EVALUATING THE FROZEN CORE ENERGY...
 ----- FROZEN CORE ENERGY =      -348.0625944687

 PLAN A: REQUIREMENTS FOR FULLY IN-MEMORY TRANSFORMATION:
 # OF WORDS AVAILABLE =               963972
 # OF WORDS NEEDED    =               956522

 CHOOSING IN MEMORY PARTIAL TRANSFORMATION...
 TOTAL NUMBER OF TRANSFORMED 2E- INTEGRALS KEPT =          666
 ... END OF INTEGRAL TRANSFORMATION ...
 STEP CPU TIME =     0.07 TOTAL CPU TIME =        0.4 (    0.0 MIN)
 TOTAL WALL CLOCK TIME=        0.4 SECONDS, CPU UTILIZATION IS  97.67%

          ------------------------
          GUGA-CI INTEGRAL SORTING
          ------------------------

     80161 WORDS NEEDED TO SORT            814 GUGA INTEGRALS IN MEMORY
    963972 WORDS ARE AVAILABLE
 CHOOSING IN-MEMORY SORTING...
 IN CORE ALGORITHM SORTED             36 NON-ZERO 1E- INTEGRALS
 IN CORE ALGORITHM SORTED            666 NON-ZERO 2E- INTEGRALS
 ...... END OF INTEGRAL SORTING ...... 
 STEP CPU TIME =     0.00 TOTAL CPU TIME =        0.4 (    0.0 MIN)
 TOTAL WALL CLOCK TIME=        0.4 SECONDS, CPU UTILIZATION IS  97.67%

 -------------------------     ---------------------------------------
 ENERGY MATRIX CALCULATION     WRITTEN BY B.R.BROOKS,W.D.LAIDIG,P.SAXE
 -------------------------     ---------------------------------------

 COMPUTING THE HAMILTONIAN FOR THE      2352 CSF-S...

      612932 IS THE TOTAL NUMBER OF GENERATED LOOPS
      612932 WERE CREATED BY THE LOOP-DRIVEN ALGORITHM
           0 WERE CREATED IMPLICITLY

      605842 IS THE TOTAL NUMBER OF PROCESSED LOOPS
       10492     DIAGONAL LOOPS ARE STORED ON WORK15 IN     2 BUFFERS OF  10000 ELEMENTS.
      595350 OFF DIAGONAL LOOPS ARE STORED ON WORK16 IN    60 BUFFERS OF  10000 ELEMENTS.
 ...... END OF ENERGY MATRIX CALCULATION ...... 
 STEP CPU TIME =     0.06 TOTAL CPU TIME =        0.5 (    0.0 MIN)
 TOTAL WALL CLOCK TIME=        0.5 SECONDS, CPU UTILIZATION IS  97.96%

          -----------------------------------------
          DAVIDSON METHOD CI-MATRIX DIAGONALIZATION
                   WRITTEN BY STEVE ELBERT
          -----------------------------------------
 NUMBER OF STATES REQUESTED =     1
 MAX. NUMB. OF EXPAN. VEC   =    30
 MAX. NUMB. IMPROVED STATES =     1
 MAX. NUMB. OF ITERATIONS   =    50
 CONVERGENCE CRITERION      =    1.0E-06

 CHOOSING OUT OF MEMORY STORAGE OF HAMILTONIAN,
 AND IN MEMORY STORAGE OF TRIAL VECTORS.

 NUMBER OF WORDS AVAILABLE =     963972
 NUMBER OF WORDS USED      =     182284
 ENERGY MATRIX BUFFER SIZE =      10000

 ITER. NO.JUST IMPROVED    ENERGY AND STATE
   0   1(MAX.TOL.STATE)   -256.371184765  1
   1   1  0.51241059  1   -256.778598929  1
   2   1  0.46295850  1   -257.049208673  1
   3   1  0.25802573  1   -257.141119281  1
   4   1  0.17432405  1   -257.183217369  1
   5   1  0.12746913  1   -257.204553323  1
   6   1  0.09160501  1   -257.215901133  1
   7   1  0.08080915  1   -257.223529536  1
   8   1  0.08416991  1   -257.230867453  1
   9   1  0.10623646  1   -257.240808077  1
  10   1  0.10155545  1   -257.251636726  1
  11   1  0.07146978  1   -257.258867565  1
  12   1  0.04524590  1   -257.262098019  1
  13   1  0.02778232  1   -257.263332397  1
  14   1  0.01905218  1   -257.263874396  1
  15   1  0.01474136  1   -257.264154102  1
  16   1  0.01064159  1   -257.264306336  1
  17   1  0.00749360  1   -257.264381781  1
  18   1  0.00610100  1   -257.264425504  1
  19   1  0.00533584  1   -257.264456597  1
  20   1  0.00487361  1   -257.264482221  1
  21   1  0.00432863  1   -257.264503286  1
  22   1  0.00362095  1   -257.264518749  1
  23   1  0.00279730  1   -257.264528889  1
  24   1  0.00181149  1   -257.264533748  1
  25   1  0.00091078  1   -257.264535219  1
  26   1  0.00048116  1   -257.264535643  1
  27   1  0.00030415  1   -257.264535785  1
  28   1  0.00021265  1   -257.264535847  1
  29   1  0.00015214  1   -257.264535877  1
  30   1  0.00007418  1   -257.264535888  1
  31   1  0.00009797  1   -257.264535897  1
  32   1  0.00006845  1   -257.264535903  1
  33   1  0.00004902  1   -257.264535906  1
  34   1  0.00003104  1   -257.264535907  1
  35   1  0.00001809  1   -257.264535908  1
  36   1  0.00001031  1   -257.264535908  1
  37   1  0.00000623  1   -257.264535908  1
  38   1  0.00000397  1   -257.264535908  1
  39   1  0.00000254  1   -257.264535908  1
  40   1  0.00000178  1   -257.264535908  1
  41   1  0.00000145  1   -257.264535908  1
  42   1  0.00000127  1   -257.264535908  1
  43   1  0.00000119  1   -257.264535908  1
  44   1  0.00000112  1   -257.264535908  1
  45   1  0.00000097  1   -257.264535908  1

 STATE #    1  ENERGY =    -257.264535908

      CSF      COEF    OCCUPANCY (IGNORING CORE)
      ---      ----    --------- --------- -----
       30   -0.126798  22102001
       48   -0.074684  21202001
       57   -0.121016  12202001
       78   -0.054027  21102002
       87   -0.168404  12102002
      186   -0.086611  21102011
      193    0.208570  12102011
      216   -0.068126  12102011
      235    0.121828  11202011
      243   -0.097611  11202011
      250    0.168014  02202011
      273   -0.060688  21102011
      282    0.085277  12102011
      294    0.105531  11202011
      340    0.088871  11102012
      348   -0.129218  11102012
      355    0.236481  02102012
      369    0.124853  11102012
      388    0.054952  01202012
      484    0.131313  11102021
      492    0.054377  11102021
      499   -0.199554  02102021
      525    0.056347  10202021
      532   -0.208807  01202021
      564    0.068340  10102022
      571   -0.225755  01102022
      608   -0.092284  22102100
      626   -0.056389  21202100
      635   -0.068952  12202100
      765   -0.162108  12102101
      777   -0.053294  11202101
      920   -0.152849  12102110
      962   -0.096249  11202110
      970    0.055199  11202110
      977   -0.095459  02202110
     1017    0.061895  11102111
     1022   -0.061516  12101111
     1122   -0.075825  11102111
     1130    0.078946  11102111
     1137   -0.206938  02102111
     1151   -0.077738  11102111
     1170   -0.062640  01202111
     1233    0.056866  01102112
     1240   -0.065217  02101112
     1308    0.073526  12102110
     1320    0.068910  11202110
     1347    0.051602  12002111
     1374   -0.091853  11102111
     1381    0.109271  02102111
     1395    0.064255  11102111
     1414    0.065967  01202111
     1453    0.052339  01102112
     1510   -0.074109  11102120
     1525    0.155816  02102120
     1558    0.145763  01202120
     1600    0.059248  02002121
     1621   -0.094544  01102121
     1628    0.063207  02101121
     1664    0.052724  01201121
     1690   -0.055779  10102121
     1697    0.181166  01102121
     1707    0.051962  02101121
     1749    0.064130  01101122
     1791   -0.071836  12102200
     2008   -0.101322  02102210
     2041   -0.052551  01202210
     2104    0.074678  01102211
     2275   -0.056046  01102220
     2320    0.060090  00102221

 THE PROJECTION OF THIS CI STATE ONTO SPACE SYMMETRY A    WEIGHS 1.0000E+00

 ...... END OF CI-MATRIX DIAGONALIZATION ......
 STEP CPU TIME =     0.19 TOTAL CPU TIME =        0.7 (    0.0 MIN)
 TOTAL WALL CLOCK TIME=        0.7 SECONDS, CPU UTILIZATION IS  98.53%

          ---------------------
          STORE CSF INFORMATION
          --------------------

 READING THE DRT FILE
 TITLE=DRT2    Wed Aug  9 21:16:42 2017                                                
 NUMBER OF CONFIGURATIONS =       2352

 READING THE CI VECTOR FILE
 RUN TITLE=N2O2 6-31G* MCSCF                                                               
 DRT TITLE=DRT2    Wed Aug  9 21:16:42 2017                                                
     1 STATES WERE COMPUTED, NWKS=      2352

 STORING CSF AND CI COEF. INFORMATION FOR    1 STATES ON FILE  17.
     ENERGIES ARE ...
    -257.2645359
 SAVING CSFS WITH COEFS LARGER THAN 1.25E-05
 SAVED CSFS:       2341
 TOTAL CSFS:       2352

 ...... DONE STORING CSF INFORMATION ......
 STEP CPU TIME =     0.00 TOTAL CPU TIME =        0.7 (    0.0 MIN)
 TOTAL WALL CLOCK TIME=        0.7 SECONDS, CPU UTILIZATION IS  98.53%
 STEP CPU TIME =     0.00 TOTAL CPU TIME =        0.7 (    0.0 MIN)
 TOTAL WALL CLOCK TIME=        0.7 SECONDS, CPU UTILIZATION IS  98.53%

 ++++++++++++++++++++++++++++++++++++++++++++++++++++++++++++++++++++++


 THE SYMMETRIES OF THE ANGULAR MOMENTUM L AND TRANSLATION R:
 LX BELONGS TO A   
 LY BELONGS TO A   
 LZ BELONGS TO A   
 RX BELONGS TO A   
 RY BELONGS TO A   
 RZ BELONGS TO A   
 SOC INTEGRALS NEED BE CALCULATED FOR LX: YEA 
 SOC INTEGRALS NEED BE CALCULATED FOR LY: YEA 
 SOC INTEGRALS NEED BE CALCULATED FOR LZ: YEA 

     -------------------------------------------
            DIRECT SPIN-ORBIT COUPLING
         (SHIRO KOSEKI AND DMITRI FEDOROV)

           FULL PAULI-BREIT HAMILTONIAN.
     ACTIVE-ACTIVE 2E CONTRIBUTION IS NEGLECTED.
     -------------------------------------------


ENERGY FOR THE LOWEST STATE     =     -257.4100419114
ENERGY TOLERANCE FOR SOC MATRIX =     -157.4100419114 (HIGHEST STATE)
                           ETOL =      100.0000000000
                         UPPREN =     -157.4100419114

  CI# RTS#     LOWEST ENERGY      HIGHEST ENERGY     NEXT ENERGY
    1    1     -257.4100419114     -257.4100419114
    2    1     -257.2645359080     -257.2645359080

         -------------------------------------
          TWO-ELECTRON SPIN-ORBIT AO INTEGRALS
         -------------------------------------
         USING     212186 WORDS OF MEMORY

         SAVING 2E INTEGRALS:   5821416(LX),   5849036(LY),   5859266(LZ)
      ...... DONE WITH SPIN-ORBIT INTEGRALS ......
 STEP CPU TIME =     2.33 TOTAL CPU TIME =        3.0 (    0.1 MIN)
 TOTAL WALL CLOCK TIME=        3.0 SECONDS, CPU UTILIZATION IS  99.34%

    158920 WORDS OF MEMORY ARE REQUESTED FOR 1 PASS(ES)
    123195 WORDS FOR INTEGRALS,    158920 WORDS FOR CSFS.

 REFERENCE STATE IS SET TO    1 IN THE DRT NO. 1 (  1001).

 THE FOLLOWING LEGEND IS USED BELOW:
 [C] - THE MATRIX ELEMENT ACTUALLY CALCULATED
 [P] - OBTAINED FROM [C] BY THE WIGNER-ECKART THEOREM (<HSO>)
 [Z] - ZERO BY POINT GROUP SYMMETRY
 [W] - ZERO BY THE WIGNER-ECKART THEOREM (<HSO>)
 [S] - ZERO BY SPIN ORTHOGONALITY (<R>)

 [Z]'S ARE NOT CALCULATED.


 CI STATE FORMAT:   N-(2S+1)G:B
 G- IRREP LABEL, B NUMBERS DEGENERATE COMPONENTS OF G
 N NUMBERS EQUIVALENT TERMS (2S+1)G:B

 STATE ID FORMAT: NCI*1000+IROOT,
 WHERE NCI IS THE NTH $DRT GROUP
 AND IROOT IS THE CI ROOT'S ORDINAL NUMBER.

 DIPOLE MOMENTS ARE IN E*BOHR UNITS. TO GET DEBYE, MULTIPLY BY 2.541766.


 -----------------------------------------------------
 4-INDEX TRANSFORMATION AO->MO 2E SO INTEGRALS, PASS 1
 -----------------------------------------------------

 STEP CPU TIME =     0.60 TOTAL CPU TIME =        3.6 (    0.1 MIN)
 TOTAL WALL CLOCK TIME=        3.6 SECONDS, CPU UTILIZATION IS  99.45%
  
   < 1-1A    |R| 1-3A    > =      0.000000      0.000000      0.000000 [SSS]
 < 1-1A    (MS= 0.0)|HSO| 1-3A    (MS= 0.0)> =     0.0000    25.7763I    [C]
 1-EL. CONTRIBUTION(CM-1)         0.0000    42.0583I
 2-EL. CONTRIBUTION(CM-1)        -0.0000   -16.2820I
 < 1-1A    (MS= 0.0)|HSO| 1-3A    (MS= 1.0)> =   -11.6236   -31.1171I    [C]
 1-EL. CONTRIBUTION(CM-1)       -18.4613   -50.7810I
 2-EL. CONTRIBUTION(CM-1)         6.8377    19.6638I
 < 1-1A    (MS= 0.0)|HSO| 1-3A    (MS=-1.0)> =   -11.6236    31.1171I    [P]
 1-EL. CONTRIBUTION(CM-1)       -18.4613    50.7810I
 2-EL. CONTRIBUTION(CM-1)         6.8377   -19.6638I
  
 STEP CPU TIME =     0.70 TOTAL CPU TIME =        4.3 (    0.1 MIN)
 TOTAL WALL CLOCK TIME=        4.3 SECONDS, CPU UTILIZATION IS  99.31%

 >>> DIMENSION OF HSO MATRIX =       4
     LARGEST NUMBER OF WALKS =    2341

     THE MAX HSO MATRIX ELEMENT ABSOLUTE ERROR IS 3.32E-03 CM-1.
     TO DECREASE THE ERROR MAKE SYMTOL SMALLER.

     CI   ADIABATIC STATES (CM-1 UNIT) ---
             0.000      31935.420      31935.420      31935.420

 WEIGHTS OF SO   CI   STATES ---

 STATE   1: RELATIVE E=         -0.090 CM-1; WEIGHT = 1.000  1001
         1.0000
          1      2
         1.0000 0.0000

 STATE   2: RELATIVE E=      31935.420 CM-1; WEIGHT = 1.000  2001
         1.0000
          1      2
         0.0000 1.0000

 STATE   3: RELATIVE E=      31935.420 CM-1; WEIGHT = 1.000  2001
         1.0000
          1      2
         0.0000 1.0000

 STATE   4: RELATIVE E=      31935.510 CM-1; WEIGHT = 1.000  2001
         1.0000
          1      2
         0.0000 1.0000

   SPIN-MIXED   CI   STATES (CM-1 UNIT) ---
          -0.090      31935.420      31935.420      31935.510

   SPIN-MIXED   CI   STATES (CM-1 UNIT) ---
      1(   1001)     2(   2001)     3(   2001)     4(   2001)
          -0.090      31935.420      31935.420      31935.510

 NON-ZERO   CI   SPIN-ORBIT COUPLING CONSTANTS (CM-1)
 ---------------------------------------------------------------------
 MUL1(CI)|MUL2(CI)| CI ROOT 1 | CI ROOT 2 |    FULL     | 1E ONLY
 ---------------------------------------------------------------------
  1 ( 1) | 3 ( 2) |     1     |     1     |        53.58|        87.22
 ---------------------------------------------------------------------

 STEP CPU TIME =     0.00 TOTAL CPU TIME =        4.3 (    0.1 MIN)
 TOTAL WALL CLOCK TIME=        4.3 SECONDS, CPU UTILIZATION IS  99.31%

 CI ENERGY LEVELS IN CM-1 AND CI ABSOLUTE LEVELS IN A.U.

    1            0.0000   -257.4100423210
    2        31935.5101   -257.2645359080
    3        31935.5101   -257.2645359080
    4        31935.6001   -257.2645354983

 SKIPPING THE CALCULATION OF NATURAL ORBITALS...
 USE ISTNO IN $TRANST TO ASK FOR NATURAL ORBITALS
 AND SPIN-ORBIT COUPLED STATE'S PROPERTIES

 ....... DONE WITH TRANSITION MOMENT .......

 STEP CPU TIME =     0.00 TOTAL CPU TIME =        4.3 (    0.1 MIN)
 TOTAL WALL CLOCK TIME=        4.3 SECONDS, CPU UTILIZATION IS  99.31%
               992550  WORDS OF DYNAMIC MEMORY USED
 EXECUTION OF GAMESS TERMINATED NORMALLY Wed Aug  9 21:16:46 2017
 DDI: 263640 bytes (0.3 MB / 0 MWords) used by master data server.

 ----------------------------------------
 CPU timing information for all processes
 ========================================
 0: 4.91 + 0.222 = 4.314
 ----------------------------------------
 ddikick.x: exited gracefully.
unset echo
----- accounting info -----
Files used on the master node compute-1-0.local were:
-rw-rw-r-- 1 sarom sarom  59K Aug  9 21:16 /scratch/n2o2-soc.F05
-rw-rw-r-- 1 sarom sarom  19M Aug  9 21:16 /scratch/n2o2-soc.F08
-rw-rw-r-- 1 sarom sarom 177K Aug  9 21:16 /scratch/n2o2-soc.F09
-rw-rw-r-- 1 sarom sarom 1.4M Aug  9 21:16 /scratch/n2o2-soc.F10
-rw-rw-r-- 1 sarom sarom 294K Aug  9 21:16 /scratch/n2o2-soc.F11
-rw-rw-r-- 1 sarom sarom  19K Aug  9 21:16 /scratch/n2o2-soc.F12
-rw-rw-r-- 1 sarom sarom 391K Aug  9 21:16 /scratch/n2o2-soc.F14
-rw-rw-r-- 1 sarom sarom 332K Aug  9 21:16 /scratch/n2o2-soc.F15
-rw-rw-r-- 1 sarom sarom  12M Aug  9 21:16 /scratch/n2o2-soc.F16
-rw-rw-r-- 1 sarom sarom 609K Aug  9 21:16 /scratch/n2o2-soc.F17
-rw-rw-r-- 1 sarom sarom  45M Aug  9 21:16 /scratch/n2o2-soc.F31
-rw-rw-r-- 1 sarom sarom  45M Aug  9 21:16 /scratch/n2o2-soc.F32
-rw-rw-r-- 1 sarom sarom  45M Aug  9 21:16 /scratch/n2o2-soc.F33
-rw-rw-r-- 1 sarom sarom  80K Aug  9 21:16 /scratch/n2o2-soc.F40
rm: cannot remove `/scratch/tmp': Is a directory
ls: No match.
ls: No match.
ls: No match.
Wed Aug  9 21:16:49 CDT 2017
0.262u 0.165s 0:07.83 5.3%	0+0k 0+472io 0pf+0w
/opt/gridengine/default/spool/compute-1-0/active_jobs/36049.1/pe_hostfile compute-1-0.local
