-catch_rsh /opt/gridengine/default/spool/compute-1-0/active_jobs/36055.1/pe_hostfile
compute-1-0
The primary node assigned by SGE to this run is compute-1-0
Warning: no access to tty (Bad file descriptor).
Thus no job control in this shell.
source /home/sarom/dir.git.branch.saromleang-travis-ci/install.info
setenv GMS_PATH /home/sarom/dir.git.branch.saromleang-travis-ci
setenv GMS_BUILD_DIR /home/sarom/dir.git.branch.saromleang-travis-ci
setenv GMS_TARGET linux64
setenv GMS_FORTRAN gfortran
setenv GMS_GFORTRAN_VERNO 4.4
setenv GMS_MATHLIB mkl-so
setenv GMS_MATHLIB none
setenv GMS_MATHLIB_PATH /share/apps/intel/compilers_and_libraries_2017.1.132/linux/mkl/lib/intel64
setenv GMS_MKL_VERNO 12
setenv GMS_DDI_COMM sockets
setenv GMS_LIBCCHEM false
setenv GMS_EIGEN_PATH
setenv GMS_PHI false
setenv GMS_SHMTYPE sysv
setenv GMS_OPENMP false
unset echo
rn-iotc
/home/sarom/dir.git.branch.saromleang-travis-ci/tests/relwfn/parallel
----- GAMESS execution script 'rungms' -----
This job is running on host compute-1-0.local
under operating system Linux at Wed Aug 9 21:18:41 CDT 2017
Available scratch disk space (Kbyte units) at beginning of the job is
Filesystem           1K-blocks      Used Available Use% Mounted on
/dev/sda1             16126920   9111844   6195876  60% /
GAMESS temporary binary files will be written to /scratch
GAMESS supplementary output files will be written to /home/sarom/restart
Copying input file rn-iotc.inp to your run's scratch directory...
cp /home/sarom/dir.git.branch.saromleang-travis-ci/tests/relwfn/parallel/rn-iotc.inp /scratch/rn-iotc.F05
unset echo
The generated host list is
compute-1-0.local
/home/sarom/dir.git.branch.saromleang-travis-ci/ddikick.x /home/sarom/dir.git.branch.saromleang-travis-ci/gamess.00.x rn-iotc -ddi 1 1 compute-1-0.local -scr /scratch

 Distributed Data Interface kickoff program.
 Initiating 1 compute processes on 1 nodes to run the following command:
 /home/sarom/dir.git.branch.saromleang-travis-ci/gamess.00.x rn-iotc 

          ******************************************************
          *         GAMESS VERSION = 20 APR 2017 (R1)          *
          *             FROM IOWA STATE UNIVERSITY             *
          * M.W.SCHMIDT, K.K.BALDRIDGE, J.A.BOATZ, S.T.ELBERT, *
          *   M.S.GORDON, J.H.JENSEN, S.KOSEKI, N.MATSUNAGA,   *
          *          K.A.NGUYEN, S.J.SU, T.L.WINDUS,           *
          *       TOGETHER WITH M.DUPUIS, J.A.MONTGOMERY       *
          *         J.COMPUT.CHEM.  14, 1347-1363(1993)        *
          **************** 64 BIT LINUX VERSION ****************

  SINCE 1993, STUDENTS AND POSTDOCS WORKING AT IOWA STATE UNIVERSITY
  AND ALSO IN THEIR VARIOUS JOBS AFTER LEAVING ISU HAVE MADE IMPORTANT
  CONTRIBUTIONS TO THE CODE:
     IVANA ADAMOVIC, CHRISTINE AIKENS, YURI ALEXEEV, POOJA ARORA,
     ANDREY ASADCHEV, ROB BELL, PRADIPTA BANDYOPADHYAY, JONATHAN BENTZ,
     BRETT BODE, KURT BRORSEN, CALEB CARLIN, GALINA CHABAN, WEI CHEN,
     CHEOL HO CHOI, PAUL DAY, ALBERT DEFUSCO, NUWAN DESILVA, TIM DUDLEY,
     DMITRI FEDOROV, GRAHAM FLETCHER, MARK FREITAG, KURT GLAESEMANN,
     DAN KEMP, GRANT MERRILL, NORIYUKI MINEZAWA, JONATHAN MULLIN,
     TAKESHI NAGATA, SEAN NEDD, HEATHER NETZLOFF, BOSILJKA NJEGIC, RYAN OLSON,
     MIKE PAK, SPENCER PRUITT, LUKE ROSKOP, JIM SHOEMAKER, LYUDMILA SLIPCHENKO,
     TONY SMITH, SAROM SOK LEANG, JIE SONG, TETSUYA TAKETSUGU, SIMON WEBB,
     PENG XU, SOOHAENG YOO, FEDERICO ZAHARIEV

  ADDITIONAL CODE HAS BEEN PROVIDED BY COLLABORATORS IN OTHER GROUPS:
     IOWA STATE UNIVERSITY:
          JOE IVANIC, AARON WEST, LAIMUTIS BYTAUTAS, KLAUS RUEDENBERG
     UNIVERSITY OF TOKYO: KIMIHIKO HIRAO, TAKAHITO NAKAJIMA,
          TAKAO TSUNEDA, MUNEAKI KAMIYA, SUSUMU YANAGISAWA,
          KIYOSHI YAGI, MAHITO CHIBA, SEIKEN TOKURA, NAOAKI KAWAKAMI
     UNIVERSITY OF AARHUS: FRANK JENSEN
     UNIVERSITY OF IOWA: VISVALDAS KAIRYS, HUI LI
     NATIONAL INST. OF STANDARDS AND TECHNOLOGY: WALT STEVENS, DAVID GARMER
     UNIVERSITY OF PISA: BENEDETTA MENNUCCI, JACOPO TOMASI
     UNIVERSITY OF MEMPHIS: HENRY KURTZ, PRAKASHAN KORAMBATH
     UNIVERSITY OF ALBERTA: TOBY ZENG, MARIUSZ KLOBUKOWSKI
     UNIVERSITY OF NEW ENGLAND: MARK SPACKMAN
     MIE UNIVERSITY: HIROAKI UMEDA
     NAT. INST. OF ADVANCED INDUSTRIAL SCIENCE AND TECHNOLOGY: KAZUO KITAURA
     MICHIGAN STATE UNIVERSITY:
          KAROL KOWALSKI, MARTA WLOCH, JEFFREY GOUR, JESSE LUTZ,
          WEI LI, PIOTR PIECUCH
     UNIVERSITY OF SILESIA: MONIKA MUSIAL, STANISLAW KUCHARSKI
     FACULTES UNIVERSITAIRES NOTRE-DAME DE LA PAIX:
          OLIVIER QUINET, BENOIT CHAMPAGNE
     UNIVERSITY OF CALIFORNIA - SANTA BARBARA: BERNARD KIRTMAN
     INSTITUTE FOR MOLECULAR SCIENCE:
          KAZUYA ISHIMURA, MICHIO KATOUDA, AND SHIGERU NAGASE
     UNIVERSITY OF NOTRE DAME: ANNA POMOGAEVA, DAN CHIPMAN
     KYUSHU UNIVERSITY:
          HARUYUKI NAKANO,
          FENG LONG GU, JACEK KORCHOWIEC, MARCIN MAKOWSKI, AND YURIKO AOKI,
          HIROTOSHI MORI AND EISAKU MIYOSHI
     PENNSYLVANIA STATE UNIVERSITY:
          TZVETELIN IORDANOV, CHET SWALINA, JONATHAN SKONE,
          SHARON HAMMES-SCHIFFER
     WASEDA UNIVERSITY:
          MASATO KOBAYASHI, TOMOKO AKAMA, TSUGUKI TOUMA,
          TAKESHI YOSHIKAWA, YASUHIRO IKABATA, JUNJI SEINO,
          YUYA NAKAJIMA, HIROMI NAKAI
     NANJING UNIVERSITY: SHUHUA LI
     UNIVERSITY OF NEBRASKA:
          PEIFENG SU, DEJUN SI, NANDUN THELLAMUREGE, YALI WANG, HUI LI
     UNIVERSITY OF ZURICH: ROBERTO PEVERATI, KIM BALDRIDGE
     N. COPERNICUS UNIVERSITY AND JACKSON STATE UNIVERSITY:
          MARIA BARYSZ
     UNIVERSITY OF COPENHAGEN: Jimmy Kromann, CASPER STEINMANN
     TOKYO INSTITUTE OF TECHNOLOGY: HIROYA NAKATA
     NAGOYA UNIVERSITY: YOSHIO NISHIMOTO, STEPHAN IRLE
     MOSCOW STATE UNIVERSITY: VLADIMIR MIRONOV

 EXECUTION OF GAMESS BEGUN Wed Aug  9 21:18:41 2017

            ECHO OF THE FIRST FEW INPUT CARDS -
 INPUT CARD>!   Rn atom...this run duplicates the IOTC calculation of                       
 INPUT CARD>!      D. Kedziera and M. Barysz, J.Chem.Phys. 121, 6719 (2004),                
 INPUT CARD>!   using uncontracted (28s,24p,18d,12f) well-tempered basis.                   
 INPUT CARD>!   Closed shell atom, with presumably minimal SOC effects,                     
 INPUT CARD>!   this is a simple way to study DK's convergence towards IOTC.                
 INPUT CARD>!   No gradient (it is an atom!), so test spherical harmonic RI coding.         
 INPUT CARD>!   There are 328 AOs and 274 MOs...test created in 2013.                       
 INPUT CARD>!                                                                               
 INPUT CARD>!   FINAL RHF ENERGY IS   -23563.5973622722, 12 iters                           
 INPUT CARD>!   Total energy for Rn   -23563.597 au  (literature's Table V)                 
 INPUT CARD>!                   DKH5= -23564.867                                            
 INPUT CARD>!                   DKH4= -23561.789                                            
 INPUT CARD>!                   DKH3= -23566.933                                            
 INPUT CARD>!                   DKH2= -23533.403                                            
 INPUT CARD>!                                                                               
 INPUT CARD>!   density at the nucleus=  19057028.7                                         
 INPUT CARD>!   electronic part of elec.pot= -734.674107                                    
 INPUT CARD>!                                                                               
 INPUT CARD>!   This run takes 339 seconds on 2.66 GHz Cloverton (10 Aug 2015)              
 INPUT CARD>!   results haven't changed much since 2013.                                    
 INPUT CARD>!                                                                               
 INPUT CARD> $contrl scftyp=rhf runtyp=energy relwfn=iotc ispher=1 $end                     
 INPUT CARD> $system mwords=10     $end                                                     
 INPUT CARD> $guess  guess=huckel  $end                                                     
 INPUT CARD> $scf    dirscf=.true. $end                                                     
 INPUT CARD> $elpot  iepot=1       $end                                                     
 INPUT CARD> $eldens ieden=1       $end                                                     
 INPUT CARD> $relwfn modeqr=3 $end                                                          
 INPUT CARD> $data                                                                          
 INPUT CARD>Rn IOTC using WTBS (28s,24p,18d,12f)                                            
 INPUT CARD>Dnh 2                                                                           
 INPUT CARD>                                                                                
 INPUT CARD>Rn 86.0                                                                         
 INPUT CARD>    S    1; 1  98695815.    1.0                                                 
 INPUT CARD>    S    1; 1  21091278.    1.0                                                 
 INPUT CARD>    S    1; 1  5132142.2    1.0                                                 
 INPUT CARD>    S    1; 1  1410319.4    1.0                                                 
 INPUT CARD>    L    1; 1  433531.63    1.0                                                 
 INPUT CARD>    L    1; 1  147500.43    1.0                                                 
 INPUT CARD>    L    1; 1  54913.915    1.0                                                 
 INPUT CARD>    L    1; 1  22109.179    1.0                                                 
 INPUT CARD>    L    1; 1  9514.2752    1.0                                                 
 INPUT CARD>    L    1; 1  4327.2744    1.0                                                 
 INPUT CARD>    L    1; 1  2058.6291    1.0                                                 
 INPUT CARD>    L    1; 1  1014.9288    1.0                                                 
 INPUT CARD>    L    1; 1  514.39844    1.0                                                 
 INPUT CARD>    L    1; 1  266.22284    1.0                                                 
 INPUT CARD>    L    1; 1  139.92336    1.0                                                 
 INPUT CARD>    L    1; 1  74.361553    1.0                                                 
 INPUT CARD>    L    1; 1  39.826146    1.0                                                 
   10000000 WORDS OF MEMORY AVAILABLE


     RUN TITLE
     ---------
 Rn IOTC using WTBS (28s,24p,18d,12f)                                            

 THE POINT GROUP OF THE MOLECULE IS DNH     
 THE ORDER OF THE PRINCIPAL AXIS IS     2

 ATOM      ATOMIC                      COORDINATES (BOHR)
           CHARGE         X                   Y                   Z
 RN         86.0     0.0000000000        0.0000000000        0.0000000000

          INTERNUCLEAR DISTANCES (ANGS.)
          ------------------------------

                1 RN    

   1 RN      0.0000000  

  * ... LESS THAN  3.000


     ATOMIC BASIS SET
     ----------------
 THE CONTRACTED PRIMITIVE FUNCTIONS HAVE BEEN UNNORMALIZED
 THE CONTRACTED BASIS FUNCTIONS ARE NOW NORMALIZED TO UNITY

  SHELL TYPE  PRIMITIVE        EXPONENT          CONTRACTION COEFFICIENT(S)

 RN        

      1   S       1      98695815.0000000    1.000000000000

      2   S       2      21091278.0000000    1.000000000000

      3   S       3       5132142.2000000    1.000000000000

      4   S       4       1410319.4000000    1.000000000000

      5   L       5        433531.6300000    1.000000000000    1.000000000000

      6   L       6        147500.4300000    1.000000000000    1.000000000000

      7   L       7         54913.9150000    1.000000000000    1.000000000000

      8   L       8         22109.1790000    1.000000000000    1.000000000000

      9   L       9          9514.2752000    1.000000000000    1.000000000000

     10   L      10          4327.2744000    1.000000000000    1.000000000000

     11   L      11          2058.6291000    1.000000000000    1.000000000000

     12   L      12          1014.9288000    1.000000000000    1.000000000000

     13   L      13           514.3984400    1.000000000000    1.000000000000

     14   L      14           266.2228400    1.000000000000    1.000000000000

     15   L      15           139.9233600    1.000000000000    1.000000000000

     16   L      16            74.3615530    1.000000000000    1.000000000000

     17   L      17            39.8261460    1.000000000000    1.000000000000

     18   L      18            21.4419260    1.000000000000    1.000000000000

     19   L      19            11.5836860    1.000000000000    1.000000000000

     20   L      20             6.2713843    1.000000000000    1.000000000000

     21   L      21             3.3996865    1.000000000000    1.000000000000

     22   L      22             1.8442936    1.000000000000    1.000000000000

     23   L      23             1.0008923    1.000000000000    1.000000000000

     24   L      24             0.5432808    1.000000000000    1.000000000000

     25   L      25             0.2949140    1.000000000000    1.000000000000

     26   L      26             0.1600953    1.000000000000    1.000000000000

     27   L      27             0.0869091    1.000000000000    1.000000000000

     28   L      28             0.0471794    1.000000000000    1.000000000000

     29   D      29         22109.1790000    1.000000000000

     30   D      30          9514.2752000    1.000000000000

     31   D      31          4327.2744000    1.000000000000

     32   D      32          2058.6291000    1.000000000000

     33   D      33          1014.9288000    1.000000000000

     34   D      34           514.3984400    1.000000000000

     35   D      35           266.2228400    1.000000000000

     36   D      36           139.9233600    1.000000000000

     37   D      37            74.3615530    1.000000000000

     38   D      38            39.8261460    1.000000000000

     39   D      39            21.4419260    1.000000000000

     40   D      40            11.5836860    1.000000000000

     41   D      41             6.2713843    1.000000000000

     42   D      42             3.3996865    1.000000000000

     43   D      43             1.8442936    1.000000000000

     44   D      44             1.0008923    1.000000000000

     45   D      45             0.5432808    1.000000000000

     46   D      46             0.2949140    1.000000000000

     47   F      47          2058.6291000    1.000000000000

     48   F      48          1014.9288000    1.000000000000

     49   F      49           514.3984400    1.000000000000

     50   F      50           266.2228400    1.000000000000

     51   F      51           139.9233600    1.000000000000

     52   F      52            74.3615530    1.000000000000

     53   F      53            39.8261460    1.000000000000

     54   F      54            21.4419260    1.000000000000

     55   F      55            11.5836860    1.000000000000

     56   F      56             6.2713843    1.000000000000

     57   F      57             3.3996865    1.000000000000

     58   F      58             1.8442936    1.000000000000

 TOTAL NUMBER OF BASIS SET SHELLS             =   58
 NUMBER OF CARTESIAN GAUSSIAN BASIS FUNCTIONS =  328
 NOTE: THIS RUN WILL RESTRICT THE MO VARIATION SPACE TO SPHERICAL HARMONICS.
 THE NUMBER OF ORBITALS KEPT IN THE VARIATIONAL SPACE WILL BE PRINTED LATER.
 NUMBER OF ELECTRONS                          =   86
 CHARGE OF MOLECULE                           =    0
 SPIN MULTIPLICITY                            =    1
 NUMBER OF OCCUPIED ORBITALS (ALPHA)          =   43
 NUMBER OF OCCUPIED ORBITALS (BETA )          =   43
 TOTAL NUMBER OF ATOMS                        =    1
 THE NUCLEAR REPULSION ENERGY IS        0.0000000000

     ---------------------------------
     RELATIVISTIC WAVEFUNCTION OPTIONS
     ---------------------------------
     METHOD=IOTC     NORDER= 2       NESOC=  0      MODEQR=      3
     NRATOM=  0      QMTTOL= 1.000E-10      QRTOL= 1.000E-02
     CLIGHT=137.03598950     TAU= 3.500E+00

 INTERNAL BASIS SET UNCONTRACTION FOR RESC/DK/IOTC/LUT-IOTC:
    58 SHELLS AND    328 AOS ARE CONSTRUCTED, COMPARED TO
    58 SHELLS AND    328 AOS IN THE CONTRACTED BASIS SET


 THIS MOLECULE IS RECOGNIZED AS BEING LINEAR,
 ORBITAL LZ DEGENERACY TOLERANCE ETOLLZ= 1.00E-06

     $CONTRL OPTIONS
     ---------------
 SCFTYP=RHF          RUNTYP=ENERGY       EXETYP=RUN     
 MPLEVL=       0     CITYP =NONE         CCTYP =NONE         VBTYP =NONE    
 DFTTYP=NONE         TDDFT =NONE    
 MULT  =       1     ICHARG=       0     NZVAR =       0     COORD =UNIQUE  
 PP    =NONE         RELWFN=IOTC         LOCAL =NONE         NUMGRD=       F
 ISPHER=       1     NOSYM =       0     MAXIT =      30     UNITS =ANGS    
 PLTORB=       F     MOLPLT=       F     AIMPAC=       F     FRIEND=        
 NPRINT=       7     IREST =       0     GEOM  =INPUT   
 NORMF =       0     NORMP =       0     ITOL  =      20     ICUT  =       9
 INTTYP=BEST         GRDTYP=BEST         QMTTOL= 1.0E-06

     $SYSTEM OPTIONS
     ---------------
  REPLICATED MEMORY=    10000000 WORDS (ON EVERY NODE).
 DISTRIBUTED MEMDDI=           0 MILLION WORDS IN AGGREGATE,
 MEMDDI DISTRIBUTED OVER   1 PROCESSORS IS           0 WORDS/PROCESSOR.
 TOTAL MEMORY REQUESTED ON EACH PROCESSOR=    10000000 WORDS.
 TIMLIM=      525600.00 MINUTES, OR     365.0 DAYS.
 PARALL= F  BALTYP=  DLB     KDIAG=    0  COREFL= F
 MXSEQ2=     300 MXSEQ3=     150  mem10=         0

          ----------------
          PROPERTIES INPUT
          ----------------

     MOMENTS            FIELD           POTENTIAL          DENSITY
 IEMOM =       1   IEFLD =       0   IEPOT =       1   IEDEN =       1
 WHERE =COMASS     WHERE =NUCLEI     WHERE =NUCLEI     WHERE =NUCLEI  
 OUTPUT=BOTH       OUTPUT=BOTH       OUTPUT=BOTH       OUTPUT=BOTH    
 IEMINT=       0   IEFINT=       0                     IEDINT=       0
                                                       MORB  =       0
          EXTRAPOLATION IN EFFECT
          SOSCF IN EFFECT
 ORBITAL PRINTING OPTION: NPREO=     1   328     2     1

     -------------------------------
     INTEGRAL TRANSFORMATION OPTIONS
     -------------------------------
     NWORD  =            0
     CUTOFF = 1.0E-09     MPTRAN =       0
     DIRTRF =       T     AOINTS =DUP     

          ----------------------
          INTEGRAL INPUT OPTIONS
          ----------------------
 NOPK  =       1 NORDER=       0 SCHWRZ=       T

     ------------------------------------------
     THE POINT GROUP IS DNH, NAXIS= 2, ORDER= 8
     ------------------------------------------

 -- VARIATIONAL SPACE WILL BE RESTRICTED TO PURE SPHERICAL HARMONICS ONLY --
 AFTER EXCLUDING CONTAMINANT COMBINATIONS FROM THE CARTESIAN GAUSSIAN BASIS
 SET, THE NUMBER OF SPHERICAL HARMONICS KEPT IN THE VARIATION SPACE IS  274

     DIMENSIONS OF THE SYMMETRY SUBSPACES ARE
 AG  =   64     AU  =   12     B3U =   48     B3G =   18     B1G =   18
 B1U =   48     B2U =   48     B2G =   18

 ..... DONE SETTING UP THE RUN .....
 STEP CPU TIME =     0.06 TOTAL CPU TIME =        0.1 (    0.0 MIN)
 TOTAL WALL CLOCK TIME=        0.1 SECONDS, CPU UTILIZATION IS 100.00%

          ********************
          1 ELECTRON INTEGRALS
          ********************
 TIME TO DO ORDINARY INTEGRALS=      0.00

 -------------------------------------------------------------------------
 RELATIVISTIC INFINITE ORDER TWO-COMPONENT (IOTC) ONE-ELECTRON HAMILTONIAN
                            CODED BY MARIA BARYSZ
 -------------------------------------------------------------------------


 *************************************************************************
 THE FOLLOWING PAPERS SHOULD BE CITED WHEN USING IOTC METHOD

 M. BARYSZ, A.J. SADLEJ, J. CHEM. PHYS. 116, 2696 (2002);
 M. BARYSZ, PROGRESS IN THEORETICAL CHEMISTRY AND PHYSICS,
            KLUWER ACADEMIC PUBLISHERS, 349-397 (2002);
 D. KEDZIERA, M. BARYSZ, A.J. SADLEJ, STRUCT. CHEM. 15, 369 (2004);
 D. KEDZIERA, M. BARYSZ, J. CHEM. PHYS. 121, 6719 (2004);
 M. BARYSZ, L. MENTEL, J. LESZCZYNSKI, J. CHEM. PHYS. 130, 164114 (2009).

 *************************************************************************


 HONDO STYLE RESOLUTION OF THE IDENTITY IS USED.

 SPHERICAL CONTAMINANTS ELIMINATED:   54; KEPT   274 ORBITALS
 TIME TO DO  RELATIVISTIC INTS=     19.64
 ...... END OF ONE-ELECTRON INTEGRALS ......
 STEP CPU TIME =    19.64 TOTAL CPU TIME =       19.7 (    0.3 MIN)
 TOTAL WALL CLOCK TIME=       19.8 SECONDS, CPU UTILIZATION IS  99.65%

          -------------
          GUESS OPTIONS
          -------------
          GUESS =HUCKEL            NORB  =       0          NORDER=       0
          MIX   =       F          PRTMO =       F          PUNMO =       F
          TOLZ  = 1.0E-08          TOLE  = 1.0E-05
          SYMDEN=       F          PURIFY=       F

 INITIAL GUESS ORBITALS GENERATED BY HUCKEL   ROUTINE.
 HUCKEL GUESS REQUIRES    782176 WORDS.

 STATISTICS FOR GENERATION OF SYMMETRY ORBITAL -Q- MATRIX
 NUMBER OF CARTESIAN ATOMIC ORBITALS=        328
 NUMBER OF SPHERICAL CONTAMINANTS DROPPED=    54
 NUMBER OF LINEARLY DEPENDENT MOS DROPPED=     0
 TOTAL NUMBER OF MOS IN VARIATION SPACE=     274

 SYMMETRIES FOR INITIAL GUESS ORBITALS FOLLOW.   BOTH SET(S).
    43 ORBITALS ARE OCCUPIED (   39 CORE ORBITALS).
    40=AG      41=B3U     42=B2U     43=B1U     44=AG      45=AG      46=AG  
    47=AG      48=AG      49=AG      50=AG      51=AG      52=AG      53=AG  
 ...... END OF INITIAL ORBITAL SELECTION ......
 STEP CPU TIME =     0.18 TOTAL CPU TIME =       19.9 (    0.3 MIN)
 TOTAL WALL CLOCK TIME=       20.0 SECONDS, CPU UTILIZATION IS  99.60%

                    ----------------------
                    AO INTEGRAL TECHNOLOGY
                    ----------------------
     S,P,L SHELL ROTATED AXIS INTEGRALS, REPROGRAMMED BY
        KAZUYA ISHIMURA (IMS) AND JOSE SIERRA (SYNSTAR).
     S,P,D,L SHELL ROTATED AXIS INTEGRALS PROGRAMMED BY
        KAZUYA ISHIMURA (INSTITUTE FOR MOLECULAR SCIENCE).
     S,P,D,F,G SHELL TO TOTAL QUARTET ANGULAR MOMENTUM SUM 5,
        ERIC PROGRAM BY GRAHAM FLETCHER (ELORET AND NASA ADVANCED
        SUPERCOMPUTING DIVISION, AMES RESEARCH CENTER).
     S,P,D,F,G,L SHELL GENERAL RYS QUADRATURE PROGRAMMED BY
        MICHEL DUPUIS (PACIFIC NORTHWEST NATIONAL LABORATORY).

          --------------------
          2 ELECTRON INTEGRALS
          --------------------

 DIRECT SCF METHOD SKIPS INTEGRAL STORAGE ON DISK.
 DIRECT TRANSFORMATION SKIPS AO INTEGRAL STORAGE ON DISK.
  ...... END OF TWO-ELECTRON INTEGRALS .....
 STEP CPU TIME =     0.01 TOTAL CPU TIME =       19.9 (    0.3 MIN)
 TOTAL WALL CLOCK TIME=       20.0 SECONDS, CPU UTILIZATION IS  99.60%

          --------------------------
                 RHF SCF CALCULATION
          --------------------------

     NUCLEAR ENERGY =         0.0000000000
     MAXIT =   30     NPUNCH=    2
     EXTRAP=T  DAMP=F  SHIFT=F  RSTRCT=F  DIIS=F  DEM=F  SOSCF=T
     DENSITY MATRIX CONV=  2.00E-05
     SOSCF WILL OPTIMIZE    9933 ORBITAL ROTATIONS, SOGTOL=   0.250
     MEMORY REQUIRED FOR RHF ITERS=    854934 WORDS.

 DIRECT SCF CALCULATION, SCHWRZ=T   FDIFF=T,  DIRTHR=  0.00E+00 NITDIR=10
 SCHWARZ INEQUALITY OVERHEAD:     53956 INTEGRALS, T=        0.01

                                                                                   NONZERO     BLOCKS
 ITER EX DEM     TOTAL ENERGY        E CHANGE  DENSITY CHANGE     ORB. GRAD      INTEGRALS    SKIPPED
   1  0  0   -22566.2136436017-22566.2136436017   2.800588303   0.000000000      168348258     196680
   2  1  0   -23560.9097652219  -994.6961216202   0.359120595   2.751628108      168885332     188985
   3  2  0   -23562.5533856461    -1.6436204241   0.564388822   0.600230940      165261279     237419
   4  3  0   -23563.0194623648    -0.4660767187   0.429847109   0.435615821      164322106     245580
   5  0  0   -23563.2565696063    -0.2371072415   0.177261656   0.333214148      163581686     253409
          ---------------START SECOND ORDER SCF---------------
   6  1  0   -23563.5973281807    -0.3407585744   0.006583574   0.001946416      161191074     275756
   7  2  0   -23563.5973521155    -0.0000239348   0.000955513   0.001272223      139766582     427089
   8  3  0   -23563.5973620768    -0.0000099612   0.000176087   0.000252047      138527235     448989
   9  4  0   -23563.5973622324    -0.0000001556   0.000150951   0.000088038      127763378     513874
  10  5  0   -23563.5973622567    -0.0000000243   0.000022149   0.000003741      115482531     583601
  11  6  0   -23563.5973622564     0.0000000002   0.000005620   0.000000621       93010229     720771
  12  7  0   -23563.5973622582    -0.0000000018   0.000000213   0.000000045       73475964     836038

          -----------------
          DENSITY CONVERGED
          -----------------
     TIME TO FORM FOCK OPERATORS=     147.4 SECONDS (      12.3 SEC/ITER)
     FOCK TIME ON FIRST ITERATION=      15.0, LAST ITERATION=       6.3
     TIME TO SOLVE SCF EQUATIONS=       0.5 SECONDS (       0.0 SEC/ITER)

 FINAL RHF ENERGY IS   -23563.5973622582 AFTER  12 ITERATIONS

 LZ VALUE ANALYSIS FOR THE MOS
 ----------------------------------------
 MO     1 (    1) HAS LZ(WEIGHT)= 0.00(100.0%) 
 MO     2 (    2) HAS LZ(WEIGHT)= 0.00(100.0%) 
 MO     3 (    3) HAS LZ(WEIGHT)= 0.00(100.0%) 
 MO     4 (    3) HAS LZ(WEIGHT)=-1.00( 50.0%)  1.00( 50.0%) 
 MO     5 (    3) HAS LZ(WEIGHT)=-1.00( 50.0%)  1.00( 50.0%) 
 MO     6 (    4) HAS LZ(WEIGHT)= 0.00(100.0%) 
 MO     7 (    5) HAS LZ(WEIGHT)= 0.00(100.0%) 
 MO     8 (    5) HAS LZ(WEIGHT)=-1.00( 50.0%)  1.00( 50.0%) 
 MO     9 (    5) HAS LZ(WEIGHT)=-1.00( 50.0%)  1.00( 50.0%) 
 MO    10 (    6) HAS LZ(WEIGHT)=-2.00( 29.4%)  0.00( 41.2%)  2.00( 29.4%) 
 MO    11 (    6) HAS LZ(WEIGHT)=-1.00( 50.0%)  1.00( 50.0%) 
 MO    12 (    6) HAS LZ(WEIGHT)=-2.00( 20.6%)  0.00( 58.8%)  2.00( 20.6%) 
 MO    13 (    6) HAS LZ(WEIGHT)=-1.00( 50.0%)  1.00( 50.0%) 
 MO    14 (    6) HAS LZ(WEIGHT)=-2.00( 50.0%)  2.00( 50.0%) 
 MO    15 (    7) HAS LZ(WEIGHT)= 0.00(100.0%) 
 MO    16 (    8) HAS LZ(WEIGHT)= 0.00(100.0%) 
 MO    17 (    8) HAS LZ(WEIGHT)=-1.00( 50.0%)  1.00( 50.0%) 
 MO    18 (    8) HAS LZ(WEIGHT)=-1.00( 50.0%)  1.00( 50.0%) 
 MO    19 (    9) HAS LZ(WEIGHT)=-1.00( 50.0%)  1.00( 50.0%) 
 MO    20 (    9) HAS LZ(WEIGHT)=-2.00( 50.0%)  2.00( 50.0%) 
 MO    21 (    9) HAS LZ(WEIGHT)=-2.00( 42.0%) -0.00( 15.9%)  2.00( 42.0%) 
 MO    22 (    9) HAS LZ(WEIGHT)=-1.00( 50.0%)  1.00( 50.0%) 
 MO    23 (    9) HAS LZ(WEIGHT)=-2.00(  8.0%) -0.00( 84.1%)  2.00(  8.0%) 
 MO    24 (   10) HAS LZ(WEIGHT)=-3.00( 29.1%) -1.00( 20.9%)  1.00( 20.9%)  3.00( 29.1%) 
 MO    25 (   10) HAS LZ(WEIGHT)=-2.00( 50.0%)  2.00( 50.0%) 
 MO    26 (   10) HAS LZ(WEIGHT)=-3.00( 35.3%) -1.00( 14.7%)  1.00( 14.7%)  3.00( 35.3%) 
 MO    27 (   10) HAS LZ(WEIGHT)=-2.00( 11.4%) -0.00( 77.1%)  2.00( 11.4%) 
 MO    28 (   10) HAS LZ(WEIGHT)=-3.00( 20.9%) -1.00( 29.1%)  1.00( 29.1%)  3.00( 20.9%) 
 MO    29 (   10) HAS LZ(WEIGHT)=-2.00( 38.6%) -0.00( 22.9%)  2.00( 38.6%) 
 MO    30 (   10) HAS LZ(WEIGHT)=-3.00( 14.7%) -1.00( 35.3%)  1.00( 35.3%)  3.00( 14.7%) 
 MO    31 (   11) HAS LZ(WEIGHT)= 0.00(100.0%) 
 MO    32 (   12) HAS LZ(WEIGHT)= 0.00(100.0%) 
 MO    33 (   12) HAS LZ(WEIGHT)=-1.00( 50.0%)  1.00( 50.0%) 
 MO    34 (   12) HAS LZ(WEIGHT)=-1.00( 50.0%)  1.00( 50.0%) 
 MO    35 (   13) HAS LZ(WEIGHT)=-1.00( 50.0%)  1.00( 50.0%) 
 MO    36 (   13) HAS LZ(WEIGHT)=-2.00( 13.2%)  0.00( 73.6%)  2.00( 13.2%) 
 MO    37 (   13) HAS LZ(WEIGHT)=-2.00( 50.0%)  2.00( 50.0%) 
 MO    38 (   13) HAS LZ(WEIGHT)=-1.00( 50.0%)  1.00( 50.0%) 
 MO    39 (   13) HAS LZ(WEIGHT)=-2.00( 36.8%)  0.00( 26.4%)  2.00( 36.8%) 
 MO    40 (   14) HAS LZ(WEIGHT)= 0.00(100.0%) 
 MO    41 (   15) HAS LZ(WEIGHT)= 0.00(100.0%) 
 MO    42 (   15) HAS LZ(WEIGHT)=-1.00( 50.0%)  1.00( 50.0%) 
 MO    43 (   15) HAS LZ(WEIGHT)=-1.00( 50.0%)  1.00( 50.0%) 
 MO    44 (   16) HAS LZ(WEIGHT)= 0.00(100.0%) 
 MO    45 (   17) HAS LZ(WEIGHT)= 0.00(100.0%) 
 MO    46 (   17) HAS LZ(WEIGHT)=-1.00( 50.0%)  1.00( 50.0%) 
 MO    47 (   17) HAS LZ(WEIGHT)=-1.00( 50.0%)  1.00( 50.0%) 
 MO    48 (   18) HAS LZ(WEIGHT)= 0.00(100.0%) 
 MO    49 (   19) HAS LZ(WEIGHT)= 0.00(100.0%) 
 MO    50 (   19) HAS LZ(WEIGHT)=-1.00( 50.0%)  1.00( 50.0%) 
 MO    51 (   19) HAS LZ(WEIGHT)=-1.00( 50.0%)  1.00( 50.0%) 
 MO    52 (   20) HAS LZ(WEIGHT)=-2.00( 45.2%) -0.00(  9.7%)  2.00( 45.2%) 
 MO    53 (   20) HAS LZ(WEIGHT)=-2.00(  4.8%) -0.00( 90.3%)  2.00(  4.8%) 
 MO    54 (   20) HAS LZ(WEIGHT)=-2.00( 50.0%)  2.00( 50.0%) 
 MO    55 (   20) HAS LZ(WEIGHT)=-1.00( 50.0%)  1.00( 50.0%) 
 MO    56 (   20) HAS LZ(WEIGHT)=-1.00( 50.0%)  1.00( 50.0%) 
 MO    57 (   21) HAS LZ(WEIGHT)= 0.00(100.0%) 
 MO    58 (   22) HAS LZ(WEIGHT)= 0.00(100.0%) 
 MO    59 (   22) HAS LZ(WEIGHT)=-1.00( 50.0%)  1.00( 50.0%) 
 MO    60 (   22) HAS LZ(WEIGHT)=-1.00( 50.0%)  1.00( 50.0%) 
 MO    61 (   23) HAS LZ(WEIGHT)=-2.00( 32.8%) -0.00( 34.3%)  2.00( 32.8%) 
 MO    62 (   23) HAS LZ(WEIGHT)=-2.00( 17.2%) -0.00( 65.7%)  2.00( 17.2%) 
 MO    63 (   23) HAS LZ(WEIGHT)=-1.00( 50.0%)  1.00( 50.0%) 
 MO    64 (   23) HAS LZ(WEIGHT)=-2.00( 50.0%)  2.00( 50.0%) 
 MO    65 (   23) HAS LZ(WEIGHT)=-1.00( 50.0%)  1.00( 50.0%) 
 MO    66 (   24) HAS LZ(WEIGHT)=-3.00(  8.6%) -1.00( 41.4%)  1.00( 41.4%)  3.00(  8.6%) 
 MO    67 (   24) HAS LZ(WEIGHT)=-1.00( 49.8%)  1.00( 49.8%) 
 MO    68 (   24) HAS LZ(WEIGHT)=-2.00( 18.5%) -0.00( 63.0%)  2.00( 18.5%) 
 MO    69 (   24) HAS LZ(WEIGHT)=-2.00( 50.0%)  2.00( 50.0%) 
 MO    70 (   24) HAS LZ(WEIGHT)=-2.00( 31.5%) -0.00( 37.0%)  2.00( 31.5%) 
 MO    71 (   24) HAS LZ(WEIGHT)=-3.00( 41.4%) -1.00(  8.6%)  1.00(  8.6%)  3.00( 41.4%) 
 MO    72 (   24) HAS LZ(WEIGHT)=-3.00( 49.8%)  3.00( 49.8%) 
 MO    73 (   25) HAS LZ(WEIGHT)= 0.00(100.0%) 
 MO    74 (   26) HAS LZ(WEIGHT)=-1.00( 50.0%)  1.00( 50.0%) 
 MO    75 (   26) HAS LZ(WEIGHT)= 0.00(100.0%) 
 MO    76 (   26) HAS LZ(WEIGHT)=-1.00( 50.0%)  1.00( 50.0%) 
 MO    77 (   27) HAS LZ(WEIGHT)=-2.00(  6.1%)  0.00( 87.7%)  2.00(  6.1%) 
 MO    78 (   27) HAS LZ(WEIGHT)=-2.00( 43.9%)  0.00( 12.3%)  2.00( 43.9%) 
 MO    79 (   27) HAS LZ(WEIGHT)=-2.00( 50.0%)  2.00( 50.0%) 
 MO    80 (   27) HAS LZ(WEIGHT)=-1.00( 50.0%)  1.00( 50.0%) 
 MO    81 (   27) HAS LZ(WEIGHT)=-1.00( 50.0%)  1.00( 50.0%) 
 MO    82 (   28) HAS LZ(WEIGHT)=-1.00( 50.0%)  1.00( 50.0%) 
 MO    83 (   28) HAS LZ(WEIGHT)=-1.00( 50.0%)  1.00( 50.0%) 
 MO    84 (   28) HAS LZ(WEIGHT)= 0.00(100.0%) 
 MO    85 (   29) HAS LZ(WEIGHT)= 0.00(100.0%) 
 MO    86 (   30) HAS LZ(WEIGHT)=-2.00( 50.0%)  2.00( 50.0%) 
 MO    87 (   30) HAS LZ(WEIGHT)=-3.00( 21.4%) -1.00( 28.6%)  1.00( 28.6%)  3.00( 21.4%) 
 MO    88 (   30) HAS LZ(WEIGHT)=-3.00( 17.3%) -1.00( 32.7%)  1.00( 32.7%)  3.00( 17.3%) 
 MO    89 (   30) HAS LZ(WEIGHT)= 0.00(100.0%) 
 MO    90 (   30) HAS LZ(WEIGHT)=-3.00( 28.6%) -1.00( 21.4%)  1.00( 21.4%)  3.00( 28.6%) 
 MO    91 (   30) HAS LZ(WEIGHT)=-3.00( 32.7%) -1.00( 17.3%)  1.00( 17.3%)  3.00( 32.7%) 
 MO    92 (   30) HAS LZ(WEIGHT)=-2.00( 50.0%)  2.00( 50.0%) 
 MO    93 (   31) HAS LZ(WEIGHT)= 0.00( 99.9%) 
 MO    94 (   31) HAS LZ(WEIGHT)=-2.00( 50.0%)  2.00( 50.0%) 
 MO    95 (   31) HAS LZ(WEIGHT)=-1.00( 50.0%)  1.00( 50.0%) 
 MO    96 (   31) HAS LZ(WEIGHT)=-1.00( 50.0%)  1.00( 50.0%) 
 MO    97 (   31) HAS LZ(WEIGHT)=-2.00( 50.0%)  2.00( 50.0%) 
 MO    98 (   32) HAS LZ(WEIGHT)=-1.00( 50.0%)  1.00( 50.0%) 
 MO    99 (   32) HAS LZ(WEIGHT)=-1.00( 50.0%)  1.00( 50.0%) 
 MO   100 (   32) HAS LZ(WEIGHT)= 0.00(100.0%) 
 MO   101 (   33) HAS LZ(WEIGHT)= 0.00(100.0%) 
 MO   102 (   34) HAS LZ(WEIGHT)=-2.00( 50.0%)  2.00( 50.0%) 
 MO   103 (   34) HAS LZ(WEIGHT)=-3.00( 30.3%) -1.00( 19.7%)  1.00( 19.7%)  3.00( 30.3%) 
 MO   104 (   34) HAS LZ(WEIGHT)=-3.00(  8.8%) -1.00( 41.2%)  1.00( 41.2%)  3.00(  8.8%) 
 MO   105 (   34) HAS LZ(WEIGHT)=-3.00( 41.2%) -1.00(  8.8%)  1.00(  8.8%)  3.00( 41.2%) 
 MO   106 (   34) HAS LZ(WEIGHT)=-3.00( 19.7%) -1.00( 30.3%)  1.00( 30.3%)  3.00( 19.7%) 
 MO   107 (   34) HAS LZ(WEIGHT)= 0.00(100.0%) 
 MO   108 (   34) HAS LZ(WEIGHT)=-2.00( 50.0%)  2.00( 50.0%) 
 MO   109 (   35) HAS LZ(WEIGHT)= 0.00( 99.8%) 
 MO   110 (   35) HAS LZ(WEIGHT)=-2.00( 49.9%)  2.00( 49.9%) 
 MO   111 (   35) HAS LZ(WEIGHT)=-1.00( 50.0%)  1.00( 50.0%) 
 MO   112 (   35) HAS LZ(WEIGHT)=-1.00( 50.0%)  1.00( 50.0%) 
 MO   113 (   35) HAS LZ(WEIGHT)=-2.00( 50.0%)  2.00( 50.0%) 
 MO   114 (   36) HAS LZ(WEIGHT)=-1.00( 50.0%)  1.00( 50.0%) 
 MO   115 (   36) HAS LZ(WEIGHT)= 0.00(100.0%) 
 MO   116 (   36) HAS LZ(WEIGHT)=-1.00( 50.0%)  1.00( 50.0%) 
 MO   117 (   37) HAS LZ(WEIGHT)= 0.00(100.0%) 
 MO   118 (   38) HAS LZ(WEIGHT)=-3.00( 18.6%) -1.00( 31.4%)  1.00( 31.4%)  3.00( 18.6%) 
 MO   119 (   38) HAS LZ(WEIGHT)=-3.00( 18.4%) -1.00( 31.6%)  1.00( 31.6%)  3.00( 18.4%) 
 MO   120 (   38) HAS LZ(WEIGHT)=-2.00( 50.0%)  2.00( 50.0%) 
 MO   121 (   38) HAS LZ(WEIGHT)=-3.00( 31.4%) -1.00( 18.6%)  1.00( 18.6%)  3.00( 31.4%) 
 MO   122 (   38) HAS LZ(WEIGHT)= 0.00(100.0%) 
 MO   123 (   38) HAS LZ(WEIGHT)=-3.00( 31.6%) -1.00( 18.4%)  1.00( 18.4%)  3.00( 31.6%) 
 MO   124 (   38) HAS LZ(WEIGHT)=-2.00( 50.0%)  2.00( 50.0%) 
 MO   125 (   39) HAS LZ(WEIGHT)=-2.00(  4.0%) -0.00( 92.0%)  2.00(  4.0%) 
 MO   126 (   39) HAS LZ(WEIGHT)=-2.00( 46.0%) -0.00(  8.0%)  2.00( 46.0%) 
 MO   127 (   39) HAS LZ(WEIGHT)=-1.00( 50.0%)  1.00( 50.0%) 
 MO   128 (   39) HAS LZ(WEIGHT)=-1.00( 50.0%)  1.00( 50.0%) 
 MO   129 (   39) HAS LZ(WEIGHT)=-2.00( 50.0%)  2.00( 50.0%) 
 MO   130 (   40) HAS LZ(WEIGHT)=-1.00( 50.0%)  1.00( 50.0%) 
 MO   131 (   40) HAS LZ(WEIGHT)= 0.00(100.0%) 
 MO   132 (   40) HAS LZ(WEIGHT)=-1.00( 50.0%)  1.00( 50.0%) 
 MO   133 (   41) HAS LZ(WEIGHT)= 0.00(100.0%) 
 MO   134 (   42) HAS LZ(WEIGHT)=-3.00( 17.0%) -1.00( 33.0%)  1.00( 33.0%)  3.00( 17.0%) 
 MO   135 (   42) HAS LZ(WEIGHT)=-3.00( 17.4%) -1.00( 32.6%)  1.00( 32.6%)  3.00( 17.4%) 
 MO   136 (   42) HAS LZ(WEIGHT)=-2.00( 50.0%)  2.00( 50.0%) 
 MO   137 (   42) HAS LZ(WEIGHT)=-2.00( 50.0%)  2.00( 50.0%) 
 MO   138 (   42) HAS LZ(WEIGHT)=-3.00( 33.0%) -1.00( 17.0%)  1.00( 17.0%)  3.00( 33.0%) 
 MO   139 (   42) HAS LZ(WEIGHT)= 0.00(100.0%) 
 MO   140 (   42) HAS LZ(WEIGHT)=-3.00( 32.6%) -1.00( 17.4%)  1.00( 17.4%)  3.00( 32.6%) 
 MO   141 (   43) HAS LZ(WEIGHT)=-2.00( 48.5%)  0.00(  2.9%)  2.00( 48.5%) 
 MO   142 (   43) HAS LZ(WEIGHT)=-2.00(  1.5%)  0.00( 97.1%)  2.00(  1.5%) 
 MO   143 (   43) HAS LZ(WEIGHT)=-1.00( 50.0%)  1.00( 50.0%) 
 MO   144 (   43) HAS LZ(WEIGHT)=-1.00( 50.0%)  1.00( 50.0%) 
 MO   145 (   43) HAS LZ(WEIGHT)=-2.00( 50.0%)  2.00( 50.0%) 
 MO   146 (   44) HAS LZ(WEIGHT)=-1.00( 50.0%)  1.00( 50.0%) 
 MO   147 (   44) HAS LZ(WEIGHT)= 0.00(100.0%) 
 MO   148 (   44) HAS LZ(WEIGHT)=-1.00( 50.0%)  1.00( 50.0%) 
 MO   149 (   45) HAS LZ(WEIGHT)=-3.00( 16.1%) -1.00( 33.9%)  1.00( 33.9%)  3.00( 16.1%) 
 MO   150 (   45) HAS LZ(WEIGHT)=-2.00( 49.9%)  2.00( 49.9%) 
 MO   151 (   45) HAS LZ(WEIGHT)=-3.00( 16.9%) -1.00( 33.1%)  1.00( 33.1%)  3.00( 16.9%) 
 MO   152 (   45) HAS LZ(WEIGHT)=-2.00( 50.0%)  2.00( 50.0%) 
 MO   153 (   45) HAS LZ(WEIGHT)= 0.00( 99.9%) 
 MO   154 (   45) HAS LZ(WEIGHT)=-3.00( 33.9%) -1.00( 16.1%)  1.00( 16.1%)  3.00( 33.9%) 
 MO   155 (   45) HAS LZ(WEIGHT)=-3.00( 33.1%) -1.00( 16.9%)  1.00( 16.9%)  3.00( 33.1%) 
 MO   156 (   46) HAS LZ(WEIGHT)= 0.00(100.0%) 
 MO   157 (   47) HAS LZ(WEIGHT)=-2.00( 50.0%)  2.00( 50.0%) 
 MO   158 (   47) HAS LZ(WEIGHT)=-2.00( 47.0%)  0.00(  5.9%)  2.00( 47.0%) 
 MO   159 (   47) HAS LZ(WEIGHT)=-1.00( 50.0%)  1.00( 50.0%) 
 MO   160 (   47) HAS LZ(WEIGHT)=-1.00( 50.0%)  1.00( 50.0%) 
 MO   161 (   47) HAS LZ(WEIGHT)=-2.00(  3.0%)  0.00( 94.1%)  2.00(  3.0%) 
 MO   162 (   48) HAS LZ(WEIGHT)=-1.00( 50.0%)  1.00( 50.0%) 
 MO   163 (   48) HAS LZ(WEIGHT)= 0.00(100.0%) 
 MO   164 (   48) HAS LZ(WEIGHT)=-1.00( 50.0%)  1.00( 50.0%) 
 MO   165 (   49) HAS LZ(WEIGHT)=-3.00( 15.6%) -1.00( 34.4%)  1.00( 34.4%)  3.00( 15.6%) 
 MO   166 (   49) HAS LZ(WEIGHT)=-2.00( 48.9%)  0.00(  2.2%)  2.00( 48.9%) 
 MO   167 (   49) HAS LZ(WEIGHT)=-3.00( 14.5%) -1.00( 35.5%)  1.00( 35.5%)  3.00( 14.5%) 
 MO   168 (   49) HAS LZ(WEIGHT)=-2.00( 50.0%)  2.00( 50.0%) 
 MO   169 (   49) HAS LZ(WEIGHT)=-2.00(  1.1%)  0.00( 97.8%)  2.00(  1.1%) 
 MO   170 (   49) HAS LZ(WEIGHT)=-3.00( 35.5%) -1.00( 14.5%)  1.00( 14.5%)  3.00( 35.5%) 
 MO   171 (   49) HAS LZ(WEIGHT)=-3.00( 34.4%) -1.00( 15.6%)  1.00( 15.6%)  3.00( 34.4%) 
 MO   172 (   50) HAS LZ(WEIGHT)= 0.00(100.0%) 
 MO   173 (   51) HAS LZ(WEIGHT)=-2.00( 42.2%)  0.00( 15.6%)  2.00( 42.2%) 
 MO   174 (   51) HAS LZ(WEIGHT)=-2.00(  7.8%)  0.00( 84.4%)  2.00(  7.8%) 
 MO   175 (   51) HAS LZ(WEIGHT)=-2.00( 50.0%)  2.00( 50.0%) 
 MO   176 (   51) HAS LZ(WEIGHT)=-1.00( 50.0%)  1.00( 50.0%) 
 MO   177 (   51) HAS LZ(WEIGHT)=-1.00( 50.0%)  1.00( 50.0%) 
 MO   178 (   52) HAS LZ(WEIGHT)=-3.00(  8.9%) -1.00( 41.1%)  1.00( 41.1%)  3.00(  8.9%) 
 MO   179 (   52) HAS LZ(WEIGHT)=-2.00( 49.8%)  2.00( 49.8%) 
 MO   180 (   52) HAS LZ(WEIGHT)=-3.00( 23.2%) -1.00( 26.8%)  1.00( 26.8%)  3.00( 23.2%) 
 MO   181 (   52) HAS LZ(WEIGHT)=-3.00( 41.1%) -1.00(  8.9%)  1.00(  8.9%)  3.00( 41.1%) 
 MO   182 (   52) HAS LZ(WEIGHT)= 0.00( 99.7%) 
 MO   183 (   52) HAS LZ(WEIGHT)=-2.00( 50.0%)  2.00( 50.0%) 
 MO   184 (   52) HAS LZ(WEIGHT)=-3.00( 26.8%) -1.00( 23.2%)  1.00( 23.2%)  3.00( 26.8%) 
 MO   185 (   53) HAS LZ(WEIGHT)=-1.00( 50.0%)  1.00( 50.0%) 
 MO   186 (   53) HAS LZ(WEIGHT)=-1.00( 50.0%)  1.00( 50.0%) 
 MO   187 (   53) HAS LZ(WEIGHT)= 0.00(100.0%) 
 MO   188 (   54) HAS LZ(WEIGHT)= 0.00(100.0%) 
 MO   189 (   55) HAS LZ(WEIGHT)=-2.00( 49.9%)  2.00( 49.9%) 
 MO   190 (   55) HAS LZ(WEIGHT)=-0.00( 99.7%) 
 MO   191 (   55) HAS LZ(WEIGHT)=-1.00( 50.0%)  1.00( 50.0%) 
 MO   192 (   55) HAS LZ(WEIGHT)=-1.00( 50.0%)  1.00( 50.0%) 
 MO   193 (   55) HAS LZ(WEIGHT)=-2.00( 50.0%)  2.00( 50.0%) 
 MO   194 (   56) HAS LZ(WEIGHT)=-2.00( 49.1%)  0.00(  1.8%)  2.00( 49.1%) 
 MO   195 (   56) HAS LZ(WEIGHT)=-3.00(  2.2%) -1.00( 47.8%)  1.00( 47.8%)  3.00(  2.2%) 
 MO   196 (   56) HAS LZ(WEIGHT)= 0.00( 98.2%) 
 MO   197 (   56) HAS LZ(WEIGHT)=-3.00( 47.8%) -1.00(  2.2%)  1.00(  2.2%)  3.00( 47.8%) 
 MO   198 (   56) HAS LZ(WEIGHT)=-2.00( 50.0%)  2.00( 50.0%) 
 MO   199 (   56) HAS LZ(WEIGHT)=-3.00(  9.1%) -1.00( 40.9%)  1.00( 40.9%)  3.00(  9.1%) 
 MO   200 (   56) HAS LZ(WEIGHT)=-3.00( 40.9%) -1.00(  9.1%)  1.00(  9.1%)  3.00( 40.9%) 
 MO   201 (   57) HAS LZ(WEIGHT)=-1.00( 50.0%)  1.00( 50.0%) 
 MO   202 (   57) HAS LZ(WEIGHT)=-1.00( 50.0%)  1.00( 50.0%) 
 MO   203 (   57) HAS LZ(WEIGHT)= 0.00(100.0%) 
 MO   204 (   58) HAS LZ(WEIGHT)=-2.00( 45.0%) -0.00(  9.9%)  2.00( 45.0%) 
 MO   205 (   58) HAS LZ(WEIGHT)=-2.00( 50.0%)  2.00( 50.0%) 
 MO   206 (   58) HAS LZ(WEIGHT)=-1.00( 50.0%)  1.00( 50.0%) 
 MO   207 (   58) HAS LZ(WEIGHT)=-1.00( 50.0%)  1.00( 50.0%) 
 MO   208 (   58) HAS LZ(WEIGHT)=-2.00(  5.0%) -0.00( 90.1%)  2.00(  5.0%) 
 MO   209 (   59) HAS LZ(WEIGHT)= 0.00(100.0%) 
 MO   210 (   60) HAS LZ(WEIGHT)=-0.00( 99.7%) 
 MO   211 (   60) HAS LZ(WEIGHT)=-3.00( 27.2%) -1.00( 22.8%)  1.00( 22.8%)  3.00( 27.2%) 
 MO   212 (   60) HAS LZ(WEIGHT)=-3.00( 22.8%) -1.00( 27.2%)  1.00( 27.2%)  3.00( 22.8%) 
 MO   213 (   60) HAS LZ(WEIGHT)=-3.00(  2.3%) -1.00( 47.7%)  1.00( 47.7%)  3.00(  2.3%) 
 MO   214 (   60) HAS LZ(WEIGHT)=-2.00( 50.0%)  2.00( 50.0%) 
 MO   215 (   60) HAS LZ(WEIGHT)=-3.00( 47.7%) -1.00(  2.3%)  1.00(  2.3%)  3.00( 47.7%) 
 MO   216 (   60) HAS LZ(WEIGHT)=-2.00( 49.9%)  2.00( 49.9%) 
 MO   217 (   61) HAS LZ(WEIGHT)=-1.00( 50.0%)  1.00( 50.0%) 
 MO   218 (   61) HAS LZ(WEIGHT)=-1.00( 50.0%)  1.00( 50.0%) 
 MO   219 (   61) HAS LZ(WEIGHT)= 0.00(100.0%) 
 MO   220 (   62) HAS LZ(WEIGHT)=-2.00( 21.3%) -0.00( 57.4%)  2.00( 21.3%) 
 MO   221 (   62) HAS LZ(WEIGHT)=-1.00( 50.0%)  1.00( 50.0%) 
 MO   222 (   62) HAS LZ(WEIGHT)=-2.00( 50.0%)  2.00( 50.0%) 
 MO   223 (   62) HAS LZ(WEIGHT)=-2.00( 28.7%) -0.00( 42.6%)  2.00( 28.7%) 
 MO   224 (   62) HAS LZ(WEIGHT)=-1.00( 50.0%)  1.00( 50.0%) 
 MO   225 (   63) HAS LZ(WEIGHT)= 0.00(100.0%) 
 MO   226 (   64) HAS LZ(WEIGHT)=-3.00( 45.4%) -1.00(  4.6%)  1.00(  4.6%)  3.00( 45.4%) 
 MO   227 (   64) HAS LZ(WEIGHT)=-2.00( 42.3%)  0.00( 15.4%)  2.00( 42.3%) 
 MO   228 (   64) HAS LZ(WEIGHT)=-3.00( 45.3%) -1.00(  4.7%)  1.00(  4.7%)  3.00( 45.3%) 
 MO   229 (   64) HAS LZ(WEIGHT)=-2.00( 50.0%)  2.00( 50.0%) 
 MO   230 (   64) HAS LZ(WEIGHT)=-3.00(  4.6%) -1.00( 45.4%)  1.00( 45.4%)  3.00(  4.6%) 
 MO   231 (   64) HAS LZ(WEIGHT)=-2.00(  7.7%)  0.00( 84.6%)  2.00(  7.7%) 
 MO   232 (   64) HAS LZ(WEIGHT)=-3.00(  4.7%) -1.00( 45.3%)  1.00( 45.3%)  3.00(  4.7%) 
 MO   233 (   65) HAS LZ(WEIGHT)=-1.00( 50.0%)  1.00( 50.0%) 
 MO   234 (   65) HAS LZ(WEIGHT)= 0.00(100.0%) 
 MO   235 (   65) HAS LZ(WEIGHT)=-1.00( 50.0%)  1.00( 50.0%) 
 MO   236 (   66) HAS LZ(WEIGHT)=-2.00(  1.9%) -0.00( 96.3%)  2.00(  1.9%) 
 MO   237 (   66) HAS LZ(WEIGHT)=-2.00( 48.1%) -0.00(  3.7%)  2.00( 48.1%) 
 MO   238 (   66) HAS LZ(WEIGHT)=-2.00( 50.0%)  2.00( 50.0%) 
 MO   239 (   66) HAS LZ(WEIGHT)=-1.00( 50.0%)  1.00( 50.0%) 
 MO   240 (   66) HAS LZ(WEIGHT)=-1.00( 50.0%)  1.00( 50.0%) 
 MO   241 (   67) HAS LZ(WEIGHT)= 0.00(100.0%) 
 MO   242 (   68) HAS LZ(WEIGHT)=-1.00( 50.0%)  1.00( 50.0%) 
 MO   243 (   68) HAS LZ(WEIGHT)=-1.00( 50.0%)  1.00( 50.0%) 
 MO   244 (   68) HAS LZ(WEIGHT)= 0.00(100.0%) 
 MO   245 (   69) HAS LZ(WEIGHT)=-2.00( 27.2%)  0.00( 45.7%)  2.00( 27.2%) 
 MO   246 (   69) HAS LZ(WEIGHT)=-2.00( 22.8%)  0.00( 54.3%)  2.00( 22.8%) 
 MO   247 (   69) HAS LZ(WEIGHT)=-1.00( 50.0%)  1.00( 50.0%) 
 MO   248 (   69) HAS LZ(WEIGHT)=-2.00( 50.0%)  2.00( 50.0%) 
 MO   249 (   69) HAS LZ(WEIGHT)=-1.00( 50.0%)  1.00( 50.0%) 
 MO   250 (   70) HAS LZ(WEIGHT)= 0.00(100.0%) 
 MO   251 (   71) HAS LZ(WEIGHT)= 0.00(100.0%) 
 MO   252 (   71) HAS LZ(WEIGHT)=-1.00( 50.0%)  1.00( 50.0%) 
 MO   253 (   71) HAS LZ(WEIGHT)=-1.00( 50.0%)  1.00( 50.0%) 
 MO   254 (   72) HAS LZ(WEIGHT)=-1.00( 50.0%)  1.00( 50.0%) 
 MO   255 (   72) HAS LZ(WEIGHT)=-2.00( 50.0%)  2.00( 50.0%) 
 MO   256 (   72) HAS LZ(WEIGHT)=-1.00( 50.0%)  1.00( 50.0%) 
 MO   257 (   72) HAS LZ(WEIGHT)=-2.00( 50.0%)  2.00( 50.0%) 
 MO   258 (   72) HAS LZ(WEIGHT)= 0.00(100.0%) 
 MO   259 (   73) HAS LZ(WEIGHT)= 0.00(100.0%) 
 MO   260 (   74) HAS LZ(WEIGHT)= 0.00(100.0%) 
 MO   261 (   74) HAS LZ(WEIGHT)=-1.00( 50.0%)  1.00( 50.0%) 
 MO   262 (   74) HAS LZ(WEIGHT)=-1.00( 50.0%)  1.00( 50.0%) 
 MO   263 (   75) HAS LZ(WEIGHT)= 0.00(100.0%) 
 MO   264 (   76) HAS LZ(WEIGHT)=-1.00( 50.0%)  1.00( 50.0%) 
 MO   265 (   76) HAS LZ(WEIGHT)= 0.00(100.0%) 
 MO   266 (   76) HAS LZ(WEIGHT)=-1.00( 50.0%)  1.00( 50.0%) 
 MO   267 (   77) HAS LZ(WEIGHT)= 0.00(100.0%) 
 MO   268 (   78) HAS LZ(WEIGHT)=-1.00( 50.0%)  1.00( 50.0%) 
 MO   269 (   78) HAS LZ(WEIGHT)=-1.00( 50.0%)  1.00( 50.0%) 
 MO   270 (   78) HAS LZ(WEIGHT)= 0.00(100.0%) 
 MO   271 (   79) HAS LZ(WEIGHT)= 0.00(100.0%) 
 MO   272 (   80) HAS LZ(WEIGHT)= 0.00(100.0%) 
 MO   273 (   81) HAS LZ(WEIGHT)= 0.00(100.0%) 
 MO   274 (   82) HAS LZ(WEIGHT)= 0.00(100.0%) 

          ------------
          EIGENVECTORS
          ------------

                      1          2          3          4          5
                -3639.5932  -668.7805  -570.0726  -570.0726  -570.0726
                     AG         AG         B1U        B3U        B2U 
    1  RN 1  S    0.001124  -0.000449   0.000000   0.000000   0.000000
    2  RN 1  S    0.001768  -0.000707   0.000000   0.000000   0.000000
    3  RN 1  S    0.004642  -0.001863   0.000000   0.000000   0.000000
    4  RN 1  S    0.009139  -0.003688   0.000000   0.000000   0.000000
    5  RN 1  S    0.018341  -0.007467   0.000000   0.000000   0.000000
    6  RN 1  X    0.000000   0.000000   0.000000   0.000705   0.000000
    7  RN 1  Y    0.000000   0.000000   0.000000   0.000000   0.000705
    8  RN 1  Z    0.000000   0.000000   0.000705   0.000000   0.000000
    9  RN 1  S    0.033800  -0.013961   0.000000   0.000000   0.000000
   10  RN 1  X    0.000000   0.000000   0.000000   0.000720   0.000000
   11  RN 1  Y    0.000000   0.000000   0.000000   0.000000   0.000720
   12  RN 1  Z    0.000000   0.000000   0.000720   0.000000   0.000000
   13  RN 1  S    0.060890  -0.025723   0.000000   0.000000   0.000000
   14  RN 1  X    0.000000   0.000000   0.000000   0.002713   0.000000
   15  RN 1  Y    0.000000   0.000000   0.000000   0.000000   0.002713
   16  RN 1  Z    0.000000   0.000000   0.002713   0.000000   0.000000
   17  RN 1  S    0.104016  -0.045557   0.000000   0.000000   0.000000
   18  RN 1  X    0.000000   0.000000   0.000000   0.005286   0.000000
   19  RN 1  Y    0.000000   0.000000   0.000000   0.000000   0.005286
   20  RN 1  Z    0.000000   0.000000   0.005286   0.000000   0.000000
   21  RN 1  S    0.168956  -0.078304   0.000000   0.000000   0.000000
   22  RN 1  X    0.000000   0.000000   0.000000   0.013830   0.000000
   23  RN 1  Y    0.000000   0.000000   0.000000   0.000000   0.013830
   24  RN 1  Z    0.000000   0.000000   0.013830   0.000000   0.000000
   25  RN 1  S    0.245209  -0.124379   0.000000   0.000000   0.000000
   26  RN 1  X    0.000000   0.000000   0.000000   0.031488   0.000000
   27  RN 1  Y    0.000000   0.000000   0.000000   0.000000   0.031488
   28  RN 1  Z    0.000000   0.000000   0.031488   0.000000   0.000000
   29  RN 1  S    0.287651  -0.165388   0.000000   0.000000   0.000000
   30  RN 1  X    0.000000   0.000000   0.000000   0.074488   0.000000
   31  RN 1  Y    0.000000   0.000000   0.000000   0.000000   0.074488
   32  RN 1  Z    0.000000   0.000000   0.074488   0.000000   0.000000
   33  RN 1  S    0.218967  -0.127432   0.000000   0.000000   0.000000
   34  RN 1  X    0.000000   0.000000   0.000000   0.155766   0.000000
   35  RN 1  Y    0.000000   0.000000   0.000000   0.000000   0.155766
   36  RN 1  Z    0.000000   0.000000   0.155766   0.000000   0.000000
   37  RN 1  S    0.076326   0.102502   0.000000   0.000000   0.000000
   38  RN 1  X    0.000000   0.000000   0.000000   0.275603   0.000000
   39  RN 1  Y    0.000000   0.000000   0.000000   0.000000   0.275603
   40  RN 1  Z    0.000000   0.000000   0.275603   0.000000   0.000000
   41  RN 1  S    0.005761   0.456250   0.000000   0.000000   0.000000
   42  RN 1  X    0.000000   0.000000   0.000000   0.342707   0.000000
   43  RN 1  Y    0.000000   0.000000   0.000000   0.000000   0.342707
   44  RN 1  Z    0.000000   0.000000   0.342707   0.000000   0.000000
   45  RN 1  S    0.000710   0.458057   0.000000   0.000000   0.000000
   46  RN 1  X    0.000000   0.000000   0.000000   0.237385   0.000000
   47  RN 1  Y    0.000000   0.000000   0.000000   0.000000   0.237385
   48  RN 1  Z    0.000000   0.000000   0.237385   0.000000   0.000000
   49  RN 1  S   -0.000518   0.131582   0.000000   0.000000   0.000000
   50  RN 1  X    0.000000   0.000000   0.000000   0.062964   0.000000
   51  RN 1  Y    0.000000   0.000000   0.000000   0.000000   0.062964
   52  RN 1  Z    0.000000   0.000000   0.062964   0.000000   0.000000
   53  RN 1  S    0.000338   0.005985   0.000000   0.000000   0.000000
   54  RN 1  X    0.000000   0.000000   0.000000   0.003972   0.000000
   55  RN 1  Y    0.000000   0.000000   0.000000   0.000000   0.003972
   56  RN 1  Z    0.000000   0.000000   0.003972   0.000000   0.000000
   57  RN 1  S   -0.000275   0.000104   0.000000   0.000000   0.000000
   58  RN 1  X    0.000000   0.000000   0.000000  -0.000278   0.000000
   59  RN 1  Y    0.000000   0.000000   0.000000   0.000000  -0.000278
   60  RN 1  Z    0.000000   0.000000  -0.000278   0.000000   0.000000
   61  RN 1  S    0.000214   0.000001   0.000000   0.000000   0.000000
   62  RN 1  X    0.000000   0.000000   0.000000   0.000153   0.000000
   63  RN 1  Y    0.000000   0.000000   0.000000   0.000000   0.000153
   64  RN 1  Z    0.000000   0.000000   0.000153   0.000000   0.000000
   65  RN 1  S   -0.000155  -0.000244   0.000000   0.000000   0.000000
   66  RN 1  X    0.000000   0.000000   0.000000  -0.000227   0.000000
   67  RN 1  Y    0.000000   0.000000   0.000000   0.000000  -0.000227
   68  RN 1  Z    0.000000   0.000000  -0.000227   0.000000   0.000000
   69  RN 1  S    0.000114   0.000203   0.000000   0.000000   0.000000
   70  RN 1  X    0.000000   0.000000   0.000000   0.000171   0.000000
   71  RN 1  Y    0.000000   0.000000   0.000000   0.000000   0.000171
   72  RN 1  Z    0.000000   0.000000   0.000171   0.000000   0.000000
   73  RN 1  S   -0.000083  -0.000146   0.000000   0.000000   0.000000
   74  RN 1  X    0.000000   0.000000   0.000000  -0.000118   0.000000
   75  RN 1  Y    0.000000   0.000000   0.000000   0.000000  -0.000118
   76  RN 1  Z    0.000000   0.000000  -0.000118   0.000000   0.000000
   77  RN 1  S    0.000058   0.000114   0.000000   0.000000   0.000000
   78  RN 1  X    0.000000   0.000000   0.000000   0.000089   0.000000
   79  RN 1  Y    0.000000   0.000000   0.000000   0.000000   0.000089
   80  RN 1  Z    0.000000   0.000000   0.000089   0.000000   0.000000
   81  RN 1  S   -0.000039  -0.000079   0.000000   0.000000   0.000000
   82  RN 1  X    0.000000   0.000000   0.000000  -0.000060   0.000000
   83  RN 1  Y    0.000000   0.000000   0.000000   0.000000  -0.000060
   84  RN 1  Z    0.000000   0.000000  -0.000060   0.000000   0.000000
   85  RN 1  S    0.000025   0.000050   0.000000   0.000000   0.000000
   86  RN 1  X    0.000000   0.000000   0.000000   0.000038   0.000000
   87  RN 1  Y    0.000000   0.000000   0.000000   0.000000   0.000038
   88  RN 1  Z    0.000000   0.000000   0.000038   0.000000   0.000000
   89  RN 1  S   -0.000013  -0.000028   0.000000   0.000000   0.000000
   90  RN 1  X    0.000000   0.000000   0.000000  -0.000022   0.000000
   91  RN 1  Y    0.000000   0.000000   0.000000   0.000000  -0.000022
   92  RN 1  Z    0.000000   0.000000  -0.000022   0.000000   0.000000
   93  RN 1  S    0.000006   0.000012   0.000000   0.000000   0.000000
   94  RN 1  X    0.000000   0.000000   0.000000   0.000010   0.000000
   95  RN 1  Y    0.000000   0.000000   0.000000   0.000000   0.000010
   96  RN 1  Z    0.000000   0.000000   0.000010   0.000000   0.000000
   97  RN 1  S   -0.000001  -0.000003   0.000000   0.000000   0.000000
   98  RN 1  X    0.000000   0.000000   0.000000  -0.000002   0.000000
   99  RN 1  Y    0.000000   0.000000   0.000000   0.000000  -0.000002
  100  RN 1  Z    0.000000   0.000000  -0.000002   0.000000   0.000000
  101  RN 1 XX    0.000000   0.000000   0.000000   0.000000   0.000000
  102  RN 1 YY    0.000000   0.000000   0.000000   0.000000   0.000000
  103  RN 1 ZZ    0.000000   0.000000   0.000000   0.000000   0.000000
  104  RN 1 XY    0.000000   0.000000   0.000000   0.000000   0.000000
  105  RN 1 XZ    0.000000   0.000000   0.000000   0.000000   0.000000
  106  RN 1 YZ    0.000000   0.000000   0.000000   0.000000   0.000000
  107  RN 1 XX    0.000000   0.000000   0.000000   0.000000   0.000000
  108  RN 1 YY    0.000000   0.000000   0.000000   0.000000   0.000000
  109  RN 1 ZZ    0.000000   0.000000   0.000000   0.000000   0.000000
  110  RN 1 XY    0.000000   0.000000   0.000000   0.000000   0.000000
  111  RN 1 XZ    0.000000   0.000000   0.000000   0.000000   0.000000
  112  RN 1 YZ    0.000000   0.000000   0.000000   0.000000   0.000000
  113  RN 1 XX    0.000000   0.000000   0.000000   0.000000   0.000000
  114  RN 1 YY    0.000000   0.000000   0.000000   0.000000   0.000000
  115  RN 1 ZZ    0.000000   0.000000   0.000000   0.000000   0.000000
  116  RN 1 XY    0.000000   0.000000   0.000000   0.000000   0.000000
  117  RN 1 XZ    0.000000   0.000000   0.000000   0.000000   0.000000
  118  RN 1 YZ    0.000000   0.000000   0.000000   0.000000   0.000000
  119  RN 1 XX    0.000000   0.000000   0.000000   0.000000   0.000000
  120  RN 1 YY    0.000000   0.000000   0.000000   0.000000   0.000000
  121  RN 1 ZZ    0.000000   0.000000   0.000000   0.000000   0.000000
  122  RN 1 XY    0.000000   0.000000   0.000000   0.000000   0.000000
  123  RN 1 XZ    0.000000   0.000000   0.000000   0.000000   0.000000
  124  RN 1 YZ    0.000000   0.000000   0.000000   0.000000   0.000000
  125  RN 1 XX    0.000000   0.000000   0.000000   0.000000   0.000000
  126  RN 1 YY    0.000000   0.000000   0.000000   0.000000   0.000000
  127  RN 1 ZZ    0.000000   0.000000   0.000000   0.000000   0.000000
  128  RN 1 XY    0.000000   0.000000   0.000000   0.000000   0.000000
  129  RN 1 XZ    0.000000   0.000000   0.000000   0.000000   0.000000
  130  RN 1 YZ    0.000000   0.000000   0.000000   0.000000   0.000000
  131  RN 1 XX    0.000000   0.000000   0.000000   0.000000   0.000000
  132  RN 1 YY    0.000000   0.000000   0.000000   0.000000   0.000000
  133  RN 1 ZZ    0.000000   0.000000   0.000000   0.000000   0.000000
  134  RN 1 XY    0.000000   0.000000   0.000000   0.000000   0.000000
  135  RN 1 XZ    0.000000   0.000000   0.000000   0.000000   0.000000
  136  RN 1 YZ    0.000000   0.000000   0.000000   0.000000   0.000000
  137  RN 1 XX    0.000000   0.000000   0.000000   0.000000   0.000000
  138  RN 1 YY    0.000000   0.000000   0.000000   0.000000   0.000000
  139  RN 1 ZZ    0.000000   0.000000   0.000000   0.000000   0.000000
  140  RN 1 XY    0.000000   0.000000   0.000000   0.000000   0.000000
  141  RN 1 XZ    0.000000   0.000000   0.000000   0.000000   0.000000
  142  RN 1 YZ    0.000000   0.000000   0.000000   0.000000   0.000000
  143  RN 1 XX    0.000000   0.000000   0.000000   0.000000   0.000000
  144  RN 1 YY    0.000000   0.000000   0.000000   0.000000   0.000000
  145  RN 1 ZZ    0.000000   0.000000   0.000000   0.000000   0.000000
  146  RN 1 XY    0.000000   0.000000   0.000000   0.000000   0.000000
  147  RN 1 XZ    0.000000   0.000000   0.000000   0.000000   0.000000
  148  RN 1 YZ    0.000000   0.000000   0.000000   0.000000   0.000000
  149  RN 1 XX    0.000000   0.000000   0.000000   0.000000   0.000000
  150  RN 1 YY    0.000000   0.000000   0.000000   0.000000   0.000000
  151  RN 1 ZZ    0.000000   0.000000   0.000000   0.000000   0.000000
  152  RN 1 XY    0.000000   0.000000   0.000000   0.000000   0.000000
  153  RN 1 XZ    0.000000   0.000000   0.000000   0.000000   0.000000
  154  RN 1 YZ    0.000000   0.000000   0.000000   0.000000   0.000000
  155  RN 1 XX    0.000000   0.000000   0.000000   0.000000   0.000000
  156  RN 1 YY    0.000000   0.000000   0.000000   0.000000   0.000000
  157  RN 1 ZZ    0.000000   0.000000   0.000000   0.000000   0.000000
  158  RN 1 XY    0.000000   0.000000   0.000000   0.000000   0.000000
  159  RN 1 XZ    0.000000   0.000000   0.000000   0.000000   0.000000
  160  RN 1 YZ    0.000000   0.000000   0.000000   0.000000   0.000000
  161  RN 1 XX    0.000000   0.000000   0.000000   0.000000   0.000000
  162  RN 1 YY    0.000000   0.000000   0.000000   0.000000   0.000000
  163  RN 1 ZZ    0.000000   0.000000   0.000000   0.000000   0.000000
  164  RN 1 XY    0.000000   0.000000   0.000000   0.000000   0.000000
  165  RN 1 XZ    0.000000   0.000000   0.000000   0.000000   0.000000
  166  RN 1 YZ    0.000000   0.000000   0.000000   0.000000   0.000000
  167  RN 1 XX    0.000000   0.000000   0.000000   0.000000   0.000000
  168  RN 1 YY    0.000000   0.000000   0.000000   0.000000   0.000000
  169  RN 1 ZZ    0.000000   0.000000   0.000000   0.000000   0.000000
  170  RN 1 XY    0.000000   0.000000   0.000000   0.000000   0.000000
  171  RN 1 XZ    0.000000   0.000000   0.000000   0.000000   0.000000
  172  RN 1 YZ    0.000000   0.000000   0.000000   0.000000   0.000000
  173  RN 1 XX    0.000000   0.000000   0.000000   0.000000   0.000000
  174  RN 1 YY    0.000000   0.000000   0.000000   0.000000   0.000000
  175  RN 1 ZZ    0.000000   0.000000   0.000000   0.000000   0.000000
  176  RN 1 XY    0.000000   0.000000   0.000000   0.000000   0.000000
  177  RN 1 XZ    0.000000   0.000000   0.000000   0.000000   0.000000
  178  RN 1 YZ    0.000000   0.000000   0.000000   0.000000   0.000000
  179  RN 1 XX    0.000000   0.000000   0.000000   0.000000   0.000000
  180  RN 1 YY    0.000000   0.000000   0.000000   0.000000   0.000000
  181  RN 1 ZZ    0.000000   0.000000   0.000000   0.000000   0.000000
  182  RN 1 XY    0.000000   0.000000   0.000000   0.000000   0.000000
  183  RN 1 XZ    0.000000   0.000000   0.000000   0.000000   0.000000
  184  RN 1 YZ    0.000000   0.000000   0.000000   0.000000   0.000000
  185  RN 1 XX    0.000000   0.000000   0.000000   0.000000   0.000000
  186  RN 1 YY    0.000000   0.000000   0.000000   0.000000   0.000000
  187  RN 1 ZZ    0.000000   0.000000   0.000000   0.000000   0.000000
  188  RN 1 XY    0.000000   0.000000   0.000000   0.000000   0.000000
  189  RN 1 XZ    0.000000   0.000000   0.000000   0.000000   0.000000
  190  RN 1 YZ    0.000000   0.000000   0.000000   0.000000   0.000000
  191  RN 1 XX    0.000000   0.000000   0.000000   0.000000   0.000000
  192  RN 1 YY    0.000000   0.000000   0.000000   0.000000   0.000000
  193  RN 1 ZZ    0.000000   0.000000   0.000000   0.000000   0.000000
  194  RN 1 XY    0.000000   0.000000   0.000000   0.000000   0.000000
  195  RN 1 XZ    0.000000   0.000000   0.000000   0.000000   0.000000
  196  RN 1 YZ    0.000000   0.000000   0.000000   0.000000   0.000000
  197  RN 1 XX    0.000000   0.000000   0.000000   0.000000   0.000000
  198  RN 1 YY    0.000000   0.000000   0.000000   0.000000   0.000000
  199  RN 1 ZZ    0.000000   0.000000   0.000000   0.000000   0.000000
  200  RN 1 XY    0.000000   0.000000   0.000000   0.000000   0.000000
  201  RN 1 XZ    0.000000   0.000000   0.000000   0.000000   0.000000
  202  RN 1 YZ    0.000000   0.000000   0.000000   0.000000   0.000000
  203  RN 1 XX    0.000000   0.000000   0.000000   0.000000   0.000000
  204  RN 1 YY    0.000000   0.000000   0.000000   0.000000   0.000000
  205  RN 1 ZZ    0.000000   0.000000   0.000000   0.000000   0.000000
  206  RN 1 XY    0.000000   0.000000   0.000000   0.000000   0.000000
  207  RN 1 XZ    0.000000   0.000000   0.000000   0.000000   0.000000
  208  RN 1 YZ    0.000000   0.000000   0.000000   0.000000   0.000000
  209  RN 1 XXX   0.000000   0.000000   0.000000   0.000000   0.000000
  210  RN 1 YYY   0.000000   0.000000   0.000000   0.000000   0.000000
  211  RN 1 ZZZ   0.000000   0.000000   0.000000   0.000000   0.000000
  212  RN 1 XXY   0.000000   0.000000   0.000000   0.000000   0.000000
  213  RN 1 XXZ   0.000000   0.000000   0.000000   0.000000   0.000000
  214  RN 1 YYX   0.000000   0.000000   0.000000   0.000000   0.000000
  215  RN 1 YYZ   0.000000   0.000000   0.000000   0.000000   0.000000
  216  RN 1 ZZX   0.000000   0.000000   0.000000   0.000000   0.000000
  217  RN 1 ZZY   0.000000   0.000000   0.000000   0.000000   0.000000
  218  RN 1 XYZ   0.000000   0.000000   0.000000   0.000000   0.000000
  219  RN 1 XXX   0.000000   0.000000   0.000000   0.000000   0.000000
  220  RN 1 YYY   0.000000   0.000000   0.000000   0.000000   0.000000
  221  RN 1 ZZZ   0.000000   0.000000   0.000000   0.000000   0.000000
  222  RN 1 XXY   0.000000   0.000000   0.000000   0.000000   0.000000
  223  RN 1 XXZ   0.000000   0.000000   0.000000   0.000000   0.000000
  224  RN 1 YYX   0.000000   0.000000   0.000000   0.000000   0.000000
  225  RN 1 YYZ   0.000000   0.000000   0.000000   0.000000   0.000000
  226  RN 1 ZZX   0.000000   0.000000   0.000000   0.000000   0.000000
  227  RN 1 ZZY   0.000000   0.000000   0.000000   0.000000   0.000000
  228  RN 1 XYZ   0.000000   0.000000   0.000000   0.000000   0.000000
  229  RN 1 XXX   0.000000   0.000000   0.000000   0.000000   0.000000
  230  RN 1 YYY   0.000000   0.000000   0.000000   0.000000   0.000000
  231  RN 1 ZZZ   0.000000   0.000000   0.000000   0.000000   0.000000
  232  RN 1 XXY   0.000000   0.000000   0.000000   0.000000   0.000000
  233  RN 1 XXZ   0.000000   0.000000   0.000000   0.000000   0.000000
  234  RN 1 YYX   0.000000   0.000000   0.000000   0.000000   0.000000
  235  RN 1 YYZ   0.000000   0.000000   0.000000   0.000000   0.000000
  236  RN 1 ZZX   0.000000   0.000000   0.000000   0.000000   0.000000
  237  RN 1 ZZY   0.000000   0.000000   0.000000   0.000000   0.000000
  238  RN 1 XYZ   0.000000   0.000000   0.000000   0.000000   0.000000
  239  RN 1 XXX   0.000000   0.000000   0.000000   0.000000   0.000000
  240  RN 1 YYY   0.000000   0.000000   0.000000   0.000000   0.000000
  241  RN 1 ZZZ   0.000000   0.000000   0.000000   0.000000   0.000000
  242  RN 1 XXY   0.000000   0.000000   0.000000   0.000000   0.000000
  243  RN 1 XXZ   0.000000   0.000000   0.000000   0.000000   0.000000
  244  RN 1 YYX   0.000000   0.000000   0.000000   0.000000   0.000000
  245  RN 1 YYZ   0.000000   0.000000   0.000000   0.000000   0.000000
  246  RN 1 ZZX   0.000000   0.000000   0.000000   0.000000   0.000000
  247  RN 1 ZZY   0.000000   0.000000   0.000000   0.000000   0.000000
  248  RN 1 XYZ   0.000000   0.000000   0.000000   0.000000   0.000000
  249  RN 1 XXX   0.000000   0.000000   0.000000   0.000000   0.000000
  250  RN 1 YYY   0.000000   0.000000   0.000000   0.000000   0.000000
  251  RN 1 ZZZ   0.000000   0.000000   0.000000   0.000000   0.000000
  252  RN 1 XXY   0.000000   0.000000   0.000000   0.000000   0.000000
  253  RN 1 XXZ   0.000000   0.000000   0.000000   0.000000   0.000000
  254  RN 1 YYX   0.000000   0.000000   0.000000   0.000000   0.000000
  255  RN 1 YYZ   0.000000   0.000000   0.000000   0.000000   0.000000
  256  RN 1 ZZX   0.000000   0.000000   0.000000   0.000000   0.000000
  257  RN 1 ZZY   0.000000   0.000000   0.000000   0.000000   0.000000
  258  RN 1 XYZ   0.000000   0.000000   0.000000   0.000000   0.000000
  259  RN 1 XXX   0.000000   0.000000   0.000000   0.000000   0.000000
  260  RN 1 YYY   0.000000   0.000000   0.000000   0.000000   0.000000
  261  RN 1 ZZZ   0.000000   0.000000   0.000000   0.000000   0.000000
  262  RN 1 XXY   0.000000   0.000000   0.000000   0.000000   0.000000
  263  RN 1 XXZ   0.000000   0.000000   0.000000   0.000000   0.000000
  264  RN 1 YYX   0.000000   0.000000   0.000000   0.000000   0.000000
  265  RN 1 YYZ   0.000000   0.000000   0.000000   0.000000   0.000000
  266  RN 1 ZZX   0.000000   0.000000   0.000000   0.000000   0.000000
  267  RN 1 ZZY   0.000000   0.000000   0.000000   0.000000   0.000000
  268  RN 1 XYZ   0.000000   0.000000   0.000000   0.000000   0.000000
  269  RN 1 XXX   0.000000   0.000000   0.000000   0.000000   0.000000
  270  RN 1 YYY   0.000000   0.000000   0.000000   0.000000   0.000000
  271  RN 1 ZZZ   0.000000   0.000000   0.000000   0.000000   0.000000
  272  RN 1 XXY   0.000000   0.000000   0.000000   0.000000   0.000000
  273  RN 1 XXZ   0.000000   0.000000   0.000000   0.000000   0.000000
  274  RN 1 YYX   0.000000   0.000000   0.000000   0.000000   0.000000
  275  RN 1 YYZ   0.000000   0.000000   0.000000   0.000000   0.000000
  276  RN 1 ZZX   0.000000   0.000000   0.000000   0.000000   0.000000
  277  RN 1 ZZY   0.000000   0.000000   0.000000   0.000000   0.000000
  278  RN 1 XYZ   0.000000   0.000000   0.000000   0.000000   0.000000
  279  RN 1 XXX   0.000000   0.000000   0.000000   0.000000   0.000000
  280  RN 1 YYY   0.000000   0.000000   0.000000   0.000000   0.000000
  281  RN 1 ZZZ   0.000000   0.000000   0.000000   0.000000   0.000000
  282  RN 1 XXY   0.000000   0.000000   0.000000   0.000000   0.000000
  283  RN 1 XXZ   0.000000   0.000000   0.000000   0.000000   0.000000
  284  RN 1 YYX   0.000000   0.000000   0.000000   0.000000   0.000000
  285  RN 1 YYZ   0.000000   0.000000   0.000000   0.000000   0.000000
  286  RN 1 ZZX   0.000000   0.000000   0.000000   0.000000   0.000000
  287  RN 1 ZZY   0.000000   0.000000   0.000000   0.000000   0.000000
  288  RN 1 XYZ   0.000000   0.000000   0.000000   0.000000   0.000000
  289  RN 1 XXX   0.000000   0.000000   0.000000   0.000000   0.000000
  290  RN 1 YYY   0.000000   0.000000   0.000000   0.000000   0.000000
  291  RN 1 ZZZ   0.000000   0.000000   0.000000   0.000000   0.000000
  292  RN 1 XXY   0.000000   0.000000   0.000000   0.000000   0.000000
  293  RN 1 XXZ   0.000000   0.000000   0.000000   0.000000   0.000000
  294  RN 1 YYX   0.000000   0.000000   0.000000   0.000000   0.000000
  295  RN 1 YYZ   0.000000   0.000000   0.000000   0.000000   0.000000
  296  RN 1 ZZX   0.000000   0.000000   0.000000   0.000000   0.000000
  297  RN 1 ZZY   0.000000   0.000000   0.000000   0.000000   0.000000
  298  RN 1 XYZ   0.000000   0.000000   0.000000   0.000000   0.000000
  299  RN 1 XXX   0.000000   0.000000   0.000000   0.000000   0.000000
  300  RN 1 YYY   0.000000   0.000000   0.000000   0.000000   0.000000
  301  RN 1 ZZZ   0.000000   0.000000   0.000000   0.000000   0.000000
  302  RN 1 XXY   0.000000   0.000000   0.000000   0.000000   0.000000
  303  RN 1 XXZ   0.000000   0.000000   0.000000   0.000000   0.000000
  304  RN 1 YYX   0.000000   0.000000   0.000000   0.000000   0.000000
  305  RN 1 YYZ   0.000000   0.000000   0.000000   0.000000   0.000000
  306  RN 1 ZZX   0.000000   0.000000   0.000000   0.000000   0.000000
  307  RN 1 ZZY   0.000000   0.000000   0.000000   0.000000   0.000000
  308  RN 1 XYZ   0.000000   0.000000   0.000000   0.000000   0.000000
  309  RN 1 XXX   0.000000   0.000000   0.000000   0.000000   0.000000
  310  RN 1 YYY   0.000000   0.000000   0.000000   0.000000   0.000000
  311  RN 1 ZZZ   0.000000   0.000000   0.000000   0.000000   0.000000
  312  RN 1 XXY   0.000000   0.000000   0.000000   0.000000   0.000000
  313  RN 1 XXZ   0.000000   0.000000   0.000000   0.000000   0.000000
  314  RN 1 YYX   0.000000   0.000000   0.000000   0.000000   0.000000
  315  RN 1 YYZ   0.000000   0.000000   0.000000   0.000000   0.000000
  316  RN 1 ZZX   0.000000   0.000000   0.000000   0.000000   0.000000
  317  RN 1 ZZY   0.000000   0.000000   0.000000   0.000000   0.000000
  318  RN 1 XYZ   0.000000   0.000000   0.000000   0.000000   0.000000
  319  RN 1 XXX   0.000000   0.000000   0.000000   0.000000   0.000000
  320  RN 1 YYY   0.000000   0.000000   0.000000   0.000000   0.000000
  321  RN 1 ZZZ   0.000000   0.000000   0.000000   0.000000   0.000000
  322  RN 1 XXY   0.000000   0.000000   0.000000   0.000000   0.000000
  323  RN 1 XXZ   0.000000   0.000000   0.000000   0.000000   0.000000
  324  RN 1 YYX   0.000000   0.000000   0.000000   0.000000   0.000000
  325  RN 1 YYZ   0.000000   0.000000   0.000000   0.000000   0.000000
  326  RN 1 ZZX   0.000000   0.000000   0.000000   0.000000   0.000000
  327  RN 1 ZZY   0.000000   0.000000   0.000000   0.000000   0.000000
  328  RN 1 XYZ   0.000000   0.000000   0.000000   0.000000   0.000000

                      6          7          8          9         10
                 -166.8784  -138.4662  -138.4662  -138.4662  -109.6801
                     AG         B1U        B3U        B2U        AG  
    1  RN 1  S    0.000217  -0.000000  -0.000000   0.000000   0.000000
    2  RN 1  S    0.000342  -0.000000  -0.000000   0.000000   0.000000
    3  RN 1  S    0.000902  -0.000000  -0.000000   0.000000   0.000000
    4  RN 1  S    0.001787  -0.000000  -0.000000   0.000000   0.000000
    5  RN 1  S    0.003623  -0.000000  -0.000000   0.000000   0.000000
    6  RN 1  X   -0.000000  -0.000000  -0.000369   0.000000   0.000000
    7  RN 1  Y   -0.000000  -0.000000  -0.000000  -0.000369   0.000000
    8  RN 1  Z   -0.000000  -0.000369  -0.000000   0.000000   0.000000
    9  RN 1  S    0.006793  -0.000000  -0.000000   0.000000   0.000000
   10  RN 1  X   -0.000000  -0.000000  -0.000379   0.000000   0.000000
   11  RN 1  Y   -0.000000  -0.000000  -0.000000  -0.000379   0.000000
   12  RN 1  Z   -0.000000  -0.000379  -0.000000   0.000000   0.000000
   13  RN 1  S    0.012560  -0.000000  -0.000000   0.000000   0.000000
   14  RN 1  X   -0.000000  -0.000000  -0.001433   0.000000   0.000000
   15  RN 1  Y   -0.000000  -0.000000  -0.000000  -0.001433   0.000000
   16  RN 1  Z   -0.000000  -0.001433  -0.000000   0.000000   0.000000
   17  RN 1  S    0.022395  -0.000000  -0.000000   0.000000   0.000000
   18  RN 1  X   -0.000000  -0.000000  -0.002809   0.000000   0.000000
   19  RN 1  Y   -0.000000  -0.000000  -0.000000  -0.002809   0.000000
   20  RN 1  Z   -0.000000  -0.002809  -0.000000   0.000000   0.000000
   21  RN 1  S    0.038853  -0.000000  -0.000000   0.000000   0.000000
   22  RN 1  X   -0.000000  -0.000000  -0.007418   0.000000   0.000000
   23  RN 1  Y   -0.000000  -0.000000  -0.000000  -0.007418   0.000000
   24  RN 1  Z   -0.000000  -0.007418  -0.000000   0.000000   0.000000
   25  RN 1  S    0.062846  -0.000000  -0.000000   0.000000   0.000000
   26  RN 1  X   -0.000000  -0.000000  -0.017096   0.000000   0.000000
   27  RN 1  Y   -0.000000  -0.000000  -0.000000  -0.017096   0.000000
   28  RN 1  Z   -0.000000  -0.017096  -0.000000   0.000000   0.000000
   29  RN 1  S    0.085429  -0.000000  -0.000000   0.000000   0.000000
   30  RN 1  X   -0.000000  -0.000000  -0.041425   0.000000   0.000000
   31  RN 1  Y   -0.000000  -0.000000  -0.000000  -0.041425   0.000000
   32  RN 1  Z   -0.000000  -0.041425  -0.000000   0.000000   0.000000
   33  RN 1  S    0.066345  -0.000000  -0.000000   0.000000   0.000000
   34  RN 1  X   -0.000000  -0.000000  -0.089290   0.000000   0.000000
   35  RN 1  Y   -0.000000  -0.000000  -0.000000  -0.089290   0.000000
   36  RN 1  Z   -0.000000  -0.089290  -0.000000   0.000000   0.000000
   37  RN 1  S   -0.084366  -0.000000  -0.000000   0.000000   0.000000
   38  RN 1  X   -0.000000  -0.000000  -0.165754   0.000000   0.000000
   39  RN 1  Y   -0.000000  -0.000000  -0.000000  -0.165754   0.000000
   40  RN 1  Z   -0.000000  -0.165754  -0.000000   0.000000   0.000000
   41  RN 1  S   -0.403280  -0.000000  -0.000000   0.000000   0.000000
   42  RN 1  X   -0.000000  -0.000000  -0.205615   0.000000   0.000000
   43  RN 1  Y   -0.000000  -0.000000  -0.000000  -0.205615   0.000000
   44  RN 1  Z   -0.000000  -0.205615  -0.000000   0.000000   0.000000
   45  RN 1  S   -0.534948  -0.000000  -0.000000   0.000000   0.000000
   46  RN 1  X   -0.000000  -0.000000  -0.049204   0.000000   0.000000
   47  RN 1  Y   -0.000000  -0.000000  -0.000000  -0.049204   0.000000
   48  RN 1  Z   -0.000000  -0.049204  -0.000000   0.000000   0.000000
   49  RN 1  S    0.129559  -0.000000  -0.000000   0.000000   0.000000
   50  RN 1  X   -0.000000  -0.000000   0.357591   0.000000   0.000000
   51  RN 1  Y   -0.000000  -0.000000  -0.000000   0.357591   0.000000
   52  RN 1  Z   -0.000000   0.357591  -0.000000   0.000000   0.000000
   53  RN 1  S    0.822838  -0.000000  -0.000000   0.000000  -0.000000
   54  RN 1  X   -0.000000  -0.000000   0.527826   0.000000   0.000000
   55  RN 1  Y   -0.000000  -0.000000  -0.000000   0.527826   0.000000
   56  RN 1  Z   -0.000000   0.527826  -0.000000   0.000000   0.000000
   57  RN 1  S    0.375692  -0.000000  -0.000000   0.000000   0.000000
   58  RN 1  X   -0.000000  -0.000000   0.217431   0.000000   0.000000
   59  RN 1  Y   -0.000000  -0.000000  -0.000000   0.217431   0.000000
   60  RN 1  Z   -0.000000   0.217431  -0.000000   0.000000   0.000000
   61  RN 1  S    0.033972  -0.000000  -0.000000   0.000000  -0.000000
   62  RN 1  X   -0.000000  -0.000000   0.025250   0.000000   0.000000
   63  RN 1  Y   -0.000000  -0.000000  -0.000000   0.025250   0.000000
   64  RN 1  Z   -0.000000   0.025250  -0.000000   0.000000   0.000000
   65  RN 1  S    0.000324  -0.000000  -0.000000   0.000000   0.000000
   66  RN 1  X   -0.000000  -0.000000   0.000114   0.000000   0.000000
   67  RN 1  Y   -0.000000  -0.000000  -0.000000   0.000114   0.000000
   68  RN 1  Z   -0.000000   0.000114  -0.000000   0.000000   0.000000
   69  RN 1  S    0.001081  -0.000000  -0.000000   0.000000  -0.000000
   70  RN 1  X   -0.000000  -0.000000   0.000634   0.000000   0.000000
   71  RN 1  Y   -0.000000  -0.000000  -0.000000   0.000634   0.000000
   72  RN 1  Z   -0.000000   0.000634  -0.000000   0.000000   0.000000
   73  RN 1  S   -0.001180  -0.000000  -0.000000   0.000000   0.000000
   74  RN 1  X   -0.000000  -0.000000  -0.000621   0.000000   0.000000
   75  RN 1  Y   -0.000000  -0.000000  -0.000000  -0.000621   0.000000
   76  RN 1  Z   -0.000000  -0.000621  -0.000000   0.000000   0.000000
   77  RN 1  S    0.000817  -0.000000  -0.000000   0.000000  -0.000000
   78  RN 1  X   -0.000000  -0.000000   0.000393   0.000000   0.000000
   79  RN 1  Y   -0.000000  -0.000000  -0.000000   0.000393   0.000000
   80  RN 1  Z   -0.000000   0.000393  -0.000000   0.000000   0.000000
   81  RN 1  S   -0.000599  -0.000000  -0.000000   0.000000   0.000000
   82  RN 1  X   -0.000000  -0.000000  -0.000288   0.000000   0.000000
   83  RN 1  Y   -0.000000  -0.000000  -0.000000  -0.000288   0.000000
   84  RN 1  Z   -0.000000  -0.000288  -0.000000   0.000000   0.000000
   85  RN 1  S    0.000393  -0.000000  -0.000000   0.000000   0.000000
   86  RN 1  X   -0.000000  -0.000000   0.000187   0.000000   0.000000
   87  RN 1  Y   -0.000000  -0.000000  -0.000000   0.000187   0.000000
   88  RN 1  Z   -0.000000   0.000187  -0.000000   0.000000   0.000000
   89  RN 1  S   -0.000216  -0.000000  -0.000000   0.000000  -0.000000
   90  RN 1  X   -0.000000  -0.000000  -0.000107   0.000000   0.000000
   91  RN 1  Y   -0.000000  -0.000000  -0.000000  -0.000107   0.000000
   92  RN 1  Z   -0.000000  -0.000107  -0.000000   0.000000   0.000000
   93  RN 1  S    0.000092  -0.000000  -0.000000   0.000000   0.000000
   94  RN 1  X   -0.000000  -0.000000   0.000048   0.000000   0.000000
   95  RN 1  Y   -0.000000  -0.000000  -0.000000   0.000048   0.000000
   96  RN 1  Z   -0.000000   0.000048  -0.000000   0.000000   0.000000
   97  RN 1  S   -0.000021  -0.000000  -0.000000   0.000000   0.000000
   98  RN 1  X   -0.000000  -0.000000  -0.000012   0.000000   0.000000
   99  RN 1  Y   -0.000000  -0.000000  -0.000000  -0.000012   0.000000
  100  RN 1  Z   -0.000000  -0.000012  -0.000000   0.000000   0.000000
  101  RN 1 XX   -0.000000  -0.000000  -0.000000   0.000000   0.000117
  102  RN 1 YY   -0.000000  -0.000000  -0.000000   0.000000  -0.000041
  103  RN 1 ZZ   -0.000000  -0.000000  -0.000000   0.000000  -0.000076
  104  RN 1 XY   -0.000000  -0.000000  -0.000000   0.000000   0.000000
  105  RN 1 XZ   -0.000000  -0.000000  -0.000000   0.000000   0.000000
  106  RN 1 YZ   -0.000000  -0.000000  -0.000000   0.000000   0.000000
  107  RN 1 XX   -0.000000  -0.000000  -0.000000   0.000000   0.000243
  108  RN 1 YY   -0.000000  -0.000000  -0.000000   0.000000  -0.000085
  109  RN 1 ZZ   -0.000000  -0.000000  -0.000000   0.000000  -0.000158
  110  RN 1 XY   -0.000000  -0.000000  -0.000000   0.000000   0.000000
  111  RN 1 XZ   -0.000000  -0.000000  -0.000000   0.000000   0.000000
  112  RN 1 YZ   -0.000000  -0.000000  -0.000000   0.000000   0.000000
  113  RN 1 XX   -0.000000  -0.000000  -0.000000   0.000000   0.001103
  114  RN 1 YY   -0.000000  -0.000000  -0.000000   0.000000  -0.000384
  115  RN 1 ZZ   -0.000000  -0.000000  -0.000000   0.000000  -0.000719
  116  RN 1 XY   -0.000000  -0.000000  -0.000000   0.000000   0.000000
  117  RN 1 XZ   -0.000000  -0.000000  -0.000000   0.000000   0.000000
  118  RN 1 YZ   -0.000000  -0.000000  -0.000000   0.000000   0.000000
  119  RN 1 XX   -0.000000  -0.000000  -0.000000   0.000000   0.003702
  120  RN 1 YY   -0.000000  -0.000000  -0.000000   0.000000  -0.001288
  121  RN 1 ZZ   -0.000000  -0.000000  -0.000000   0.000000  -0.002414
  122  RN 1 XY   -0.000000  -0.000000  -0.000000   0.000000   0.000000
  123  RN 1 XZ   -0.000000  -0.000000  -0.000000   0.000000   0.000000
  124  RN 1 YZ   -0.000000  -0.000000  -0.000000   0.000000   0.000000
  125  RN 1 XX   -0.000000  -0.000000  -0.000000   0.000000   0.013077
  126  RN 1 YY   -0.000000  -0.000000  -0.000000   0.000000  -0.004551
  127  RN 1 ZZ   -0.000000  -0.000000  -0.000000   0.000000  -0.008527
  128  RN 1 XY   -0.000000  -0.000000  -0.000000   0.000000   0.000000
  129  RN 1 XZ   -0.000000  -0.000000  -0.000000   0.000000   0.000000
  130  RN 1 YZ   -0.000000  -0.000000  -0.000000   0.000000   0.000000
  131  RN 1 XX   -0.000000  -0.000000  -0.000000   0.000000   0.040642
  132  RN 1 YY   -0.000000  -0.000000  -0.000000   0.000000  -0.014143
  133  RN 1 ZZ   -0.000000  -0.000000  -0.000000   0.000000  -0.026499
  134  RN 1 XY   -0.000000  -0.000000  -0.000000   0.000000   0.000000
  135  RN 1 XZ   -0.000000  -0.000000  -0.000000   0.000000   0.000000
  136  RN 1 YZ   -0.000000  -0.000000  -0.000000   0.000000   0.000000
  137  RN 1 XX   -0.000000  -0.000000  -0.000000   0.000000   0.111192
  138  RN 1 YY   -0.000000  -0.000000  -0.000000   0.000000  -0.038693
  139  RN 1 ZZ   -0.000000  -0.000000  -0.000000   0.000000  -0.072499
  140  RN 1 XY   -0.000000  -0.000000  -0.000000   0.000000   0.000000
  141  RN 1 XZ   -0.000000  -0.000000  -0.000000   0.000000   0.000000
  142  RN 1 YZ   -0.000000  -0.000000  -0.000000   0.000000   0.000000
  143  RN 1 XX   -0.000000  -0.000000  -0.000000   0.000000   0.236640
  144  RN 1 YY   -0.000000  -0.000000  -0.000000   0.000000  -0.082347
  145  RN 1 ZZ   -0.000000  -0.000000  -0.000000   0.000000  -0.154294
  146  RN 1 XY   -0.000000  -0.000000  -0.000000   0.000000   0.000000
  147  RN 1 XZ   -0.000000  -0.000000  -0.000000   0.000000   0.000000
  148  RN 1 YZ   -0.000000  -0.000000  -0.000000   0.000000   0.000000
  149  RN 1 XX   -0.000000  -0.000000  -0.000000   0.000000   0.355392
  150  RN 1 YY   -0.000000  -0.000000  -0.000000   0.000000  -0.123670
  151  RN 1 ZZ   -0.000000  -0.000000  -0.000000   0.000000  -0.231721
  152  RN 1 XY   -0.000000  -0.000000  -0.000000   0.000000   0.000000
  153  RN 1 XZ   -0.000000  -0.000000  -0.000000   0.000000   0.000000
  154  RN 1 YZ   -0.000000  -0.000000  -0.000000   0.000000   0.000000
  155  RN 1 XX   -0.000000  -0.000000  -0.000000   0.000000   0.304373
  156  RN 1 YY   -0.000000  -0.000000  -0.000000   0.000000  -0.105917
  157  RN 1 ZZ   -0.000000  -0.000000  -0.000000   0.000000  -0.198456
  158  RN 1 XY   -0.000000  -0.000000  -0.000000   0.000000   0.000000
  159  RN 1 XZ   -0.000000  -0.000000  -0.000000   0.000000   0.000000
  160  RN 1 YZ   -0.000000  -0.000000  -0.000000   0.000000   0.000000
  161  RN 1 XX   -0.000000  -0.000000  -0.000000   0.000000   0.116258
  162  RN 1 YY   -0.000000  -0.000000  -0.000000   0.000000  -0.040456
  163  RN 1 ZZ   -0.000000  -0.000000  -0.000000   0.000000  -0.075802
  164  RN 1 XY   -0.000000  -0.000000  -0.000000   0.000000   0.000000
  165  RN 1 XZ   -0.000000  -0.000000  -0.000000   0.000000   0.000000
  166  RN 1 YZ   -0.000000  -0.000000  -0.000000   0.000000   0.000000
  167  RN 1 XX   -0.000000  -0.000000  -0.000000   0.000000   0.016506
  168  RN 1 YY   -0.000000  -0.000000  -0.000000   0.000000  -0.005744
  169  RN 1 ZZ   -0.000000  -0.000000  -0.000000   0.000000  -0.010762
  170  RN 1 XY   -0.000000  -0.000000  -0.000000   0.000000   0.000000
  171  RN 1 XZ   -0.000000  -0.000000  -0.000000   0.000000   0.000000
  172  RN 1 YZ   -0.000000  -0.000000  -0.000000   0.000000   0.000000
  173  RN 1 XX   -0.000000  -0.000000  -0.000000   0.000000   0.000457
  174  RN 1 YY   -0.000000  -0.000000  -0.000000   0.000000  -0.000159
  175  RN 1 ZZ   -0.000000  -0.000000  -0.000000   0.000000  -0.000298
  176  RN 1 XY   -0.000000  -0.000000  -0.000000   0.000000   0.000000
  177  RN 1 XZ   -0.000000  -0.000000  -0.000000   0.000000   0.000000
  178  RN 1 YZ   -0.000000  -0.000000  -0.000000   0.000000   0.000000
  179  RN 1 XX   -0.000000  -0.000000  -0.000000   0.000000   0.000355
  180  RN 1 YY   -0.000000  -0.000000  -0.000000   0.000000  -0.000124
  181  RN 1 ZZ   -0.000000  -0.000000  -0.000000   0.000000  -0.000232
[...]

                     36         37         38         39         40

                  2.000000   2.000000   2.000000   2.000000   2.000000

    1             2.000000   2.000000   2.000000   2.000000   2.000000

                     41         42         43

                  2.000000   2.000000   2.000000

    1             2.000000   2.000000   2.000000

               ----- POPULATIONS IN EACH AO -----
                             MULLIKEN      LOWDIN
              1  RN 1  S      0.00002     0.00002
              2  RN 1  S      0.00009     0.00011
              3  RN 1  S      0.00054     0.00057
              4  RN 1  S      0.00220     0.00252
              5  RN 1  S      0.00824     0.01014
              6  RN 1  X      0.00001     0.00001
              7  RN 1  Y      0.00001     0.00001
              8  RN 1  Z      0.00001     0.00001
              9  RN 1  S      0.02578     0.03741
             10  RN 1  X      0.00003     0.00004
             11  RN 1  Y      0.00003     0.00004
             12  RN 1  Z      0.00003     0.00004
             13  RN 1  S      0.07138     0.10707
             14  RN 1  X      0.00029     0.00030
             15  RN 1  Y      0.00029     0.00030
             16  RN 1  Z      0.00029     0.00030
             17  RN 1  S      0.16832     0.17332
             18  RN 1  X      0.00132     0.00199
             19  RN 1  Y      0.00132     0.00199
             20  RN 1  Z      0.00132     0.00199
             21  RN 1  S      0.33471     0.21208
             22  RN 1  X      0.00712     0.01206
             23  RN 1  Y      0.00712     0.01206
             24  RN 1  Z      0.00712     0.01206
             25  RN 1  S      0.51608     0.23379
             26  RN 1  X      0.02947     0.04875
             27  RN 1  Y      0.02947     0.04875
             28  RN 1  Z      0.02947     0.04875
             29  RN 1  S      0.53029     0.20242
             30  RN 1  X      0.11042     0.10596
             31  RN 1  Y      0.11042     0.10596
             32  RN 1  Z      0.11042     0.10596
             33  RN 1  S      0.26721     0.15536
             34  RN 1  X      0.31110     0.17748
             35  RN 1  Y      0.31110     0.17748
             36  RN 1  Z      0.31110     0.17748
             37  RN 1  S      0.27662     0.18167
             38  RN 1  X      0.61122     0.24268
             39  RN 1  Y      0.61122     0.24268
             40  RN 1  Z      0.61122     0.24268
             41  RN 1  S      0.92924     0.24094
             42  RN 1  X      0.64811     0.22193
             43  RN 1  Y      0.64811     0.22193
             44  RN 1  Z      0.64811     0.22193
             45  RN 1  S      0.71967     0.21441
             46  RN 1  X      0.35706     0.18142
             47  RN 1  Y      0.35706     0.18142
             48  RN 1  Z      0.35706     0.18142
             49  RN 1  S      0.37578     0.20416
             50  RN 1  X      0.73930     0.25162
             51  RN 1  Y      0.73930     0.25162
             52  RN 1  Z      0.73930     0.25162
             53  RN 1  S      1.32114     0.24710
             54  RN 1  X      0.96215     0.26626
             55  RN 1  Y      0.96215     0.26626
             56  RN 1  Z      0.96215     0.26626
             57  RN 1  S      0.42148     0.21069
             58  RN 1  X      0.43327     0.21431
             59  RN 1  Y      0.43327     0.21431
             60  RN 1  Z      0.43327     0.21431
             61  RN 1  S      1.04268     0.22848
             62  RN 1  X      1.06094     0.28046
             63  RN 1  Y      1.06094     0.28046
             64  RN 1  Z      1.06094     0.28046
             65  RN 1  S      0.87379     0.23273
             66  RN 1  X      0.66900     0.24749
             67  RN 1  Y      0.66900     0.24749
             68  RN 1  Z      0.66900     0.24749
             69  RN 1  S      0.41690     0.19814
             70  RN 1  X      0.52083     0.21512
             71  RN 1  Y      0.52083     0.21512
             72  RN 1  Z      0.52083     0.21512
             73  RN 1  S      1.25544     0.23501
             74  RN 1  X      1.05000     0.28266
             75  RN 1  Y      1.05000     0.28266
             76  RN 1  Z      1.05000     0.28266
             77  RN 1  S      0.37977     0.20590
             78  RN 1  X      0.44989     0.24747
             79  RN 1  Y      0.44989     0.24747
             80  RN 1  Z      0.44989     0.24747
             81  RN 1  S      0.37686     0.16965
             82  RN 1  X      0.29130     0.30488
             83  RN 1  Y      0.29130     0.30488
             84  RN 1  Z      0.29130     0.30488
             85  RN 1  S      0.89836     0.21108
             86  RN 1  X      0.67396     0.57678
             87  RN 1  Y      0.67396     0.57678
             88  RN 1  Z      0.67396     0.57678
             89  RN 1  S      0.65470     0.23632
             90  RN 1  X      0.70685     0.63049
             91  RN 1  Y      0.70685     0.63049
             92  RN 1  Z      0.70685     0.63049
             93  RN 1  S      0.12579     0.17962
             94  RN 1  X      0.31455     0.37588
             95  RN 1  Y      0.31455     0.37588
             96  RN 1  Z      0.31455     0.37588
             97  RN 1  S      0.00691     0.09066
             98  RN 1  X      0.05183     0.13555
             99  RN 1  Y      0.05183     0.13555
            100  RN 1  Z      0.05183     0.13555
            101  RN 1 XX      0.00000     0.08165
            102  RN 1 YY      0.00000     0.08165
            103  RN 1 ZZ      0.00000     0.08165
            104  RN 1 XY      0.00000     0.00000
            105  RN 1 XZ      0.00000     0.00000
            106  RN 1 YZ      0.00000     0.00000
            107  RN 1 XX      0.00001     0.09221
            108  RN 1 YY      0.00001     0.09221
            109  RN 1 ZZ      0.00001     0.09221
            110  RN 1 XY      0.00001     0.00001
            111  RN 1 XZ      0.00001     0.00001
            112  RN 1 YZ      0.00000     0.00001
            113  RN 1 XX      0.00011     0.07993
            114  RN 1 YY      0.00011     0.07993
            115  RN 1 ZZ      0.00011     0.07993
            116  RN 1 XY      0.00011     0.00016
            117  RN 1 XZ      0.00011     0.00016
            118  RN 1 YZ      0.00000     0.00016
            119  RN 1 XX      0.00092     0.05811
            120  RN 1 YY      0.00092     0.05811
            121  RN 1 ZZ      0.00092     0.05811
            122  RN 1 XY      0.00092     0.00153
            123  RN 1 XZ      0.00092     0.00153
            124  RN 1 YZ      0.00000     0.00153
            125  RN 1 XX      0.00718     0.10924
            126  RN 1 YY      0.00718     0.10924
            127  RN 1 ZZ      0.00718     0.10924
            128  RN 1 XY      0.00718     0.01121
            129  RN 1 XZ      0.00718     0.01121
            130  RN 1 YZ      0.00000     0.01121
            131  RN 1 XX      0.04205     0.20936
            132  RN 1 YY      0.04205     0.20936
            133  RN 1 ZZ      0.04205     0.20936
            134  RN 1 XY      0.04205     0.06061
            135  RN 1 XZ      0.04205     0.06061
            136  RN 1 YZ      0.00000     0.06061
            137  RN 1 XX      0.18249     0.27577
            138  RN 1 YY      0.18249     0.27577
            139  RN 1 ZZ      0.18249     0.27577
            140  RN 1 XY      0.18249     0.22612
            141  RN 1 XZ      0.18249     0.22612
            142  RN 1 YZ      0.00000     0.22612
            143  RN 1 XX      0.49939     0.47943
            144  RN 1 YY      0.49939     0.47943
            145  RN 1 ZZ      0.49939     0.47943
            146  RN 1 XY      0.49939     0.52937
            147  RN 1 XZ      0.49939     0.52937
            148  RN 1 YZ      0.00000     0.52937
            149  RN 1 XX      0.74940     0.68079
            150  RN 1 YY      0.74940     0.68079
            151  RN 1 ZZ      0.74940     0.68079
            152  RN 1 XY      0.74940     0.68657
            153  RN 1 XZ      0.74940     0.68657
            154  RN 1 YZ      0.00000     0.68657
            155  RN 1 XX      0.50411     0.47184
            156  RN 1 YY      0.50411     0.47184
            157  RN 1 ZZ      0.50411     0.47184
            158  RN 1 XY      0.50411     0.49183
            159  RN 1 XZ      0.50411     0.49183
            160  RN 1 YZ     -0.00000     0.49183
            161  RN 1 XX      0.50688     0.54763
            162  RN 1 YY      0.50688     0.54763
            163  RN 1 ZZ      0.50688     0.54763
            164  RN 1 XY      0.50688     0.53479
            165  RN 1 XZ      0.50688     0.53479
            166  RN 1 YZ     -0.00000     0.53479
            167  RN 1 XX      0.90443     0.75273
            168  RN 1 YY      0.90443     0.75273
            169  RN 1 ZZ      0.90443     0.75273
            170  RN 1 XY      0.90443     0.80534
            171  RN 1 XZ      0.90443     0.80534
            172  RN 1 YZ      0.00000     0.80534
            173  RN 1 XX      0.55515     0.50872
            174  RN 1 YY      0.55515     0.50872
            175  RN 1 ZZ      0.55515     0.50872
            176  RN 1 XY      0.55515     0.57139
            177  RN 1 XZ      0.55515     0.57139
            178  RN 1 YZ      0.00000     0.57139
            179  RN 1 XX      0.39455     0.50899
            180  RN 1 YY      0.39455     0.50899
            181  RN 1 ZZ      0.39455     0.50899
            182  RN 1 XY      0.39455     0.43285
            183  RN 1 XZ      0.39455     0.43285
            184  RN 1 YZ     -0.00000     0.43285
            185  RN 1 XX      0.76678     0.60713
            186  RN 1 YY      0.76678     0.60713
            187  RN 1 ZZ      0.76678     0.60713
            188  RN 1 XY      0.76678     0.68311
            189  RN 1 XZ      0.76678     0.68311
            190  RN 1 YZ      0.00000     0.68311
            191  RN 1 XX      0.64718     0.50678
            192  RN 1 YY      0.64718     0.50678
            193  RN 1 ZZ      0.64718     0.50678
            194  RN 1 XY      0.64718     0.61471
            195  RN 1 XZ      0.64718     0.61471
            196  RN 1 YZ      0.00000     0.61471
            197  RN 1 XX      0.20077     0.35256
            198  RN 1 YY      0.20077     0.35256
            199  RN 1 ZZ      0.20077     0.35256
            200  RN 1 XY      0.20077     0.27711
            201  RN 1 XZ      0.20077     0.27711
            202  RN 1 YZ      0.00000     0.27711
            203  RN 1 XX      0.03864     0.20335
            204  RN 1 YY      0.03864     0.20335
            205  RN 1 ZZ      0.03864     0.20335
            206  RN 1 XY      0.03864     0.07327
            207  RN 1 XZ      0.03864     0.07327
            208  RN 1 YZ      0.00000     0.07327
            209  RN 1 XXX     0.00000     0.12146
            210  RN 1 YYY     0.00000     0.12146
            211  RN 1 ZZZ     0.00000     0.12146
            212  RN 1 XXY     0.00000     0.05187
            213  RN 1 XXZ     0.00000     0.05187
            214  RN 1 YYX     0.00000     0.05187
            215  RN 1 YYZ     0.00000     0.05187
            216  RN 1 ZZX     0.00000     0.05187
            217  RN 1 ZZY     0.00000     0.05187
            218  RN 1 XYZ     0.00000     0.00000
            219  RN 1 XXX     0.00001     0.19070
            220  RN 1 YYY     0.00001     0.19070
            221  RN 1 ZZZ     0.00001     0.19070
            222  RN 1 XXY     0.00001     0.07882
            223  RN 1 XXZ     0.00001     0.07882
            224  RN 1 YYX     0.00001     0.07882
            225  RN 1 YYZ     0.00001     0.07882
            226  RN 1 ZZX     0.00000     0.07882
            227  RN 1 ZZY     0.00000     0.07882
            228  RN 1 XYZ     0.00000     0.00002
            229  RN 1 XXX     0.00013     0.19423
            230  RN 1 YYY     0.00013     0.19423
            231  RN 1 ZZZ     0.00013     0.19423
            232  RN 1 XXY     0.00013     0.08008
            233  RN 1 XXZ     0.00013     0.08008
            234  RN 1 YYX     0.00013     0.08008
            235  RN 1 YYZ     0.00013     0.08008
            236  RN 1 ZZX     0.00000     0.08008
            237  RN 1 ZZY     0.00000     0.08008
            238  RN 1 XYZ     0.00000     0.00022
            239  RN 1 XXX     0.00143     0.13986
            240  RN 1 YYY     0.00143     0.13986
            241  RN 1 ZZZ     0.00143     0.13986
            242  RN 1 XXY     0.00143     0.05933
            243  RN 1 XXZ     0.00143     0.05933
            244  RN 1 YYX     0.00143     0.05933
            245  RN 1 YYZ     0.00143     0.05933
            246  RN 1 ZZX     0.00000     0.05933
            247  RN 1 ZZY     0.00000     0.05933
            248  RN 1 XYZ     0.00000     0.00223
            249  RN 1 XXX     0.01170     0.24120
            250  RN 1 YYY     0.01170     0.24120
            251  RN 1 ZZZ     0.01170     0.24120
            252  RN 1 XXY     0.01170     0.10932
            253  RN 1 XXZ     0.01170     0.10932
            254  RN 1 YYX     0.01170     0.10932
            255  RN 1 YYZ     0.01170     0.10932
            256  RN 1 ZZX     0.00000     0.10932
            257  RN 1 ZZY     0.00000     0.10932
            258  RN 1 XYZ     0.00000     0.01587
            259  RN 1 XXX     0.06428     0.33288
            260  RN 1 YYY     0.06428     0.33288
            261  RN 1 ZZZ     0.06428     0.33288
            262  RN 1 XXY     0.06428     0.18687
            263  RN 1 XXZ     0.06428     0.18687
            264  RN 1 YYX     0.06428     0.18687
            265  RN 1 YYZ     0.06428     0.18687
            266  RN 1 ZZX     0.00000     0.18687
            267  RN 1 ZZY     0.00000     0.18687
            268  RN 1 XYZ     0.00000     0.07746
            269  RN 1 XXX     0.23439     0.28192
            270  RN 1 YYY     0.23439     0.28192
            271  RN 1 ZZZ     0.23439     0.28192
            272  RN 1 XXY     0.23439     0.27697
            273  RN 1 XXZ     0.23439     0.27697
            274  RN 1 YYX     0.23439     0.27697
            275  RN 1 YYZ     0.23439     0.27697
            276  RN 1 ZZX     0.00000     0.27697
            277  RN 1 ZZY     0.00000     0.27697
            278  RN 1 XYZ     0.00000     0.24662
            279  RN 1 XXX     0.50221     0.49319
            280  RN 1 YYY     0.50221     0.49319
            281  RN 1 ZZZ     0.50221     0.49319
            282  RN 1 XXY     0.50221     0.51787
            283  RN 1 XXZ     0.50221     0.51787
            284  RN 1 YYX     0.50221     0.51787
            285  RN 1 YYZ     0.50221     0.51787
            286  RN 1 ZZX     0.00000     0.51787
            287  RN 1 ZZY     0.00000     0.51787
            288  RN 1 XYZ     0.00000     0.48793
            289  RN 1 XXX     0.61563     0.51766
            290  RN 1 YYY     0.61563     0.51766
            291  RN 1 ZZZ     0.61563     0.51766
            292  RN 1 XXY     0.61563     0.58702
            293  RN 1 XXZ     0.61563     0.58702
            294  RN 1 YYX     0.61563     0.58702
            295  RN 1 YYZ     0.61563     0.58702
            296  RN 1 ZZX     0.00000     0.58702
            297  RN 1 ZZY     0.00000     0.58702
            298  RN 1 XYZ     0.00000     0.58021
            299  RN 1 XXX     0.41749     0.33707
            300  RN 1 YYY     0.41749     0.33707
            301  RN 1 ZZZ     0.41749     0.33707
            302  RN 1 XXY     0.41749     0.39807
            303  RN 1 XXZ     0.41749     0.39807
            304  RN 1 YYX     0.41749     0.39807
            305  RN 1 YYZ     0.41749     0.39807
            306  RN 1 ZZX     0.00000     0.39807
            307  RN 1 ZZY     0.00000     0.39807
            308  RN 1 XYZ     0.00000     0.39994
            309  RN 1 XXX     0.13078     0.38353
            310  RN 1 YYY     0.13078     0.38353
            311  RN 1 ZZZ     0.13078     0.38353
            312  RN 1 XXY     0.13078     0.25735
            313  RN 1 XXZ     0.13078     0.25735
            314  RN 1 YYX     0.13078     0.25735
            315  RN 1 YYZ     0.13078     0.25735
            316  RN 1 ZZX     0.00000     0.25735
            317  RN 1 ZZY     0.00000     0.25735
            318  RN 1 XYZ     0.00000     0.15469
            319  RN 1 XXX     0.02196     0.26976
            320  RN 1 YYY     0.02196     0.26976
            321  RN 1 ZZZ     0.02196     0.26976
            322  RN 1 XXY     0.02196     0.13389
            323  RN 1 XXZ     0.02196     0.13389
            324  RN 1 YYX     0.02196     0.13389
            325  RN 1 YYZ     0.02196     0.13389
            326  RN 1 ZZX     0.00000     0.13389
            327  RN 1 ZZY     0.00000     0.13389
            328  RN 1 XYZ     0.00000     0.03480

          ----- MULLIKEN ATOMIC OVERLAP POPULATIONS -----
          (OFF-DIAGONAL ELEMENTS NEED TO BE MULTIPLIED BY 2)

             1

    1   86.0000000

          TOTAL MULLIKEN AND LOWDIN ATOMIC POPULATIONS
       ATOM         MULL.POP.    CHARGE          LOW.POP.     CHARGE
    1 RN           86.000000    0.000000        86.000000   -0.000000

          MULLIKEN SPHERICAL HARMONIC POPULATIONS
       ATOM           S       P       D      F      G      H      I    TOTAL
    1 RN           12.00   30.00   30.00  14.00   0.00   0.00   0.00   86.00

          -------------------------------
          BOND ORDER AND VALENCE ANALYSIS     BOND ORDER THRESHOLD=0.050
          -------------------------------

                   BOND                       BOND                       BOND
  ATOM PAIR DIST  ORDER      ATOM PAIR DIST  ORDER      ATOM PAIR DIST  ORDER

                       TOTAL       BONDED        FREE
      ATOM            VALENCE     VALENCE     VALENCE
    1 RN               -0.000       0.000      -0.000

          ---------------------
          ELECTROSTATIC MOMENTS
          ---------------------

 POINT   1           X           Y           Z (BOHR)    CHARGE
                 0.000000    0.000000    0.000000       -0.00 (A.U.)
         DX          DY          DZ         /D/  (DEBYE)
     0.000000    0.000000    0.000000    0.000000

          ----------------
          ELECTRON DENSITY
          ----------------
  POINT      X         Y         Z             DENSITY
                     (BOHR)                    (A.U.)
     1     0.00000   0.00000   0.00000  19057087.252002

          -----------------------
          ELECTROSTATIC POTENTIAL
          -----------------------

  THE CONTRIBUTION FROM EACH NUCLEUS AT ITS OWN POSITION IS NEGLECTED

   POINT      X          Y          Z           ELECTRONIC      NUCLEAR         TOTAL
                       (BOHR)                                    (A.U.)
      1    0.00000    0.00000    0.00000      -734.674117       0.000000    -734.674117
 ...... END OF PROPERTY EVALUATION ......
 STEP CPU TIME =     0.35 TOTAL CPU TIME =      168.4 (    2.8 MIN)
 TOTAL WALL CLOCK TIME=      169.0 SECONDS, CPU UTILIZATION IS  99.66%
              1889938  WORDS OF DYNAMIC MEMORY USED
 EXECUTION OF GAMESS TERMINATED NORMALLY Wed Aug  9 21:21:30 2017
 DDI: 263640 bytes (0.3 MB / 0 MWords) used by master data server.

 ----------------------------------------
 CPU timing information for all processes
 ========================================
 0: 168.410 + 0.52 = 168.463
 ----------------------------------------
 ddikick.x: exited gracefully.
unset echo
----- accounting info -----
Files used on the master node compute-1-0.local were:
-rw-rw-r-- 1 sarom sarom 3.0K Aug  9 21:18 /scratch/rn-iotc.F05
-rw-rw-r-- 1 sarom sarom  15M Aug  9 21:21 /scratch/rn-iotc.F10
rm: cannot remove `/scratch/tmp': Is a directory
ls: No match.
ls: No match.
ls: No match.
Wed Aug  9 21:21:33 CDT 2017
0.252u 0.154s 2:52.54 0.2%	0+0k 0+360io 0pf+0w
/opt/gridengine/default/spool/compute-1-0/active_jobs/36055.1/pe_hostfile compute-1-0.local
