-catch_rsh /opt/gridengine/default/spool/compute-0-8/active_jobs/23885.1/pe_hostfile
compute-0-8
The primary node assigned by SGE to this run is compute-0-8
Warning: no access to tty (Bad file descriptor).
Thus no job control in this shell.
Deleting shmid=2785280.
Deleting shmid=2818049.
source /home/sarom/gamess.github.2017-05-31.14.06/install.info
setenv GMS_PATH /home/sarom/gamess.github.2017-05-31.14.06
setenv GMS_BUILD_DIR /home/sarom/gamess.github.2017-05-31.14.06
setenv GMS_TARGET linux64
setenv GMS_FORTRAN gfortran
setenv GMS_GFORTRAN_VERNO 4.4
setenv GMS_MATHLIB mkl-so
setenv GMS_MATHLIB_PATH /share/apps/intel/compilers_and_libraries_2017.1.132/linux/mkl/lib/intel64
setenv GMS_MKL_VERNO 12
setenv GMS_DDI_COMM sockets
setenv GMS_LIBCCHEM false
setenv GMS_EIGEN_PATH
setenv GMS_PHI false
setenv GMS_SHMTYPE sysv
setenv GMS_OPENMP false
unset echo
mc-hess-h2co-s0
tests/mcscf/freq
----- GAMESS execution script 'rungms' -----
This job is running on host compute-0-8.local
under operating system Linux at Fri Jun 2 03:46:57 CDT 2017
Available scratch disk space (Kbyte units) at beginning of the job is
Filesystem           1K-blocks      Used Available Use% Mounted on
/dev/sda1             16126920   3867344  11440376  26% /
GAMESS temporary binary files will be written to /scratch
GAMESS supplementary output files will be written to /home/sarom/restart
Copying input file mc-hess-h2co-s0.inp to your run's scratch directory...
cp tests/mcscf/freq/mc-hess-h2co-s0.inp /scratch/mc-hess-h2co-s0.F05
unset echo
The generated host list is
compute-0-8.local
/home/sarom/gamess.github.2017-05-31.14.06/ddikick.x /home/sarom/gamess.github.2017-05-31.14.06/gamess.00.x mc-hess-h2co-s0 -ddi 1 1 compute-0-8.local -scr /scratch

 Distributed Data Interface kickoff program.
 Initiating 1 compute processes on 1 nodes to run the following command:
 /home/sarom/gamess.github.2017-05-31.14.06/gamess.00.x mc-hess-h2co-s0 

          ******************************************************
          *         GAMESS VERSION = 20 APR 2017 (R1)          *
          *             FROM IOWA STATE UNIVERSITY             *
          * M.W.SCHMIDT, K.K.BALDRIDGE, J.A.BOATZ, S.T.ELBERT, *
          *   M.S.GORDON, J.H.JENSEN, S.KOSEKI, N.MATSUNAGA,   *
          *          K.A.NGUYEN, S.J.SU, T.L.WINDUS,           *
          *       TOGETHER WITH M.DUPUIS, J.A.MONTGOMERY       *
          *         J.COMPUT.CHEM.  14, 1347-1363(1993)        *
          **************** 64 BIT LINUX VERSION ****************

  SINCE 1993, STUDENTS AND POSTDOCS WORKING AT IOWA STATE UNIVERSITY
  AND ALSO IN THEIR VARIOUS JOBS AFTER LEAVING ISU HAVE MADE IMPORTANT
  CONTRIBUTIONS TO THE CODE:
     IVANA ADAMOVIC, CHRISTINE AIKENS, YURI ALEXEEV, POOJA ARORA,
     ANDREY ASADCHEV, ROB BELL, PRADIPTA BANDYOPADHYAY, JONATHAN BENTZ,
     BRETT BODE, KURT BRORSEN, CALEB CARLIN, GALINA CHABAN, WEI CHEN,
     CHEOL HO CHOI, PAUL DAY, ALBERT DEFUSCO, NUWAN DESILVA, TIM DUDLEY,
     DMITRI FEDOROV, GRAHAM FLETCHER, MARK FREITAG, KURT GLAESEMANN,
     DAN KEMP, GRANT MERRILL, NORIYUKI MINEZAWA, JONATHAN MULLIN,
     TAKESHI NAGATA, SEAN NEDD, HEATHER NETZLOFF, BOSILJKA NJEGIC, RYAN OLSON,
     MIKE PAK, SPENCER PRUITT, LUKE ROSKOP, JIM SHOEMAKER, LYUDMILA SLIPCHENKO,
     TONY SMITH, SAROM SOK LEANG, JIE SONG, TETSUYA TAKETSUGU, SIMON WEBB,
     PENG XU, SOOHAENG YOO, FEDERICO ZAHARIEV

  ADDITIONAL CODE HAS BEEN PROVIDED BY COLLABORATORS IN OTHER GROUPS:
     IOWA STATE UNIVERSITY:
          JOE IVANIC, AARON WEST, LAIMUTIS BYTAUTAS, KLAUS RUEDENBERG
     UNIVERSITY OF TOKYO: KIMIHIKO HIRAO, TAKAHITO NAKAJIMA,
          TAKAO TSUNEDA, MUNEAKI KAMIYA, SUSUMU YANAGISAWA,
          KIYOSHI YAGI, MAHITO CHIBA, SEIKEN TOKURA, NAOAKI KAWAKAMI
     UNIVERSITY OF AARHUS: FRANK JENSEN
     UNIVERSITY OF IOWA: VISVALDAS KAIRYS, HUI LI
     NATIONAL INST. OF STANDARDS AND TECHNOLOGY: WALT STEVENS, DAVID GARMER
     UNIVERSITY OF PISA: BENEDETTA MENNUCCI, JACOPO TOMASI
     UNIVERSITY OF MEMPHIS: HENRY KURTZ, PRAKASHAN KORAMBATH
     UNIVERSITY OF ALBERTA: TOBY ZENG, MARIUSZ KLOBUKOWSKI
     UNIVERSITY OF NEW ENGLAND: MARK SPACKMAN
     MIE UNIVERSITY: HIROAKI UMEDA
     NAT. INST. OF ADVANCED INDUSTRIAL SCIENCE AND TECHNOLOGY: KAZUO KITAURA
     MICHIGAN STATE UNIVERSITY:
          KAROL KOWALSKI, MARTA WLOCH, JEFFREY GOUR, JESSE LUTZ,
          WEI LI, PIOTR PIECUCH
     UNIVERSITY OF SILESIA: MONIKA MUSIAL, STANISLAW KUCHARSKI
     FACULTES UNIVERSITAIRES NOTRE-DAME DE LA PAIX:
          OLIVIER QUINET, BENOIT CHAMPAGNE
     UNIVERSITY OF CALIFORNIA - SANTA BARBARA: BERNARD KIRTMAN
     INSTITUTE FOR MOLECULAR SCIENCE:
          KAZUYA ISHIMURA, MICHIO KATOUDA, AND SHIGERU NAGASE
     UNIVERSITY OF NOTRE DAME: ANNA POMOGAEVA, DAN CHIPMAN
     KYUSHU UNIVERSITY:
          HARUYUKI NAKANO,
          FENG LONG GU, JACEK KORCHOWIEC, MARCIN MAKOWSKI, AND YURIKO AOKI,
          HIROTOSHI MORI AND EISAKU MIYOSHI
     PENNSYLVANIA STATE UNIVERSITY:
          TZVETELIN IORDANOV, CHET SWALINA, JONATHAN SKONE,
          SHARON HAMMES-SCHIFFER
     WASEDA UNIVERSITY:
          MASATO KOBAYASHI, TOMOKO AKAMA, TSUGUKI TOUMA,
          TAKESHI YOSHIKAWA, YASUHIRO IKABATA, JUNJI SEINO,
          YUYA NAKAJIMA, HIROMI NAKAI
     NANJING UNIVERSITY: SHUHUA LI
     UNIVERSITY OF NEBRASKA:
          PEIFENG SU, DEJUN SI, NANDUN THELLAMUREGE, YALI WANG, HUI LI
     UNIVERSITY OF ZURICH: ROBERTO PEVERATI, KIM BALDRIDGE
     N. COPERNICUS UNIVERSITY AND JACKSON STATE UNIVERSITY:
          MARIA BARYSZ
     UNIVERSITY OF COPENHAGEN: Jimmy Kromann, CASPER STEINMANN
     TOKYO INSTITUTE OF TECHNOLOGY: HIROYA NAKATA
     NAGOYA UNIVERSITY: YOSHIO NISHIMOTO, STEPHAN IRLE
     MOSCOW STATE UNIVERSITY: VLADIMIR MIRONOV

 EXECUTION OF GAMESS BEGUN Fri Jun  2 03:46:57 2017

            ECHO OF THE FIRST FEW INPUT CARDS -
 INPUT CARD>!  H2CO...G.S. wfn... the ansatz is CISD with optimal orbitals, using ORMAS     
 INPUT CARD>!  test case is probably from Aaron, as part of the ORMAS response bug fixing.  
 INPUT CARD>!  231 A1 symmetry determinants, there are only 24 AOs.                         
 INPUT CARD>!                                                                               
 INPUT CARD>!  This calculation divides the valence orbitals of formaldehyde into           
 INPUT CARD>!  two groups:                                                                  
 INPUT CARD>!       1.  6 doubly occupied valence orbitals from HF calculation              
 INPUT CARD>!       2.  4 empty valence orbitals                                            
 INPUT CARD>!  The ORMAS calculation allows 1 and 2 electron excitations from               
 INPUT CARD>!  group 1 into group 2.  This calculation is essentially the same as           
 INPUT CARD>!  that reported in Mark Hoffmann's paper on MCSCF 2nd derivatives:             
 INPUT CARD>!                 JCP, Vol. 80, 2660-2668 (1984)                                
 INPUT CARD>!                                                                               
 INPUT CARD>!  FINAL E= -113.9642480999, 2 iters (lit says -113.9462, probably a typo),     
 INPUT CARD>!             50 CP-MCHF iters                                                  
 INPUT CARD>!        lit= 1194.2,  1280.2,  1553.0,  1713.3,  2958.2,  3025.5               
 INPUT CARD>!       FREQ= 1194.26, 1280.28, 1553.13, 1713.54, 2958.28, 3025.56              
 INPUT CARD>!  IR intens= 0.18402, 0.20674, 0.43050, 1.24052, 1.97988, 3.62309              
 INPUT CARD>!        residuals are no bigger than 8 cm-1                                    
 INPUT CARD>!                                                                               
 INPUT CARD>!  this run takes 11 seconds on a 2.66 GHz GHz Cloverton (27 Apr 2015)          
 INPUT CARD>!  results have not changed since 2014.                                         
 INPUT CARD>!                                                                               
 INPUT CARD> $CONTRL SCFTYP=MCSCF RUNTYP=HESSIAN $END                                       
 INPUT CARD> $SYSTEM MWORDS=5 MEMDDI=5 PARALL=.TRUE. $END                                   
 INPUT CARD> $trans  dirtrf=.true. $end                                                     
 INPUT CARD> $GUESS  GUESS=MOREAD NORB=24 $END                                              
 INPUT CARD> $MCSCF  CISTEP=ORMAS FULLNR=.TRUE. $END                                        
 INPUT CARD> $DET    GROUP=C2V NCORE=2 NACT=10 NELS=12  $END                                
 INPUT CARD> $ORMAS  NSPACE=2 MSTART(1)=3,9 MINE(1)=10,0  MAXE(1)=12,2 $END                 
 INPUT CARD> $DATA                                                                          
 INPUT CARD>Formaldehyde MCSCF calculation...old Dunning DZ contraction of Huzinaga?        
 INPUT CARD>Cnv 2                                                                           
 INPUT CARD>                                                                                
 INPUT CARD>OXYGEN      8.0   0.0000000000   0.0000000000   1.1532183247                    
 INPUT CARD> S   6                                                                          
 INPUT CARD>  1        7816.540000         0.2031000000E-02                                 
 INPUT CARD>  2        1175.820000         0.1543600000E-01                                 
 INPUT CARD>  3        273.1880000         0.7377100000E-01                                 
 INPUT CARD>  4        81.16960000         0.2476060000                                     
 INPUT CARD>  5        27.18360000         0.6118320000                                     
 INPUT CARD>  6        3.413600000         0.2412050000                                     
 INPUT CARD> S   1                                                                          
 INPUT CARD>  1        9.532200000          1.000000000                                     
 INPUT CARD> S   1                                                                          
 INPUT CARD>  1       0.9398000000          1.000000000                                     
 INPUT CARD> S   1                                                                          
 INPUT CARD>  1       0.2846000000          1.000000000                                     
 INPUT CARD> P   4                                                                          
 INPUT CARD>  1        35.18320000         0.1958000000E-01                                 
    5000000 WORDS OF MEMORY AVAILABLE


     RUN TITLE
     ---------
 Formaldehyde MCSCF calculation...old Dunning DZ contraction of Huzinaga?        

 THE POINT GROUP OF THE MOLECULE IS CNV     
 THE ORDER OF THE PRINCIPAL AXIS IS     2
 *** WARNING! ATOM   3 SHELL   13 TYPE S HAS NORMALIZATION   1.00000234

 ATOM      ATOMIC                      COORDINATES (BOHR)
           CHARGE         X                   Y                   Z
 OXYGEN      8.0     0.0000000000        0.0000000000        2.1792666377
 CARBON      6.0     0.0000000000        0.0000000000       -0.1731027914
 HYDROGEN    1.0    -0.0000000000       -1.7733862456       -1.2865408210
 HYDROGEN    1.0     0.0000000000        1.7733862456       -1.2865408210

          INTERNUCLEAR DISTANCES (ANGS.)
          ------------------------------

                1 OXYG       2 CARB       3 HYDR       4 HYDR  

   1 OXYG    0.0000000    1.2448204 *  2.0601734 *  2.0601734 *
   2 CARB    1.2448204 *  0.0000000    1.1080728 *  1.1080728 *
   3 HYDR    2.0601734 *  1.1080728 *  0.0000000    1.8768713 *
   4 HYDR    2.0601734 *  1.1080728 *  1.8768713 *  0.0000000  

  * ... LESS THAN  3.000


     ATOMIC BASIS SET
     ----------------
 THE CONTRACTED PRIMITIVE FUNCTIONS HAVE BEEN UNNORMALIZED
 THE CONTRACTED BASIS FUNCTIONS ARE NOW NORMALIZED TO UNITY

  SHELL TYPE  PRIMITIVE        EXPONENT          CONTRACTION COEFFICIENT(S)

 OXYGEN    

      1   S       1          7816.5400000    0.002030998165
      1   S       2          1175.8200000    0.015435986053
      1   S       3           273.1880000    0.073770933345
      1   S       4            81.1696000    0.247605776277
      1   S       5            27.1836000    0.611831447183
      1   S       6             3.4136000    0.241204782061

      2   S       7             9.5322000    1.000000000000

      3   S       8             0.9398000    1.000000000000

      4   S       9             0.2846000    1.000000000000

      5   P      10            35.1832000    0.019579982520
      5   P      11             7.9040000    0.124188889130
      5   P      12             2.3051000    0.394726647606
      5   P      13             0.7171000    0.627374439909

      6   P      14             0.2137000    1.000000000000

 CARBON    

      7   S      15          4232.6100000    0.002029000503
      7   S      16           634.8820000    0.015535003853
      7   S      17           146.0970000    0.075411018704
      7   S      18            42.4974000    0.257121063774
      7   S      19            14.1892000    0.596555147963
      7   S      20             1.9666000    0.242517060151

      8   S      21             5.1477000    1.000000000000

      9   S      22             0.4962000    1.000000000000

     10   S      23             0.1533000    1.000000000000

     11   P      24            18.1557000    0.018534002568
     11   P      25             3.9864000    0.115442015996
     11   P      26             1.1429000    0.386206053514
     11   P      27             0.3594000    0.640089088693

     12   P      28             0.1146000    1.000000000000

 HYDROGEN  

     15   S      29            19.2406000    0.032828076968
     15   S      30             2.8992000    0.231208542086
     15   S      31             0.6534000    0.817239916083

     16   S      32             0.1776000    1.000000000000

 TOTAL NUMBER OF BASIS SET SHELLS             =   16
 NUMBER OF CARTESIAN GAUSSIAN BASIS FUNCTIONS =   24
 NUMBER OF ELECTRONS                          =   16
 CHARGE OF MOLECULE                           =    0
 SPIN MULTIPLICITY                            =    1
 NUMBER OF OCCUPIED ORBITALS (ALPHA)          =    8
 NUMBER OF OCCUPIED ORBITALS (BETA )          =    8
 TOTAL NUMBER OF ATOMS                        =    4
 THE NUCLEAR REPULSION ENERGY IS       30.5274584390

     $CONTRL OPTIONS
     ---------------
 SCFTYP=MCSCF        RUNTYP=HESSIAN      EXETYP=RUN     
 MPLEVL=       0     CITYP =NONE         CCTYP =NONE         VBTYP =NONE    
 DFTTYP=NONE         TDDFT =NONE    
 MULT  =       1     ICHARG=       0     NZVAR =       0     COORD =UNIQUE  
 PP    =NONE         RELWFN=NONE         LOCAL =NONE         NUMGRD=       F
 ISPHER=      -1     NOSYM =       0     MAXIT =      30     UNITS =ANGS    
 PLTORB=       F     MOLPLT=       F     AIMPAC=       F     FRIEND=        
 NPRINT=       7     IREST =       0     GEOM  =INPUT   
 NORMF =       0     NORMP =       0     ITOL  =      20     ICUT  =       9
 INTTYP=BEST         GRDTYP=BEST         QMTTOL= 1.0E-06

     $SYSTEM OPTIONS
     ---------------
  REPLICATED MEMORY=     5000000 WORDS (ON EVERY NODE).
 DISTRIBUTED MEMDDI=           5 MILLION WORDS IN AGGREGATE,
 MEMDDI DISTRIBUTED OVER   1 PROCESSORS IS     5000000 WORDS/PROCESSOR.
 TOTAL MEMORY REQUESTED ON EACH PROCESSOR=    10000000 WORDS.
 TIMLIM=      525600.00 MINUTES, OR     365.0 DAYS.
 PARALL= T  BALTYP=  DLB     KDIAG=    0  COREFL= F
 MXSEQ2=     300 MXSEQ3=     150  mem10=         0

          ----------------
          PROPERTIES INPUT
          ----------------

     MOMENTS            FIELD           POTENTIAL          DENSITY
 IEMOM =       1   IEFLD =       0   IEPOT =       0   IEDEN =       0
 WHERE =COMASS     WHERE =NUCLEI     WHERE =NUCLEI     WHERE =NUCLEI  
 OUTPUT=BOTH       OUTPUT=BOTH       OUTPUT=BOTH       OUTPUT=BOTH    
 IEMINT=       0   IEFINT=       0                     IEDINT=       0
                                                       MORB  =       0

     -------------------------------
     INTEGRAL TRANSFORMATION OPTIONS
     -------------------------------
     NWORD  =            0
     CUTOFF = 1.0E-09     MPTRAN =       0
     DIRTRF =       T     AOINTS =DUP     

          ----------------------
          MCSCF INPUT PARAMETERS
          ----------------------
 CONVERGER SELECTION: FOCAS = F  SOSCF = F  FULLNR = T  QUD = F  JACOBI = F
 SECULAR EQUATION METHOD CISTEP = ORMAS   
 --- GENERAL INPUT OPTIONS:
 MAXIT =      30  MICIT =       1  ACURCY= 1.000E-05
 DAMP  =   0.000  CANONC=       T  ENGTOL= 1.000E-10
 EKT   =       F  NPUNCH=       2  NWORD =         0
 REGENERATE CI AFTER CONVERGENCE = NONE    
 DIABATIZATION AFTER CONVERGENCE =        F
 --- INPUT FOR FULLNR CONVERGER:
 METHOD=DM2       FORS  =       F  DROPC =       T
 LINSER=       F  FCORE =       F  NORB  =      24

          ----------------------
          INTEGRAL INPUT OPTIONS
          ----------------------
 NOPK  =       1 NORDER=       0 SCHWRZ=       T

     ------------------------------------------
     THE POINT GROUP IS CNV, NAXIS= 2, ORDER= 4
     ------------------------------------------

     DIMENSIONS OF THE SYMMETRY SUBSPACES ARE
 A1  =   14     A2  =    0     B1  =    4     B2  =    6

 ..... DONE SETTING UP THE RUN .....
 CPU     0: STEP CPU TIME=     0.02 TOTAL CPU TIME=        0.0 (    0.0 MIN)
 TOTAL WALL CLOCK TIME=        0.0 SECONDS, CPU UTILIZATION IS  66.67%

     ---------------------------------
     HESSIAN MATRIX CONTROL PARAMETERS
     ---------------------------------
     METHOD=ANALYTIC   NVIB  =       2   VIBSIZ= 0.01000
     RDHESS=       F   PURIFY=       F   PRTIFC=       F
     VIBANL=       T   DECOMP=       F   PROJCT=       F
     SCLFAC= 1.00000   PRTSCN=       F   NPRT  =       0
     PULCOR=       F   NPUN  =       0   REDOVB=       T
     HSSTYP=GENERAL 
     THERMOCHEMISTRY WILL BE PRINTED FOR    1 TEMPERATURES:
      298.15000
 Old integral subroutine is used

     ------------------------------
     CPHF RESPONSE SOLUTION OPTIONS
     ------------------------------
     POLAR  =       F     NWORD  =       0
     CPHF   =MO      

          ********************
          1 ELECTRON INTEGRALS
          ********************
 TIME TO DO   DIPOLE INTEGRALS=      0.00
 ...... END OF ONE-ELECTRON INTEGRALS ......
 CPU     0: STEP CPU TIME=     0.00 TOTAL CPU TIME=        0.0 (    0.0 MIN)
 TOTAL WALL CLOCK TIME=        0.0 SECONDS, CPU UTILIZATION IS  66.67%

          -------------
          GUESS OPTIONS
          -------------
          GUESS =MOREAD            NORB  =      24          NORDER=       0
          MIX   =       F          PRTMO =       F          PUNMO =       F
          TOLZ  = 1.0E-08          TOLE  = 1.0E-05
          SYMDEN=       F          PURIFY=       F

 INITIAL GUESS ORBITALS GENERATED BY MOREAD   ROUTINE.

 SYMMETRIES FOR INITIAL GUESS ORBITALS FOLLOW.   BOTH SET(S).
     8 ORBITALS ARE OCCUPIED (    2 CORE ORBITALS).
     1=A1       2=A1       3=A1       4=A1       5=B2       6=A1       7=B1  
     8=B2       9=B1      10=A1      11=B2      12=A1      13=A1      14=B2  
    15=B1      16=A1      17=A1      18=B1      19=A1      20=B2      21=B2  
    22=A1      23=A1      24=A1  
 ...... END OF INITIAL ORBITAL SELECTION ......
 CPU     0: STEP CPU TIME=     0.00 TOTAL CPU TIME=        0.0 (    0.0 MIN)
 TOTAL WALL CLOCK TIME=        0.0 SECONDS, CPU UTILIZATION IS  66.67%

                    ----------------------
                    AO INTEGRAL TECHNOLOGY
                    ----------------------
     S,P,L SHELL ROTATED AXIS INTEGRALS, REPROGRAMMED BY
        KAZUYA ISHIMURA (IMS) AND JOSE SIERRA (SYNSTAR).
     S,P,D,L SHELL ROTATED AXIS INTEGRALS PROGRAMMED BY
        KAZUYA ISHIMURA (INSTITUTE FOR MOLECULAR SCIENCE).
     S,P,D,F,G SHELL TO TOTAL QUARTET ANGULAR MOMENTUM SUM 5,
        ERIC PROGRAM BY GRAHAM FLETCHER (ELORET AND NASA ADVANCED
        SUPERCOMPUTING DIVISION, AMES RESEARCH CENTER).
     S,P,D,F,G,L SHELL GENERAL RYS QUADRATURE PROGRAMMED BY
        MICHEL DUPUIS (PACIFIC NORTHWEST NATIONAL LABORATORY).

          --------------------
          2 ELECTRON INTEGRALS
          --------------------

 DIRECT SCF METHOD SKIPS INTEGRAL STORAGE ON DISK.
 DIRECT TRANSFORMATION SKIPS AO INTEGRAL STORAGE ON DISK.
  ...... END OF TWO-ELECTRON INTEGRALS .....
 STEP CPU TIME =     0.02 TOTAL CPU TIME =        0.0 (    0.0 MIN)
 TOTAL WALL CLOCK TIME=        0.1 SECONDS, CPU UTILIZATION IS  80.00%
 DDI: Creating Array [0] - 576 x 78 = 44928 words.
 DDI: Creating Array [1] - 12 x 936 = 11232 words.
 DDI: Creating Array [2] - 78 x 78 = 6084 words.
 DDI: Creating Array [3] - 300 x 78 = 23400 words.

          -----------------
          MCSCF CALCULATION
          -----------------

 ----- NUCLEAR ENERGY ----- =        30.5274584390

     ------------------------------------------------------------
       DIRECT DETERMINANT ORMAS-CI INPUT SORTER
       PROGRAM WRITTEN BY JOE IVANIC AND MIKE SCHMIDT
       ORMAS = OCCUPATION RESTRICTED MULTIPLE ACTIVE SPACE
     ------------------------------------------------------------

 THE POINT GROUP                  =   C2V     
 THE STATE SYMMETRY               =   A1      
 NUMBER OF CORE ORBITALS          =    2
 NUMBER OF ACTIVE ORBITALS        =   10
 NUMBER OF ALPHA ELECTRONS        =    8 (   6 ACTIVE)
 NUMBER OF BETA ELECTRONS         =    8 (   6 ACTIVE)
 NUMBER OF OCCUPIED ORBITALS      =   12

 NUMBER OF CI STATES REQUESTED    =    1
 NUMBER OF CI STARTING VECTORS    =    1
 MAX. NO. OF CI EXPANSION VECTORS =   10
 SIZE OF INITIAL CI GUESS MATRIX  =  300

 MAX. NO. OF CI ITERS/STATE       =  100
 CI DIAGONALIZATION CRITERION     = 1.00E-06
 PURE SPIN STATE AVERAGED 1E- AND 2E- DENSITY MATRIX OPTION=.T.
 STATE=   1 DM2 WEIGHT=   1.00000

 CORRELATION ENERGY ANALYSIS      =    F

 FULLY DIRECT OPTION              =    F

 CALC. OF DAVIDSON Q CORRECTION   =    F

 BLOCK SPACE MIXING IN NO DIAG    =    F

 SYMMETRIES FOR THE   2 CORE,  10 ACTIVE ARE

     CORE= A1    A1  

   ACTIVE= A1    A1    B2    A1    B1    B2    B1    A1    B2    A1  


 THE NUMBER OF SPACES             =   2
 EACH SPACE STARTS AT ORBITAL     =   3   9
 NO OF ORBITALS IN EACH SPACE     =   6   4
 MIN NO OF ELECS IN EACH SPACE    =  10   0
 MAX NO OF ELECS IN EACH SPACE    =  12   2

 SPACE SPECIFICATIONS HAVE PASSED PRELIMINARY CHECKS

 ALL VALID DETERMINANTS WILL BE EXPRESSED AS PAIRS OF ALPHA AND BETA STRINGS.

 MIN NO OF ALPHA ELECS =    4   0
 MAX NO OF ALPHA ELECS =    6   2

 MIN NO OF BETA  ELECS =    4   0
 MAX NO OF BETA  ELECS =    6   2

 EVALUATING EXCHANGE INTEGRALS FOR DIRECT INTEGRAL TRANSFORMATION
 SCHWARZ INEQUALITY OVERHEAD:       300 INTEGRALS, T=        0.00

     --------------------------------------------
     PARTIAL TWO ELECTRON INTEGRAL TRANSFORMATION
     --------------------------------------------

 NUMBER OF CORE MOLECULAR ORBITALS     =    2
 NUMBER OF OCCUPIED MOLECULAR ORBITALS =   12
 TOTAL NUMBER OF MOLECULAR ORBITALS    =   24
 TOTAL NUMBER OF ATOMIC ORBITALS       =   24
 THRESHOLD FOR KEEPING TRANSFORMED 2E- INTEGRALS = 1.000E-09

 -------------------------------     ------------------------------
 DISTRIBUTED DATA TRANSFORMATION     PROGRAM WRITTEN BY G. FLETCHER
 -------------------------------     ------------------------------

 THE DISTRIBUTED MEMORY REQUIRED FOR THIS STEP IS MEMDDI=         1 MWORDS
 CREATING DISTRIBUTED STORAGE FOR [VIR OCC|VIR OCC] INTEGRALS
 CREATING DISTRIBUTED STORAGE FOR [VIR OCC|OCC OCC] INTEGRALS
 CREATING DISTRIBUTED STORAGE FOR [OCC OCC|OCC OCC] INTEGRALS
 CREATING DISTRIBUTED STORAGE FOR [VIR VIR|OCC OCC] INTEGRALS
 FOR    1 PROCESSORS, THE REPLICATED MEMORY NEEDED IS       62374 WORDS.
 SCHWARZ INEQUALITY OVERHEAD:       300 INTEGRALS, T=        0.00

      DIRECT 4-INDEX TRANSFORMATION 
      SCHWARZ INEQUALITY TEST SKIPPED         51 INTEGRAL BLOCKS
 ----- FROZEN CORE ENERGY =      -104.5526952010
 ... END OF INTEGRAL TRANSFORMATION ...
 CPU     0: STEP CPU TIME=     0.04 TOTAL CPU TIME=        0.1 (    0.0 MIN)
 TOTAL WALL CLOCK TIME=        0.1 SECONDS, CPU UTILIZATION IS 100.00%

     --------------------------------------------------
                 DIRECT DETERMINANT ORMAS-CI 
                PROGRAM WRITTEN BY JOE IVANIC
     --------------------------------------------------

 STORAGE OF BINOMIAL COEFFICIENTS REQUIRES          64 WORDS

 TOTAL NUMBER OF ALPHA GROUPS  =            3
 TOTAL NUMBER OF BETA  GROUPS  =            3

 TOTAL NUMBER OF ALPHA STRINGS =          115
 TOTAL NUMBER OF BETA  STRINGS =          115

 STORAGE OF TABLES REQUIRES                       947 WORDS

 TOTAL NUMBER OF ALPHA-BETA GROUP COMBINATIONS =            9
 OF THESE THE ALLOWED NUMBER OF COMBINATIONS   =            6

 TOTAL NUMBER OF (B -> B`) WHERE  (B` > B)  =         1020

 TIME FOR SETTING UP TABLE SET 1 :          0.0

 THE NUMBER OF DETERMINANTS HAVING SPACE SYMMETRY A1 
 IN POINT GROUP C2V  WITH SZ=  0.0 IS            231

 INTEGRAL STORAGE REQUIRES                   31651 WORDS
 EXTRA ORMAS STORAGE REQUIRES               194391 WORDS
 (EXTRA ORMAS STORAGE INCLUDES THAT FOR MXXPAN = 10)
 TOTAL ORMAS CALCULATION REQUIRES           227053 WORDS

 FULLY DIRECT WOULD REQUIRE                 222369 WORDS
 SMALL CI MATRIX, JUST USING INCORE DIAGONALIZATION...

 INITIAL ORMAS VECTOR GUESS TIME :          0.0

 CI EIGENVECTORS WILL BE LABELED IN GROUP=C2V     
 PRINTING CI COEFFICIENTS LARGER THAN  0.050000

 STATE   1  ENERGY=      -113.9642480999  S=  0.00  SZ=  0.00  SPACE SYM=A1  

         ALPHA           |          BETA           | CI COEFFICIENT
 1                 2     | 1                 2     |
-------------------------|-------------------------|---------------
  1  2  3  4  5  6       |  1  2  3  4  5  6       |   0.9628530620
  1  2  3  4  6     7    |  1  2  3  4  6     7    |  -0.1568941910

 ..... DONE WITH ORMAS-CI COMPUTATION .....
 CPU     0: STEP CPU TIME=     0.03 TOTAL CPU TIME=        0.1 (    0.0 MIN)
 TOTAL WALL CLOCK TIME=        0.1 SECONDS, CPU UTILIZATION IS 100.00%

     -------------------------------------------------------
      ONE AND TWO PARTICLE ORMAS DENSITY MATRIX COMPUTATION
                  PROGRAM WRITTEN BY JOE IVANIC
     -------------------------------------------------------

 THE DENSITIES ARE STATE AVERAGED OVER   1 ROOT(S)
 STATE=   1   ENERGY=     -113.9642480999   WEIGHT= 1.00000   S=  0.00
 SIEVING THE A1   SYMMETRY NONZERO DENSITY ELEMENTS IN GROUP C2V     
        496 NONZERO DM2 ELEMENTS WRITTEN IN       1 RECORDS TO FILE 70 LABELED AS DEN2P1 
        496 NONZERO DM2 ELEMENTS WRITTEN IN       1 RECORDS TO FILE 71 LABELED AS DEN2P2 
        496 NONZERO DM2 ELEMENTS WRITTEN IN       1 RECORDS TO FILE 72 LABELED AS DEN2P3 
        496 NONZERO DM2 ELEMENTS WRITTEN IN       1 RECORDS TO FILE 73 LABELED AS DEN2P4 
        496 NONZERO DM2 ELEMENTS WRITTEN IN       1 RECORDS TO FILE 15
 ..... DONE WITH 1 AND 2 PARTICLE DENSITY MATRIX .....
 CPU     0: STEP CPU TIME=     0.00 TOTAL CPU TIME=        0.1 (    0.0 MIN)
 TOTAL WALL CLOCK TIME=        0.1 SECONDS, CPU UTILIZATION IS  91.67%

     --------------------------------     -----------------------------
     MCHF NEWTON-RAPHSON OPTIMIZATION     CODE WRITTEN BY MICHEL DUPUIS
     --------------------------------     -----------------------------
     PARALLEL VERSION WRITTEN BY G. FLETCHER (ELORET)
     NASA ADVANCED SUPERCOMPUTING DIVISION, AMES RESEARCH CENTER

 NUMBER OF INDEPENDENT ORBITAL ROTATION PARAMETERS =    67
 ..... DONE SOLVING NEWTON-RAPHSON EQUATIONS .....
 CPU     0: STEP CPU TIME=     0.01 TOTAL CPU TIME=        0.1 (    0.0 MIN)
 TOTAL WALL CLOCK TIME=        0.1 SECONDS, CPU UTILIZATION IS  92.31%
 ..... DONE WITH NTN-RPH ORBITAL ROTATIONS ..... 
 CPU     0: STEP CPU TIME=     0.00 TOTAL CPU TIME=        0.1 (    0.0 MIN)
 TOTAL WALL CLOCK TIME=        0.1 SECONDS, CPU UTILIZATION IS  92.31%
 MAXIMUM MEMORY USED BY NTN-RPH CODE WAS     47484 WORDS.

 ITER     TOTAL ENERGY      DEL(E)  LAGRANGIAN ASYMMETRY   SQCDF  MICIT   DAMP
   1     -113.964248100 -0.964248100  0.000004   10    4 7.953E-12  1   0.0000
   2     -113.964248100  0.000000000  0.000004   10    4 7.953E-12  1   0.0000

          --------------------
          LAGRANGIAN CONVERGED
          --------------------

 FINAL MCSCF ENERGY IS     -113.9642480999 AFTER   2 ITERATIONS

 -MCCI- BASED ON OPTIMIZED ORBITALS
 ----------------------------------

 PLEASE NOTE: ORMAS IS NOT INVARIANT TO ORBITAL ROTATIONS BETWEEN THE
 DIFFERENT ACTIVE SPACES.  THE CI EXPANSION JUST BELOW IS FOR THE
 OPTIMIZED ORBITALS USED IN THE LAST ITERATION.  THE NATURAL ORBITALS
 ARE GENERATED BELOW, BUT THE NO'S ROTATE BETWEEN THE ACTIVE SPACES,
 SO THE NATURAL ORBITALS DO NOT REPRODUCE THE ORMAS WAVEFUNCTION.

 CI EIGENVECTORS WILL BE LABELED IN GROUP=C2V     
 PRINTING CI COEFFICIENTS LARGER THAN  0.050000

 STATE   1  ENERGY=      -113.9642480999  S=  0.00  SZ=  0.00  SPACE SYM=A1  

         ALPHA           |          BETA           | CI COEFFICIENT
 1                 2     | 1                 2     |
-------------------------|-------------------------|---------------
  1  2  3  4  5  6       |  1  2  3  4  5  6       |   0.9628530620
  1  2  3  4  6     7    |  1  2  3  4  6     7    |  -0.1568941910

 DENSITY MATRIX OVER ACTIVE MO-S

             1           2           3           4           5

    1    1.9917595
    2   -0.0024893   1.9872146
    3    0.0000000   0.0000000   1.9873952
    4    0.0086921  -0.0024375   0.0000000   1.9815836
    5    0.0000000   0.0000000   0.0000000   0.0000000   1.9315143
    6    0.0000000   0.0000000   0.0002604   0.0000000   0.0000000
    7    0.0000000   0.0000000   0.0000000   0.0000000  -0.0187843
    8   -0.0050960   0.0182899   0.0000000  -0.0191502   0.0000000
    9    0.0000000   0.0000000   0.0472635   0.0000000   0.0000000
   10   -0.0014466   0.0131881   0.0000000   0.0045587   0.0000000

             6           7           8           9          10

    6    1.9814410
    7    0.0000000   0.0711969
    8    0.0000000   0.0000000   0.0242707
    9    0.0800412   0.0000000   0.0000000   0.0259580
   10    0.0000000   0.0000000   0.0026025   0.0000000   0.0176662

 FORMING THE "STANDARD FOCK OPERATOR" IN DIRECT AO INTEGRAL MODE...
     2 FILLED,   10 ACTIVE, AND   12 VIRTUAL ORBITALS  WILL BE CANONICALIZED

          ----------------------
          MCSCF NATURAL ORBITALS
          ----------------------

                      1          2          3          4          5
                  -20.5615   -11.3277     1.9980     1.9895     1.9864
                     A1         A1         A1         B2         A1  
    1  O  1  S    0.586308   0.000692  -0.114938   0.000000   0.009572
    2  O  1  S    0.468951   0.000856  -0.174161   0.000000   0.014190
    3  O  1  S   -0.023662  -0.002167   0.558692   0.000000  -0.045648
    4  O  1  S   -0.019714  -0.003206   0.514359   0.000000  -0.102263
    5  O  1  X   -0.000000   0.000000  -0.000000   0.000000   0.000000
    6  O  1  Y   -0.000000   0.000000  -0.000000   0.621612   0.000000
    7  O  1  Z   -0.010481  -0.002926   0.171476   0.000000  -0.147264
    8  O  1  X   -0.000000   0.000000  -0.000000   0.000000   0.000000
    9  O  1  Y   -0.000000   0.000000  -0.000000   0.259726   0.000000
   10  O  1  Z   -0.004255  -0.000415   0.099914   0.000000  -0.034252
   11  C  2  S    0.000062   0.601704  -0.012059   0.000000  -0.113178
   12  C  2  S    0.000194   0.438664  -0.016464   0.000000  -0.156703
   13  C  2  S    0.000024   0.001531   0.028013   0.000000   0.468995
   14  C  2  S   -0.000564  -0.002340   0.012228   0.000000   0.289654
   15  C  2  X   -0.000000   0.000000  -0.000000   0.000000   0.000000
   16  C  2  Y   -0.000000   0.000000  -0.000000   0.360140   0.000000
   17  C  2  Z    0.000552   0.004390   0.007634   0.000000  -0.168297
   18  C  2  X   -0.000000   0.000000  -0.000000   0.000000   0.000000
   19  C  2  Y   -0.000000   0.000000  -0.000000   0.096693   0.000000
   20  C  2  Z   -0.000310   0.000090  -0.005213   0.000000  -0.046964
   21  H  3  S   -0.000391  -0.001285   0.011761  -0.073423   0.185592
   22  H  3  S   -0.000744  -0.001000   0.014403   0.033672   0.071188
   23  H  4  S   -0.000391  -0.001285   0.011761   0.073423   0.185592
   24  H  4  S   -0.000744  -0.001000   0.014403  -0.033672   0.071188

                      6          7          8          9         10
                    1.9837     1.9766     1.9317     0.0710     0.0248
                     B2         A1         B1         B1         A1  
    1  O  1  S   -0.000000   0.024960  -0.000000   0.000000   0.055438
    2  O  1  S   -0.000000   0.034037  -0.000000   0.000000   0.080820
    3  O  1  S   -0.000000  -0.097868  -0.000000   0.000000  -0.344259
    4  O  1  S   -0.000000   0.081178  -0.000000   0.000000  -0.316671
    5  O  1  X   -0.000000   0.000000   0.563879   0.733286   0.000000
    6  O  1  Y   -0.408451   0.000000  -0.000000   0.000000   0.000000
    7  O  1  Z   -0.000000   0.573010  -0.000000   0.000000   0.825767
    8  O  1  X   -0.000000   0.000000   0.246104   0.001355   0.000000
    9  O  1  Y   -0.250585   0.000000  -0.000000   0.000000   0.000000
   10  O  1  Z   -0.000000   0.142228  -0.000000   0.000000  -0.001475
   11  C  2  S   -0.000000   0.037895  -0.000000   0.000000  -0.121803
   12  C  2  S   -0.000000   0.050042  -0.000000   0.000000  -0.177330
   13  C  2  S   -0.000000  -0.166406  -0.000000   0.000000   0.854221
   14  C  2  S   -0.000000   0.010425  -0.000000   0.000000   0.283805
   15  C  2  X   -0.000000   0.000000   0.443842  -0.718855   0.000000
   16  C  2  Y    0.411962   0.000000  -0.000000   0.000000   0.000000
   17  C  2  Z   -0.000000  -0.501940  -0.000000   0.000000   0.627529
   18  C  2  X   -0.000000   0.000000   0.129103  -0.131861   0.000000
   19  C  2  Y    0.011390   0.000000  -0.000000   0.000000   0.000000
   20  C  2  Z   -0.000000   0.025038  -0.000000   0.000000  -0.010890
   21  H  3  S   -0.245750   0.079594  -0.000000   0.000000  -0.197611
   22  H  3  S   -0.293461   0.087246  -0.000000   0.000000  -0.172332
   23  H  4  S    0.245750   0.079594  -0.000000   0.000000  -0.197611
   24  H  4  S    0.293461   0.087246  -0.000000   0.000000  -0.172332

                     11         12
                    0.0216     0.0167
                     B2         A1  
    1  O  1  S   -0.000000   0.022928
    2  O  1  S   -0.000000   0.032224
    3  O  1  S   -0.000000  -0.155243
    4  O  1  S   -0.000000  -0.194710
    5  O  1  X   -0.000000  -0.000000
    6  O  1  Y   -0.563359  -0.000000
    7  O  1  Z   -0.000000   0.288901
    8  O  1  X   -0.000000  -0.000000
    9  O  1  Y    0.320007  -0.000000
   10  O  1  Z   -0.000000   0.066562
   11  C  2  S   -0.000000   0.076207
   12  C  2  S   -0.000000   0.104268
   13  C  2  S   -0.000000  -0.546174
   14  C  2  S   -0.000000  -0.059741
   15  C  2  X   -0.000000  -0.000000
   16  C  2  Y    0.880273  -0.000000
   17  C  2  Z   -0.000000   0.971651
   18  C  2  X   -0.000000  -0.000000
   19  C  2  Y    0.221568  -0.000000
   20  C  2  Z   -0.000000  -0.043219
   21  H  3  S    0.394954   0.495447
   22  H  3  S    0.536105   0.274923
   23  H  4  S   -0.394954   0.495447
   24  H  4  S   -0.536105   0.274923

          ------------------------
          MCSCF OPTIMIZED ORBITALS
          ------------------------

                      1          2          3          4          5
                  -20.5615   -11.3277    -1.4280    -0.8677    -0.6853
                     A1         A1         A1         A1         B2  
    1  O  1  S    0.586308   0.000692  -0.105408   0.045278  -0.000000
    2  O  1  S    0.468951   0.000856  -0.158121   0.068292  -0.000000
    3  O  1  S   -0.023662  -0.002167   0.501806  -0.218229  -0.000000
    4  O  1  S   -0.019714  -0.003206   0.367527  -0.256043  -0.000000
    5  O  1  X   -0.000000   0.000000   0.000000  -0.000000  -0.000000
    6  O  1  Y   -0.000000   0.000000   0.000000  -0.000000   0.417866
    7  O  1  Z   -0.010481  -0.002926  -0.152496  -0.195500  -0.000000
    8  O  1  X   -0.000000   0.000000   0.000000  -0.000000  -0.000000
    9  O  1  Y   -0.000000   0.000000   0.000000  -0.000000   0.128779
   10  O  1  Z   -0.004255  -0.000415   0.010577  -0.062186  -0.000000
   11  C  2  S    0.000062   0.601704  -0.060309  -0.101403  -0.000000
   12  C  2  S    0.000194   0.438664  -0.082244  -0.140408  -0.000000
   13  C  2  S    0.000024   0.001531   0.236704   0.422383  -0.000000
   14  C  2  S   -0.000564  -0.002340   0.090216   0.267480  -0.000000
   15  C  2  X   -0.000000   0.000000   0.000000  -0.000000  -0.000000
   16  C  2  Y   -0.000000   0.000000   0.000000  -0.000000   0.473949
   17  C  2  Z    0.000552   0.004390   0.186075  -0.172657  -0.000000
   18  C  2  X   -0.000000   0.000000   0.000000  -0.000000  -0.000000
   19  C  2  Y   -0.000000   0.000000   0.000000  -0.000000   0.087623
   20  C  2  Z   -0.000310   0.000090  -0.029276  -0.042565  -0.000000
   21  H  3  S   -0.000391  -0.001285   0.027164   0.176932  -0.175891
   22  H  3  S   -0.000744  -0.001000  -0.007044   0.066786  -0.100602
   23  H  4  S   -0.000391  -0.001285   0.027164   0.176932   0.175891
   24  H  4  S   -0.000744  -0.001000  -0.007044   0.066786   0.100602

                      6          7          8          9         10
                   -0.6454    -0.5130    -0.4432     0.2173     0.8419
                     A1         B1         B2         B1         A1  
    1  O  1  S   -0.025342  -0.000000  -0.000000   0.000000   0.058978
    2  O  1  S   -0.041858  -0.000000  -0.000000   0.000000   0.085335
    3  O  1  S    0.143440  -0.000000  -0.000000   0.000000  -0.372931
    4  O  1  S    0.276751  -0.000000  -0.000000   0.000000  -0.375723
    5  O  1  X    0.000000   0.571253  -0.000000   0.727555   0.000000
    6  O  1  Y    0.000000  -0.000000   0.646296   0.000000   0.000000
    7  O  1  Z    0.573800  -0.000000  -0.000000   0.000000   0.827420
    8  O  1  X    0.000000   0.246105  -0.000000  -0.001129   0.000000
    9  O  1  Y    0.000000  -0.000000   0.320657   0.000000   0.000000
   10  O  1  Z    0.165818  -0.000000  -0.000000   0.000000   0.036753
   11  C  2  S    0.013200  -0.000000  -0.000000   0.000000  -0.052325
   12  C  2  S    0.016138  -0.000000  -0.000000   0.000000  -0.080123
   13  C  2  S   -0.071184  -0.000000  -0.000000   0.000000   0.358106
   14  C  2  S    0.054664  -0.000000  -0.000000   0.000000   0.192263
   15  C  2  X    0.000000   0.436562  -0.000000  -0.723300   0.000000
   16  C  2  Y    0.000000  -0.000000  -0.267761   0.000000   0.000000
   17  C  2  Z   -0.457010  -0.000000  -0.000000   0.000000   1.087869
   18  C  2  X    0.000000   0.127766  -0.000000  -0.133157   0.000000
   19  C  2  Y    0.000000  -0.000000   0.019469   0.000000   0.000000
   20  C  2  Z    0.013581  -0.000000  -0.000000   0.000000  -0.035027
   21  H  3  S    0.101971  -0.000000   0.179302   0.000000   0.139858
   22  H  3  S    0.093765  -0.000000   0.260272   0.000000   0.026971
   23  H  4  S    0.101971  -0.000000  -0.179302   0.000000   0.139858
   24  H  4  S    0.093765  -0.000000  -0.260272   0.000000   0.026971

                     11         12         13         14         15
                    0.6388     0.5863     0.3309     0.3863     0.4302
                     B2         A1         A1         B2         B1  
    1  O  1  S    0.000000   0.015580   0.023430   0.000000   0.000000
    2  O  1  S    0.000000   0.023702   0.027851   0.000000   0.000000
    3  O  1  S    0.000000  -0.085600   0.034889   0.000000   0.000000
    4  O  1  S    0.000000  -0.037576  -1.100363   0.000000   0.000000
    5  O  1  X    0.000000  -0.000000   0.000000   0.000000  -0.017368
    6  O  1  Y   -0.527539  -0.000000   0.000000  -0.119192   0.000000
    7  O  1  Z    0.000000   0.263515  -0.120314   0.000000   0.000000
    8  O  1  X    0.000000  -0.000000   0.000000   0.000000  -0.335331
    9  O  1  Y    0.336526  -0.000000   0.000000  -0.516421   0.000000
   10  O  1  Z    0.000000  -0.054699   0.158481   0.000000   0.000000
   11  C  2  S    0.000000  -0.134917   0.007424   0.000000   0.000000
   12  C  2  S    0.000000  -0.191025   0.011161   0.000000   0.000000
   13  C  2  S    0.000000   0.953252  -0.070673   0.000000   0.000000
   14  C  2  S    0.000000   0.220532  -0.172452   0.000000   0.000000
   15  C  2  X    0.000000  -0.000000   0.000000   0.000000  -0.779823
   16  C  2  Y    0.882026  -0.000000   0.000000  -0.513960   0.000000
   17  C  2  Z    0.000000  -0.401839  -0.279445   0.000000   0.000000
   18  C  2  X    0.000000  -0.000000   0.000000   0.000000   1.306379
   19  C  2  Y    0.224755  -0.000000   0.000000   2.544848   0.000000
   20  C  2  Z    0.000000   0.027676   1.892163   0.000000   0.000000
   21  H  3  S    0.398354  -0.513259   0.025349   0.076637   0.000000
   22  H  3  S    0.544793  -0.322705   0.675555   1.229885   0.000000
   23  H  4  S   -0.398354  -0.513259   0.025349  -0.076637   0.000000
   24  H  4  S   -0.544793  -0.322705   0.675555  -1.229885   0.000000

                     16         17         18         19         20
                    0.6514     0.8408     0.8773     0.9532     0.9898
                     A1         A1         B1         A1         B2  
    1  O  1  S    0.029478   0.026914  -0.000000  -0.017231   0.000000
    2  O  1  S    0.041141   0.036413  -0.000000  -0.028569   0.000000
    3  O  1  S   -0.099002  -0.064921  -0.000000   0.179630   0.000000
    4  O  1  S   -0.868521  -0.427117  -0.000000  -0.344854   0.000000
    5  O  1  X   -0.000000   0.000000  -0.731538   0.000000   0.000000
    6  O  1  Y   -0.000000   0.000000  -0.000000   0.000000   0.729781
    7  O  1  Z   -0.193461  -0.486398  -0.000000   0.091398   0.000000
    8  O  1  X   -0.000000   0.000000   1.374249   0.000000   0.000000
    9  O  1  Y   -0.000000   0.000000  -0.000000   0.000000  -1.764173
   10  O  1  Z    0.910512   1.503235  -0.000000   0.016351   0.000000
   11  C  2  S    0.074720  -0.061745  -0.000000   0.025048   0.000000
   12  C  2  S    0.137854  -0.113834  -0.000000   0.042476   0.000000
   13  C  2  S   -1.290423   1.039743  -0.000000  -0.435369   0.000000
   14  C  2  S    4.037189   0.056276  -0.000000   2.446938   0.000000
   15  C  2  X   -0.000000   0.000000  -0.303063   0.000000   0.000000
   16  C  2  Y   -0.000000   0.000000  -0.000000   0.000000   0.439633
   17  C  2  Z    0.312098   0.465074  -0.000000   0.025397   0.000000
   18  C  2  X   -0.000000   0.000000  -0.460259   0.000000   0.000000
   19  C  2  Y   -0.000000   0.000000  -0.000000   0.000000   2.328523
   20  C  2  Z   -0.576661  -0.087242  -0.000000  -0.578764   0.000000
   21  H  3  S   -0.199077   0.165093  -0.000000   0.801149  -0.082747
   22  H  3  S   -1.220949  -0.091080  -0.000000  -1.911155   1.822701
   23  H  4  S   -0.199077   0.165093  -0.000000   0.801149   0.082747
   24  H  4  S   -1.220949  -0.091080  -0.000000  -1.911155  -1.822701

                     21         22         23         24
                    1.2421     1.8045    23.7700    43.3539
                     B2         A1         A1         A1  
    1  O  1  S    0.000000   0.140915  -0.007454  -1.731372
    2  O  1  S    0.000000   0.249909   0.002028   1.880517
    3  O  1  S    0.000000  -2.057583   0.006491  -0.418397
    4  O  1  S    0.000000   3.401159   0.003523   0.419826
    5  O  1  X    0.000000   0.000000  -0.000000  -0.000000
    6  O  1  Y   -0.159410   0.000000  -0.000000  -0.000000
    7  O  1  Z    0.000000  -0.062336  -0.032904   0.008750
    8  O  1  X    0.000000   0.000000  -0.000000  -0.000000
    9  O  1  Y   -0.008064   0.000000  -0.000000  -0.000000
   10  O  1  Z    0.000000  -0.948188  -0.024405  -0.097157
   11  C  2  S    0.000000   0.006302  -1.761877   0.007279
   12  C  2  S    0.000000   0.020244   1.923641  -0.012639
   13  C  2  S    0.000000  -0.187152  -0.403056   0.001326
   14  C  2  S    0.000000  -1.629198   0.347066  -0.187173
   15  C  2  X    0.000000   0.000000  -0.000000  -0.000000
   16  C  2  Y   -0.257388   0.000000  -0.000000  -0.000000
   17  C  2  Z    0.000000  -0.491219  -0.015565  -0.021228
   18  C  2  X    0.000000   0.000000  -0.000000  -0.000000
   19  C  2  Y    1.511507   0.000000  -0.000000  -0.000000
   20  C  2  Z    0.000000  -0.781957  -0.053090  -0.099064
   21  H  3  S   -0.997201   0.150212   0.044376   0.011144
 DDI: Creating Array [0] - 78 x 78 = 6084 words.
 DDI: Creating Array [1] - 300 x 78 = 23400 words.
   22  H  3  S    2.121901  -0.062067  -0.121251   0.000336
   23  H  4  S    0.997201   0.150212   0.044376   0.011144
   24  H  4  S   -2.121901  -0.062067  -0.121251   0.000336

 THIS RUN IS GOING TO SOLVE THE CP-MC-HF RESPONSE EQUATIONS,
 USING CANONICAL ACTIVE ORBITALS TO IMPROVE THEIR CONVERGENCE.
 ROTATION OF THE ACTIVE ORBITALS REQUIRES REGENERATION OF THE CI STATES,
 THE 1 PARTICLE DENSITY, AND THE 2 PARTICLE DENSITY OVER THE NEW ACTIVE
 ORBITALS.  AWAY WE GO...

     --------------------------------------------
     PARTIAL TWO ELECTRON INTEGRAL TRANSFORMATION
     --------------------------------------------

 NUMBER OF CORE MOLECULAR ORBITALS     =    2
 NUMBER OF OCCUPIED MOLECULAR ORBITALS =   12
 TOTAL NUMBER OF MOLECULAR ORBITALS    =   12
 TOTAL NUMBER OF ATOMIC ORBITALS       =   24
 THRESHOLD FOR KEEPING TRANSFORMED 2E- INTEGRALS = 1.000E-09

 -------------------------------     ------------------------------
 DISTRIBUTED DATA TRANSFORMATION     PROGRAM WRITTEN BY G. FLETCHER
 -------------------------------     ------------------------------

 THE DISTRIBUTED MEMORY REQUIRED FOR THIS STEP IS MEMDDI=         1 MWORDS
 CREATING DISTRIBUTED STORAGE FOR [OCC OCC|OCC OCC] INTEGRALS
 CREATING WORKSPACE OF SIZE VVOO
 FOR    1 PROCESSORS, THE REPLICATED MEMORY NEEDED IS       56710 WORDS.
 SCHWARZ INEQUALITY OVERHEAD:       300 INTEGRALS, T=        0.00

      DIRECT 4-INDEX TRANSFORMATION 
      SCHWARZ INEQUALITY TEST SKIPPED         51 INTEGRAL BLOCKS
 ----- FROZEN CORE ENERGY =      -104.5526952010
 ... END OF INTEGRAL TRANSFORMATION ...
 CPU     0: STEP CPU TIME=     0.11 TOTAL CPU TIME=        0.2 (    0.0 MIN)
 TOTAL WALL CLOCK TIME=        0.2 SECONDS, CPU UTILIZATION IS  95.83%

     --------------------------------------------------
                 DIRECT DETERMINANT ORMAS-CI 
                PROGRAM WRITTEN BY JOE IVANIC
     --------------------------------------------------

 STORAGE OF BINOMIAL COEFFICIENTS REQUIRES          64 WORDS

 TOTAL NUMBER OF ALPHA GROUPS  =            3
 TOTAL NUMBER OF BETA  GROUPS  =            3

 TOTAL NUMBER OF ALPHA STRINGS =          115
 TOTAL NUMBER OF BETA  STRINGS =          115

 STORAGE OF TABLES REQUIRES                       947 WORDS

 TOTAL NUMBER OF ALPHA-BETA GROUP COMBINATIONS =            9
 OF THESE THE ALLOWED NUMBER OF COMBINATIONS   =            6

 TOTAL NUMBER OF (B -> B`) WHERE  (B` > B)  =         1020

 TIME FOR SETTING UP TABLE SET 1 :          0.0

 THE NUMBER OF DETERMINANTS HAVING SPACE SYMMETRY A1 
 IN POINT GROUP C2V  WITH SZ=  0.0 IS            231

 INTEGRAL STORAGE REQUIRES                   31651 WORDS
 EXTRA ORMAS STORAGE REQUIRES               194391 WORDS
 (EXTRA ORMAS STORAGE INCLUDES THAT FOR MXXPAN = 10)
 TOTAL ORMAS CALCULATION REQUIRES           227053 WORDS

 FULLY DIRECT WOULD REQUIRE                 222369 WORDS
 SMALL CI MATRIX, JUST USING INCORE DIAGONALIZATION...

 INITIAL ORMAS VECTOR GUESS TIME :          0.0

 CI EIGENVECTORS WILL BE LABELED IN GROUP=C2V     
 PRINTING CI COEFFICIENTS LARGER THAN  0.050000

 STATE   1  ENERGY=      -113.9642480999  S=  0.00  SZ=  0.00  SPACE SYM=A1  

         ALPHA           |          BETA           | CI COEFFICIENT
 1                 2     | 1                 2     |
-------------------------|-------------------------|---------------
  1  2  3  4  5  6       |  1  2  3  4  5  6       |   0.9628530620
  1  2  3  4  6     7    |  1  2  3  4  6     7    |  -0.1568941910

 ..... DONE WITH ORMAS-CI COMPUTATION .....
 CPU     0: STEP CPU TIME=     0.03 TOTAL CPU TIME=        0.3 (    0.0 MIN)
 TOTAL WALL CLOCK TIME=        0.3 SECONDS, CPU UTILIZATION IS  96.30%

     -------------------------------------------------------
      ONE AND TWO PARTICLE ORMAS DENSITY MATRIX COMPUTATION
                  PROGRAM WRITTEN BY JOE IVANIC
     -------------------------------------------------------

 THE DENSITIES ARE STATE AVERAGED OVER   1 ROOT(S)
 STATE=   1   ENERGY=     -113.9642480999   WEIGHT= 1.00000   S=  0.00
 SIEVING THE A1   SYMMETRY NONZERO DENSITY ELEMENTS IN GROUP C2V     
        496 NONZERO DM2 ELEMENTS WRITTEN IN       1 RECORDS TO FILE 70 LABELED AS DEN2P1 
        496 NONZERO DM2 ELEMENTS WRITTEN IN       1 RECORDS TO FILE 71 LABELED AS DEN2P2 
        496 NONZERO DM2 ELEMENTS WRITTEN IN       1 RECORDS TO FILE 72 LABELED AS DEN2P3 
        496 NONZERO DM2 ELEMENTS WRITTEN IN       1 RECORDS TO FILE 73 LABELED AS DEN2P4 
        496 NONZERO DM2 ELEMENTS WRITTEN IN       1 RECORDS TO FILE 15
 ..... DONE WITH 1 AND 2 PARTICLE DENSITY MATRIX .....
 CPU     0: STEP CPU TIME=     0.01 TOTAL CPU TIME=        0.3 (    0.0 MIN)
 TOTAL WALL CLOCK TIME=        0.3 SECONDS, CPU UTILIZATION IS 100.00%
 FREEING DISTRIBUTED STORAGE FOR [OCC OCC|OCC OCC] INTEGRALS
 .....DONE WITH MCSCF ITERATIONS.....
 CPU     0: STEP CPU TIME=     0.00 TOTAL CPU TIME=        0.3 (    0.0 MIN)
 TOTAL WALL CLOCK TIME=        0.3 SECONDS, CPU UTILIZATION IS 100.00%

     ----------------------------------------------------------------
     PROPERTY VALUES FOR THE MCSCF SELF-CONSISTENT FIELD WAVEFUNCTION
     ----------------------------------------------------------------

          -----------------
          ENERGY COMPONENTS
          -----------------

         WAVEFUNCTION NORMALIZATION =       1.0000000000

                ONE ELECTRON ENERGY =    -215.6163215657
                TWO ELECTRON ENERGY =      71.1246150268
           NUCLEAR REPULSION ENERGY =      30.5274584390
                                      ------------------
                       TOTAL ENERGY =    -113.9642480999

 ELECTRON-ELECTRON POTENTIAL ENERGY =      71.1246150268
  NUCLEUS-ELECTRON POTENTIAL ENERGY =    -329.5968396727
   NUCLEUS-NUCLEUS POTENTIAL ENERGY =      30.5274584390
                                      ------------------
             TOTAL POTENTIAL ENERGY =    -227.9447662069
               TOTAL KINETIC ENERGY =     113.9805181070
                 VIRIAL RATIO (V/T) =       1.9998572562

          ---------------------------------------
          MULLIKEN AND LOWDIN POPULATION ANALYSES
          ---------------------------------------

     ATOMIC MULLIKEN POPULATION IN EACH MOLECULAR ORBITAL

                      1          2          3          4          5

                  2.000000   2.000000   1.998010   1.989525   1.986396

    1             2.000038  -0.000043   1.968791   1.400235   0.100204
    2            -0.000025   2.000548   0.019950   0.552164   1.314313
    3            -0.000006  -0.000252   0.004635   0.018563   0.285939
    4            -0.000006  -0.000252   0.004635   0.018563   0.285939

                      6          7          8          9         10

                  1.983716   1.976622   1.931704   0.071007   0.024781

    1             0.452651   1.075736   1.201088   0.032040   0.009740
    2             0.525704   0.795189   0.730616   0.038968   0.012655
    3             0.502680   0.052848   0.000000   0.000000   0.001193
    4             0.502680   0.052848   0.000000   0.000000   0.001193

                     11         12

                  0.021553   0.016686

    1             0.005080   0.000742
    2             0.007847   0.008342
    3             0.004313   0.003801
    4             0.004313   0.003801
 WARNING! MCSCF POPULATIONS SHOWN ABOVE ARE FOR THE NATURAL ORBITALS.
 IGNORE THE ABOVE DATA FOR MCSCF FUNCTIONS WHICH ARE NOT OF -FORS- TYPE.
 THE FOLLOWING POPULATIONS ARE CORRECT FOR ANY MCSCF WAVEFUNCTION.

               ----- POPULATIONS IN EACH AO -----
                             MULLIKEN      LOWDIN
              1  O  1  S      1.13265     1.07374
              2  O  1  S      0.86195     0.90961
              3  O  1  S      0.97236     0.89717
              4  O  1  S      0.88341     0.77469
              5  O  1  X      0.87058     0.80547
              6  O  1  Y      1.38131     1.32215
              7  O  1  Z      1.08490     1.03417
              8  O  1  X      0.36255     0.42763
              9  O  1  Y      0.47666     0.57459
             10  O  1  Z      0.21994     0.43390
             11  C  2  S      1.17467     1.09096
             12  C  2  S      0.81911     0.88390
             13  C  2  S      0.80221     0.61295
             14  C  2  S      0.48009     0.44154
             15  C  2  X      0.61404     0.54961
             16  C  2  Y      0.96532     0.83428
             17  C  2  Z      0.86333     0.79005
             18  C  2  X      0.15555     0.22001
             19  C  2  Y      0.12039     0.27035
             20  C  2  Z      0.01156     0.19610
             21  H  3  S      0.52506     0.52036
             22  H  3  S      0.34865     0.40820
             23  H  4  S      0.52506     0.52036
             24  H  4  S      0.34865     0.40820

          ----- MULLIKEN ATOMIC OVERLAP POPULATIONS -----
          (OFF-DIAGONAL ELEMENTS NEED TO BE MULTIPLIED BY 2)

             1           2           3           4

    1    7.8654232
    2    0.4987380   4.8591266
    3   -0.0589296   0.3242032   0.6812728
    4   -0.0589296   0.3242032  -0.0728329   0.6812728

          TOTAL MULLIKEN AND LOWDIN ATOMIC POPULATIONS
       ATOM         MULL.POP.    CHARGE          LOW.POP.     CHARGE
    1 OXYGEN        8.246302   -0.246302         8.253116   -0.253116
    2 CARBON        6.006271   -0.006271         5.889756    0.110244
    3 HYDROGEN      0.873713    0.126287         0.928564    0.071436
    4 HYDROGEN      0.873713    0.126287         0.928564    0.071436

          ---------------------
          ELECTROSTATIC MOMENTS
          ---------------------

 POINT   1           X           Y           Z (BOHR)    CHARGE
                -0.000000    0.000000    1.005870        0.00 (A.U.)
         DX          DY          DZ         /D/  (DEBYE)
    -0.000000    0.000000   -2.593167    2.593167
 ...... END OF PROPERTY EVALUATION ......
 CPU     0: STEP CPU TIME=     0.00 TOTAL CPU TIME=        0.3 (    0.0 MIN)
 TOTAL WALL CLOCK TIME=        0.3 SECONDS, CPU UTILIZATION IS  96.43%
 DDI: Creating Array [0] - 576 x 78 = 44928 words.
 DDI: Creating Array [1] - 12 x 936 = 11232 words.
 DDI: Creating Array [2] - 78 x 78 = 6084 words.
 DDI: Creating Array [3] - 300 x 78 = 23400 words.

     --------------------------------------------
     PARTIAL TWO ELECTRON INTEGRAL TRANSFORMATION
     --------------------------------------------

 NUMBER OF CORE MOLECULAR ORBITALS     =    0
 NUMBER OF OCCUPIED MOLECULAR ORBITALS =   12
 TOTAL NUMBER OF MOLECULAR ORBITALS    =   24
 TOTAL NUMBER OF ATOMIC ORBITALS       =   24
 THRESHOLD FOR KEEPING TRANSFORMED 2E- INTEGRALS = 1.000E-09

 -------------------------------     ------------------------------
 DISTRIBUTED DATA TRANSFORMATION     PROGRAM WRITTEN BY G. FLETCHER
 -------------------------------     ------------------------------

 THE DISTRIBUTED MEMORY REQUIRED FOR THIS STEP IS MEMDDI=         1 MWORDS
 CREATING DISTRIBUTED STORAGE FOR [VIR OCC|VIR OCC] INTEGRALS
 CREATING DISTRIBUTED STORAGE FOR [VIR OCC|OCC OCC] INTEGRALS
 CREATING DISTRIBUTED STORAGE FOR [OCC OCC|OCC OCC] INTEGRALS
 CREATING DISTRIBUTED STORAGE FOR [VIR VIR|OCC OCC] INTEGRALS
 FOR    1 PROCESSORS, THE REPLICATED MEMORY NEEDED IS       62374 WORDS.
 SCHWARZ INEQUALITY OVERHEAD:       300 INTEGRALS, T=        0.00

      DIRECT 4-INDEX TRANSFORMATION 
      SCHWARZ INEQUALITY TEST SKIPPED         51 INTEGRAL BLOCKS
 ... END OF INTEGRAL TRANSFORMATION ...
 CPU     0: STEP CPU TIME=     0.02 TOTAL CPU TIME=        0.3 (    0.0 MIN)
 TOTAL WALL CLOCK TIME=        0.3 SECONDS, CPU UTILIZATION IS  96.67%

     ---------------------------------------------
     1ST AND 2ND INTEGRAL DERIVATIVE CONTRIBUTIONS
     ---------------------------------------------
 ...... END OF 1-ELECTRON GRAD+HESS+FOCKDER ......
 CPU     0: STEP CPU TIME=     0.01 TOTAL CPU TIME=        0.3 (    0.0 MIN)
 TOTAL WALL CLOCK TIME=        0.3 SECONDS, CPU UTILIZATION IS  96.77%

     ----------------------------------------------
     TWO ELECTRON INTEGRAL DERIVATIVE CONTRIBUTIONS
     ----------------------------------------------

     108284 WORDS REQUIRED,   5000000 WORDS AVAILABLE
 THE COARSE/FINE SCHWARZ SCREENINGS SKIPPED          0/        26 BLOCKS.
 THE NUMBER OF DERIVATIVE INTEGRAL BLOCKS COMPUTED WAS      8816
 CPU     0: STEP CPU TIME=     1.19 TOTAL CPU TIME=        1.5 (    0.0 MIN)
 TOTAL WALL CLOCK TIME=        1.5 SECONDS, CPU UTILIZATION IS  99.33%
 ...... END OF 2-ELECTRON GRAD+HESS+LAGDER ......
 CPU     0: STEP CPU TIME=     0.00 TOTAL CPU TIME=        1.5 (    0.0 MIN)
 TOTAL WALL CLOCK TIME=        1.5 SECONDS, CPU UTILIZATION IS  99.33%
 DDI: Creating Array [4] - 1 x 1 = 1 words.
 DDI: Creating Array [5] - 1 x 1 = 1 words.
 DDI: Creating Array [6] - 1 x 1 = 1 words.
 DDI: Creating Array [7] - 1 x 1 = 1 words.

     -------------------------------------------------
     COUPLED-PERTURBED MULTICONFIGURATION HARTREE-FOCK
     -------------------------------------------------

 SETTING UP RIGHT-HAND SIDE OF CPMCHF EQUATIONS.
 # OF WORDS REQUIRED  =     172269
 # OF WORDS AVAILABLE =    5000000
 NOTE THAT THE CP-MCHF DISTRIBUTED MEMORY REQUIREMENTS ARE JUST THE
 MEMORY NEEDED TO STORE TRANSFORMED INTEGRAL CLASSES (ALLOCATED ABOVE).
 COMPUTING HESSIAN OF STATE WITH E=     -113.9642480999 S=  0.0

 MASTER NODE HAS FINISHED WITH (OO|OO) INTEGRALS, T=    0.0
 MASTER NODE HAS FINISHED WITH (VO|OO) INTEGRALS, T=    0.0
 MASTER NODE HAS FINISHED WITH (VV|OO) INTEGRALS, T=    0.0
 MASTER NODE HAS FINISHED WITH (VO|VO) INTEGRALS, T=    0.0

 FINISHED SETTING UP RIGHT-HAND SIDE.
 CPU     0: STEP CPU TIME=     0.05 TOTAL CPU TIME=        1.5 (    0.0 MIN)
 TOTAL WALL CLOCK TIME=        1.6 SECONDS, CPU UTILIZATION IS  99.35%

 CALCULATING MCSCF ELECTRONIC HESSIAN ON THE FLY.
 # OF ORBITAL ROTATIONS   =        188
 LENGTH OF DET. EXPANSION =        805

 SOLVING CPMCHF EQUATIONS - ESSENTIAL MEMORY.
 # OF WORDS REQUIRED  =     239880
 # OF WORDS AVAILABLE =    5000000

 SOLVING FOR    9 NUCLEAR RESPONSES AND 0 ELECTRIC FIELD RESPONSES

 SOLVING CPMCHF EQUATIONS - EXTRA SOLVER MEMORY.
 # OF WORDS REQUIRED  =       8955
 # OF WORDS AVAILABLE =    4760120

 PRECONDITIONED CONJUGATE GRADIENT SOLVER    CONV. TOLERANCE=1.00E-07
 ITER   RESPONSE ERROR    IMPROVED     ORB-ORB     CI-ORB
   1      1.54963E-01         9            0.0        0.0
   2      1.46757E-01         9            0.0        0.0
   3      6.93551E-02         9            0.0        0.0
   4      3.35993E-02         9            0.0        0.0
   5      7.84368E-03         9            0.0        0.0
   6      3.96344E-03         9            0.0        0.0
   7      3.45653E-03         9            0.0        0.0
   8      4.44801E-03         9            0.0        0.0
   9      3.69609E-03         9            0.0        0.0
  10      1.95116E-03         9            0.0        0.0
  11      1.47498E-03         9            0.0        0.0
  12      8.13413E-04         9            0.0        0.0
  13      1.27357E-03         9            0.0        0.0
  14      1.29904E-03         9            0.0        0.0
  15      8.82893E-04         9            0.0        0.0
  16      3.66582E-04         9            0.0        0.0
  17      2.44883E-04         9            0.0        0.0
  18      2.10697E-04         9            0.0        0.0
  19      2.18867E-04         9            0.0        0.0
  20      2.01289E-04         9            0.0        0.0
  21      1.26197E-04         9            0.0        0.0
  22      9.84787E-05         9            0.0        0.0
  23      7.85226E-05         9            0.0        0.0
  24      8.76457E-05         9            0.0        0.0
  25      9.05496E-05         9            0.0        0.0
  26      7.93953E-05         9            0.0        0.0
  27      4.89064E-05         9            0.0        0.0
  28      4.27451E-05         9            0.0        0.0
  29      3.55787E-05         9            0.0        0.0
  30      3.33924E-05         8            0.0        0.0
  31      2.45703E-05         8            0.0        0.0
  32      1.53161E-05         8            0.0        0.0
  33      1.22138E-05         8            0.0        0.0
  34      1.16162E-05         7            0.0        0.0
  35      1.12127E-05         6            0.0        0.0
  36      7.32251E-06         6            0.0        0.0
  37      5.21439E-06         6            0.0        0.0
  38      3.82995E-06         5            0.0        0.0
  39      4.03723E-06         5            0.0        0.0
  40      2.60985E-06         4            0.0        0.0
  41      1.40391E-06         4            0.0        0.0
  42      8.63853E-07         4            0.0        0.0
  43      7.93966E-07         4            0.0        0.0
  44      6.67792E-07         4            0.0        0.0
  45      7.17253E-07         3            0.0        0.0
  46      4.68684E-07         2            0.0        0.0
  47      2.25033E-07         2            0.0        0.0
  48      1.46774E-07         2            0.0        0.0
  49      1.34808E-07         2            0.0        0.0
 DUE TO SLOW CONVERGENCE, TOLERANCE HAS BEEN RAISED TO 3.00E-07
 RESET PDIRX AND RESIDUAL.
  50      1.10338E-07         0            0.0        0.0
 *** CAUTION! *** 
 RESPONSES CONVERGED AFTER  50 ITERATIONS,
 BUT ONLY TO WITHIN AN INCREASED CONVERGENCE TOLERANCE
 FREEING DISTRIBUTED STORAGE FOR [VIR VIR|OCC OCC] INTEGRALS
 FREEING DISTRIBUTED STORAGE FOR [OCC OCC|OCC OCC] INTEGRALS
 FREEING DISTRIBUTED STORAGE FOR [VIR OCC|OCC OCC] INTEGRALS
 FREEING DISTRIBUTED STORAGE FOR [VIR OCC|VIR OCC] INTEGRALS

 TOTAL REPLICATED MEMORY USED FOR MCSCF RESPONSES=       248835 WORDS.

 ...... DONE WITH CPMCHF EQUATIONS ......
 CPU     0: STEP CPU TIME=     2.79 TOTAL CPU TIME=        4.3 (    0.1 MIN)
 TOTAL WALL CLOCK TIME=        4.4 SECONDS, CPU UTILIZATION IS  99.31%

          ---------------
          ENERGY GRADIENT
          ---------------

 UNITS ARE HARTREE/BOHR    E'X               E'Y               E'Z 
    1 OXYGEN          -0.000000000       0.000000000      -0.000009342
    2 CARBON           0.000000000      -0.000000000       0.000024447
    3 HYDROGEN         0.000000000       0.000005403      -0.000007552
    4 HYDROGEN        -0.000000000      -0.000005403      -0.000007552

          -------------------------------
          CARTESIAN FORCE CONSTANT MATRIX
          -------------------------------

                                   1                          2
                               OXYGEN                     CARBON    
                          X        Y        Z        X        Y        Z
  1   OXYGEN       X 0.017494 0.000000 0.000000-0.054460-0.000000 0.000000
                   Y 0.000000 0.070624 0.000000-0.000000-0.098608 0.000000
                   Z 0.000000 0.000000 0.752373 0.000000-0.000000-0.676652
  2   CARBON       X-0.054460-0.000000 0.000000 0.169538 0.000000-0.000000
                   Y-0.000000-0.098608-0.000000 0.000000 0.584592 0.000000
                   Z 0.000000 0.000000-0.676652-0.000000 0.000000 0.894017
  3   HYDROGEN     X 0.018483 0.000000 0.000000-0.057539 0.000000 0.000000
                   Y 0.000000 0.013992-0.008171 0.000000-0.242992-0.089220
                   Z 0.000000-0.038059-0.037859 0.000000-0.087157-0.108684
  4   HYDROGEN     X 0.018483-0.000000 0.000000-0.057539-0.000000 0.000000
                   Y-0.000000 0.013992 0.008171-0.000000-0.242992 0.089220
                   Z 0.000000 0.038059-0.037859 0.000000 0.087157-0.108684

                                   3                          4
                               HYDROGEN                   HYDROGEN  
                          X        Y        Z        X        Y        Z
  3   HYDROGEN     X 0.019527 0.000000 0.000000 0.019529 0.000000 0.000000
                   Y 0.000000 0.248865 0.111302 0.000000-0.019865-0.013913
                   Z 0.000000 0.111302 0.137820 0.000000 0.013913 0.008722
  4   HYDROGEN     X 0.019529-0.000000 0.000000 0.019527 0.000000-0.000000
                   Y-0.000000-0.019865 0.013913 0.000000 0.248865-0.111302
                   Z-0.000000-0.013913 0.008722-0.000000-0.111302 0.137820

          ------------------------          ----------------
          DIPOLE DERIVATIVE TENSOR          (DEBYE/ANGSTROM)
          ------------------------          ----------------

        ATOM                 MU-X           MU-Y           MU-Z
     OXYGEN     D/DX    -1.621502230    0.000000000   -0.000000146
                D/DY     0.000000000   -2.126094026    0.000000075
                D/DZ     0.000000000   -0.000000002   -3.418125030
     CARBON     D/DX     0.646149210    0.000000000    0.000000000
                D/DY     0.000000000    4.085582740    0.000006001
                D/DZ     0.000000000    0.000000000    4.295939811
     HYDROGEN   D/DX     0.487676783    0.000000000   -0.000000478
                D/DY     0.000000000   -0.979737667   -0.708169751
                D/DZ     0.000000000   -0.586669181   -0.438911994
     HYDROGEN   D/DX     0.487676783    0.000000000    0.000000478
                D/DY     0.000000000   -0.979737667    0.708169751
                D/DZ     0.000000000    0.586669181   -0.438911994

          --------------------------------------------------------
          NORMAL COORDINATE ANALYSIS IN THE HARMONIC APPROXIMATION
          --------------------------------------------------------

          ATOMIC WEIGHTS (AMU)

    1     OXYGEN           15.99491
    2     CARBON           12.00000
    3     HYDROGEN          1.00782
    4     HYDROGEN          1.00782

 MODES    1 TO    6 ARE TAKEN AS ROTATIONS AND TRANSLATIONS.

 ANALYZING SYMMETRY OF NORMAL MODES...

 --- SYMMETRY FOR NORMAL MODES ---
 INCLUDING TRANSLATION AND ROTATION
    4*A1     1*A2     3*B1     4*B2  
 EXCLUDING TRANSLATION AND ROTATION (SAYVETZ < 0.01)
    3*A1     0*A2     1*B1     2*B2  

     FREQUENCIES IN CM**-1, IR INTENSITIES IN DEBYE**2/AMU-ANGSTROM**2,
     REDUCED MASSES IN AMU.

                            1           2           3           4           5
       FREQUENCY:         8.20        3.37        0.59        0.28        0.01  
        SYMMETRY:         A2          B2          B1          B2          A1  
    REDUCED MASS:      1.00782     2.80560     8.76088     7.77841     7.50261
    IR INTENSITY:      0.00000     0.43146     0.33059     0.00020     0.00000

  1   OXYGEN       X -0.00000000 -0.00000000  0.24115762  0.00000000 -0.00000000
                   Y -0.00000000  0.15335850 -0.00000000  0.18587986  0.00000000
                   Z  0.00000000  0.00000000  0.00000000 -0.00000000  0.18254165
  2   CARBON       X  0.00000000 -0.00000000 -0.03486158 -0.00000000 -0.00000000
                   Y  0.00000000 -0.16195038 -0.00000000  0.17910392  0.00000000
                   Z  0.00000000  0.00000000  0.00000000 -0.00000000  0.18254250
  3   HYDROGEN     X -0.70435636 -0.00000000 -0.16548638 -0.00000000 -0.00000000
                   Y  0.00000000 -0.31118952 -0.00000000  0.17589675  0.00000027
                   Z -0.00000000  0.23770332  0.00000000  0.00510819  0.18254273
  4   HYDROGEN     X  0.70435636  0.00000000 -0.16548638 -0.00000000 -0.00000000
                   Y  0.00000000 -0.31118952 -0.00000000  0.17589675 -0.00000027
                   Z  0.00000000 -0.23770332  0.00000000 -0.00510819  0.18254273

 TRANS. SAYVETZ    X  0.00000000 -0.00000000  3.10539286  0.00000000 -0.00000000
                   Y  0.00000000 -0.11769833 -0.00000000  5.47692497  0.00000001
                   Z  0.00000000  0.00000000  0.00000000 -0.00000001  5.47818948
               TOTAL  0.00000000  0.11769833  3.10539286  5.47692497  5.47818948

   ROT. SAYVETZ    X  0.00000000 -7.45710003  0.00000000 -0.16025201 -0.00000000
                   Y -0.00000000  0.00000000  5.78400900  0.00000000  0.00000000
                   Z -2.51774010 -0.00000000 -0.00000000  0.00000000  0.00000000
               TOTAL  2.51774010  7.45710003  5.78400900  0.16025201  0.00000000

                            6           7           8           9          10
       FREQUENCY:         0.40     1194.26     1280.28     1553.13     1713.54  
        SYMMETRY:         B1          B1          B2          A1          A1  
    REDUCED MASS:      3.46669     1.35965     1.33466     1.42923     2.91330
    IR INTENSITY:      0.15653     0.18402     0.20674     0.43050     1.24052

  1   OXYGEN       X  0.05564177  0.03559331 -0.00000000  0.00000000 -0.00000000
                   Y  0.00000000 -0.00000000 -0.06670516  0.00000000 -0.00000000
                   Z  0.00000000  0.00000000 -0.00000000 -0.12377267 -0.11780463
  2   CARBON       X  0.24557077 -0.14769225  0.00000000  0.00000000  0.00000000
                   Y  0.00000000 -0.00000000  0.12732236  0.00000000  0.00000000
                   Z  0.00000000  0.00000000 -0.00000000  0.07704735  0.20144672
  3   HYDROGEN     X  0.33545384  0.59682733 -0.00000000 -0.00000000 -0.00000000
                   Y  0.00000000 -0.00000000 -0.22867331 -0.25529798  0.27285285
                   Z  0.00000000  0.00000000  0.55857559  0.52348111 -0.26447798
  4   HYDROGEN     X  0.33545384  0.59682733 -0.00000000  0.00000000 -0.00000000
                   Y  0.00000000 -0.00000000 -0.22867331  0.25529798 -0.27285285
                   Z  0.00000000 -0.00000000 -0.55857559  0.52348111 -0.26447798

 TRANS. SAYVETZ    X  4.51299182 -0.00000032  0.00000000 -0.00000000 -0.00000000
                   Y  0.00000000 -0.00000000 -0.00000004  0.00000000 -0.00000000
                   Z  0.00000000  0.00000000 -0.00000000 -0.00000981 -0.00000889
               TOTAL  4.51299182  0.00000032  0.00000004  0.00000981  0.00000889

   ROT. SAYVETZ    X -0.00000000 -0.00000000 -0.00001081 -0.00000000  0.00000000
                   Y -3.97998068 -0.00022850 -0.00000000  0.00000000  0.00000000
                   Z  0.00000000  0.00000000 -0.00000000 -0.00000000 -0.00000000
               TOTAL  3.97998068  0.00022850  0.00001081  0.00000000  0.00000000

                           11          12
       FREQUENCY:      2958.28     3025.56  
        SYMMETRY:         A1          B2  
    REDUCED MASS:      1.04810     1.11598
    IR INTENSITY:      1.97488     3.62309

  1   OXYGEN       X  0.00000000 -0.00000000
                   Y  0.00000000 -0.00040164
                   Z -0.00091173  0.00000000
  2   CARBON       X -0.00000000 -0.00000000
                   Y -0.00000000 -0.09389468
                   Z  0.05911426 -0.00000000
  3   HYDROGEN     X  0.00000000 -0.00000000
                   Y -0.59706963  0.56218130
                   Z -0.34469546  0.35718654
  4   HYDROGEN     X  0.00000000 -0.00000000
                   Y  0.59706963  0.56218130
                   Z -0.34469546 -0.35718654

 TRANS. SAYVETZ    X  0.00000000 -0.00000000
                   Y  0.00000000  0.00000037
                   Z  0.00000263  0.00000000
               TOTAL  0.00000263  0.00000037

   ROT. SAYVETZ    X -0.00000000  0.00004427
                   Y -0.00000000  0.00000000
                   Z -0.00000000  0.00000000
               TOTAL  0.00000000  0.00004427

 REFERENCE ON SAYVETZ CONDITIONS - A. SAYVETZ, J.CHEM.PHYS., 7, 383-389(1939).

 NOTE - THE MODES J,K ARE ORTHONORMALIZED ACCORDING TO
 SUM ON I   M(I) * (X(I,J)*X(I,K) + Y(I,J)*Y(I,K) + Z(I,J)*Z(I,K)) = DELTA(J,K)

  MODE FREQ(CM**-1)  SYMMETRY  RED. MASS  IR INTENS.
     1       8.196    A2       1.007825    0.000000
     2       3.365    B2       2.805597    0.431458
     3       0.588    B1       8.760878    0.330592
     4       0.278    B2       7.778405    0.000199
     5       0.014    A1       7.502612    0.000000
     6       0.405    B1       3.466690    0.156530
     7    1194.259    B1       1.359646    0.184017
     8    1280.279    B2       1.334656    0.206742
     9    1553.126    A1       1.429235    0.430501
    10    1713.544    A1       2.913301    1.240521
    11    2958.276    A1       1.048098    1.974876
    12    3025.561    B2       1.115976    3.623090

     -------------------------------
     THERMOCHEMISTRY AT T=  298.15 K
     -------------------------------

 USING IDEAL GAS, RIGID ROTOR, HARMONIC NORMAL MODE APPROXIMATIONS.
 P=  1.01325E+05 PASCAL.
 ALL FREQUENCIES ARE SCALED BY   1.00000
 THE MOMENTS OF INERTIA ARE (IN AMU*BOHR**2)
      6.33902    49.29501    55.63402
 THE ROTATIONAL SYMMETRY NUMBER IS  2.0
 THE ROTATIONAL CONSTANTS ARE (IN GHZ)
    284.44296    36.57750    32.40981
      7 -     12 VIBRATIONAL MODES ARE USED IN THERMOCHEMISTRY.
 THE HARMONIC ZERO POINT ENERGY IS (SCALED BY   1.000)
        0.026712 HARTREE/MOLECULE     5862.522345 CM**-1/MOLECULE 
       16.761809 KCAL/MOL               70.131410 KJ/MOL

               Q               LN Q
 ELEC.     1.00000E+00       0.000000
 TRANS.    6.46197E+06      15.681445
 ROT.      7.46267E+02       6.615083
 VIB.      1.00605E+00       0.006036
 TOT.      4.85155E+09      22.302563

              E         H         G         CV        CP        S
           KJ/MOL    KJ/MOL    KJ/MOL   J/MOL-K   J/MOL-K   J/MOL-K
 ELEC.      0.000     0.000     0.000     0.000     0.000     0.000
 TRANS.     3.718     6.197   -38.873    12.472    20.786   151.168
 ROT.       3.718     3.718   -16.398    12.472    12.472    67.472
 VIB.      70.224    70.224    70.116     1.941     1.941     0.360
 TOTAL     77.661    80.140    14.845    26.885    35.199   219.000
 VIB. THERMAL CORRECTION E(T)-E(0) = H(T)-H(0) =    92.478 J/MOL

              E         H         G         CV        CP        S
         KCAL/MOL  KCAL/MOL  KCAL/MOL CAL/MOL-K CAL/MOL-K CAL/MOL-K
 ELEC.      0.000     0.000     0.000     0.000     0.000     0.000
 TRANS.     0.889     1.481    -9.291     2.981     4.968    36.130
 ROT.       0.889     0.889    -3.919     2.981     2.981    16.126
 VIB.      16.784    16.784    16.758     0.464     0.464     0.086
 TOTAL     18.561    19.154     3.548     6.426     8.413    52.342
 VIB. THERMAL CORRECTION E(T)-E(0) = H(T)-H(0) =    22.103 CAL/MOL
 ......END OF NORMAL COORDINATE ANALYSIS......
 CPU     0: STEP CPU TIME=     0.00 TOTAL CPU TIME=        4.3 (    0.1 MIN)
 TOTAL WALL CLOCK TIME=        4.4 SECONDS, CPU UTILIZATION IS  99.31%
               580000  WORDS OF DYNAMIC MEMORY USED
 EXECUTION OF GAMESS TERMINATED NORMALLY Fri Jun  2 03:47:02 2017
 DDI: 948824 bytes (0.9 MB / 0 MWords) used by master data server.

 ----------------------------------------
 CPU timing information for all processes
 ========================================
 0: 4.277 + 0.68 = 4.346
 ----------------------------------------
 ddikick.x: exited gracefully.
unset echo
----- accounting info -----
Files used on the master node compute-0-8.local were:
-rw-rw-r-- 1 sarom sarom   12713 Jun  2 03:46 /scratch/mc-hess-h2co-s0.F05
-rw-rw-r-- 1 sarom sarom    2408 Jun  2 03:46 /scratch/mc-hess-h2co-s0.F09
-rw-rw-r-- 1 sarom sarom 2388560 Jun  2 03:47 /scratch/mc-hess-h2co-s0.F10
-rw-rw-r-- 1 sarom sarom    1880 Jun  2 03:46 /scratch/mc-hess-h2co-s0.F12
-rw-rw-r-- 1 sarom sarom  180648 Jun  2 03:46 /scratch/mc-hess-h2co-s0.F15
-rw-rw-r-- 1 sarom sarom       0 Jun  2 03:46 /scratch/mc-hess-h2co-s0.F16
-rw-rw-r-- 1 sarom sarom   55392 Jun  2 03:46 /scratch/mc-hess-h2co-s0.F18
-rw-rw-r-- 1 sarom sarom   77376 Jun  2 03:46 /scratch/mc-hess-h2co-s0.F19
-rw-rw-r-- 1 sarom sarom  180016 Jun  2 03:46 /scratch/mc-hess-h2co-s0.F70
-rw-rw-r-- 1 sarom sarom  180016 Jun  2 03:46 /scratch/mc-hess-h2co-s0.F71
-rw-rw-r-- 1 sarom sarom  180016 Jun  2 03:46 /scratch/mc-hess-h2co-s0.F72
-rw-rw-r-- 1 sarom sarom  180016 Jun  2 03:46 /scratch/mc-hess-h2co-s0.F73
rm: cannot remove `/scratch/sarom': Is a directory
rm: cannot remove `/scratch/tmp': Is a directory
ls: No match.
ls: No match.
ls: No match.
Fri Jun  2 03:47:05 CDT 2017
0.252u 0.247s 0:07.94 6.1%	0+0k 32+392io 0pf+0w
Deleting shmid=2785280.
Deleting shmid=2818049.
/opt/gridengine/default/spool/compute-0-8/active_jobs/23885.1/pe_hostfile compute-0-8.local
