----- GAMESS execution script 'rungms' -----
This job is running on host compute-3-0
under operating system Linux at Mon Nov 28 21:15:36 CST 2016
Available scratch disk space (Kbyte units) at beginning of the job is
Filesystem            1K-blocks       Used  Available Use% Mounted on
bolt.local:/export/home/sarom
                     9590469632 1552968704 7550332928  18% /home/sarom
Copying input file mc-hess-c2h4-s0.inp to your run's scratch directory...
cp mc-hess-c2h4-s0.inp .//mc-hess-c2h4-s0.F05
unset echo
/home/sarom/gamessGH/ddikick.x /home/sarom/gamessGH/gamess.00.x mc-hess-c2h4-s0 -ddi 1 1 localhost -scr ./

 Distributed Data Interface kickoff program.
 Initiating 1 compute processes on 1 nodes to run the following command:
 /home/sarom/gamessGH/gamess.00.x mc-hess-c2h4-s0 

          ******************************************************
          *         GAMESS VERSION = 18 AUG 2016 (R1)          *
          *             FROM IOWA STATE UNIVERSITY             *
          * M.W.SCHMIDT, K.K.BALDRIDGE, J.A.BOATZ, S.T.ELBERT, *
          *   M.S.GORDON, J.H.JENSEN, S.KOSEKI, N.MATSUNAGA,   *
          *          K.A.NGUYEN, S.J.SU, T.L.WINDUS,           *
          *       TOGETHER WITH M.DUPUIS, J.A.MONTGOMERY       *
          *         J.COMPUT.CHEM.  14, 1347-1363(1993)        *
          **************** 64 BIT LINUX VERSION ****************

  SINCE 1993, STUDENTS AND POSTDOCS WORKING AT IOWA STATE UNIVERSITY
  AND ALSO IN THEIR VARIOUS JOBS AFTER LEAVING ISU HAVE MADE IMPORTANT
  CONTRIBUTIONS TO THE CODE:
     IVANA ADAMOVIC, CHRISTINE AIKENS, YURI ALEXEEV, POOJA ARORA,
     ANDREY ASADCHEV, ROB BELL, PRADIPTA BANDYOPADHYAY, JONATHAN BENTZ,
     BRETT BODE, KURT BRORSEN, CALEB CARLIN, GALINA CHABAN, WEI CHEN,
     CHEOL HO CHOI, PAUL DAY, ALBERT DEFUSCO, NUWAN DESILVA, TIM DUDLEY,
     DMITRI FEDOROV, GRAHAM FLETCHER, MARK FREITAG, KURT GLAESEMANN,
     DAN KEMP, GRANT MERRILL, NORIYUKI MINEZAWA, JONATHAN MULLIN,
     TAKESHI NAGATA, SEAN NEDD, HEATHER NETZLOFF, BOSILJKA NJEGIC, RYAN OLSON,
     MIKE PAK, SPENCER PRUITT, LUKE ROSKOP, JIM SHOEMAKER, LYUDMILA SLIPCHENKO,
     TONY SMITH, SAROM SOK LEANG, JIE SONG, TETSUYA TAKETSUGU, SIMON WEBB,
     PENG XU, SOOHAENG YOO, FEDERICO ZAHARIEV

  ADDITIONAL CODE HAS BEEN PROVIDED BY COLLABORATORS IN OTHER GROUPS:
     IOWA STATE UNIVERSITY:
          JOE IVANIC, AARON WEST, LAIMUTIS BYTAUTAS, KLAUS RUEDENBERG
     UNIVERSITY OF TOKYO: KIMIHIKO HIRAO, TAKAHITO NAKAJIMA,
          TAKAO TSUNEDA, MUNEAKI KAMIYA, SUSUMU YANAGISAWA,
          KIYOSHI YAGI, MAHITO CHIBA, SEIKEN TOKURA, NAOAKI KAWAKAMI
     UNIVERSITY OF AARHUS: FRANK JENSEN
     UNIVERSITY OF IOWA: VISVALDAS KAIRYS, HUI LI
     NATIONAL INST. OF STANDARDS AND TECHNOLOGY: WALT STEVENS, DAVID GARMER
     UNIVERSITY OF PISA: BENEDETTA MENNUCCI, JACOPO TOMASI
     UNIVERSITY OF MEMPHIS: HENRY KURTZ, PRAKASHAN KORAMBATH
     UNIVERSITY OF ALBERTA: TOBY ZENG, MARIUSZ KLOBUKOWSKI
     UNIVERSITY OF NEW ENGLAND: MARK SPACKMAN
     MIE UNIVERSITY: HIROAKI UMEDA
     NAT. INST. OF ADVANCED INDUSTRIAL SCIENCE AND TECHNOLOGY: KAZUO KITAURA
     MICHIGAN STATE UNIVERSITY:
          KAROL KOWALSKI, MARTA WLOCH, JEFFREY GOUR, JESSE LUTZ,
          WEI LI, PIOTR PIECUCH
     UNIVERSITY OF SILESIA: MONIKA MUSIAL, STANISLAW KUCHARSKI
     FACULTES UNIVERSITAIRES NOTRE-DAME DE LA PAIX:
          OLIVIER QUINET, BENOIT CHAMPAGNE
     UNIVERSITY OF CALIFORNIA - SANTA BARBARA: BERNARD KIRTMAN
     INSTITUTE FOR MOLECULAR SCIENCE:
          KAZUYA ISHIMURA, MICHIO KATOUDA, AND SHIGERU NAGASE
     UNIVERSITY OF NOTRE DAME: ANNA POMOGAEVA, DAN CHIPMAN
     KYUSHU UNIVERSITY:
          HARUYUKI NAKANO,
          FENG LONG GU, JACEK KORCHOWIEC, MARCIN MAKOWSKI, AND YURIKO AOKI,
          HIROTOSHI MORI AND EISAKU MIYOSHI
     PENNSYLVANIA STATE UNIVERSITY:
          TZVETELIN IORDANOV, CHET SWALINA, JONATHAN SKONE,
          SHARON HAMMES-SCHIFFER
     WASEDA UNIVERSITY:
          MASATO KOBAYASHI, TOMOKO AKAMA, TSUGUKI TOUMA,
          TAKESHI YOSHIKAWA, YASUHIRO IKABATA, JUNJI SEINO,
          YUYA NAKAJIMA, HIROMI NAKAI
     NANJING UNIVERSITY: SHUHUA LI
     UNIVERSITY OF NEBRASKA:
          PEIFENG SU, DEJUN SI, NANDUN THELLAMUREGE, YALI WANG, HUI LI
     UNIVERSITY OF ZURICH: ROBERTO PEVERATI, KIM BALDRIDGE
     N. COPERNICUS UNIVERSITY AND JACKSON STATE UNIVERSITY:
          MARIA BARYSZ
     UNIVERSITY OF COPENHAGEN: Jimmy Kromann, CASPER STEINMANN
     TOKYO INSTITUTE OF TECHNOLOGY: HIROYA NAKATA
     NAGOYA UNIVERSITY: YOSHIO NISHIMOTO, STEPHAN IRLE
     MOSCOW STATE UNIVERSITY: VLADIMIR MIRONOV

 EXECUTION OF GAMESS BEGUN Mon Nov 28 21:15:36 2016

            ECHO OF THE FIRST FEW INPUT CARDS -
 INPUT CARD>!   C2H4...at the rotational saddle point for the "N" ground state.             
 INPUT CARD>!   Test is from Aaron in Jan. 2011 showing bug in ORMAS responses.             
 INPUT CARD>!   As you can see below, the bug was fixed in July 2013.  Go, Aaron!           
 INPUT CARD>!   Someday, we should change the geometry and orbs to the group D2d.           
 INPUT CARD>!                                                                               
 INPUT CARD>!         FINAL E= -77.9753563839, 3 iters.   4 response iterations.            
 INPUT CARD>!   imaginary FREQ= 1823.94i                                                    
 INPUT CARD>!   rot/trans FREQ= 1.83, 0.00, 0.00, 0.00, 1.10, 2.95                          
 INPUT CARD>!        vib. FREQ= 338.98(2), 1006.33(2), 1082.38, 1578.13, 1605.69,           
 INPUT CARD>!        vib. FREQ= 3311.13, 3315.20, 3405.95(2)                                
 INPUT CARD>!                                                                               
 INPUT CARD>!   This run takes 5 seconds on 2.66 GHz Cloverton (25 Apr 2015)                
 INPUT CARD>!                                                                               
 INPUT CARD>!   -------------------------excess details----------------------------------   
 INPUT CARD>!              comparison of 3 ways to compute the hessian:                     
 INPUT CARD>!   analytic computation,                                                       
 INPUT CARD>!         CP-MCHF converges in 4 iterations, seemingly cleanly.                 
 INPUT CARD>!      F.EQUENCY:      1823.94 I      1.83        0.00        0.00        0.00  
 INPUT CARD>!      F.EQUENCY:         1.10        2.95      338.98      338.99     1006.33  
 INPUT CARD>!      F.EQUENCY:      1006.34     1082.38     1578.13     1605.69     3311.13  
 INPUT CARD>!      F.EQUENCY:      3315.20     3405.95     3405.95                          
 INPUT CARD>!   seminumerical computation looks OK,                                         
 INPUT CARD>!         imag F.EQ slightly off, most others apparently exactly on.            
 INPUT CARD>!      F.EQUENCY:      1815.68 I     10.97        4.39        3.06        1.42  
 INPUT CARD>!      F.EQUENCY:         5.59        9.13      338.99      339.12     1006.27  
 INPUT CARD>!      F.EQUENCY:      1006.31     1082.35     1578.60     1605.82     3311.98  
 INPUT CARD>!      F.EQUENCY:      3315.27     3405.98     3405.98                          
 INPUT CARD>!   fully numeric computation looks OK,                                         
 INPUT CARD>!         but note that this imaginary mode is closer to the analytic.          
 INPUT CARD>!      F.EQUENCY:      1823.90 I     11.86        7.95        7.38        6.92  
 INPUT CARD>!      F.EQUENCY:         3.64        1.30      338.85      338.87     1006.06  
 INPUT CARD>!      F.EQUENCY:      1006.12     1082.44     1577.89     1605.51     3311.23  
 INPUT CARD>!      F.EQUENCY:      3315.30     3406.02     3406.03                          
 INPUT CARD>!                                                                               
 INPUT CARD> $contrl ISPHER=1 mult=1 scftyp=mcscf runtyp=hessian $end                       
 INPUT CARD> $system mwords=150 memddi=10 $end                                              
 INPUT CARD> $guess  guess=moread norb=36 $end                                              
 INPUT CARD> $basis  GBASIS=N31 NGAUSS=6 NDFUNC=1 $end                                      
 INPUT CARD>                                                                                
 INPUT CARD>!   The ORMAS uses CC sigma/sigma* as 1st space,                                
 INPUT CARD>!          then CC pi-combinations as 2nd space.                                
 INPUT CARD>!   the $VEC is in that order, although NOs will reorder to 2,1,1,0 occ.nos.    
 INPUT CARD>!   no excitation is allowed between the two spaces.                            
 INPUT CARD> $mcscf  cistep=ormas fullnr=.t. maxit=200 $END                                 
 INPUT CARD> $det    ncore=6 nact=4 nels=4 iroot=1 nstate=8 mxxpan=16 $end                  
 INPUT CARD> $ormas  nspace=2 mstart(1)=7,9 mine(1)=2,2 maxe(1)=2,2 $end                    
 INPUT CARD> $cpmchf cptol=1.0D-06 maxit=200 gcrodr=.t. micit=20 kicit=10 $end              
 INPUT CARD>                                                                                
 INPUT CARD> $force  method=analytic $end                                                   
 INPUT CARD>x$force  method=seminum nvib=2 $end                                             
  150000000 WORDS OF MEMORY AVAILABLE

     BASIS OPTIONS
     -------------
     GBASIS=N31          IGAUSS=       6      POLAR=POPN31  
     NDFUNC=       1     NFFUNC=       0     DIFFSP=       F
     NPFUNC=       0      DIFFS=       F     BASNAM=        


     RUN TITLE
     ---------
 At Aaron's saddle point geometry...                                             

 THE POINT GROUP OF THE MOLECULE IS C1      
 THE ORDER OF THE PRINCIPAL AXIS IS     0

 ATOM      ATOMIC                      COORDINATES (BOHR)
           CHARGE         X                   Y                   Z
 C           6.0    -0.0076567574        0.1298861211       -1.2451867988
 C           6.0     0.2597832828        0.0626771910        1.5709957726
 H           1.0    -0.2346118411        1.6675298692        2.7149945827
 H           1.0     1.5170835149        0.7552759444       -2.4337859964
 H           1.0    -1.7316775017       -0.4451967868       -2.1538931351
 H           1.0     0.9534810580       -1.5922249245        2.5243036956

          INTERNUCLEAR DISTANCES (ANGS.)
          ------------------------------

                1 C          2 C          3 H          4 H          5 H     

   1 C       0.0000000    1.4973870 *  2.2512679 *  1.0752477 *  1.0752479 *
   2 C       1.4973870 *  0.0000000    1.0752475 *  2.2512605 *  2.2512527 *
   3 H       2.2512679 *  1.0752475 *  0.0000000    2.9181899 *  2.9182044 *
   4 H       1.0752477 *  2.2512605 *  2.9181899 *  0.0000000    1.8387613 *
   5 H       1.0752479 *  2.2512527 *  2.9182044 *  1.8387613 *  0.0000000  
   6 H       2.2512441 *  1.0752478 *  1.8387618 *  2.9182128 *  2.9182230 *

                6 H     

   1 C       2.2512441 *
   2 C       1.0752478 *
   3 H       1.8387618 *
   4 H       2.9182128 *
   5 H       2.9182230 *
   6 H       0.0000000  

  * ... LESS THAN  3.000


     ATOMIC BASIS SET
     ----------------
 THE CONTRACTED PRIMITIVE FUNCTIONS HAVE BEEN UNNORMALIZED
 THE CONTRACTED BASIS FUNCTIONS ARE NOW NORMALIZED TO UNITY

  SHELL TYPE  PRIMITIVE        EXPONENT          CONTRACTION COEFFICIENT(S)

 C         

      1   S       1          3047.5248800    0.001834737132
      1   S       2           457.3695180    0.014037322813
      1   S       3           103.9486850    0.068842622264
      1   S       4            29.2101553    0.232184443216
      1   S       5             9.2866630    0.467941348435
      1   S       6             3.1639270    0.362311985337

      2   L       7             7.8682723   -0.119332419775    0.068999066591
      2   L       8             1.8812885   -0.160854151696    0.316423960957
      2   L       9             0.5442493    1.143456437840    0.744308290898

      3   L      10             0.1687145    1.000000000000    1.000000000000

      4   D      11             0.8000000    1.000000000000

 C         

      5   S      12          3047.5248800    0.001834737132
      5   S      13           457.3695180    0.014037322813
      5   S      14           103.9486850    0.068842622264
      5   S      15            29.2101553    0.232184443216
      5   S      16             9.2866630    0.467941348435
      5   S      17             3.1639270    0.362311985337

      6   L      18             7.8682723   -0.119332419775    0.068999066591
      6   L      19             1.8812885   -0.160854151696    0.316423960957
      6   L      20             0.5442493    1.143456437840    0.744308290898

      7   L      21             0.1687145    1.000000000000    1.000000000000

      8   D      22             0.8000000    1.000000000000

 H         

      9   S      23            18.7311370    0.033494604338
      9   S      24             2.8253944    0.234726953484
      9   S      25             0.6401217    0.813757326146

     10   S      26             0.1612778    1.000000000000

 H         

     11   S      27            18.7311370    0.033494604338
     11   S      28             2.8253944    0.234726953484
     11   S      29             0.6401217    0.813757326146

     12   S      30             0.1612778    1.000000000000

 H         

     13   S      31            18.7311370    0.033494604338
     13   S      32             2.8253944    0.234726953484
     13   S      33             0.6401217    0.813757326146

     14   S      34             0.1612778    1.000000000000

 H         

     15   S      35            18.7311370    0.033494604338
     15   S      36             2.8253944    0.234726953484
     15   S      37             0.6401217    0.813757326146

     16   S      38             0.1612778    1.000000000000

 TOTAL NUMBER OF BASIS SET SHELLS             =   16
 NUMBER OF CARTESIAN GAUSSIAN BASIS FUNCTIONS =   38
 NOTE: THIS RUN WILL RESTRICT THE MO VARIATION SPACE TO SPHERICAL HARMONICS.
 THE NUMBER OF ORBITALS KEPT IN THE VARIATIONAL SPACE WILL BE PRINTED LATER.
 NUMBER OF ELECTRONS                          =   16
 CHARGE OF MOLECULE                           =    0
 SPIN MULTIPLICITY                            =    1
 NUMBER OF OCCUPIED ORBITALS (ALPHA)          =    8
 NUMBER OF OCCUPIED ORBITALS (BETA )          =    8
 TOTAL NUMBER OF ATOMS                        =    6
 THE NUCLEAR REPULSION ENERGY IS       31.4762172870

     $CONTRL OPTIONS
     ---------------
 SCFTYP=MCSCF        RUNTYP=HESSIAN      EXETYP=RUN     
 MPLEVL=       0     CITYP =NONE         CCTYP =NONE         VBTYP =NONE    
 DFTTYP=NONE         TDDFT =NONE    
 MULT  =       1     ICHARG=       0     NZVAR =       0     COORD =UNIQUE  
 PP    =NONE         RELWFN=NONE         LOCAL =NONE         NUMGRD=       F
 ISPHER=       1     NOSYM =       0     MAXIT =      30     UNITS =ANGS    
 PLTORB=       F     MOLPLT=       F     AIMPAC=       F     FRIEND=        
 NPRINT=       7     IREST =       0     GEOM  =INPUT   
 NORMF =       0     NORMP =       0     ITOL  =      20     ICUT  =       9
 INTTYP=BEST         GRDTYP=BEST         QMTTOL= 1.0E-06

     $SYSTEM OPTIONS
     ---------------
  REPLICATED MEMORY=   150000000 WORDS (ON EVERY NODE).
 DISTRIBUTED MEMDDI=          10 MILLION WORDS IN AGGREGATE,
 MEMDDI DISTRIBUTED OVER   1 PROCESSORS IS    10000000 WORDS/PROCESSOR.
 TOTAL MEMORY REQUESTED ON EACH PROCESSOR=   160000000 WORDS.
 TIMLIM=      525600.00 MINUTES, OR     365.0 DAYS.
 PARALL= F  BALTYP=  DLB     KDIAG=    0  COREFL= F
 MXSEQ2=     300 MXSEQ3=     150  mem10=         0

          ----------------
          PROPERTIES INPUT
          ----------------

     MOMENTS            FIELD           POTENTIAL          DENSITY
 IEMOM =       1   IEFLD =       0   IEPOT =       0   IEDEN =       0
 WHERE =COMASS     WHERE =NUCLEI     WHERE =NUCLEI     WHERE =NUCLEI  
 OUTPUT=BOTH       OUTPUT=BOTH       OUTPUT=BOTH       OUTPUT=BOTH    
 IEMINT=       0   IEFINT=       0                     IEDINT=       0
                                                       MORB  =       0

     -------------------------------
     INTEGRAL TRANSFORMATION OPTIONS
     -------------------------------
     NWORD  =            0
     CUTOFF = 1.0E-09     MPTRAN =       0
     DIRTRF =       F     AOINTS =DUP     

          ----------------------
          MCSCF INPUT PARAMETERS
          ----------------------
 CONVERGER SELECTION: FOCAS = F  SOSCF = F  FULLNR = T  QUD = F  JACOBI = F
 SECULAR EQUATION METHOD CISTEP = ORMAS   
 --- GENERAL INPUT OPTIONS:
 MAXIT =     200  MICIT =       1  ACURCY= 1.000E-05
 DAMP  =   0.000  CANONC=       T  ENGTOL= 1.000E-10
 EKT   =       F  NPUNCH=       2  NWORD =         0
 REGENERATE CI AFTER CONVERGENCE = NONE    
 DIABATIZATION AFTER CONVERGENCE =        F
 --- INPUT FOR FULLNR CONVERGER:
 METHOD=DM2       FORS  =       F  DROPC =       T
 LINSER=       F  FCORE =       F  NORB  =      38

          ----------------------
          INTEGRAL INPUT OPTIONS
          ----------------------
 NOPK  =       1 NORDER=       0 SCHWRZ=       T

     ------------------------------------------
     THE POINT GROUP IS C1 , NAXIS= 0, ORDER= 1
     ------------------------------------------

 -- VARIATIONAL SPACE WILL BE RESTRICTED TO PURE SPHERICAL HARMONICS ONLY --
 AFTER EXCLUDING CONTAMINANT COMBINATIONS FROM THE CARTESIAN GAUSSIAN BASIS
 SET, THE NUMBER OF SPHERICAL HARMONICS KEPT IN THE VARIATION SPACE IS   36

     DIMENSIONS OF THE SYMMETRY SUBSPACES ARE
 A   =   36

 ..... DONE SETTING UP THE RUN .....
 STEP CPU TIME =     0.05 TOTAL CPU TIME =        0.0 (    0.0 MIN)
 TOTAL WALL CLOCK TIME=        0.1 SECONDS, CPU UTILIZATION IS  55.56%

     ---------------------------------
     HESSIAN MATRIX CONTROL PARAMETERS
     ---------------------------------
     METHOD=ANALYTIC   NVIB  =       2   VIBSIZ= 0.01000
     RDHESS=       F   PURIFY=       F   PRTIFC=       F
     VIBANL=       T   DECOMP=       F   PROJCT=       F
     SCLFAC= 1.00000   PRTSCN=       F   NPRT  =       0
     PULCOR=       F   NPUN  =       0   REDOVB=       T
     HSSTYP=GENERAL 
     THERMOCHEMISTRY WILL BE PRINTED FOR    1 TEMPERATURES:
      298.15000
 Old integral subroutine is used

     ------------------------------
     CPHF RESPONSE SOLUTION OPTIONS
     ------------------------------
     POLAR  =       F     NWORD  =       0
     CPHF   =MO      

          ********************
          1 ELECTRON INTEGRALS
          ********************
 TIME TO DO   DIPOLE INTEGRALS=      0.00
 ...... END OF ONE-ELECTRON INTEGRALS ......
 STEP CPU TIME =     0.01 TOTAL CPU TIME =        0.1 (    0.0 MIN)
 TOTAL WALL CLOCK TIME=        0.1 SECONDS, CPU UTILIZATION IS  60.00%

          -------------
          GUESS OPTIONS
          -------------
          GUESS =MOREAD            NORB  =      36          NORDER=       0
          MIX   =       F          PRTMO =       F          PUNMO =       F
          TOLZ  = 1.0E-08          TOLE  = 1.0E-05
          SYMDEN=       F          PURIFY=       F

 INITIAL GUESS ORBITALS GENERATED BY MOREAD   ROUTINE.

 STATISTICS FOR GENERATION OF SYMMETRY ORBITAL -Q- MATRIX
 NUMBER OF CARTESIAN ATOMIC ORBITALS=         38
 NUMBER OF SPHERICAL CONTAMINANTS DROPPED=     2
 NUMBER OF LINEARLY DEPENDENT MOS DROPPED=     0
 TOTAL NUMBER OF MOS IN VARIATION SPACE=      36

 SYMMETRIES FOR INITIAL GUESS ORBITALS FOLLOW.   BOTH SET(S).
     8 ORBITALS ARE OCCUPIED (    2 CORE ORBITALS).
     1=A        2=A        3=A        4=A        5=A        6=A        7=A   
     8=A        9=A       10=A       11=A       12=A       13=A       14=A   
    15=A       16=A       17=A       18=A       19=A       20=A       21=A   
    22=A       23=A       24=A       25=A       26=A       27=A       28=A   
    29=A       30=A       31=A       32=A       33=A       34=A       35=A   
    36=A   
 ...... END OF INITIAL ORBITAL SELECTION ......
 STEP CPU TIME =     0.00 TOTAL CPU TIME =        0.1 (    0.0 MIN)
 TOTAL WALL CLOCK TIME=        0.1 SECONDS, CPU UTILIZATION IS  60.00%

                    ----------------------
                    AO INTEGRAL TECHNOLOGY
                    ----------------------
     S,P,L SHELL ROTATED AXIS INTEGRALS, REPROGRAMMED BY
        KAZUYA ISHIMURA (IMS) AND JOSE SIERRA (SYNSTAR).
     S,P,D,L SHELL ROTATED AXIS INTEGRALS PROGRAMMED BY
        KAZUYA ISHIMURA (INSTITUTE FOR MOLECULAR SCIENCE).
     S,P,D,F,G SHELL TO TOTAL QUARTET ANGULAR MOMENTUM SUM 5,
        ERIC PROGRAM BY GRAHAM FLETCHER (ELORET AND NASA ADVANCED
        SUPERCOMPUTING DIVISION, AMES RESEARCH CENTER).
     S,P,D,F,G,L SHELL GENERAL RYS QUADRATURE PROGRAMMED BY
        MICHEL DUPUIS (PACIFIC NORTHWEST NATIONAL LABORATORY).

          --------------------
          2 ELECTRON INTEGRALS
          --------------------

 THE -PK- OPTION IS OFF, THE INTEGRALS ARE NOT IN SUPERMATRIX FORM.
 STORING   15000 INTEGRALS/RECORD ON DISK, USING 12 BYTES/INTEGRAL.
 TWO ELECTRON INTEGRAL EVALUATION REQUIRES   90532 WORDS OF MEMORY.
 SCHWARZ INEQUALITY OVERHEAD:       741 INTEGRALS, T=        0.00
 II,JST,KST,LST =  1  1  1  1 NREC =         1 INTLOC =    1
 II,JST,KST,LST =  2  1  1  1 NREC =         1 INTLOC =    2
 II,JST,KST,LST =  3  1  1  1 NREC =         1 INTLOC =   34
 II,JST,KST,LST =  4  1  1  1 NREC =         1 INTLOC =  214
 II,JST,KST,LST =  5  1  1  1 NREC =         1 INTLOC = 1189
 II,JST,KST,LST =  6  1  1  1 NREC =         1 INTLOC = 3208
 II,JST,KST,LST =  7  1  1  1 NREC =         2 INTLOC =  944
 II,JST,KST,LST =  8  1  1  1 NREC =         3 INTLOC = 8186
 II,JST,KST,LST =  9  1  1  1 NREC =         7 INTLOC = 6089
 II,JST,KST,LST = 10  1  1  1 NREC =         8 INTLOC = 5989
 II,JST,KST,LST = 11  1  1  1 NREC =         9 INTLOC = 7385
 II,JST,KST,LST = 12  1  1  1 NREC =        10 INTLOC =10347
 II,JST,KST,LST = 13  1  1  1 NREC =        12 INTLOC =   14
 II,JST,KST,LST = 14  1  1  1 NREC =        13 INTLOC = 6450
 II,JST,KST,LST = 15  1  1  1 NREC =        14 INTLOC =14794
 II,JST,KST,LST = 16  1  1  1 NREC =        16 INTLOC =10099
 SCHWARZ INEQUALITY TEST SKIPPED          35 INTEGRAL BLOCKS.
 TOTAL NUMBER OF NONZERO TWO-ELECTRON INTEGRALS =              262552
         18 INTEGRAL RECORDS WERE STORED ON DISK FILE  8.
  ...... END OF TWO-ELECTRON INTEGRALS .....
 STEP CPU TIME =     0.04 TOTAL CPU TIME =        0.1 (    0.0 MIN)
 TOTAL WALL CLOCK TIME=        0.2 SECONDS, CPU UTILIZATION IS  45.45%

          -----------------
          MCSCF CALCULATION
          -----------------

 ----- NUCLEAR ENERGY ----- =        31.4762172870

     ------------------------------------------------------------
       DIRECT DETERMINANT ORMAS-CI INPUT SORTER
       PROGRAM WRITTEN BY JOE IVANIC AND MIKE SCHMIDT
       ORMAS = OCCUPATION RESTRICTED MULTIPLE ACTIVE SPACE
     ------------------------------------------------------------

 THE POINT GROUP                  =   C1      
 THE STATE SYMMETRY               =   A       
 NUMBER OF CORE ORBITALS          =    6
 NUMBER OF ACTIVE ORBITALS        =    4
 NUMBER OF ALPHA ELECTRONS        =    8 (   2 ACTIVE)
 NUMBER OF BETA ELECTRONS         =    8 (   2 ACTIVE)
 NUMBER OF OCCUPIED ORBITALS      =   10

 NUMBER OF CI STATES REQUESTED    =    8
 NUMBER OF CI STARTING VECTORS    =    8
 MAX. NO. OF CI EXPANSION VECTORS =   16
 SIZE OF INITIAL CI GUESS MATRIX  =  300

 MAX. NO. OF CI ITERS/STATE       =  100
 CI DIAGONALIZATION CRITERION     = 1.00E-06
 PURE SPIN STATE AVERAGED 1E- AND 2E- DENSITY MATRIX OPTION=.T.
 STATE=   1 DM2 WEIGHT=   1.00000

 CORRELATION ENERGY ANALYSIS      =    F

 FULLY DIRECT OPTION              =    F

 CALC. OF DAVIDSON Q CORRECTION   =    F

 BLOCK SPACE MIXING IN NO DIAG    =    F

 SYMMETRIES FOR THE   6 CORE,   4 ACTIVE ARE

     CORE= A     A     A     A     A     A   

   ACTIVE= A     A     A     A   

 THE NUMBER OF SPACES             =   2
 EACH SPACE STARTS AT ORBITAL     =   7   9
 NO OF ORBITALS IN EACH SPACE     =   2   2
 MIN NO OF ELECS IN EACH SPACE    =   2   2
 MAX NO OF ELECS IN EACH SPACE    =   2   2

 SPACE SPECIFICATIONS HAVE PASSED PRELIMINARY CHECKS

 ALL VALID DETERMINANTS WILL BE EXPRESSED AS PAIRS OF ALPHA AND BETA STRINGS.

 MIN NO OF ALPHA ELECS =    0   0
 MAX NO OF ALPHA ELECS =    2   2

 MIN NO OF BETA  ELECS =    0   0
 MAX NO OF BETA  ELECS =    2   2

     --------------------------------------------
     PARTIAL TWO ELECTRON INTEGRAL TRANSFORMATION
     --------------------------------------------

 NUMBER OF CORE MOLECULAR ORBITALS     =    6
 NUMBER OF OCCUPIED MOLECULAR ORBITALS =   10
 TOTAL NUMBER OF MOLECULAR ORBITALS    =   36
 TOTAL NUMBER OF ATOMIC ORBITALS       =   38
 THRESHOLD FOR KEEPING TRANSFORMED 2E- INTEGRALS = 1.000E-09
 AO INTEGRALS WILL BE READ IN FROM DISK...

 PLAN A: REQUIREMENTS FOR FULLY IN-MEMORY TRANSFORMATION:
 # OF WORDS AVAILABLE =            150000000
 # OF WORDS NEEDED    =               348878

 CHOOSING IN MEMORY PARTIAL TRANSFORMATION...
 TOTAL NUMBER OF TRANSFORMED 2E- INTEGRALS KEPT =        64634
 ----- FROZEN CORE ENERGY =      -104.4375787170
 ... END OF INTEGRAL TRANSFORMATION ...
 STEP CPU TIME =     0.06 TOTAL CPU TIME =        0.2 (    0.0 MIN)
 TOTAL WALL CLOCK TIME=        0.4 SECONDS, CPU UTILIZATION IS  41.03%

     --------------------------------------------------
                 DIRECT DETERMINANT ORMAS-CI 
                PROGRAM WRITTEN BY JOE IVANIC
     --------------------------------------------------

 STORAGE OF BINOMIAL COEFFICIENTS REQUIRES          18 WORDS

 TOTAL NUMBER OF ALPHA GROUPS  =            3
 TOTAL NUMBER OF BETA  GROUPS  =            3

 TOTAL NUMBER OF ALPHA STRINGS =            6
 TOTAL NUMBER OF BETA  STRINGS =            6

 STORAGE OF TABLES REQUIRES                       219 WORDS

 TOTAL NUMBER OF ALPHA-BETA GROUP COMBINATIONS =            9
 OF THESE THE ALLOWED NUMBER OF COMBINATIONS   =            3

 TOTAL NUMBER OF (B -> B`) WHERE  (B` > B)  =           12

 TIME FOR SETTING UP TABLE SET 1 :          0.0

 THE NUMBER OF DETERMINANTS HAVING SPACE SYMMETRY A  
 IN POINT GROUP C1   WITH SZ=  0.0 IS             18

 INTEGRAL STORAGE REQUIRES                   30076 WORDS
 EXTRA ORMAS STORAGE REQUIRES               180181 WORDS
 (EXTRA ORMAS STORAGE INCLUDES THAT FOR MXXPAN = 16)
 TOTAL ORMAS CALCULATION REQUIRES           210494 WORDS

 FULLY DIRECT WOULD REQUIRE                 210421 WORDS
 SMALL CI MATRIX, JUST USING INCORE DIAGONALIZATION...

 INITIAL ORMAS VECTOR GUESS TIME :          0.0

 CI EIGENVECTORS WILL BE LABELED IN GROUP=C1      
 PRINTING ALL NON-ZERO CI COEFFICIENTS

 STATE   1  ENERGY=       -77.9753547413  S=  0.00  SZ=  0.00  SPACE SYM=A   

   ALPHA     |    BETA     | CI COEFFICIENT
 1     2     | 1     2     |
-------------|-------------|---------------
  1     3    |  1     3    |   0.6301600134
  1     4    |  1     4    |  -0.6301502794
  1     3    |  2     3    |  -0.1786066853
  2     3    |  1     3    |  -0.1786066853
  1     4    |  2     4    |   0.1786039678
  2     4    |  1     4    |   0.1786039678
  1     3    |  1     4    |   0.1726015514
  1     4    |  1     3    |   0.1726015514
  1     3    |  2     4    |  -0.0760207046
  2     4    |  1     3    |  -0.0760207046
        3  4 |  1  2       |  -0.0542017468
  1  2       |        3  4 |  -0.0542017468
  2     3    |  1     4    |  -0.0218189578
  1     4    |  2     3    |  -0.0218189578
  2     4    |  2     4    |   0.0105840183
  2     3    |  2     3    |  -0.0105839324
  2     3    |  2     4    |  -0.0028993431
  2     4    |  2     3    |  -0.0028993431

 STATE   2  ENERGY=       -77.9723830205  S=  1.00  SZ=  0.00  SPACE SYM=A   

   ALPHA     |    BETA     | CI COEFFICIENT
 1     2     | 1     2     |
-------------|-------------|---------------
  1     4    |  1     3    |   0.6551172075
  1     3    |  1     4    |  -0.6551172075
  2     4    |  1     3    |  -0.1937895734
  1     3    |  2     4    |   0.1937895734
  1     4    |  2     3    |  -0.1767535988
  2     3    |  1     4    |   0.1767535988
  2     3    |  1     3    |  -0.0310987627
  1     3    |  2     3    |   0.0310987627
  2     4    |  1     4    |   0.0310984127
  1     4    |  2     4    |  -0.0310984127
  2     4    |  2     3    |  -0.0095376490
  2     3    |  2     4    |   0.0095376490
        3  4 |  1  2       |  -0.0000000192
  1  2       |        3  4 |   0.0000000192
  1     3    |  1     3    |   0.0000000000
  1     4    |  1     4    |  -0.0000000000
  2     4    |  2     4    |  -0.0000000000
  2     3    |  2     3    |  -0.0000000000

 STATE   3  ENERGY=       -77.7651466073  S=  0.00  SZ=  0.00  SPACE SYM=A   

   ALPHA     |    BETA     | CI COEFFICIENT
 1     2     | 1     2     |
-------------|-------------|---------------
  1     3    |  1     4    |   0.6228758879
  1     4    |  1     3    |   0.6228758879
  1     4    |  1     4    |   0.2191157123
  1     3    |  2     4    |  -0.1711272381
  2     4    |  1     3    |  -0.1711272381
  1     4    |  2     3    |  -0.1711272367
  2     3    |  1     4    |  -0.1711272367
  2     3    |  1     3    |   0.1339364251
  1     3    |  2     3    |   0.1339364251
  1     3    |  1     3    |  -0.1220990330
  2     3    |  2     3    |  -0.0509938968
  2     4    |  2     4    |  -0.0460750652
  1     4    |  2     4    |   0.0401919858
  2     4    |  1     4    |   0.0401919858
  2     3    |  2     4    |   0.0089791260
  2     4    |  2     3    |   0.0089791260
  1  2       |        3  4 |  -0.0000000014
        3  4 |  1  2       |  -0.0000000014

 STATE   4  ENERGY=       -77.7632458275  S=  0.00  SZ=  0.00  SPACE SYM=A   

   ALPHA     |    BETA     | CI COEFFICIENT
 1     2     | 1     2     |
-------------|-------------|---------------
  1     4    |  1     4    |   0.6586143988
  1     3    |  1     3    |   0.6328602601
  1     3    |  2     3    |  -0.2004569962
  2     3    |  1     3    |  -0.2004569962
  2     4    |  1     4    |  -0.1543086114
  1     4    |  2     4    |  -0.1543086114
  1     3    |  2     4    |   0.0842479931
  2     4    |  1     3    |   0.0842479931
  1     4    |  2     3    |   0.0842469696
  2     3    |  1     4    |   0.0842469696
  1     4    |  1     3    |   0.0469948938
  1     3    |  1     4    |   0.0469948938
  2     4    |  2     3    |  -0.0469709498
  2     3    |  2     4    |  -0.0469709498
  2     3    |  2     3    |   0.0222324316
  2     4    |  2     4    |  -0.0034987611
  1  2       |        3  4 |   0.0000010235
        3  4 |  1  2       |   0.0000010235

 STATE   5  ENERGY=       -77.2581153660  S=  2.00  SZ=  0.00  SPACE SYM=A   

   ALPHA     |    BETA     | CI COEFFICIENT
 1     2     | 1     2     |
-------------|-------------|---------------
  1  2       |        3  4 |   0.4082482905
        3  4 |  1  2       |   0.4082482905
  1     4    |  2     3    |   0.4082482905
  1     3    |  2     4    |  -0.4082482905
  2     3    |  1     4    |   0.4082482905
  2     4    |  1     3    |  -0.4082482905
  1     4    |  1     3    |   0.0000000000
  2     4    |  2     3    |  -0.0000000000
  1     3    |  1     4    |  -0.0000000000
  2     3    |  2     4    |   0.0000000000
  2     4    |  1     4    |   0.0000000000
  2     3    |  1     3    |  -0.0000000000
  1     3    |  2     3    |   0.0000000000
  2     4    |  2     4    |   0.0000000000
  1     4    |  1     4    |  -0.0000000000
  2     3    |  2     3    |  -0.0000000000
  1     3    |  1     3    |   0.0000000000
  1     4    |  2     4    |  -0.0000000000

 STATE   6  ENERGY=       -77.1800499470  S=  1.00  SZ=  0.00  SPACE SYM=A   

   ALPHA     |    BETA     | CI COEFFICIENT
 1     2     | 1     2     |
-------------|-------------|---------------
  1     3    |  2     3    |   0.4808888413
  2     3    |  1     3    |  -0.4808888413
  1     4    |  2     4    |  -0.4808825784
  2     4    |  1     4    |   0.4808825784
  2     3    |  1     4    |  -0.1376890602
  1     4    |  2     3    |   0.1376890602
  1     3    |  2     4    |   0.1257427422
  2     4    |  1     3    |  -0.1257427422
  1     3    |  1     4    |   0.0460608610
  1     4    |  1     3    |  -0.0460608610
  2     3    |  2     4    |   0.0246323091
  2     4    |  2     3    |  -0.0246323091
        3  4 |  1  2       |   0.0000005742
  1  2       |        3  4 |  -0.0000005742
  2     3    |  2     3    |  -0.0000000000
  1     3    |  1     3    |   0.0000000000
  1     4    |  1     4    |   0.0000000000
  2     4    |  2     4    |   0.0000000000

 STATE   7  ENERGY=       -77.1094501200  S=  1.00  SZ=  0.00  SPACE SYM=A   

   ALPHA     |    BETA     | CI COEFFICIENT
 1     2     | 1     2     |
-------------|-------------|---------------
        3  4 |  1  2       |   0.7070502872
  1  2       |        3  4 |  -0.7070502872
  2     4    |  1     3    |  -0.0055215931
  1     3    |  2     4    |   0.0055215931
  2     3    |  1     4    |   0.0055191057
  1     4    |  2     3    |  -0.0055191057
  2     4    |  2     3    |   0.0030776115
  2     3    |  2     4    |  -0.0030776115
  1     4    |  1     3    |  -0.0030775180
  1     3    |  1     4    |   0.0030775180
  2     3    |  1     3    |   0.0000007593
  1     3    |  2     3    |  -0.0000007593
  2     4    |  1     4    |  -0.0000007593
  1     4    |  2     4    |   0.0000007593
  2     4    |  2     4    |   0.0000000000
  1     4    |  1     4    |  -0.0000000000
  1     3    |  1     3    |   0.0000000000
  2     3    |  2     3    |  -0.0000000000

 STATE   8  ENERGY=       -77.0323830657  S=  0.00  SZ=  0.00  SPACE SYM=A   

   ALPHA     |    BETA     | CI COEFFICIENT
 1     2     | 1     2     |
-------------|-------------|---------------
        3  4 |  1  2       |   0.5731669370
  1  2       |        3  4 |   0.5731669370
  1     4    |  2     3    |  -0.2880561100
  2     3    |  1     4    |  -0.2880561100
  2     4    |  1     3    |   0.2851108270
  1     3    |  2     4    |   0.2851108270
  1     4    |  1     4    |  -0.0665340054
  1     3    |  1     3    |   0.0665322089
  2     3    |  2     3    |   0.0472354797
  2     4    |  2     4    |  -0.0472342304
  1     4    |  1     3    |   0.0182240722
  1     3    |  1     4    |   0.0182240722
  2     3    |  2     4    |   0.0129372808
  2     4    |  2     3    |   0.0129372808
  2     4    |  1     4    |   0.0053800164
  1     4    |  2     4    |   0.0053800164
  1     3    |  2     3    |  -0.0053791821
  2     3    |  1     3    |  -0.0053791821

 ..... DONE WITH ORMAS-CI COMPUTATION .....
 STEP CPU TIME =     0.00 TOTAL CPU TIME =        0.2 (    0.0 MIN)
 TOTAL WALL CLOCK TIME=        0.4 SECONDS, CPU UTILIZATION IS  38.10%

     -------------------------------------------------------
      ONE AND TWO PARTICLE ORMAS DENSITY MATRIX COMPUTATION
                  PROGRAM WRITTEN BY JOE IVANIC
     -------------------------------------------------------

 THE DENSITIES ARE STATE AVERAGED OVER   1 ROOT(S)
 STATE=   1   ENERGY=      -77.9753547413   WEIGHT= 1.00000   S=  0.00
 SIEVING THE A    SYMMETRY NONZERO DENSITY ELEMENTS IN GROUP C1      
         31 NONZERO DM2 ELEMENTS WRITTEN IN       1 RECORDS TO FILE 70 LABELED AS DEN2P1 
         31 NONZERO DM2 ELEMENTS WRITTEN IN       1 RECORDS TO FILE 71 LABELED AS DEN2P2 
         31 NONZERO DM2 ELEMENTS WRITTEN IN       1 RECORDS TO FILE 72 LABELED AS DEN2P3 
         31 NONZERO DM2 ELEMENTS WRITTEN IN       1 RECORDS TO FILE 73 LABELED AS DEN2P4 
         31 NONZERO DM2 ELEMENTS WRITTEN IN       1 RECORDS TO FILE 15
 ..... DONE WITH 1 AND 2 PARTICLE DENSITY MATRIX .....
 STEP CPU TIME =     0.00 TOTAL CPU TIME =        0.2 (    0.0 MIN)
 TOTAL WALL CLOCK TIME=        0.5 SECONDS, CPU UTILIZATION IS  33.33%

     --------------------------------     -----------------------------
     MCHF NEWTON-RAPHSON OPTIMIZATION     CODE WRITTEN BY MICHEL DUPUIS
     --------------------------------     -----------------------------
 FORMING FOCK OPERATOR OVER ACTIVE ORBITAL DENSITY, MEMORY=     77028
 STEP CPU TIME =     0.01 TOTAL CPU TIME =        0.2 (    0.0 MIN)
 TOTAL WALL CLOCK TIME=        0.5 SECONDS, CPU UTILIZATION IS  34.69%
 MEMORY DEMAND FOR 2 ELECTRON NTN-RPH CONTRIBUTIONS
      METHOD=DM2     NEEDS    107881 WORDS
      METHOD=TEI     NEEDS     75481 WORDS
 TOTAL AVAILABLE MEMORY IS 150000000 WORDS
 CHOOSING DM2 DRIVEN METHOD...
 FORMING -LGR- + -COU- + -EXC- FROM (IJ//KL) INTEGRALS
 STEP CPU TIME =     0.00 TOTAL CPU TIME =        0.2 (    0.0 MIN)
 TOTAL WALL CLOCK TIME=        0.5 SECONDS, CPU UTILIZATION IS  34.69%
 FORMING -LGR- + -COU- + -EXC- FROM (AJ//KL) INTEGRALS
 STEP CPU TIME =     0.00 TOTAL CPU TIME =        0.2 (    0.0 MIN)
 TOTAL WALL CLOCK TIME=        0.5 SECONDS, CPU UTILIZATION IS  34.00%
 FORMING         -COU-         FROM (AB//KL) INTEGRALS
 STEP CPU TIME =     0.00 TOTAL CPU TIME =        0.2 (    0.0 MIN)
 TOTAL WALL CLOCK TIME=        0.5 SECONDS, CPU UTILIZATION IS  34.00%
 FORMING                 -EXC- FROM (AJ//BL) INTEGRALS
 ..... DONE WITH 2 ELECTRON CONTRIBUTIONS .....
 STEP CPU TIME =     0.00 TOTAL CPU TIME =        0.2 (    0.0 MIN)
 TOTAL WALL CLOCK TIME=        0.5 SECONDS, CPU UTILIZATION IS  34.00%
 ..... DONE WITH 1 ELECTRON CONTRIBUTIONS .....
 STEP CPU TIME =     0.01 TOTAL CPU TIME =        0.2 (    0.0 MIN)
 TOTAL WALL CLOCK TIME=        0.5 SECONDS, CPU UTILIZATION IS  36.00%
 NUMBER OF INDEPENDENT ORBITAL ROTATION PARAMETERS =   281
 ..... DONE SOLVING NEWTON-RAPHSON EQUATIONS .....
 STEP CPU TIME =     0.00 TOTAL CPU TIME =        0.2 (    0.0 MIN)
 TOTAL WALL CLOCK TIME=        0.5 SECONDS, CPU UTILIZATION IS  36.00%
 ..... DONE WITH NTN-RPH ORBITAL ROTATIONS ..... 
 STEP CPU TIME =     0.00 TOTAL CPU TIME =        0.2 (    0.0 MIN)
 TOTAL WALL CLOCK TIME=        0.5 SECONDS, CPU UTILIZATION IS  36.00%
 MAXIMUM MEMORY USED BY NTN-RPH CODE WAS    107881 WORDS.

 ITER     TOTAL ENERGY      DEL(E)  LAGRANGIAN ASYMMETRY   SQCDF  MICIT   DAMP
   1      -77.975354741 -0.975354741  0.001018   16    7 3.089E-06  1   0.0000
   2      -77.975356384 -0.000001643  0.000002   36    8 6.251E-09  1   0.0000
   3      -77.975356384  0.000000000  0.000002   36    8 6.251E-09  1   0.0000

          --------------------
          LAGRANGIAN CONVERGED
          --------------------

 FINAL MCSCF ENERGY IS      -77.9753563839 AFTER   3 ITERATIONS

 -MCCI- BASED ON OPTIMIZED ORBITALS
 ----------------------------------

 PLEASE NOTE: ORMAS IS NOT INVARIANT TO ORBITAL ROTATIONS BETWEEN THE
 DIFFERENT ACTIVE SPACES.  THE CI EXPANSION JUST BELOW IS FOR THE
 OPTIMIZED ORBITALS USED IN THE LAST ITERATION.  THE NATURAL ORBITALS
 ARE GENERATED BELOW, BUT THE NO'S ROTATE BETWEEN THE ACTIVE SPACES,
 SO THE NATURAL ORBITALS DO NOT REPRODUCE THE ORMAS WAVEFUNCTION.

 CI EIGENVECTORS WILL BE LABELED IN GROUP=C1      
 PRINTING ALL NON-ZERO CI COEFFICIENTS

 STATE   1  ENERGY=       -77.9753563839  S=  0.00  SZ=  0.00  SPACE SYM=A   

   ALPHA     |    BETA     | CI COEFFICIENT
 1     2     | 1     2     |
-------------|-------------|---------------
  1     4    |  1     4    |   0.6301552652
  1     3    |  1     3    |  -0.6301542778
  2     4    |  1     4    |  -0.1786036438
  1     4    |  2     4    |  -0.1786036438
  2     3    |  1     3    |   0.1786033739
  1     3    |  2     3    |   0.1786033739
  1     4    |  1     3    |  -0.1726008701
  1     3    |  1     4    |  -0.1726008701
  2     4    |  1     3    |   0.0760273492
  1     3    |  2     4    |   0.0760273492
        3  4 |  1  2       |   0.0542147344
  1  2       |        3  4 |   0.0542147344
  1     4    |  2     3    |   0.0218126148
  2     3    |  1     4    |   0.0218126148
  2     3    |  2     3    |   0.0105781348
  2     4    |  2     4    |  -0.0105781249
  2     4    |  2     3    |   0.0028973454
  2     3    |  2     4    |   0.0028973454

 STATE   2  ENERGY=       -77.9723822106  S=  1.00  SZ=  0.00  SPACE SYM=A   

   ALPHA     |    BETA     | CI COEFFICIENT
 1     2     | 1     2     |
-------------|-------------|---------------
  1     4    |  1     3    |   0.6551174226
  1     3    |  1     4    |  -0.6551174226
  2     4    |  1     3    |  -0.1937901578
  1     3    |  2     4    |   0.1937901578
  1     4    |  2     3    |  -0.1767495397
  2     3    |  1     4    |   0.1767495397
  1     3    |  2     3    |   0.0311071069
  2     3    |  1     3    |  -0.0311071069
  2     4    |  1     4    |   0.0311070976
  1     4    |  2     4    |  -0.0311070976
  2     3    |  2     4    |   0.0095306835
  2     4    |  2     3    |  -0.0095306835
  1  2       |        3  4 |   0.0000004849
        3  4 |  1  2       |  -0.0000004849
  1     3    |  1     3    |  -0.0000000000
  2     4    |  2     4    |  -0.0000000000
  1     4    |  1     4    |  -0.0000000000
  2     3    |  2     3    |  -0.0000000000

 STATE   3  ENERGY=       -77.7652463026  S=  0.00  SZ=  0.00  SPACE SYM=A   

   ALPHA     |    BETA     | CI COEFFICIENT
 1     2     | 1     2     |
-------------|-------------|---------------
  1     3    |  1     4    |   0.6229028835
  1     4    |  1     3    |   0.6229028835
  1     4    |  1     4    |   0.2191420143
  2     3    |  1     4    |  -0.1711324622
  1     4    |  2     3    |  -0.1711324622
  1     3    |  2     4    |  -0.1711324603
  2     4    |  1     3    |  -0.1711324603
  2     3    |  1     3    |   0.1338331691
  1     3    |  2     3    |   0.1338331691
  1     3    |  1     3    |  -0.1220871922
  2     3    |  2     3    |  -0.0509360538
  2     4    |  2     4    |  -0.0460352433
  2     4    |  1     4    |   0.0400860361
  1     4    |  2     4    |   0.0400860361
  2     4    |  2     3    |   0.0089463199
  2     3    |  2     4    |   0.0089463199
        3  4 |  1  2       |   0.0000000019
  1  2       |        3  4 |   0.0000000019

 STATE   4  ENERGY=       -77.7633418772  S=  0.00  SZ=  0.00  SPACE SYM=A   

   ALPHA     |    BETA     | CI COEFFICIENT
 1     2     | 1     2     |
-------------|-------------|---------------
  1     4    |  1     4    |   0.6585967264
  1     3    |  1     3    |   0.6329137610
  1     3    |  2     3    |  -0.2004640996
  2     3    |  1     3    |  -0.2004640996
  2     4    |  1     4    |  -0.1543485832
  1     4    |  2     4    |  -0.1543485832
  2     3    |  1     4    |   0.0841818558
  1     4    |  2     3    |   0.0841818558
  1     3    |  2     4    |   0.0841818410
  2     4    |  1     3    |   0.0841818410
  2     4    |  2     3    |  -0.0469258065
  2     3    |  2     4    |  -0.0469258065
  1     4    |  1     3    |   0.0468853046
  1     3    |  1     4    |   0.0468853046
  2     3    |  2     3    |   0.0221959482
  2     4    |  2     4    |  -0.0035102108
        3  4 |  1  2       |  -0.0000000148
  1  2       |        3  4 |  -0.0000000148

 STATE   5  ENERGY=       -77.2576276035  S=  2.00  SZ=  0.00  SPACE SYM=A   

   ALPHA     |    BETA     | CI COEFFICIENT
 1     2     | 1     2     |
-------------|-------------|---------------
        3  4 |  1  2       |   0.4082482905
  1     3    |  2     4    |  -0.4082482905
  2     3    |  1     4    |   0.4082482905
  1     4    |  2     3    |   0.4082482905
  2     4    |  1     3    |  -0.4082482905
  1  2       |        3  4 |   0.4082482905
  1     4    |  1     4    |   0.0000000000
  2     4    |  2     4    |   0.0000000000
  1     3    |  1     3    |  -0.0000000000
  1     4    |  2     4    |  -0.0000000000
  1     4    |  1     3    |   0.0000000000
  2     3    |  2     4    |  -0.0000000000
  1     3    |  2     3    |   0.0000000000
  2     3    |  1     3    |  -0.0000000000
  2     4    |  2     3    |  -0.0000000000
  1     3    |  1     4    |  -0.0000000000
  2     3    |  2     3    |  -0.0000000000
  2     4    |  1     4    |   0.0000000000

 STATE   6  ENERGY=       -77.1794870257  S=  1.00  SZ=  0.00  SPACE SYM=A   

   ALPHA     |    BETA     | CI COEFFICIENT
 1     2     | 1     2     |
-------------|-------------|---------------
  2     4    |  1     4    |   0.4808852243
  1     4    |  2     4    |  -0.4808852243
  2     3    |  1     3    |  -0.4808846780
  1     3    |  2     3    |   0.4808846780
  2     3    |  1     4    |  -0.1376893223
  1     4    |  2     3    |   0.1376893223
  2     4    |  1     3    |  -0.1257417589
  1     3    |  2     4    |   0.1257417589
  1     4    |  1     3    |  -0.0460737478
  1     3    |  1     4    |   0.0460737478
  2     3    |  2     4    |   0.0246413836
  2     4    |  2     3    |  -0.0246413836
        3  4 |  1  2       |   0.0000099936
  1  2       |        3  4 |  -0.0000099936
  1     4    |  1     4    |   0.0000000000
  1     3    |  1     3    |   0.0000000000
  2     4    |  2     4    |  -0.0000000000
  2     3    |  2     3    |  -0.0000000000

 STATE   7  ENERGY=       -77.1088232611  S=  1.00  SZ=  0.00  SPACE SYM=A   

   ALPHA     |    BETA     | CI COEFFICIENT
 1     2     | 1     2     |
-------------|-------------|---------------
  1  2       |        3  4 |   0.7070500107
        3  4 |  1  2       |  -0.7070500107
  1     4    |  2     3    |   0.0055358557
  2     3    |  1     4    |  -0.0055358557
  1     3    |  2     4    |  -0.0055320547
  2     4    |  1     3    |   0.0055320547
  2     4    |  2     3    |  -0.0030858197
  2     3    |  2     4    |   0.0030858197
  1     4    |  1     3    |   0.0030839427
  1     3    |  1     4    |  -0.0030839427
  2     4    |  1     4    |   0.0000067563
  1     4    |  2     4    |  -0.0000067563
  1     3    |  2     3    |   0.0000067563
  2     3    |  1     3    |  -0.0000067563
  2     4    |  2     4    |  -0.0000000000
  1     3    |  1     3    |  -0.0000000000
  1     4    |  1     4    |  -0.0000000000
  2     3    |  2     3    |  -0.0000000000

 STATE   8  ENERGY=       -77.0316840591  S=  0.00  SZ=  0.00  SPACE SYM=A   

   ALPHA     |    BETA     | CI COEFFICIENT
 1     2     | 1     2     |
-------------|-------------|---------------
  1  2       |        3  4 |   0.5731644339
        3  4 |  1  2       |   0.5731644339
  1     4    |  2     3    |  -0.2880551200
  2     3    |  1     4    |  -0.2880551200
  2     4    |  1     3    |   0.2851093139
  1     3    |  2     4    |   0.2851093139
  1     4    |  1     4    |  -0.0665503163
  1     3    |  1     3    |   0.0665502105
  2     3    |  2     3    |   0.0472535300
  2     4    |  2     4    |  -0.0472534391
  1     3    |  1     4    |   0.0182283251
  1     4    |  1     3    |   0.0182283251
  2     3    |  2     4    |   0.0129427901
  2     4    |  2     3    |   0.0129427901
  2     4    |  1     4    |   0.0053778307
  1     4    |  2     4    |   0.0053778307
  1     3    |  2     3    |  -0.0053777809
  2     3    |  1     3    |  -0.0053777809

 DENSITY MATRIX OVER ACTIVE MO-S

             1           2           3           4

    1    1.8535316
    2   -0.4758418   0.1464684
    3    0.0000000   0.0000000   0.9999986
    4    0.0000000   0.0000000  -0.0000004   1.0000014

 FORMING THE "STANDARD FOCK OPERATOR" USING INTEGRALS FROM DISK...
     6 FILLED,    4 ACTIVE, AND   26 VIRTUAL ORBITALS  WILL BE CANONICALIZED

          ----------------------
          MCSCF NATURAL ORBITALS
          ----------------------

                      1          2          3          4          5
                  -11.2165   -11.2159    -0.7989    -0.7919    -0.5765
                     A          A          A          A          A   
    1  C  1  S    0.704695   0.705234   0.124351   0.105561   0.000002
    2  C  1  S    0.017305   0.014444  -0.242998  -0.202900  -0.000004
    3  C  1  X    0.000028  -0.000364   0.014353   0.019659   0.057851
    4  C  1  Y   -0.000007   0.000091  -0.003620  -0.004956   0.076564
    5  C  1  Z    0.000299  -0.003828   0.151063   0.206955  -0.003664
    6  C  1  S   -0.011021  -0.009375  -0.258174  -0.176739  -0.000002
    7  C  1  X   -0.000152  -0.000051   0.004904   0.010294   0.036798
    8  C  1  Y    0.000038   0.000013  -0.001240  -0.002594   0.013545
    9  C  1  Z   -0.001596  -0.000534   0.051606   0.108357  -0.003169
   10  C  1 XX   -0.000143   0.000417  -0.015760  -0.013036  -0.001409
   11  C  1 YY   -0.000361   0.000042   0.009351   0.010980  -0.000260
   12  C  1 ZZ    0.000504  -0.000459   0.006410   0.002055   0.001669
   13  C  1 XY    0.000102   0.000188  -0.012363  -0.011782   0.000805
   14  C  1 XZ    0.000074  -0.000092   0.002152   0.001382  -0.008472
   15  C  1 YZ   -0.000034  -0.000004   0.001253   0.001365   0.006291
   16  C  2  S   -0.704174   0.705755  -0.124427   0.105474   0.000000
   17  C  2  S   -0.017293   0.014457   0.243145  -0.202731  -0.000000
   18  C  2  X    0.000028   0.000364   0.014367  -0.019651  -0.138622
   19  C  2  Y   -0.000007  -0.000091  -0.003609   0.004934   0.408573
   20  C  2  Z    0.000300   0.003827   0.151200  -0.206849   0.022919
   21  C  2  S    0.011015  -0.009383   0.258302  -0.176559  -0.000000
   22  C  2  X   -0.000152   0.000051   0.004911  -0.010292  -0.071887
   23  C  2  Y    0.000038  -0.000013  -0.001231   0.002586   0.197204
   24  C  2  Z   -0.001597   0.000535   0.051679  -0.108321   0.011534
   25  C  2 XX    0.000354   0.000037  -0.009383   0.010945  -0.002031
   26  C  2 YY    0.000149   0.000423   0.015909  -0.013107  -0.001199
   27  C  2 ZZ   -0.000504  -0.000461  -0.006526   0.002161   0.003230
   28  C  2 XY    0.000106  -0.000184  -0.012320   0.011757   0.003052
   29  C  2 XZ   -0.000092  -0.000060   0.000016  -0.000686  -0.012165
   30  C  2 YZ    0.000008   0.000042   0.001790  -0.001537   0.028968
   31  H  3  S    0.000100  -0.000122   0.143539  -0.148598   0.236835
   32  H  3  S   -0.001599   0.002892   0.065576  -0.080648   0.181158
   33  H  4  S   -0.000100  -0.000122  -0.143436  -0.148698   0.044320
   34  H  4  S    0.001601   0.002891  -0.065521  -0.080694   0.033901
   35  H  5  S   -0.000100  -0.000122  -0.143436  -0.148697  -0.044323
   36  H  5  S    0.001601   0.002891  -0.065521  -0.080693  -0.033904
   37  H  6  S    0.000100  -0.000122   0.143539  -0.148596  -0.236837
   38  H  6  S   -0.001599   0.002892   0.065576  -0.080647  -0.181160

                      6          7          8          9         10
                   -0.5765     1.9772     1.0000     1.0000     0.0228
                     A          A          A          A          A   
    1  C  1  S   -0.000000   0.101125   0.000009   0.000008  -0.121384
    2  C  1  S    0.000001  -0.221543  -0.000020  -0.000017   0.506285
    3  C  1  X    0.407173  -0.032947  -0.120688  -0.170967   0.063626
    4  C  1  Y    0.140128   0.008282   0.409395   0.390814  -0.015988
    5  C  1  Z   -0.035325  -0.346918   0.021246   0.025582   0.669982
    6  C  1  S    0.000000  -0.177214  -0.000040  -0.000035   0.555156
    7  C  1  X    0.196540  -0.012674  -0.096398  -0.165065   0.023518
    8  C  1  Y    0.072634   0.003184   0.371375   0.346002  -0.005895
    9  C  1  Z   -0.016932  -0.133448   0.018034   0.023952   0.247767
   10  C  1 XX   -0.004760   0.012817  -0.003097   0.002951  -0.076238
   11  C  1 YY    0.000518   0.009055   0.000229  -0.000334   0.035079
   12  C  1 ZZ    0.004242  -0.021871   0.002869  -0.002616   0.041160
   13  C  1 XY   -0.000489   0.002065  -0.000077   0.000335  -0.054935
   14  C  1 XZ   -0.028686  -0.003790  -0.018673   0.017786   0.011653
   15  C  1 YZ   -0.012519   0.000664  -0.005595   0.008064   0.005028
   16  C  2  S    0.000001   0.101118  -0.000006   0.000002   0.121385
   17  C  2  S   -0.000002  -0.221537   0.000012  -0.000005  -0.506276
   18  C  2  X    0.076112   0.032948  -0.389563   0.407949   0.063626
   19  C  2  Y   -0.057922  -0.008283  -0.172572   0.122121  -0.015995
   20  C  2  Z   -0.008613   0.346921   0.032879  -0.035840   0.669973
   21  C  2  S   -0.000001  -0.177208   0.000021  -0.000016  -0.555170
   22  C  2  X    0.013405   0.012674  -0.344922   0.370035   0.023517
   23  C  2  Y   -0.036922  -0.003189  -0.166544   0.097645  -0.005907
   24  C  2  Z   -0.002156   0.133452   0.028788  -0.032819   0.247774
   25  C  2 XX   -0.001037   0.008785   0.001309   0.000902  -0.035345
   26  C  2 YY    0.000356   0.013105   0.000743   0.000781   0.077026
   27  C  2 ZZ    0.000681  -0.021890  -0.002052  -0.001684  -0.041681
   28  C  2 XY   -0.000668  -0.001893  -0.001898  -0.001927  -0.054609
   29  C  2 XZ   -0.006269  -0.003442   0.007841   0.005397  -0.002032
   30  C  2 YZ   -0.008623   0.001153  -0.017958  -0.018874   0.008464
   31  H  3  S   -0.044323   0.029515  -0.049302  -0.049295   0.059540
   32  H  3  S   -0.033903   0.059686  -0.071250  -0.071242   0.104444
   33  H  4  S    0.236836   0.029512   0.049305  -0.049292  -0.059541
   34  H  4  S    0.181159   0.059687   0.071254  -0.071237  -0.104442
   35  H  5  S   -0.236837   0.029512  -0.049291   0.049305  -0.059544
   36  H  5  S   -0.181159   0.059687  -0.071233   0.071254  -0.104452
   37  H  6  S    0.044321   0.029516   0.049295   0.049301   0.059544
   38  H  6  S    0.033902   0.059688   0.071237   0.071248   0.104466

          ------------------------
          MCSCF OPTIMIZED ORBITALS
          ------------------------

                      1          2          3          4          5
                  -11.2165   -11.2159    -0.7989    -0.7919    -0.5765
                     A          A          A          A          A   
    1  C  1  S    0.704695   0.705234   0.124351   0.105561   0.000002
    2  C  1  S    0.017305   0.014444  -0.242998  -0.202900  -0.000004
    3  C  1  X    0.000028  -0.000364   0.014353   0.019659   0.057851
    4  C  1  Y   -0.000007   0.000091  -0.003620  -0.004956   0.076564
    5  C  1  Z    0.000299  -0.003828   0.151063   0.206955  -0.003664
    6  C  1  S   -0.011021  -0.009375  -0.258174  -0.176739  -0.000002
    7  C  1  X   -0.000152  -0.000051   0.004904   0.010294   0.036798
    8  C  1  Y    0.000038   0.000013  -0.001240  -0.002594   0.013545
    9  C  1  Z   -0.001596  -0.000534   0.051606   0.108357  -0.003169
   10  C  1 XX   -0.000143   0.000417  -0.015760  -0.013036  -0.001409
   11  C  1 YY   -0.000361   0.000042   0.009351   0.010980  -0.000260
   12  C  1 ZZ    0.000504  -0.000459   0.006410   0.002055   0.001669
   13  C  1 XY    0.000102   0.000188  -0.012363  -0.011782   0.000805
   14  C  1 XZ    0.000074  -0.000092   0.002152   0.001382  -0.008472
   15  C  1 YZ   -0.000034  -0.000004   0.001253   0.001365   0.006291
   16  C  2  S   -0.704174   0.705755  -0.124427   0.105474   0.000000
   17  C  2  S   -0.017293   0.014457   0.243145  -0.202731  -0.000000
   18  C  2  X    0.000028   0.000364   0.014367  -0.019651  -0.138622
   19  C  2  Y   -0.000007  -0.000091  -0.003609   0.004934   0.408573
   20  C  2  Z    0.000300   0.003827   0.151200  -0.206849   0.022919
   21  C  2  S    0.011015  -0.009383   0.258302  -0.176559  -0.000000
   22  C  2  X   -0.000152   0.000051   0.004911  -0.010292  -0.071887
   23  C  2  Y    0.000038  -0.000013  -0.001231   0.002586   0.197204
   24  C  2  Z   -0.001597   0.000535   0.051679  -0.108321   0.011534
   25  C  2 XX    0.000354   0.000037  -0.009383   0.010945  -0.002031
   26  C  2 YY    0.000149   0.000423   0.015909  -0.013107  -0.001199
   27  C  2 ZZ   -0.000504  -0.000461  -0.006526   0.002161   0.003230
   28  C  2 XY    0.000106  -0.000184  -0.012320   0.011757   0.003052
   29  C  2 XZ   -0.000092  -0.000060   0.000016  -0.000686  -0.012165
   30  C  2 YZ    0.000008   0.000042   0.001790  -0.001537   0.028968
   31  H  3  S    0.000100  -0.000122   0.143539  -0.148598   0.236835
   32  H  3  S   -0.001599   0.002892   0.065576  -0.080648   0.181158
   33  H  4  S   -0.000100  -0.000122  -0.143436  -0.148698   0.044320
   34  H  4  S    0.001601   0.002891  -0.065521  -0.080694   0.033901
   35  H  5  S   -0.000100  -0.000122  -0.143436  -0.148697  -0.044323
   36  H  5  S    0.001601   0.002891  -0.065521  -0.080693  -0.033904
   37  H  6  S    0.000100  -0.000122   0.143539  -0.148596  -0.236837
   38  H  6  S   -0.001599   0.002892   0.065576  -0.080647  -0.181160

                      6          7          8          9         10
                   -0.5765    -0.7253     0.6941    -0.0900    -0.0900
                     A          A          A          A          A   
    1  C  1  S   -0.000000   0.101125  -0.121384   0.000008  -0.000009
    2  C  1  S    0.000001  -0.221543   0.506285  -0.000018   0.000018
    3  C  1  X    0.407173  -0.032947   0.063626  -0.178666   0.108967
    4  C  1  Y    0.140128   0.008282  -0.015988   0.417354  -0.382303
    5  C  1  Z   -0.035325  -0.346918   0.669982   0.026948  -0.019485
    6  C  1  S    0.000000  -0.177214   0.555156  -0.000038   0.000037
    7  C  1  X    0.196540  -0.012674   0.023518  -0.171150   0.085127
    8  C  1  Y    0.072634   0.003184  -0.005895   0.370096  -0.347369
    9  C  1  Z   -0.016932  -0.133448   0.247767   0.025106  -0.016390
   10  C  1 XX   -0.004760   0.012817  -0.076238   0.002736   0.003288
   11  C  1 YY    0.000518   0.009055   0.035079  -0.000318  -0.000251
   12  C  1 ZZ    0.004242  -0.021871   0.041160  -0.002418  -0.003037
   13  C  1 XY   -0.000489   0.002065  -0.054935   0.000329   0.000099
   14  C  1 XZ   -0.028686  -0.003790   0.011653   0.016495   0.019822
   15  C  1 YZ   -0.012519   0.000664   0.005028   0.007671   0.006123
   16  C  2  S    0.000001   0.101118   0.121385   0.000002   0.000006
   17  C  2  S   -0.000002  -0.221537  -0.506276  -0.000004  -0.000012
   18  C  2  X    0.076112   0.032948   0.063626   0.380944   0.416008
   19  C  2  Y   -0.057922  -0.008283  -0.015995   0.110290   0.180363
   20  C  2  Z   -0.008613   0.346921   0.669973  -0.033557  -0.035205
   21  C  2  S   -0.000001  -0.177208  -0.555170  -0.000014  -0.000022
   22  C  2  X    0.013405   0.012674   0.023517   0.346105   0.368928
   23  C  2  Y   -0.036922  -0.003189  -0.005907   0.086273   0.172709
   24  C  2  Z   -0.002156   0.133452   0.247774  -0.030817  -0.030921
   25  C  2 XX   -0.001037   0.008785  -0.035345   0.000988  -0.001246
   26  C  2 YY    0.000356   0.013105   0.077026   0.000829  -0.000689
   27  C  2 ZZ    0.000681  -0.021890  -0.041681  -0.001817   0.001935
   28  C  2 XY   -0.000668  -0.001893  -0.054609  -0.002050   0.001765
   29  C  2 XZ   -0.006269  -0.003442  -0.002032   0.005910  -0.007462
   30  C  2 YZ   -0.008623   0.001153   0.008464  -0.020035   0.016654
   31  H  3  S   -0.044323   0.029515   0.059540  -0.052486   0.045890
   32  H  3  S   -0.033903   0.059686   0.104444  -0.075854   0.066319
   33  H  4  S    0.236836   0.029512  -0.059541  -0.045879  -0.052496
   34  H  4  S    0.181159   0.059687  -0.104442  -0.066305  -0.075865
   35  H  5  S   -0.236837   0.029512  -0.059544   0.045893   0.052482
   36  H  5  S   -0.181159   0.059687  -0.104452   0.066324   0.075845
   37  H  6  S    0.044321   0.029516   0.059544   0.052492  -0.045882
   38  H  6  S    0.033902   0.059688   0.104466   0.075859  -0.066306

                     11         12         13         14         15
                    0.2930     0.3163     0.3514     0.3514     0.6515
                     A          A          A          A          A   
    1  C  1  S   -0.082061  -0.057682  -0.000003   0.000004  -0.037007
    2  C  1  S    0.107573   0.010101   0.000006  -0.000003  -0.072604
    3  C  1  X   -0.013610  -0.020154  -0.211909  -0.267203  -0.038227
    4  C  1  Y    0.003436   0.005077  -0.074682  -0.101582   0.009609
    5  C  1  Z   -0.143292  -0.212078   0.018338   0.022960  -0.402419
    6  C  1  S    1.512804   0.881395   0.000049  -0.000050   1.964984
    7  C  1  X   -0.058788  -0.100165  -1.108629  -1.162721   0.217979
    8  C  1  Y    0.014840   0.025220  -0.034991  -0.724140  -0.054807
    9  C  1  Z   -0.618758  -1.054279   0.104401   0.093200   2.295187
   10  C  1 XX   -0.000619  -0.007502   0.000724  -0.000694   0.018726
   11  C  1 YY   -0.008109  -0.002225   0.000546  -0.000418  -0.065278
   12  C  1 ZZ    0.008728   0.009727  -0.001270   0.001112   0.046553
   13  C  1 XY    0.003579  -0.002684  -0.001361   0.001061   0.040666
   14  C  1 XZ    0.001123   0.001842   0.004331  -0.004161   0.004077
   15  C  1 YZ   -0.000807  -0.000079  -0.013211   0.010100  -0.006959
   16  C  2  S   -0.082058   0.057683  -0.000000  -0.000003   0.037007
   17  C  2  S    0.107571  -0.010105   0.000004   0.000000   0.072598
   18  C  2  X    0.013612  -0.020156   0.100552  -0.073890  -0.038227
   19  C  2  Y   -0.003411   0.005078  -0.268101   0.212633   0.009622
   20  C  2  Z    0.143290  -0.212079  -0.015958   0.012104  -0.402408
   21  C  2  S    1.512768  -0.881429   0.000008   0.000040  -1.964992
   22  C  2  X    0.058795  -0.100175   0.718472  -0.032336   0.217982
   23  C  2  Y   -0.014762   0.025210  -1.165995   1.113221  -0.054781
   24  C  2  Z    0.618747  -1.054294  -0.096100   0.029705   2.295168
   25  C  2 XX   -0.007981   0.002113   0.001657   0.002168   0.064497
   26  C  2 YY   -0.000713   0.007639  -0.000176  -0.000183  -0.018326
   27  C  2 ZZ    0.008694  -0.009752  -0.001482  -0.001984  -0.046171
   28  C  2 XY   -0.003648  -0.002607   0.000164   0.000109   0.041032
   29  C  2 XZ    0.001758  -0.001377   0.010002   0.013074  -0.011253
   30  C  2 YZ    0.000082   0.000729   0.004283   0.004476  -0.003103
   31  H  3  S   -0.000727   0.025352  -0.007776   0.006114  -0.211651
   32  H  3  S   -1.089779   1.122686   1.444830  -1.135714  -0.140646
   33  H  4  S   -0.000727  -0.025354  -0.006110  -0.007781   0.211660
   34  H  4  S   -1.089793  -1.122707   1.135590   1.444890   0.140637
   35  H  5  S   -0.000726  -0.025357   0.006118   0.007776   0.211672
   36  H  5  S   -1.089769  -1.122759  -1.135720  -1.444754   0.140611
   37  H  6  S   -0.000725   0.025359   0.007781  -0.006114  -0.211679
   38  H  6  S   -1.089731   1.122829  -1.444813   1.135601  -0.140589

                     16         17         18         19         20
                    0.7294     0.8100     0.8100     0.8975     0.9079
                     A          A          A          A          A   
    1  C  1  S    0.008165  -0.000002   0.000005  -0.031754   0.000037
    2  C  1  S    0.181460   0.000003   0.000020  -0.812200   0.000932
    3  C  1  X    0.056643   0.321865  -0.215270  -0.013095  -0.544581
    4  C  1  Y   -0.014232  -0.398574   0.858063   0.003505   0.038438
    5  C  1  Z    0.596403  -0.040103   0.040953  -0.132943   0.052794
    6  C  1  S    0.335851   0.000055  -0.000116   1.453060  -0.001651
    7  C  1  X   -0.094523  -0.583329   0.037680  -0.028839   1.762543
    8  C  1  Y    0.023775   0.258137  -0.844288   0.006845  -0.068039
    9  C  1  Z   -0.995116   0.061602  -0.023735  -0.318284  -0.168604
   10  C  1 XX   -0.063289  -0.001337  -0.000458  -0.044352   0.013036
   11  C  1 YY   -0.033416   0.000037   0.000204   0.086520  -0.004076
   12  C  1 ZZ    0.096705   0.001300   0.000254  -0.042168  -0.008960
   13  C  1 XY   -0.015615   0.000120  -0.000399  -0.063658   0.007284
   14  C  1 XZ    0.017333  -0.008018  -0.002793  -0.001284   0.078370
   15  C  1 YZ   -0.002142  -0.000822  -0.005001   0.009734   0.095966
   16  C  2  S    0.008165   0.000001   0.000002  -0.031753   0.000038
   17  C  2  S    0.181461  -0.000010   0.000032  -0.812199   0.000937
   18  C  2  X   -0.056646   0.854948   0.397630   0.013077   0.390512
   19  C  2  Y    0.014251   0.218117   0.324123  -0.003812  -0.319980
   20  C  2  Z   -0.596413  -0.076009  -0.030023   0.132940  -0.044893
   21  C  2  S    0.335832  -0.000033  -0.000051   1.453062  -0.001712
   22  C  2  X    0.094530  -0.840826  -0.258373   0.028916  -1.212908
   23  C  2  Y   -0.023779  -0.039752  -0.586375  -0.005508   1.072420
   24  C  2  Z    0.995145   0.078957   0.010475   0.318301   0.140479
   25  C  2 XX   -0.032254   0.000819  -0.000136   0.085696  -0.005886
   26  C  2 YY   -0.064593   0.000118  -0.000332  -0.044115   0.004703
   27  C  2 ZZ    0.096847  -0.000936   0.000468  -0.041580   0.001183
   28  C  2 XY    0.014852  -0.000386   0.000789   0.063982  -0.009935
   29  C  2 XZ    0.014657   0.004917  -0.000755  -0.012516  -0.035124
   30  C  2 YZ   -0.005898  -0.002793   0.008117  -0.006299  -0.112596
   31  H  3  S   -0.129226  -0.091702   0.166183  -0.442967  -0.296977
   32  H  3  S   -0.110794  -0.123369   0.223533  -0.240825  -0.398725
   33  H  4  S   -0.129226   0.166138   0.091749  -0.442672  -0.340603
   34  H  4  S   -0.110789   0.223512   0.123387  -0.240467  -0.457211
   35  H  5  S   -0.129228  -0.166159  -0.091664  -0.442224   0.341626
   36  H  5  S   -0.110786  -0.223517  -0.123352  -0.239922   0.457816
   37  H  6  S   -0.129238   0.091706  -0.166116  -0.441927   0.297997
   38  H  6  S   -0.110783   0.123365  -0.223500  -0.239562   0.399275

                     21         22         23         24         25
                    0.9079     1.1787     1.1856     1.1856     1.2157
                     A          A          A          A          A   
    1  C  1  S    0.000017  -0.068265   0.000002  -0.000005  -0.010092
    2  C  1  S    0.000438  -0.944497   0.000024  -0.000189   1.232893
    3  C  1  X    0.319532  -0.025136  -0.891182   0.249644  -0.040673
    4  C  1  Y    0.392892   0.006298  -0.322891   0.114462   0.010272
    5  C  1  Z   -0.020904  -0.264009   0.076935  -0.020968  -0.428362
    6  C  1  S   -0.000708   3.375373  -0.000097   0.000551  -2.869733
    7  C  1  X   -1.070629   0.160920   1.439683  -0.351195  -0.000148
    8  C  1  Y   -1.220422  -0.040336   0.478401  -0.315337  -0.000054
    9  C  1  Z    0.072861   1.693515  -0.125373   0.025968  -0.001511
   10  C  1 XX   -0.018409  -0.119882  -0.030583   0.016008  -0.050877
   11  C  1 YY   -0.001496   0.083819   0.004346   0.003705   0.023345
   12  C  1 ZZ    0.019905   0.036064   0.026238  -0.019713   0.027533
   13  C  1 XY    0.006056  -0.100126  -0.005514  -0.010840  -0.036631
   14  C  1 XZ   -0.110945   0.014803  -0.184442   0.096283   0.007794
   15  C  1 YZ    0.034814   0.010810  -0.105298  -0.089264   0.003347
   16  C  2  S    0.000020   0.068265  -0.000002   0.000006   0.010092
   17  C  2  S    0.000459   0.944496  -0.000055   0.000150  -1.232895
   18  C  2  X   -0.039516  -0.025111   0.113419   0.319523  -0.040680
   19  C  2  Y   -0.546977   0.006382  -0.250439  -0.894212   0.010167
   20  C  2  Z   -0.009401  -0.264011  -0.016749  -0.051693  -0.428364
   21  C  2  S   -0.000899  -3.375373   0.000162  -0.000472   2.869739
   22  C  2  X    0.071719   0.160865  -0.313223  -0.473124  -0.000136
   23  C  2  Y    1.770099  -0.040593   0.351981   1.444676   0.000124
   24  C  2  Z    0.035422   1.693516   0.038111   0.079596  -0.001507
   25  C  2 XX    0.015628  -0.083816   0.014706  -0.017130  -0.023527
   26  C  2 YY    0.003287   0.120813  -0.004056  -0.007697   0.051402
   27  C  2 ZZ   -0.018915  -0.036997  -0.010650   0.024827  -0.027875
   28  C  2 XY   -0.009813  -0.099840   0.007175   0.020190  -0.036410
   29  C  2 XZ    0.094240   0.002760   0.088797  -0.102713  -0.001377
   30  C  2 YZ   -0.078716   0.013820   0.098121   0.186087   0.005663
   31  H  3  S   -0.340871   0.455776   0.177389   0.614290   0.330246
   32  H  3  S   -0.457426  -0.196837  -0.398483  -1.379703  -0.875343
   33  H  4  S    0.297733  -0.455785   0.614280  -0.177424  -0.330219
   34  H  4  S    0.399184   0.196878  -1.379744   0.398409   0.875292
   35  H  5  S   -0.297242  -0.455846  -0.614258   0.177381  -0.330178
   36  H  5  S   -0.398824   0.197055   1.379724  -0.398528   0.875219
   37  H  6  S    0.341359   0.455857  -0.177414  -0.614250   0.330152
   38  H  6  S    0.457615  -0.197095   0.398456   1.379764  -0.875173

                     26         27         28         29         30
                    1.2446     1.8748     2.0682     2.0919     2.0919
                     A          A          A          A          A   
    1  C  1  S    0.027945  -0.000000  -0.000000   0.000003   0.000001
    2  C  1  S   -1.151090  -0.000001  -0.000001   0.000026   0.000032
    3  C  1  X    0.032856  -0.000030   0.000220  -0.105695   0.040333
    4  C  1  Y   -0.008292  -0.000021  -0.000011   0.036170   0.103898
    5  C  1  Z    0.345742   0.000002  -0.000021   0.010905  -0.001342
    6  C  1  S    2.044556   0.000002   0.000004  -0.000054  -0.000043
    7  C  1  X   -0.056261  -0.000064   0.001485  -0.639305   0.720699
    8  C  1  Y    0.014199  -0.000009   0.000866  -0.512969  -0.061074
    9  C  1  Z   -0.591998   0.000005  -0.000121   0.048518  -0.069883
   10  C  1 XX    0.096801  -0.383799   0.399598   0.077067   0.000298
   11  C  1 YY   -0.025421   0.389113  -0.405287   0.017316   0.030018
   12  C  1 ZZ   -0.071380  -0.005314   0.005689  -0.094383  -0.030317
   13  C  1 XY    0.060583   0.526101  -0.547871  -0.053647  -0.067918
   14  C  1 XZ   -0.017140   0.054725  -0.057802   0.458890   0.002182
   15  C  1 YZ   -0.004457  -0.039141   0.041249  -0.435140  -0.717538
   16  C  2  S    0.027945  -0.000000   0.000000  -0.000003  -0.000002
   17  C  2  S   -1.151088  -0.000001   0.000001  -0.000006   0.000017
   18  C  2  X   -0.032860  -0.000014   0.000212  -0.103372   0.036256
   19  C  2  Y    0.008262  -0.000022  -0.000019   0.040267   0.106224
   20  C  2  Z   -0.345741   0.000001  -0.000020   0.010773  -0.000917
   21  C  2  S    2.044553   0.000002  -0.000004   0.000041  -0.000002
   22  C  2  X    0.056266   0.000039  -0.000364   0.062450  -0.509368
   23  C  2  Y   -0.014151  -0.000016  -0.000943   0.723876   0.640848
   24  C  2  Z    0.591997  -0.000003   0.000012   0.011410   0.063716
   25  C  2 XX   -0.026052  -0.383829  -0.399490  -0.118335   0.071813
   26  C  2 YY    0.097995   0.389119   0.405256   0.000989  -0.019431
   27  C  2 ZZ   -0.071943  -0.005290  -0.005766   0.117346  -0.052382
   28  C  2 XY   -0.060018   0.526090   0.547921   0.017464   0.033763
   29  C  2 XZ   -0.006546   0.054530   0.058417  -0.708392   0.432850
   30  C  2 YZ    0.010408  -0.039333  -0.040643  -0.007118   0.467851
   31  H  3  S    0.392456   0.000026   0.000384  -0.327420  -0.387334
   32  H  3  S   -0.986237  -0.000002   0.000213  -0.185747  -0.219718
   33  H  4  S    0.392463   0.000058  -0.000856   0.387335  -0.327381
   34  H  4  S   -0.986251  -0.000005  -0.000475   0.219745  -0.185696
   35  H  5  S    0.392472  -0.000059   0.000853  -0.387284   0.327397
   36  H  5  S   -0.986266   0.000004   0.000473  -0.219685   0.185746
   37  H  6  S    0.392477  -0.000027  -0.000381   0.327357   0.387288
   38  H  6  S   -0.986277   0.000001  -0.000211   0.185699   0.219711

                     31         32         33         34         35
                    2.1897     2.3019     2.5174     2.7537     2.7537
                     A          A          A          A          A   
    1  C  1  S    0.007104   0.049352  -0.027085   0.000001   0.000000
    2  C  1  S   -0.461899   0.232243   0.043071  -0.000007  -0.000001
    3  C  1  X   -0.029392   0.001706   0.000630   0.049981  -0.122219
    4  C  1  Y    0.007389  -0.000437  -0.000144   0.090052   0.003905
    5  C  1  Z   -0.309525   0.017811   0.006621  -0.002590   0.011713
    6  C  1  S    0.295254  -1.070083   0.357556   0.000017   0.000025
    7  C  1  X    0.027372  -0.000792  -0.027276   0.070533  -0.121109
    8  C  1  Y   -0.006884   0.000211   0.006883   0.052512  -0.026624
    9  C  1  Z    0.288123  -0.008696  -0.287001  -0.005403   0.010906
   10  C  1 XX   -0.227727  -0.509872   0.570510  -0.119215   0.118580
   11  C  1 YY   -0.410789   0.460603  -0.443527  -0.009050  -0.024869
   12  C  1 ZZ    0.638516   0.049269  -0.126983   0.128266  -0.093710
   13  C  1 XY    0.083149  -0.475779   0.497913   0.038179   0.039756
   14  C  1 XZ    0.097954   0.050223  -0.065088  -0.717273   0.715681
   15  C  1 YZ   -0.037089   0.056513  -0.055908   0.218195   0.601889
   16  C  2  S    0.007107  -0.049352  -0.027085   0.000002   0.000000
   17  C  2  S   -0.461906  -0.232252   0.043073  -0.000005  -0.000002
   18  C  2  X    0.029392   0.001706  -0.000628   0.004166  -0.089560
   19  C  2  Y   -0.007379  -0.000444   0.000171   0.122744   0.049987
   20  C  2  Z    0.309533   0.017818  -0.006622   0.002547   0.009713
   21  C  2  S    0.295248   1.070090   0.357556  -0.000037  -0.000027
   22  C  2  X   -0.027373  -0.000790   0.027279  -0.026235  -0.052130
   23  C  2  Y    0.006897   0.000126  -0.006867   0.121563   0.070709
   24  C  2  Z   -0.288132  -0.008706   0.287000   0.005414   0.006676
   25  C  2 XX   -0.402256  -0.459041  -0.442852  -0.098101   0.036281
   26  C  2 YY   -0.235467   0.512746   0.574488  -0.029869  -0.030050
   27  C  2 ZZ    0.637722  -0.053704  -0.131636   0.127970  -0.006231
   28  C  2 XY   -0.088177  -0.475382  -0.496885   0.082887   0.063876
   29  C  2 XZ    0.113002   0.033326   0.022300  -0.589430   0.220334
   30  C  2 YZ   -0.015949   0.060661   0.066695   0.720738   0.727951
   31  H  3  S    0.012190  -0.443822  -0.414712  -0.460232  -0.315499
   32  H  3  S   -0.050574  -0.094315  -0.014199   0.128051   0.087776
   33  H  4  S    0.012194   0.443866  -0.414701  -0.315439   0.460269
   34  H  4  S   -0.050578   0.094326  -0.014208   0.087773  -0.128056
   35  H  5  S    0.012207   0.443923  -0.414678   0.315516  -0.460214
   36  H  5  S   -0.050581   0.094336  -0.014222  -0.087781   0.128054
   37  H  6  S    0.012233  -0.443966  -0.414669   0.460249   0.315458
   38  H  6  S   -0.050580  -0.094349  -0.014231  -0.128058  -0.087777

                     36
                    2.9019
                     A   
    1  C  1  S   -0.061815
    2  C  1  S   -0.161651
    3  C  1  X    0.032971
    4  C  1  Y   -0.008286
    5  C  1  Z    0.347156
    6  C  1  S    1.839507
    7  C  1  X    0.106312
    8  C  1  Y   -0.026722
    9  C  1  Z    1.119466
   10  C  1 XX   -0.470033
   11  C  1 YY   -0.530235
   12  C  1 ZZ    1.000268
   13  C  1 XY    0.019299
   14  C  1 XZ    0.163257
   15  C  1 YZ   -0.044422
   16  C  2  S    0.061815
   17  C  2  S    0.161648
   18  C  2  X    0.032971
   19  C  2  Y   -0.008292
   20  C  2  Z    0.347159
   21  C  2  S   -1.839506
   22  C  2  X    0.106312
   23  C  2  Y   -0.026714
   24  C  2  Z    1.119464
   25  C  2 XX    0.517390
   26  C  2 YY    0.482659
   27  C  2 ZZ   -1.000049
   28  C  2 XY    0.027188
   29  C  2 XZ   -0.167338
   30  C  2 YZ    0.038646
   31  H  3  S   -0.004331
   32  H  3  S   -0.032795
   33  H  4  S    0.004349
   34  H  4  S    0.032783
   35  H  5  S    0.004365
   36  H  5  S    0.032773
   37  H  6  S   -0.004383
   38  H  6  S   -0.032763

 THIS RUN IS GOING TO SOLVE THE CP-MC-HF RESPONSE EQUATIONS,
 USING CANONICAL ACTIVE ORBITALS TO IMPROVE THEIR CONVERGENCE.
 ROTATION OF THE ACTIVE ORBITALS REQUIRES REGENERATION OF THE CI STATES,
 THE 1 PARTICLE DENSITY, AND THE 2 PARTICLE DENSITY OVER THE NEW ACTIVE
 ORBITALS.  AWAY WE GO...

          ------------------------------
          CASSCF INTEGRAL TRANSFORMATION
          ------------------------------
 AO INTEGRALS WILL BE READ IN FROM DISK...

 NUMBER OF CORE MOLECULAR ORBITALS     =     6
 NUMBER OF OCCUPIED MOLECULAR ORBITALS =    10
 TOTAL NUMBER OF MOLECULAR ORBITALS    =    36
 TOTAL NUMBER OF ATOMIC ORBITALS       =    36

 ----- CHOOSING THREE STEPS TRANSFORMATION -----
 NUMBER OF WORDS USED      =     183748
 NUMBER OF WORDS AVAILABLE =  149960139
 NUMBER OF PASSES          =          1

 ----- NUCLEAR REPULSION ENERGY =     31.47621729
 ----- FROZEN CORE ENERGY       =   -104.43634851

 ... SYMMETRY ...           CPU =    0.00
 ... (PQ|RS) -> (PQ|KL) ... CPU =    0.00
 ... (PQ|KL) -> (IJ|KL) ... CPU =    0.01

 NUMBER OF (PQ|KL) INTEGRALS WRITTEN       7399
 NUMBER OF (IJ|KL) INTEGRALS WRITTEN         55
 ..... END OF CAS INTEGRAL TRANSFORMATION .....
 STEP CPU TIME =     0.13 TOTAL CPU TIME =        0.3 (    0.0 MIN)
 TOTAL WALL CLOCK TIME=        0.8 SECONDS, CPU UTILIZATION IS  41.33%

     --------------------------------------------------
                 DIRECT DETERMINANT ORMAS-CI 
                PROGRAM WRITTEN BY JOE IVANIC
     --------------------------------------------------

 STORAGE OF BINOMIAL COEFFICIENTS REQUIRES          18 WORDS

 TOTAL NUMBER OF ALPHA GROUPS  =            3
 TOTAL NUMBER OF BETA  GROUPS  =            3

 TOTAL NUMBER OF ALPHA STRINGS =            6
 TOTAL NUMBER OF BETA  STRINGS =            6

 STORAGE OF TABLES REQUIRES                       219 WORDS

 TOTAL NUMBER OF ALPHA-BETA GROUP COMBINATIONS =            9
 OF THESE THE ALLOWED NUMBER OF COMBINATIONS   =            3

 TOTAL NUMBER OF (B -> B`) WHERE  (B` > B)  =           12

 TIME FOR SETTING UP TABLE SET 1 :          0.0

 THE NUMBER OF DETERMINANTS HAVING SPACE SYMMETRY A  
 IN POINT GROUP C1   WITH SZ=  0.0 IS             18

 INTEGRAL STORAGE REQUIRES                   30076 WORDS
 EXTRA ORMAS STORAGE REQUIRES               180181 WORDS
 (EXTRA ORMAS STORAGE INCLUDES THAT FOR MXXPAN = 16)
 TOTAL ORMAS CALCULATION REQUIRES           210494 WORDS

 FULLY DIRECT WOULD REQUIRE                 210421 WORDS
 SMALL CI MATRIX, JUST USING INCORE DIAGONALIZATION...

 INITIAL ORMAS VECTOR GUESS TIME :          0.0

 CI EIGENVECTORS WILL BE LABELED IN GROUP=C1      
 PRINTING ALL NON-ZERO CI COEFFICIENTS

 STATE   1  ENERGY=       -77.9753563839  S=  0.00  SZ=  0.00  SPACE SYM=A   

   ALPHA     |    BETA     | CI COEFFICIENT
 1     2     | 1     2     |
-------------|-------------|---------------
  1     4    |  1     4    |   0.6952054638
  1     3    |  1     3    |  -0.6952044069
  1     4    |  1     3    |  -0.0937467841
  1     3    |  1     4    |  -0.0937467841
  2     4    |  2     4    |  -0.0585696815
  2     3    |  2     3    |   0.0585696218
        3  4 |  1  2       |  -0.0542147344
  1  2       |        3  4 |  -0.0542147344
  2     4    |  1     3    |  -0.0271074214
  1     3    |  2     4    |  -0.0271074214
  1     4    |  2     3    |   0.0271073130
  2     3    |  1     4    |   0.0271073130
  2     4    |  2     3    |   0.0078979827
  2     3    |  2     4    |   0.0078979827
  1     4    |  2     4    |  -0.0000000414
  2     4    |  1     4    |  -0.0000000414
  1     3    |  2     3    |   0.0000000391
  2     3    |  1     3    |   0.0000000391

 STATE   2  ENERGY=       -77.9723822106  S=  1.00  SZ=  0.00  SPACE SYM=A   

   ALPHA     |    BETA     | CI COEFFICIENT
 1     2     | 1     2     |
-------------|-------------|---------------
  1     3    |  1     4    |   0.7032722692
  1     4    |  1     3    |  -0.7032722692
  2     3    |  2     4    |  -0.0576855301
  2     4    |  2     3    |   0.0576855301
  2     3    |  1     3    |  -0.0319635705
  1     3    |  2     3    |   0.0319635705
  2     4    |  1     4    |   0.0319635613
  1     4    |  2     4    |  -0.0319635613
  2     3    |  1     4    |  -0.0043102562
  1     4    |  2     3    |   0.0043102562
  1     3    |  2     4    |   0.0043101688
  2     4    |  1     3    |  -0.0043101688
  1  2       |        3  4 |   0.0000004849
        3  4 |  1  2       |  -0.0000004849
  1     3    |  1     3    |   0.0000000000
  1     4    |  1     4    |  -0.0000000000
  2     3    |  2     3    |  -0.0000000000
  2     4    |  2     4    |   0.0000000000

 STATE   3  ENERGY=       -77.7652463026  S=  0.00  SZ=  0.00  SPACE SYM=A   

   ALPHA     |    BETA     | CI COEFFICIENT
 1     2     | 1     2     |
-------------|-------------|---------------
  1     3    |  1     4    |   0.6857563895
  1     4    |  1     3    |   0.6857563895
  1     4    |  2     4    |  -0.0995742688
  2     4    |  1     4    |  -0.0995742688
  2     3    |  1     3    |  -0.0995724649
  1     3    |  2     3    |  -0.0995724649
  1     4    |  1     4    |   0.0925169149
[...]
  1   C            X 0.566923 0.190631 0.004819-0.049871 0.000458-0.019228
                   Y 0.190631 0.114296-0.029003 0.000459-0.048162 0.004838
                   Z 0.004819-0.029003 0.568523-0.019227 0.004832-0.250522
  2   C            X-0.049871 0.000459-0.019227 0.117248-0.191663 0.038401
                   Y 0.000458-0.048162 0.004832-0.191663 0.566035 0.018121
                   Z-0.019228 0.004838-0.250522 0.038401 0.018121 0.566474
  3   H            X 0.003154-0.003382-0.002053-0.030990 0.079930 0.037546
                   Y-0.001641 0.006964 0.001879 0.080729-0.255363-0.137996
                   Z 0.005406-0.018322-0.013749 0.040969-0.147246-0.160613
  4   H            X-0.236236-0.092225 0.133664 0.008060 0.002364-0.003170
                   Y-0.092775-0.041926 0.058340 0.001180 0.002526-0.000209
                   Z 0.142948 0.061714-0.168802 0.017092 0.007186-0.014222
  5   H            X-0.285904-0.095678-0.116252 0.004712 0.000981-0.000408
                   Y-0.095127-0.037290-0.035398 0.002164 0.002838 0.000632
                   Z-0.125535-0.038779-0.123772-0.020670-0.006756-0.011181
  6   H            X 0.001934 0.000195-0.000952-0.049159 0.107930-0.053141
                   Y-0.001546 0.006118-0.000649 0.107131-0.267874 0.114614
                   Z-0.008411 0.019552-0.011679-0.056565 0.123863-0.129934

                                   3                          4
                               H                          H         
                          X        Y        Z        X        Y        Z
  3   H            X 0.001457-0.094482-0.039857 0.009892-0.027793-0.001575
                   Y-0.094482 0.261415 0.153224 0.003390-0.010810-0.000500
                   Z-0.039857 0.153224 0.164479-0.000935 0.002238-0.001952
  4   H            X 0.009892 0.003390-0.000935 0.241043 0.107426-0.147279
                   Y-0.027793-0.010810 0.002238 0.107426 0.012978-0.065588
                   Z-0.001575-0.000500-0.001952-0.147279-0.065588 0.173333
  5   H            X-0.010696-0.003394 0.000769-0.012092-0.015830-0.012855
                   Y 0.027761 0.010026-0.002571-0.017585 0.027221-0.003543
                   Z 0.001293 0.000490-0.002193 0.017015 0.007347 0.013851
  6   H            X 0.027183 0.015398-0.006353-0.010667 0.027793 0.001669
                   Y 0.017966-0.012233 0.012677-0.003371 0.010011 0.000731
                   Z 0.004646-0.017098 0.014029 0.000705-0.002128-0.002207

                                   5                          6
                               H                          H         
                          X        Y        Z        X        Y        Z
  5   H            X 0.294157 0.110532 0.129917 0.009824 0.003389-0.001170
                   Y 0.110532 0.008023 0.038260-0.027746-0.010818 0.002620
                   Z 0.129917 0.038260 0.125175-0.002020-0.000563-0.001880
  6   H            X 0.009824-0.027746-0.002020 0.020885-0.123570 0.060796
                   Y 0.003389-0.010818-0.000563-0.123570 0.274797-0.126809
                   Z-0.001170 0.002620-0.001880 0.060796-0.126809 0.131671

          ------------------------          ----------------
          DIPOLE DERIVATIVE TENSOR          (DEBYE/ANGSTROM)
          ------------------------          ----------------

        ATOM                 MU-X           MU-Y           MU-Z
     C          D/DX     0.869487966    0.962511579   -0.000031415
                D/DY     0.962500824   -1.412320400   -0.140285220
                D/DZ    -0.000083186   -0.140147354    0.623019963
     C          D/DX    -1.399575298   -0.966558545    0.169433188
                D/DY    -0.966557734    0.867158623    0.097560015
                D/DZ     0.169366854    0.097547965    0.612594785
     H          D/DX     0.540837605    0.308996061    0.026955258
                D/DY     0.305292018   -0.244352355   -0.303756759
                D/DZ     0.010917728   -0.260245962   -0.336590016
     H          D/DX    -0.210588835   -0.329748462    0.257809037
                D/DY    -0.327285311    0.524464284    0.152976403
                D/DZ     0.214184635    0.136988321   -0.353981381
     H          D/DX    -0.306109192   -0.332831901   -0.284121662
                D/DY    -0.335286467    0.533445171   -0.049631353
                D/DZ    -0.240445182   -0.033776685   -0.267417259
     H          D/DX     0.505947758    0.357631269   -0.170044401
                D/DY     0.361336664   -0.268395319    0.243136933
                D/DZ    -0.153940849    0.199633712   -0.277626096

          --------------------------------------------------------
          NORMAL COORDINATE ANALYSIS IN THE HARMONIC APPROXIMATION
          --------------------------------------------------------

          ATOMIC WEIGHTS (AMU)

    1     C                12.00000
    2     C                12.00000
    3     H                 1.00782
    4     H                 1.00782
    5     H                 1.00782
    6     H                 1.00782

 * * * WARNING, MODE 1 HAS BEEN CHOSEN AS A VIBRATION
          WHILE MODE 7 IS ASSUMED TO BE A TRANSLATION/ROTATION.
 PLEASE VERIFY THE PROGRAM'S DECISION MANUALLY!


 MODE(S)     1 TO     1 TREATED AS IMAGINARY.

 MODES    2 TO    7 ARE TAKEN AS ROTATIONS AND TRANSLATIONS.

 ANALYZING SYMMETRY OF NORMAL MODES...

     FREQUENCIES IN CM**-1, IR INTENSITIES IN DEBYE**2/AMU-ANGSTROM**2,
     REDUCED MASSES IN AMU.

                            1           2           3           4           5
       FREQUENCY:      1823.94 I      1.83        0.00        0.00        0.00  
        SYMMETRY:         A           A           A           A           A   
    REDUCED MASS:      1.00783     2.16207     4.67188     4.67188     4.67188
    IR INTENSITY:      0.00000     0.00000     0.00000     0.00000     0.00000

  1   C            X -0.00000421  0.15100934 -0.00483407  0.17997469  0.05704588
                   Y -0.00000093 -0.03541819  0.18836027  0.00083938  0.01327371
                   Z  0.00000747 -0.01514800 -0.01235859 -0.05727020  0.17956332
  2   C            X  0.00000225 -0.15096760 -0.00479235  0.17999054  0.05710310
                   Y -0.00000092  0.03545156  0.18846054  0.00084271  0.01319999
                   Z -0.00000733  0.01522038 -0.01236016 -0.05727163  0.17955612
  3   H            X -0.46567010 -0.17417959 -0.00481381  0.17998190  0.05713315
                   Y -0.17207062  0.10098687  0.18848708  0.00083848  0.01317256
                   Z  0.04011324 -0.08674772 -0.01240667 -0.05726944  0.17960759
  4   H            X  0.17031006  0.31484593 -0.00486573  0.17996248  0.05702422
                   Y -0.46723623 -0.16512951  0.18835650  0.00085311  0.01329799
                   Z -0.02733114  0.12677478 -0.01240119 -0.05727864  0.17954831
  5   H            X -0.17026504  0.21208694 -0.00483349  0.17997509  0.05702493
                   Y  0.46724432  0.04150425  0.18828940  0.00082318  0.01330433
                   Z  0.02734917 -0.17970638 -0.01231483 -0.05726070  0.17958369
  6   H            X  0.46564831 -0.35264791 -0.00473983  0.18001099  0.05711566
                   Y  0.17208461  0.02268676  0.18850867  0.00084940  0.01317252
                   Z -0.04013295  0.13981813 -0.01231483 -0.05727488  0.17949929

 TRANS. SAYVETZ    X -0.00000001  0.00060704 -0.13492062  5.04514669  1.59987215
                   Y -0.00000000  0.00044919  5.28138863  0.02357555  0.37104603
                   Z -0.00000000  0.00100845 -0.34644941 -1.60537814  5.03329232
               TOTAL  0.00000001  0.00125986  5.29445905  5.29445936  5.29445914

   ROT. SAYVETZ    X  0.00000020 -2.05174492 -0.00275099 -0.00008064  0.00204251
                   Y  0.00000896 -8.41999704  0.00115295  0.00043993  0.00160316
                   Z  0.00000153 -0.75269920  0.00053241  0.00012869 -0.00018259
               TOTAL  0.00000909  8.69899784  0.00302996  0.00046540  0.00260294

                            6           7           8           9          10
       FREQUENCY:         1.10        2.95      338.98      338.99     1006.33  
        SYMMETRY:         A           A           A           A           A   
    REDUCED MASS:      2.04841     1.09144     1.22903     1.22902     1.27644
    IR INTENSITY:      0.00000     0.00000     1.08122     1.08122     0.03903

  1   C            X  0.02446208 -0.04259472  0.00169412  0.04474753  0.11030559
                   Y  0.15008346 -0.04076878  0.02665495 -0.11665205  0.02620384
                   Z  0.00121595  0.00307333  0.00048046 -0.00704362 -0.00984296
  2   C            X -0.02448168  0.04258794 -0.11626647 -0.02654142 -0.07803470
                   Y -0.14996121  0.04075005 -0.04519761  0.00163848 -0.00720549
                   Z -0.00129799 -0.00307060  0.00996285  0.00256218  0.00723175
  3   H            X  0.11363771  0.50422027  0.57442342  0.07637322  0.03808938
                   Y -0.21346901  0.23164101  0.19578144  0.11248648 -0.03684779
                   Z  0.14748417 -0.07135960 -0.03040545 -0.10434078  0.09687354
  4   H            X  0.10291178  0.07764090  0.11885130 -0.19232051 -0.27369243
                   Y  0.11819666 -0.50360153 -0.08820345  0.57412249 -0.06533951
                   Z  0.08507450 -0.08620969  0.08637398  0.05151384 -0.53922723
  5   H            X -0.01750791 -0.22619467  0.10009541 -0.19596950 -0.16764292
                   Y  0.40542073  0.36134678 -0.08354085  0.57507468 -0.09197421
                   Z -0.08074970  0.09692118 -0.11127487  0.01288590  0.57740064
  6   H            X -0.19902378 -0.35550684  0.57082328  0.09513982  0.01900202
                   Y -0.30990960 -0.08942772  0.19674709  0.10776315 -0.03204853
                   Z -0.15195142  0.06062986 -0.06904035  0.09330077 -0.10395569

 TRANS. SAYVETZ    X -0.00021727  0.00007958  0.00000000 -0.00000001  0.00000000
                   Y  0.00170760 -0.00026653  0.00000001 -0.00000010 -0.00000000
                   Z -0.00112808  0.00001441  0.00000000 -0.00000002  0.00000000
               TOTAL  0.00205807  0.00027853  0.00000001  0.00000010  0.00000000

   ROT. SAYVETZ    X  8.20614347 -2.55845697  0.00001797 -0.00000274  0.00001645
                   Y -1.32291485  2.45080494 -0.00012238 -0.00007534 -0.00002146
                   Z -1.87193206 -2.95458896  0.00023811 -0.00004649  0.00001933
               TOTAL  8.52027136  4.61321394  0.00026832  0.00008857  0.00003324

                           11          12          13          14          15
       FREQUENCY:      1006.34     1082.38     1578.13     1605.69     3311.13  
        SYMMETRY:         A           A           A           A           A   
    REDUCED MASS:      1.27644     3.96733     1.11354     1.15698     1.04633
    IR INTENSITY:      0.03903     0.00000     0.06954     0.00000     0.72639

  1   C            X -0.00699668  0.01740780 -0.00621322 -0.00723705 -0.00386045
                   Y  0.07834619 -0.00438864  0.00156369  0.00182196  0.00097351
                   Z  0.00255776  0.18333149 -0.06540509 -0.07620374 -0.04062360
  2   C            X  0.02584157 -0.01740847 -0.00621269  0.00723895 -0.00387806
                   Y -0.11071040  0.00439170  0.00156214 -0.00181782  0.00097500
                   Z -0.00511951 -0.18332635 -0.06539981  0.07622004 -0.04080877
  3   H            X -0.13084919 -0.02457672  0.12697347 -0.12711663 -0.12179031
                   Y  0.23476270  0.01700043 -0.25619387  0.26010748  0.39168802
                   Z -0.54566577 -0.21244817  0.37487127 -0.35969765  0.26617064
  4   H            X -0.04389356  0.03213131  0.28313119  0.28582187 -0.37149278
                   Y -0.02635267 -0.00067011  0.08163521  0.08351337 -0.15156353
                   Z -0.09781216  0.21218690  0.36821403  0.35273504  0.27586120
  5   H            X -0.02483406  0.00837868 -0.20914699 -0.21470781  0.41746378
                   Y -0.03113968 -0.00948731 -0.10027017 -0.10143425  0.13996863
                   Z  0.10301748  0.21416859  0.41062563  0.39586532  0.20789526
  6   H            X -0.02480607 -0.01592533 -0.05300440  0.05597996  0.16796046
                   Y  0.20808476 -0.00687943  0.23761015 -0.24223599 -0.40329376
                   Z  0.57096271 -0.21396851  0.40376069 -0.38909677  0.21967418

 TRANS. SAYVETZ    X  0.00000000 -0.00000003  0.00000000  0.00000000 -0.00000000
                   Y -0.00000001 -0.00000002  0.00000000  0.00000000  0.00000000
                   Z  0.00000000 -0.00000001 -0.00000000  0.00000000 -0.00000000
               TOTAL  0.00000001  0.00000004  0.00000000  0.00000000  0.00000000

   ROT. SAYVETZ    X  0.00000542 -0.00002347  0.00000619  0.00000597 -0.00000208
                   Y -0.00001033  0.00001506  0.00000157  0.00000365 -0.00000020
                   Z  0.00000918  0.00000682  0.00000004 -0.00000068  0.00000183
               TOTAL  0.00001484  0.00002871  0.00000639  0.00000703  0.00000278

                           16          17          18
       FREQUENCY:      3315.20     3405.95     3405.95  
        SYMMETRY:         A           A           A   
    REDUCED MASS:      1.05106     1.11744     1.11744
    IR INTENSITY:      0.00000     0.51856     0.51856

  1   C            X -0.00409938 -0.08832347  0.00028237
                   Y  0.00103307 -0.03263771 -0.00021064
                   Z -0.04313492  0.00761018 -0.00003144
  2   C            X  0.00408293 -0.00021040  0.03230104
                   Y -0.00102609 -0.00028395 -0.08862239
                   Z  0.04296035  0.00001298 -0.00518547
  3   H            X  0.11998774 -0.00203326 -0.16040474
                   Y -0.38713011  0.00044368  0.52266282
                   Z -0.26764216  0.00092635  0.37959578
  4   H            X -0.36998801  0.49607096 -0.00039322
                   Y -0.15122175  0.20389736 -0.00212691
                   Z  0.27958244 -0.39412492  0.00070726
  5   H            X  0.41668851  0.56228657 -0.00053189
                   Y  0.13944703  0.18717601 -0.00209279
                   Z  0.21181351  0.30293448 -0.00072200
  6   H            X -0.16649233 -0.00216659 -0.22663516
                   Y  0.39882167  0.00047555  0.53927660
                   Z -0.22167524 -0.00050363 -0.31746415

 TRANS. SAYVETZ    X -0.00000001  0.00000000  0.00000000
                   Y -0.00000000  0.00000000  0.00000000
                   Z -0.00000000  0.00000000  0.00000000
               TOTAL  0.00000001  0.00000000  0.00000000

   ROT. SAYVETZ    X  0.00000193 -0.00000085 -0.00000001
                   Y  0.00000663 -0.00000055 -0.00000089
                   Z  0.00000067 -0.00000204  0.00000057
               TOTAL  0.00000694  0.00000228  0.00000106

 REFERENCE ON SAYVETZ CONDITIONS - A. SAYVETZ, J.CHEM.PHYS., 7, 383-389(1939).

 NOTE - THE MODES J,K ARE ORTHONORMALIZED ACCORDING TO
 SUM ON I   M(I) * (X(I,J)*X(I,K) + Y(I,J)*Y(I,K) + Z(I,J)*Z(I,K)) = DELTA(J,K)

  MODE FREQ(CM**-1)  SYMMETRY  RED. MASS  IR INTENS.
     1    1823.937    A        1.007825    0.000000
     2       1.831    A        2.162072    0.000000
     3       0.005    A        4.671882    0.000000
     4       0.005    A        4.671883    0.000000
     5       0.005    A        4.671883    0.000000
     6       1.104    A        2.048408    0.000000
     7       2.947    A        1.091441    0.000000
     8     338.978    A        1.229026    1.081216
     9     338.988    A        1.229023    1.081218
    10    1006.331    A        1.276438    0.039026
    11    1006.337    A        1.276437    0.039028
    12    1082.378    A        3.967327    0.000000
    13    1578.131    A        1.113545    0.069537
    14    1605.695    A        1.156977    0.000000
    15    3311.132    A        1.046326    0.726386
    16    3315.200    A        1.051056    0.000003
    17    3405.947    A        1.117443    0.518564
    18    3405.948    A        1.117443    0.518559

     -------------------------------
     THERMOCHEMISTRY AT T=  298.15 K
     -------------------------------

 USING IDEAL GAS, RIGID ROTOR, HARMONIC NORMAL MODE APPROXIMATIONS.
 P=  1.01325E+05 PASCAL.
 ALL FREQUENCIES ARE SCALED BY   1.00000
 THE MOMENTS OF INERTIA ARE (IN AMU*BOHR**2)
     12.16840    78.69045    78.69049
 THE ROTATIONAL SYMMETRY NUMBER IS  1.0
 THE ROTATIONAL CONSTANTS ARE (IN GHZ)
    148.17787    22.91369    22.91367
   1 IMAGINARY FREQUENCY VIBRATION(S) IS(ARE) EXCLUDED
     FROM THE FOLLOWING THERMOCHEMICAL ANALYSIS.
      8 -     18 VIBRATIONAL MODES ARE USED IN THERMOCHEMISTRY.
 THE HARMONIC ZERO POINT ENERGY IS (SCALED BY   1.000)
        0.046463 HARTREE/MOLECULE    10197.532531 CM**-1/MOLECULE 
       29.156238 KCAL/MOL              121.989699 KJ/MOL

               Q               LN Q
 ELEC.     1.00000E+00       0.000000
 TRANS.    5.83336E+06      15.579103
 ROT.      3.10728E+03       8.041503
 VIB.      1.57657E+00       0.455251
 TOT.      2.85767E+10      24.075858

              E         H         G         CV        CP        S
           KJ/MOL    KJ/MOL    KJ/MOL   J/MOL-K   J/MOL-K   J/MOL-K
 ELEC.      0.000     0.000     0.000     0.000     0.000     0.000
 TRANS.     3.718     6.197   -38.620    12.472    20.786   150.317
 ROT.       3.718     3.718   -19.934    12.472    12.472    79.332
 VIB.     124.228   124.228   120.861    18.158    18.158    11.293
 TOTAL    131.665   134.144    62.307    43.101    51.415   240.942
 VIB. THERMAL CORRECTION E(T)-E(0) = H(T)-H(0) =  2238.515 J/MOL

              E         H         G         CV        CP        S
         KCAL/MOL  KCAL/MOL  KCAL/MOL CAL/MOL-K CAL/MOL-K CAL/MOL-K
 ELEC.      0.000     0.000     0.000     0.000     0.000     0.000
 TRANS.     0.889     1.481    -9.230     2.981     4.968    35.927
 ROT.       0.889     0.889    -4.764     2.981     2.981    18.961
 VIB.      29.691    29.691    28.887     4.340     4.340     2.699
 TOTAL     31.469    32.061    14.892    10.301    12.289    57.587
 VIB. THERMAL CORRECTION E(T)-E(0) = H(T)-H(0) =   535.018 CAL/MOL
 ......END OF NORMAL COORDINATE ANALYSIS......
 CPU     0: STEP CPU TIME=     0.00 TOTAL CPU TIME=        2.5 (    0.0 MIN)
 TOTAL WALL CLOCK TIME=        3.0 SECONDS, CPU UTILIZATION IS  82.62%
               580000  WORDS OF DYNAMIC MEMORY USED
 EXECUTION OF GAMESS TERMINATED NORMALLY Mon Nov 28 21:15:39 2016
 DDI: 1363672 bytes (1.3 MB / 0 MWords) used by master data server.

 ----------------------------------------
 CPU timing information for all processes
 ========================================
 0: 2.431 + 0.93 = 2.525
 ----------------------------------------
 ddikick.x: exited gracefully.
unset echo
----- accounting info -----
Files used on the master node compute-3-0 were:
-rw-rw-r-- 1 sarom sarom   43437 Nov 29  2016 .//mc-hess-c2h4-s0.dat
-rw-rw-r-- 1 sarom sarom   25892 Nov 29  2016 .//mc-hess-c2h4-s0.F05
-rw-rw-r-- 1 sarom sarom 3240288 Nov 29  2016 .//mc-hess-c2h4-s0.F08
-rw-rw-r-- 1 sarom sarom    5336 Nov 29  2016 .//mc-hess-c2h4-s0.F09
-rw-rw-r-- 1 sarom sarom 2388560 Nov 29  2016 .//mc-hess-c2h4-s0.F10
-rw-rw-r-- 1 sarom sarom    1240 Nov 29  2016 .//mc-hess-c2h4-s0.F12
-rw-rw-r-- 1 sarom sarom   74344 Nov 29  2016 .//mc-hess-c2h4-s0.F13
-rw-rw-r-- 1 sarom sarom  180464 Nov 29  2016 .//mc-hess-c2h4-s0.F15
-rw-rw-r-- 1 sarom sarom  339880 Nov 29  2016 .//mc-hess-c2h4-s0.F16
-rw-rw-r-- 1 sarom sarom  208080 Nov 29  2016 .//mc-hess-c2h4-s0.F18
-rw-rw-r-- 1 sarom sarom    2736 Nov 29  2016 .//mc-hess-c2h4-s0.F19
-rw-rw-r-- 1 sarom sarom  180016 Nov 29  2016 .//mc-hess-c2h4-s0.F70
-rw-rw-r-- 1 sarom sarom  180016 Nov 29  2016 .//mc-hess-c2h4-s0.F71
-rw-rw-r-- 1 sarom sarom  180016 Nov 29  2016 .//mc-hess-c2h4-s0.F72
-rw-rw-r-- 1 sarom sarom  180016 Nov 29  2016 .//mc-hess-c2h4-s0.F73
-rw-rw-r-- 1 sarom sarom   25892 Nov 27 05:47 .//mc-hess-c2h4-s0.inp
-rw-rw-r-- 1 sarom sarom  118352 Nov 29  2016 .//mc-hess-c2h4-s0.log
Mon Nov 28 21:15:42 CST 2016
0.216u 0.301s 0:06.64 7.6%	0+0k 0+192io 0pf+0w
