-catch_rsh /opt/gridengine/default/spool/compute-0-1/active_jobs/23874.1/pe_hostfile
compute-0-1
The primary node assigned by SGE to this run is compute-0-1
Warning: no access to tty (Bad file descriptor).
Thus no job control in this shell.
source /home/sarom/gamess.github.2017-05-31.14.06/install.info
setenv GMS_PATH /home/sarom/gamess.github.2017-05-31.14.06
setenv GMS_BUILD_DIR /home/sarom/gamess.github.2017-05-31.14.06
setenv GMS_TARGET linux64
setenv GMS_FORTRAN gfortran
setenv GMS_GFORTRAN_VERNO 4.4
setenv GMS_MATHLIB mkl-so
setenv GMS_MATHLIB_PATH /share/apps/intel/compilers_and_libraries_2017.1.132/linux/mkl/lib/intel64
setenv GMS_MKL_VERNO 12
setenv GMS_DDI_COMM sockets
setenv GMS_LIBCCHEM false
setenv GMS_EIGEN_PATH
setenv GMS_PHI false
setenv GMS_SHMTYPE sysv
setenv GMS_OPENMP false
unset echo
mc-diab-hnco
tests/mcscf/diabat
----- GAMESS execution script 'rungms' -----
This job is running on host compute-0-1.local
under operating system Linux at Fri Jun 2 03:40:57 CDT 2017
Available scratch disk space (Kbyte units) at beginning of the job is
Filesystem           1K-blocks      Used Available Use% Mounted on
/dev/sda1             16126920   3867344  11440376  26% /
GAMESS temporary binary files will be written to /scratch
GAMESS supplementary output files will be written to /home/sarom/restart
Copying input file mc-diab-hnco.inp to your run's scratch directory...
cp tests/mcscf/diabat/mc-diab-hnco.inp /scratch/mc-diab-hnco.F05
unset echo
The generated host list is
compute-0-1.local
/home/sarom/gamess.github.2017-05-31.14.06/ddikick.x /home/sarom/gamess.github.2017-05-31.14.06/gamess.00.x mc-diab-hnco -ddi 1 1 compute-0-1.local -scr /scratch

 Distributed Data Interface kickoff program.
 Initiating 1 compute processes on 1 nodes to run the following command:
 /home/sarom/gamess.github.2017-05-31.14.06/gamess.00.x mc-diab-hnco 

          ******************************************************
          *         GAMESS VERSION = 20 APR 2017 (R1)          *
          *             FROM IOWA STATE UNIVERSITY             *
          * M.W.SCHMIDT, K.K.BALDRIDGE, J.A.BOATZ, S.T.ELBERT, *
          *   M.S.GORDON, J.H.JENSEN, S.KOSEKI, N.MATSUNAGA,   *
          *          K.A.NGUYEN, S.J.SU, T.L.WINDUS,           *
          *       TOGETHER WITH M.DUPUIS, J.A.MONTGOMERY       *
          *         J.COMPUT.CHEM.  14, 1347-1363(1993)        *
          **************** 64 BIT LINUX VERSION ****************

  SINCE 1993, STUDENTS AND POSTDOCS WORKING AT IOWA STATE UNIVERSITY
  AND ALSO IN THEIR VARIOUS JOBS AFTER LEAVING ISU HAVE MADE IMPORTANT
  CONTRIBUTIONS TO THE CODE:
     IVANA ADAMOVIC, CHRISTINE AIKENS, YURI ALEXEEV, POOJA ARORA,
     ANDREY ASADCHEV, ROB BELL, PRADIPTA BANDYOPADHYAY, JONATHAN BENTZ,
     BRETT BODE, KURT BRORSEN, CALEB CARLIN, GALINA CHABAN, WEI CHEN,
     CHEOL HO CHOI, PAUL DAY, ALBERT DEFUSCO, NUWAN DESILVA, TIM DUDLEY,
     DMITRI FEDOROV, GRAHAM FLETCHER, MARK FREITAG, KURT GLAESEMANN,
     DAN KEMP, GRANT MERRILL, NORIYUKI MINEZAWA, JONATHAN MULLIN,
     TAKESHI NAGATA, SEAN NEDD, HEATHER NETZLOFF, BOSILJKA NJEGIC, RYAN OLSON,
     MIKE PAK, SPENCER PRUITT, LUKE ROSKOP, JIM SHOEMAKER, LYUDMILA SLIPCHENKO,
     TONY SMITH, SAROM SOK LEANG, JIE SONG, TETSUYA TAKETSUGU, SIMON WEBB,
     PENG XU, SOOHAENG YOO, FEDERICO ZAHARIEV

  ADDITIONAL CODE HAS BEEN PROVIDED BY COLLABORATORS IN OTHER GROUPS:
     IOWA STATE UNIVERSITY:
          JOE IVANIC, AARON WEST, LAIMUTIS BYTAUTAS, KLAUS RUEDENBERG
     UNIVERSITY OF TOKYO: KIMIHIKO HIRAO, TAKAHITO NAKAJIMA,
          TAKAO TSUNEDA, MUNEAKI KAMIYA, SUSUMU YANAGISAWA,
          KIYOSHI YAGI, MAHITO CHIBA, SEIKEN TOKURA, NAOAKI KAWAKAMI
     UNIVERSITY OF AARHUS: FRANK JENSEN
     UNIVERSITY OF IOWA: VISVALDAS KAIRYS, HUI LI
     NATIONAL INST. OF STANDARDS AND TECHNOLOGY: WALT STEVENS, DAVID GARMER
     UNIVERSITY OF PISA: BENEDETTA MENNUCCI, JACOPO TOMASI
     UNIVERSITY OF MEMPHIS: HENRY KURTZ, PRAKASHAN KORAMBATH
     UNIVERSITY OF ALBERTA: TOBY ZENG, MARIUSZ KLOBUKOWSKI
     UNIVERSITY OF NEW ENGLAND: MARK SPACKMAN
     MIE UNIVERSITY: HIROAKI UMEDA
     NAT. INST. OF ADVANCED INDUSTRIAL SCIENCE AND TECHNOLOGY: KAZUO KITAURA
     MICHIGAN STATE UNIVERSITY:
          KAROL KOWALSKI, MARTA WLOCH, JEFFREY GOUR, JESSE LUTZ,
          WEI LI, PIOTR PIECUCH
     UNIVERSITY OF SILESIA: MONIKA MUSIAL, STANISLAW KUCHARSKI
     FACULTES UNIVERSITAIRES NOTRE-DAME DE LA PAIX:
          OLIVIER QUINET, BENOIT CHAMPAGNE
     UNIVERSITY OF CALIFORNIA - SANTA BARBARA: BERNARD KIRTMAN
     INSTITUTE FOR MOLECULAR SCIENCE:
          KAZUYA ISHIMURA, MICHIO KATOUDA, AND SHIGERU NAGASE
     UNIVERSITY OF NOTRE DAME: ANNA POMOGAEVA, DAN CHIPMAN
     KYUSHU UNIVERSITY:
          HARUYUKI NAKANO,
          FENG LONG GU, JACEK KORCHOWIEC, MARCIN MAKOWSKI, AND YURIKO AOKI,
          HIROTOSHI MORI AND EISAKU MIYOSHI
     PENNSYLVANIA STATE UNIVERSITY:
          TZVETELIN IORDANOV, CHET SWALINA, JONATHAN SKONE,
          SHARON HAMMES-SCHIFFER
     WASEDA UNIVERSITY:
          MASATO KOBAYASHI, TOMOKO AKAMA, TSUGUKI TOUMA,
          TAKESHI YOSHIKAWA, YASUHIRO IKABATA, JUNJI SEINO,
          YUYA NAKAJIMA, HIROMI NAKAI
     NANJING UNIVERSITY: SHUHUA LI
     UNIVERSITY OF NEBRASKA:
          PEIFENG SU, DEJUN SI, NANDUN THELLAMUREGE, YALI WANG, HUI LI
     UNIVERSITY OF ZURICH: ROBERTO PEVERATI, KIM BALDRIDGE
     N. COPERNICUS UNIVERSITY AND JACKSON STATE UNIVERSITY:
          MARIA BARYSZ
     UNIVERSITY OF COPENHAGEN: Jimmy Kromann, CASPER STEINMANN
     TOKYO INSTITUTE OF TECHNOLOGY: HIROYA NAKATA
     NAGOYA UNIVERSITY: YOSHIO NISHIMOTO, STEPHAN IRLE
     MOSCOW STATE UNIVERSITY: VLADIMIR MIRONOV

 EXECUTION OF GAMESS BEGUN Fri Jun  2 03:40:57 2017

            ECHO OF THE FIRST FEW INPUT CARDS -
 INPUT CARD>!   test of MCQDPT diabatic state generation: HONDO+ test case sampleS7         
 INPUT CARD>!       H.Nakamura, D.G.Truhlar  J.Chem.Phys. 118, 6816-6829(2003)              
 INPUT CARD>!   HNCO...50 AOs, 50 MOs, 12e- in 10 orbs, 2 states                            
 INPUT CARD>!                                                                               
 INPUT CARD>!   this test case features both kinds of "resolution orbitals",                
 INPUT CARD>!   along with orientation inputs for both.                                     
 INPUT CARD>!                                                                               
 INPUT CARD>!   expected results for diabatizing the two states follow.                     
 INPUT CARD>!                                                                               
 INPUT CARD>!   CAS level:                                                                  
 INPUT CARD>!        state            energy    weight in MCSCF   weight in DMO             
 INPUT CARD>!           1      -167.7135454887      0.500              0.500                
 INPUT CARD>!           2      -167.7098064970      0.500              0.500                
 INPUT CARD>!      --- DIABATIC ENERGIES (DIAGONAL ELEMENT) ---                             
 INPUT CARD>!      STATE #  1'S CAS-LEVEL DIABATIC ENERGY=    -167.713522275                
 INPUT CARD>!      STATE #  2'S CAS-LEVEL DIABATIC ENERGY=    -167.709829710                
 INPUT CARD>!      --- DIABATIC COUPLINGS (OFF DIAGONAL ELEMENTS)---                        
 INPUT CARD>!      STATE #  1 &  2'S CAS-LEVEL COUPLING  =       0.000293693                
 INPUT CARD>!                 - Diabatic States -                                           
 INPUT CARD>!        State #  1                                                             
 INPUT CARD>!        ----------                                                             
 INPUT CARD>!           <CSF>      <Coefficient>                                            
 INPUT CARD>!              1        -0.901275                                               
 INPUT CARD>!           2522         0.051233                                               
 INPUT CARD>!           8569         0.043068                                               
 INPUT CARD>!        State #  2                                                             
 INPUT CARD>!        ----------                                                             
 INPUT CARD>!           <CSF>      <Coefficient>                                            
 INPUT CARD>!           2521        -0.917333                                               
 INPUT CARD>!            - rotation to diabatic states -                                    
 INPUT CARD>!         1   -0.9968909   0.0787937                                            
 INPUT CARD>!         2   -0.0787937  -0.9968909                                            
 INPUT CARD>!                                                                               
 INPUT CARD>!   MCQDPT level:                                                               
 INPUT CARD>!         STATE            1ST ORDER                   2ND ORDER                
 INPUT CARD>!          1 E(MCSCF)= -167.7135454887     E(MP2)= -168.0572551013              
 INPUT CARD>!          2 E(MCSCF)= -167.7098064970     E(MP2)= -168.0556904485              
 INPUT CARD>!       the phase-adjusted rotation from CAS-CI to MCQDPT states is             
 INPUT CARD>!          1    0.7234520  -0.6903750                                           
 INPUT CARD>!          2    0.6903750   0.7234520                                           
 INPUT CARD>!      --- DIABATIC ENERGIES (DIAGONAL ELEMENT) ---                             
 INPUT CARD>!      STATE #  1'S MCQDPT-LEVEL DIABATIC ENERGY=    -168.056632118             
 INPUT CARD>!      STATE #  2'S MCQDPT-LEVEL DIABATIC ENERGY=    -168.056313432             
 INPUT CARD>!      --- DIABATIC COUPLINGS (OFF DIAGONAL ELEMENTS)---                        
 INPUT CARD>!      STATE #  1 &  2'S MCQDPT-LEVEL COUPLING  =      -0.000765927             
 INPUT CARD>!                - DIABATIC STATES -                                            
 INPUT CARD>!       STATE #  1                                                              
 INPUT CARD>!          <CSF>      <COEFFICIENT>                                             
 INPUT CARD>!             1        -0.901275                                                
 INPUT CARD>!          2522         0.051233                                                
   25000000 WORDS OF MEMORY AVAILABLE


     RUN TITLE
     ---------
 HNCO                                                                            

 THE POINT GROUP OF THE MOLECULE IS C1      
 THE ORDER OF THE PRINCIPAL AXIS IS     0
 *** WARNING! ATOM   1 SHELL    1 TYPE S HAS NORMALIZATION   1.70173870
 *** WARNING! ATOM   2 SHELL    4 TYPE S HAS NORMALIZATION   0.99945345
 *** WARNING! ATOM   2 SHELL    5 TYPE S HAS NORMALIZATION   1.99339932
 *** WARNING! ATOM   2 SHELL    7 TYPE P HAS NORMALIZATION   1.47563007
 *** WARNING! ATOM   3 SHELL   10 TYPE S HAS NORMALIZATION   0.99939879
 *** WARNING! ATOM   3 SHELL   11 TYPE S HAS NORMALIZATION   2.00859563
 *** WARNING! ATOM   3 SHELL   13 TYPE P HAS NORMALIZATION   1.49516523
 *** WARNING! ATOM   4 SHELL   16 TYPE S HAS NORMALIZATION   0.99950133
 *** WARNING! ATOM   4 SHELL   17 TYPE S HAS NORMALIZATION   1.96527132
 *** WARNING! ATOM   4 SHELL   19 TYPE P HAS NORMALIZATION   1.45704510

 ATOM      ATOMIC                      COORDINATES (BOHR)
           CHARGE         X                   Y                   Z
 HYD         1.0     0.6840000000        1.8794000000        0.0000000000
 NIT         7.0     0.0000000000        0.0000000000        0.0000000000
 CAR         6.0    -3.1000000000        0.0000000000        0.0000000000
 OXY         8.0    -3.4907000000       -2.2074000000        0.1931000000

          INTERNUCLEAR DISTANCES (ANGS.)
          ------------------------------

                1 HYD        2 NIT        3 CAR        4 OXY   

   1 HYD     0.0000000    1.0583545 *  2.2357849 *  3.0931912  
   2 NIT     1.0583545 *  0.0000000    1.6404495 *  2.1879344 *
   3 CAR     2.2357849 *  1.6404495 *  0.0000000    1.1906546 *
   4 OXY     3.0931912    2.1879344 *  1.1906546 *  0.0000000  

  * ... LESS THAN  3.000


     ATOMIC BASIS SET
     ----------------
 THE CONTRACTED PRIMITIVE FUNCTIONS HAVE BEEN UNNORMALIZED
 THE CONTRACTED BASIS FUNCTIONS ARE NOW NORMALIZED TO UNITY

  SHELL TYPE  PRIMITIVE        EXPONENT          CONTRACTION COEFFICIENT(S)

 HYD       

      1   S       1            13.0100000    0.033498726390
      1   S       2             1.9620000    0.234800801174
      1   S       3             0.4446000    0.813682957883

      2   S       4             0.1220000    1.000000000000

      3   P       5             0.7270000    1.000000000000

 NIT       

      4   S       6          9046.0000000    0.000699617413
      4   S       7          1357.0000000    0.005386054630
      4   S       8           309.3000000    0.027391021189
      4   S       9            87.7300000    0.103150591982
      4   S      10            28.5600000    0.278570663317
      4   S      11            10.2100000    0.448294849454
      4   S      12             3.8380000    0.278085928395
      4   S      13             0.7466000    0.015431561233

      5   S      14          9046.0000000   -0.000304990096
      5   S      15          1357.0000000   -0.002408026379
      5   S      16           309.3000000   -0.011944448725
      5   S      17            87.7300000   -0.048925992909
      5   S      18            28.5600000   -0.134472724725
      5   S      19            10.2100000   -0.315112577700
      5   S      20             3.8380000   -0.242857832550
      5   S      21             0.7466000    1.094382206854

      6   S      22             0.2248000    1.000000000000

      7   P      23            13.5500000    0.058905676772
      7   P      24             2.9170000    0.320461106714
      7   P      25             0.7973000    0.753042061792

      8   P      26             0.2185000    1.000000000000

      9   D      27             0.8170000    1.000000000000

 CAR       

     10   S      28          6665.0000000    0.000691583963
     10   S      29          1000.0000000    0.005325796153
     10   S      30           228.0000000    0.027060721042
     10   S      31            64.7100000    0.101656846141
     10   S      32            21.0600000    0.274574823617
     10   S      33             7.4950000    0.448294318924
     10   S      34             2.7970000    0.284902610715
     10   S      35             0.5215000    0.015194859206

     11   S      36          6665.0000000   -0.002932549614
     11   S      37          1000.0000000   -0.002317919353
     11   S      38           228.0000000   -0.011499209959
     11   S      39            64.7100000   -0.046824381236
     11   S      40            21.0600000   -0.128459733267
     11   S      41             7.4950000   -0.301251180599
     11   S      42             2.7970000   -0.255617896569
     11   S      43             0.5215000    1.093738567687

     12   S      44             0.1596000    1.000000000000

     13   P      45             9.4390000    0.056979251590
     13   P      46             2.0020000    0.313207211501
     13   P      47             0.5456000    0.760376741738

     14   P      48             0.1517000    1.000000000000

     15   D      49             0.5500000    1.000000000000

 OXY       

     16   S      50         11720.0000000    0.000709645947
     16   S      51          1759.0000000    0.005467272292
     16   S      52           400.8000000    0.027823118610
     16   S      53           113.7000000    0.104747739711
     16   S      54            37.0300000    0.282920846357
     16   S      55            13.2700000    0.448495238698
     16   S      56             5.0250000    0.270816885213
     16   S      57             1.0130000    0.015450291607

     17   S      58         11720.0000000   -0.000314443412
     17   S      59          1759.0000000   -0.002482137681
     17   S      60           400.8000000   -0.012316355382
     17   S      61           113.7000000   -0.050538917344
     17   S      62            37.0300000   -0.139384903316
     17   S      63            13.2700000   -0.325077494818
     17   S      64             5.0250000   -0.229848307588
     17   S      65             1.0130000    1.095379346788

     18   S      66             0.3023000    1.000000000000

     19   P      67            17.7000000    0.062679166282
     19   P      68             3.8540000    0.333536565879
     19   P      69             1.0460000    0.741239641640

     20   P      70             0.2753000    1.000000000000

     21   D      71             1.1850000    1.000000000000

 TOTAL NUMBER OF BASIS SET SHELLS             =   21
 NUMBER OF CARTESIAN GAUSSIAN BASIS FUNCTIONS =   50
 NUMBER OF ELECTRONS                          =   22
 CHARGE OF MOLECULE                           =    0
 SPIN MULTIPLICITY                            =    1
 NUMBER OF OCCUPIED ORBITALS (ALPHA)          =   11
 NUMBER OF OCCUPIED ORBITALS (BETA )          =   11
 TOTAL NUMBER OF ATOMS                        =    4
 THE NUCLEAR REPULSION ENERGY IS       54.7146010997

     $CONTRL OPTIONS
     ---------------
 SCFTYP=MCSCF        RUNTYP=ENERGY       EXETYP=RUN     
 MPLEVL=       2     CITYP =NONE         CCTYP =NONE         VBTYP =NONE    
 DFTTYP=NONE         TDDFT =NONE    
 MULT  =       1     ICHARG=       0     NZVAR =       0     COORD =UNIQUE  
 PP    =NONE         RELWFN=NONE         LOCAL =NONE         NUMGRD=       F
 ISPHER=      -1     NOSYM =       0     MAXIT =      30     UNITS =BOHR    
 PLTORB=       F     MOLPLT=       F     AIMPAC=       F     FRIEND=        
 NPRINT=       7     IREST =       0     GEOM  =INPUT   
 NORMF =       0     NORMP =       0     ITOL  =      20     ICUT  =       9
 INTTYP=BEST         GRDTYP=BEST         QMTTOL= 1.0E-06

     $SYSTEM OPTIONS
     ---------------
  REPLICATED MEMORY=    25000000 WORDS (ON EVERY NODE).
 DISTRIBUTED MEMDDI=           5 MILLION WORDS IN AGGREGATE,
 MEMDDI DISTRIBUTED OVER   1 PROCESSORS IS     5000000 WORDS/PROCESSOR.
 TOTAL MEMORY REQUESTED ON EACH PROCESSOR=    30000000 WORDS.
 TIMLIM=      525600.00 MINUTES, OR     365.0 DAYS.
 PARALL= F  BALTYP=  DLB     KDIAG=    0  COREFL= F
 MXSEQ2=     300 MXSEQ3=     150  mem10=         0

          ----------------
          PROPERTIES INPUT
          ----------------

     MOMENTS            FIELD           POTENTIAL          DENSITY
 IEMOM =       1   IEFLD =       0   IEPOT =       0   IEDEN =       0
 WHERE =COMASS     WHERE =NUCLEI     WHERE =NUCLEI     WHERE =NUCLEI  
 OUTPUT=BOTH       OUTPUT=BOTH       OUTPUT=BOTH       OUTPUT=BOTH    
 IEMINT=       0   IEFINT=       0                     IEDINT=       0
                                                       MORB  =       0

     -------------------------------
     INTEGRAL TRANSFORMATION OPTIONS
     -------------------------------
     NWORD  =            0
     CUTOFF = 1.0E-09     MPTRAN =       0
     DIRTRF =       F     AOINTS =DUP     

          ----------------------
          MCSCF INPUT PARAMETERS
          ----------------------
 CONVERGER SELECTION: FOCAS = F  SOSCF = T  FULLNR = F  QUD = F  JACOBI = F
 SECULAR EQUATION METHOD CISTEP = GUGA    
 --- GENERAL INPUT OPTIONS:
 MAXIT =      60  MICIT =       5  ACURCY= 1.000E-06
 DAMP  =   0.000  CANONC=       T  ENGTOL= 1.000E-10
 EKT   =       F  NPUNCH=       2  NWORD =         0
 REGENERATE CI AFTER CONVERGENCE = NONE    
 DIABATIZATION AFTER CONVERGENCE =        T
 --- INPUT FOR SOSCF CONVERGER:
 FORS  =       T  NOFO  =       1

          ----------------------
          INTEGRAL INPUT OPTIONS
          ----------------------
 NOPK  =       1 NORDER=       0 SCHWRZ=       F

 ------------------------------------------
 MULTIREFERENCE PERTURBATION THEORY CONTROL
 ------------------------------------------
 MRPT=MCQDPT   READ CONVERGED MCSCF VECTORS= F


    ----------------------------
    MRMP/MCQDPT INPUT PARAMETERS
    ----------------------------
 # OF ELECTRONS                =        22
 SPIN MULTIPLICITY             =         1
 SPATIAL STATE SYMMETRY        =         1
 # OF STATES                   =         1 (DIMENSION OF EFFECTIVE HAMILTONIAN)
 # OF FROZEN CORE ORBITALS     =         3
 # OF DOUBLY OCCUPIED ORBITALS =         2
 # OF ACTIVE ORBITALS          =        10
 # OF EXTERNAL ORBITALS        =        35
 # OF FROZEN VIRTUAL ORBITALS  =         0

      IFORB      IROT    ISELCT    LENGTH    MAXCSF    MAXERI
          0         0         0      4096      2048      4096
     MAXROW       MDI    MXBASE    MXTRFR    NSOLUT     NSTCI     NSTOP
        200        50        50        80         1         1       100
     GENZRO    THRCON    THRENE    THRERI    THRGEN    THRWGT    REFWGT
  1.000D-12 1.000D-06-1.000D+00 1.000D-12 1.000D-08 1.000D-06       F
      NOSYM    PARAIO    DOORD0    DELSCR
          0         T         T         F

 THE WEIGHTS OF THE CAS STATES IN THE DENSITY MATRIX AVERAGING ARE
   1=  1.000000

     ------------------------------------------
     THE POINT GROUP IS C1 , NAXIS= 0, ORDER= 1
     ------------------------------------------

     DIMENSIONS OF THE SYMMETRY SUBSPACES ARE
 A   =   50

 ..... DONE SETTING UP THE RUN .....
 STEP CPU TIME =     0.09 TOTAL CPU TIME =        0.1 (    0.0 MIN)
 TOTAL WALL CLOCK TIME=        0.1 SECONDS, CPU UTILIZATION IS  90.00%

          ********************
          1 ELECTRON INTEGRALS
          ********************
 TIME TO DO   DIPOLE INTEGRALS=      0.00
 ...... END OF ONE-ELECTRON INTEGRALS ......
 STEP CPU TIME =     0.00 TOTAL CPU TIME =        0.1 (    0.0 MIN)
 TOTAL WALL CLOCK TIME=        0.1 SECONDS, CPU UTILIZATION IS  90.00%

          -------------
          GUESS OPTIONS
          -------------
          GUESS =MOREAD            NORB  =      50          NORDER=       0
          MIX   =       F          PRTMO =       F          PUNMO =       F
          TOLZ  = 1.0E-08          TOLE  = 1.0E-05
          SYMDEN=       F          PURIFY=       F

 INITIAL GUESS ORBITALS GENERATED BY MOREAD   ROUTINE.

 SYMMETRIES FOR INITIAL GUESS ORBITALS FOLLOW.   BOTH SET(S).
    15 ORBITALS ARE OCCUPIED (    3 CORE ORBITALS).
     1=A        2=A        3=A        4=A        5=A        6=A        7=A   
     8=A        9=A       10=A       11=A       12=A       13=A       14=A   
    15=A       16=A       17=A       18=A       19=A       20=A       21=A   
    22=A       23=A       24=A       25=A       26=A       27=A       28=A   
    29=A       30=A       31=A       32=A       33=A       34=A       35=A   
    36=A       37=A       38=A       39=A       40=A       41=A       42=A   
    43=A       44=A       45=A       46=A       47=A       48=A       49=A   
    50=A   
 ...... END OF INITIAL ORBITAL SELECTION ......
 STEP CPU TIME =     0.01 TOTAL CPU TIME =        0.1 (    0.0 MIN)
 TOTAL WALL CLOCK TIME=        0.1 SECONDS, CPU UTILIZATION IS  90.91%

                    ----------------------
                    AO INTEGRAL TECHNOLOGY
                    ----------------------
     S,P,L SHELL ROTATED AXIS INTEGRALS, REPROGRAMMED BY
        KAZUYA ISHIMURA (IMS) AND JOSE SIERRA (SYNSTAR).
     S,P,D,L SHELL ROTATED AXIS INTEGRALS PROGRAMMED BY
        KAZUYA ISHIMURA (INSTITUTE FOR MOLECULAR SCIENCE).
     S,P,D,F,G SHELL TO TOTAL QUARTET ANGULAR MOMENTUM SUM 5,
        ERIC PROGRAM BY GRAHAM FLETCHER (ELORET AND NASA ADVANCED
        SUPERCOMPUTING DIVISION, AMES RESEARCH CENTER).
     S,P,D,F,G,L SHELL GENERAL RYS QUADRATURE PROGRAMMED BY
        MICHEL DUPUIS (PACIFIC NORTHWEST NATIONAL LABORATORY).

          --------------------
          2 ELECTRON INTEGRALS
          --------------------

 THE -PK- OPTION IS OFF, THE INTEGRALS ARE NOT IN SUPERMATRIX FORM.
 STORING   15000 INTEGRALS/RECORD ON DISK, USING 12 BYTES/INTEGRAL.
 TWO ELECTRON INTEGRAL EVALUATION REQUIRES   90627 WORDS OF MEMORY.
 II,JST,KST,LST =  1  1  1  1 NREC =         1 INTLOC =    1
 II,JST,KST,LST =  2  1  1  1 NREC =         1 INTLOC =    2
 II,JST,KST,LST =  3  1  1  1 NREC =         1 INTLOC =    7
 II,JST,KST,LST =  4  1  1  1 NREC =         1 INTLOC =   34
 II,JST,KST,LST =  5  1  1  1 NREC =         1 INTLOC =  109
 II,JST,KST,LST =  6  1  1  1 NREC =         1 INTLOC =  232
 II,JST,KST,LST =  7  1  1  1 NREC =         1 INTLOC =  421
 II,JST,KST,LST =  8  1  1  1 NREC =         1 INTLOC = 1220
 II,JST,KST,LST =  9  1  1  1 NREC =         1 INTLOC = 2759
 II,JST,KST,LST = 10  1  1  1 NREC =         1 INTLOC = 9260
 II,JST,KST,LST = 11  1  1  1 NREC =         1 INTLOC =11447
 II,JST,KST,LST = 12  1  1  1 NREC =         1 INTLOC =13991
 II,JST,KST,LST = 13  1  1  1 NREC =         2 INTLOC = 1933
 II,JST,KST,LST = 14  1  1  1 NREC =         2 INTLOC =11430
 II,JST,KST,LST = 15  1  1  1 NREC =         3 INTLOC = 9229
 II,JST,KST,LST = 16  1  1  1 NREC =         6 INTLOC = 2274
 II,JST,KST,LST = 17  1  1  1 NREC =         7 INTLOC = 8430
 II,JST,KST,LST = 18  1  1  1 NREC =         9 INTLOC = 3251
 II,JST,KST,LST = 19  1  1  1 NREC =        11 INTLOC =  584
 II,JST,KST,LST = 20  1  1  1 NREC =        17 INTLOC = 4568
 II,JST,KST,LST = 21  1  1  1 NREC =        25 INTLOC = 2810
 TOTAL NUMBER OF NONZERO TWO-ELECTRON INTEGRALS =              673907
         45 INTEGRAL RECORDS WERE STORED ON DISK FILE  8.
  ...... END OF TWO-ELECTRON INTEGRALS .....
 STEP CPU TIME =     0.12 TOTAL CPU TIME =        0.2 (    0.0 MIN)
 TOTAL WALL CLOCK TIME=        0.2 SECONDS, CPU UTILIZATION IS  95.65%

          -----------------
          MCSCF CALCULATION
          -----------------

 ----- NUCLEAR ENERGY ----- =        54.7146010997

          -----------------------     ----------------------------
          GUGA DISTINCT ROW TABLE     WRITTEN BY B.R.BROOKS,P.SAXE
          -----------------------     ----------------------------

      GROUP=C1           NPRT=       0
       FORS=       T   INTACT=       F
       FOCI=       F   MXNINT=   50000
       SOCI=       F   MXNEME=   10000
     IEXCIT=       0

      -CORE-    -INTERNAL-  -EXTERNAL-
     NFZC=   0   NDOC=   6   NEXT=   0
     NMCC=   5   NAOS=   0   NFZV=   0
                 NBOS=   0
                 NALP=   0
                 NVAL=   4

 THE MAXIMUM ELECTRON EXCITATION WILL BE   8

 SYMMETRIES FOR THE   5 CORE,  10 ACTIVE,   0 EXTERNAL MO-S ARE
     CORE= A     A     A     A     A   
   ACTIVE= A     A     A     A     A     A     A     A     A     A   
           DOC   DOC   DOC   DOC   DOC   DOC   VAL   VAL   VAL   VAL 

 MOLECULAR CHARGE          =    0
 NUMBER OF ALPHA ELECTRONS =   11
 NUMBER OF  BETA ELECTRONS =   11

 THE ELECTRONIC STATE IS  1-A   

 THE DISTINCT ROW TABLE HAS        85 ROWS.
  THE WAVEFUNCTION CONTAINS     13860 WALKS (CSF-S).

 TOTAL NUMBER OF INTEGRALS =       1835
 NUMBER OF INTEGRALS/GROUP =       1835
 NUMBER OF INTEGRAL GROUPS =          1
 MAXIMUM RECORD SIZES ARE   13860 FOR UNIT 11   13860 FOR UNIT 12
                            30001 FOR UNIT 15   30001 FOR UNIT 16
 ...... END OF -DRT- GENERATION ...... 
 STEP CPU TIME =     0.04 TOTAL CPU TIME =        0.3 (    0.0 MIN)
 TOTAL WALL CLOCK TIME=        0.3 SECONDS, CPU UTILIZATION IS  96.30%
 OPENING FILE DAFL30 WITH      81 LOGICAL RECORDS OF    2500 WORDS
 WITH A MAXIMUM OF         162 PHYSICAL RECORDS OF    2048 WORDS

          ------------------------------
          CASSCF INTEGRAL TRANSFORMATION
          ------------------------------
 AO INTEGRALS WILL BE READ IN FROM DISK...

 NUMBER OF CORE MOLECULAR ORBITALS     =     5
 NUMBER OF OCCUPIED MOLECULAR ORBITALS =    15
 TOTAL NUMBER OF MOLECULAR ORBITALS    =    50
 TOTAL NUMBER OF ATOMIC ORBITALS       =    50

 ----- CHOOSING THREE STEPS TRANSFORMATION -----
 NUMBER OF WORDS USED      =     774001
 NUMBER OF WORDS AVAILABLE =   25000000
 NUMBER OF PASSES          =          1

 ----- NUCLEAR REPULSION ENERGY =     54.71460110
 ----- FROZEN CORE ENERGY       =   -189.02172203

 ... SYMMETRY ...           CPU =    0.00
 ... (PQ|RS) -> (PQ|KL) ... CPU =    0.04
 ... (PQ|KL) -> (IJ|KL) ... CPU =    0.00

 NUMBER OF (PQ|KL) INTEGRALS WRITTEN      69830
 NUMBER OF (IJ|KL) INTEGRALS WRITTEN       1540
 ..... END OF CAS INTEGRAL TRANSFORMATION .....
 STEP CPU TIME =     0.04 TOTAL CPU TIME =        0.3 (    0.0 MIN)
 TOTAL WALL CLOCK TIME=        0.3 SECONDS, CPU UTILIZATION IS  96.77%

          ------------------------
          GUGA-CI INTEGRAL SORTING
          ------------------------

     80241 WORDS NEEDED TO SORT           1835 GUGA INTEGRALS IN MEMORY
  25000000 WORDS ARE AVAILABLE
 CHOOSING IN-MEMORY SORTING...
 IN CORE ALGORITHM SORTED             55 NON-ZERO 1E- INTEGRALS
 IN CORE ALGORITHM SORTED           1540 NON-ZERO 2E- INTEGRALS
 ...... END OF INTEGRAL SORTING ...... 
 STEP CPU TIME =     0.00 TOTAL CPU TIME =        0.3 (    0.0 MIN)
 TOTAL WALL CLOCK TIME=        0.3 SECONDS, CPU UTILIZATION IS  96.77%

 -------------------------     ---------------------------------------
 ENERGY MATRIX CALCULATION     WRITTEN BY B.R.BROOKS,W.D.LAIDIG,P.SAXE
 -------------------------     ---------------------------------------

 COMPUTING THE HAMILTONIAN FOR THE     13860 CSF-S...

     6620619 IS THE TOTAL NUMBER OF GENERATED LOOPS
     6620619 WERE CREATED BY THE LOOP-DRIVEN ALGORITHM
           0 WERE CREATED IMPLICITLY

     6400067 IS THE TOTAL NUMBER OF PROCESSED LOOPS
       79945     DIAGONAL LOOPS ARE STORED ON WORK15 IN     9 BUFFERS OF  10000 ELEMENTS.
     6320122 OFF DIAGONAL LOOPS ARE STORED ON WORK16 IN   633 BUFFERS OF  10000 ELEMENTS.
 ...... END OF ENERGY MATRIX CALCULATION ...... 
 STEP CPU TIME =     0.59 TOTAL CPU TIME =        0.9 (    0.0 MIN)
 TOTAL WALL CLOCK TIME=        0.9 SECONDS, CPU UTILIZATION IS  98.89%

          -----------------------------------------
          DAVIDSON METHOD CI-MATRIX DIAGONALIZATION
                   WRITTEN BY STEVE ELBERT
          -----------------------------------------
 NUMBER OF STATES REQUESTED =     2
 MAX. NUMB. OF EXPAN. VEC   =    30
 MAX. NUMB. IMPROVED STATES =     2
 MAX. NUMB. OF ITERATIONS   =    50
 CONVERGENCE CRITERION      =    1.0E-07

 CHOOSING OUT OF MEMORY STORAGE OF HAMILTONIAN,
 AND IN MEMORY STORAGE OF TRIAL VECTORS.

 NUMBER OF WORDS AVAILABLE =   25000000
 NUMBER OF WORDS USED      =    1002136
 ENERGY MATRIX BUFFER SIZE =      10000

 ITER. NO.JUST IMPROVED    ENERGY AND STATE
   0   7(MAX.TOL.STATE)   -167.560198723  1   -167.525569310  2
   1   7  0.41666646  5   -167.678442924  1   -167.666873161  2
   2   6  0.19103080  4   -167.705407095  1   -167.704219204  2
   3   5  0.07733951  3   -167.710756903  1   -167.708873370  2
   4   4  0.04622496  3   -167.712690427  1   -167.709622031  2
   5   3  0.01583781  1   -167.713163847  1   -167.709745882  2
   6   2  0.01457796  1   -167.713414587  1   -167.709791818  2
   7   2  0.00706859  1   -167.713511228  1   -167.709803651  2
   8   2  0.00374872  1   -167.713538555  1   -167.709805935  2
   9   2  0.00155712  1   -167.713543156  1   -167.709806369  2
  10   2  0.00109295  1   -167.713544574  1   -167.709806456  2
  11   2  0.00069344  1   -167.713545144  1   -167.709806485  2
  12   2  0.00040212  1   -167.713545369  1   -167.709806493  2
  13   2  0.00023189  1   -167.713545445  1   -167.709806495  2
  14   2  0.00014139  1   -167.713545476  1   -167.709806495  2
  15   2  0.00008080  1   -167.713545487  1   -167.709806495  2
  16   2  0.00003840  1   -167.713545489  1   -167.709806495  2
  17   2  0.00001943  1   -167.713545490  1   -167.709806495  2
  18   2  0.00000928  1   -167.713545490  1   -167.709806495  2
  19   2  0.00000916  1   -167.713545490  1   -167.709806495  2
  20   2  0.00000432  1   -167.713545490  1   -167.709806495  2
  21   2  0.00000219  1   -167.713545490  1   -167.709806495  2
  22   2  0.00000132  1   -167.713545490  1   -167.709806495  2
  23   2  0.00000086  1   -167.713545490  1   -167.709806495  2
  24   2  0.00000050  1   -167.713545490  1   -167.709806495  2
  25   1  0.00000024  1   -167.713545490  1   -167.709806495  2
  26   1  0.00000027  1   -167.713545490  1   -167.709806495  2
  27   1  0.00000014  1   -167.713545490  1   -167.709806495  2
  28   1  0.00000008  1   -167.713545490  1   -167.709806495  2

 STATE #    1  ENERGY =    -167.713545490

      CSF      COEF    OCCUPANCY (IGNORING CORE)
      ---      ----    --------- --------- -----
        1    0.894815  2222220000
       17   -0.052345  2122120002
      337    0.117082  2222210100
     1345   -0.080296  2222200200
     1360   -0.078001  2202220200
     2521   -0.056835  2222211000
     2522   -0.078600  2222121000
     2523    0.108321  2221221000
     2850    0.051516  2221121010
     2856   -0.051209  2121221010
     3529    0.116804  2222111100
     3532   -0.070761  2122211100
     5042    0.085614  2222111100
     5043   -0.050877  2221211100
     5045   -0.052610  2122211100
     5053    0.074209  2211221100
     8575   -0.123442  2222022000
     8578    0.075631  2122122000
     8580   -0.112507  2220222000

 STATE #    2  ENERGY =    -167.709806495

      CSF      COEF    OCCUPANCY (IGNORING CORE)
      ---      ----    --------- --------- -----
        1    0.056283  2222220000
     2521    0.913399  2222211000
     2581    0.053043  2122111002
     2633   -0.050841  2222111010
     3531    0.108089  2212211100
     5041   -0.111398  2222201100
     5056    0.056674  2202221100
     6241    0.111745  2202211200
     8570    0.121967  2222112000
     8571   -0.112825  2221212000
     8573   -0.071162  2122212000
     8577   -0.052745  2212122000
     8581   -0.053609  2211222000
     9754   -0.071656  2211212100
     9766   -0.109584  2211212100
 ...... END OF CI-MATRIX DIAGONALIZATION ......
 STEP CPU TIME =     2.82 TOTAL CPU TIME =        3.7 (    0.1 MIN)
 TOTAL WALL CLOCK TIME=        3.7 SECONDS, CPU UTILIZATION IS  99.73%

          -------------------------------------
          2-PARTICLE DENSITY MATRIX CALCULATION
          -------------------------------------
 2 BODY DENSITY IS AN AVERAGE OF  2 STATE(S).
   STATE    WEIGHT          ENERGY
     1    0.500000     -167.7135454903
     2    0.500000     -167.7098064954
      6620619 -DM2- LOOPS WERE GENERATED
      6620619 WERE CREATED BY THE LOOP-DRIVEN ALGORITHM
            0 WERE CREATED IMPLICITLY
          1 RECORDS OF LENGTH 50000 WRITTEN TO FILE 15
 ...... END OF 2-PARTICLE DENSITY MATRIX CALCULATION ......
 STEP CPU TIME =     0.49 TOTAL CPU TIME =        4.2 (    0.1 MIN)
 TOTAL WALL CLOCK TIME=        4.2 SECONDS, CPU UTILIZATION IS  99.76%

          ----------------------------------
          2-PARTICLE DENSITY MATRIX LABELING
          ----------------------------------
      96638 WORDS NEEDED TO LABEL DM2 MATRIX
          1 RECORDS OF LENGTH 50000  READ FROM FILE 15
          1 RECORDS OF LENGTH 15000 WRITTEN TO FILE 16
 ...... END OF 2-PARTICLE DENSITY MATRIX LABELING ......
 STEP CPU TIME =     0.01 TOTAL CPU TIME =        4.2 (    0.1 MIN)
 TOTAL WALL CLOCK TIME=        4.2 SECONDS, CPU UTILIZATION IS  99.76%

          --------------
          -DM2- ORDERING
          --------------
      31596 WORDS NEEDED (  25000000 AVAILABLE) TO ORDER DM2 IN MEMORY
 CHOOSING IN MEMORY ORDERING...
                               1 RECORDS OF LENGTH 15000  READ FROM FILE 16
       1540 DM2 VALUES IN      1 RECORDS OF LENGTH 15000 WRITTEN TO FILE 15
 ...... END OF -DM2- ORDERING ...... 
 STEP CPU TIME =     0.00 TOTAL CPU TIME =        4.2 (    0.1 MIN)
 TOTAL WALL CLOCK TIME=        4.2 SECONDS, CPU UTILIZATION IS  99.76%

          --------------------------------------
          APPROXIMATE SECOND-ORDER MCSCF PROGRAM
          --------------------------------------
          PROGRAM WRITTEN BY G.CHABAN, A.MARQUEZ, AND M.DUPUIS

  NUMBER OF WORDS NEEDED     =     119380
  NUMBER AVAILABLE           =   25000000

 ----- GAMMA(IJKL)*(PQ|KL) PRODUCTS ----- CPU TIME =      0.010
 ----- ORBITAL SYMMETRY             ----- CPU TIME =      0.000
 ----- FOCK OPERATORS CONSTRUCTION  ----- CPU TIME =      0.010
 ----- WARNING : CORE-ACTIVE GAP    =    0.43641
     MICIT =   1 ASYMM =    0.000000 ROTMAX =    0.000000
 ----- EFFECTIVE FOCK + ROTATE ORBS ----- CPU TIME =      0.000
 ..... DONE WITH CASSCF ORBITAL UPDATE .....
 STEP CPU TIME =     0.02 TOTAL CPU TIME =        4.2 (    0.1 MIN)
 TOTAL WALL CLOCK TIME=        4.2 SECONDS, CPU UTILIZATION IS  99.76%

 ITER     TOTAL ENERGY      DEL(E)  LAGRANGIAN ASYMMETRY   SQCDF  MICIT   DAMP
   1     -167.711675993 -0.711675993  0.000000   21    5 3.077E-08  1   0.0000
       ----------START APPROXIMATE SECOND ORDER MCSCF----------
   2     -167.711675993  0.000000000  0.000000   21    5 2.139E-13  1   0.0000

          --------------------
          LAGRANGIAN CONVERGED
          --------------------

 FINAL MCSCF ENERGY IS     -167.7116759928 AFTER   2 ITERATIONS

 -MCCI- BASED ON OPTIMIZED ORBITALS
 ----------------------------------

 PLEASE NOTE: IF THE ACTIVE ORBITALS ARE CANONICALIZED BELOW,
 THE FOLLOWING CI EXPANSION COEFFICIENTS AND THE DENSITY DO NOT
 CORRESPOND TO THE PRINTED ORBITALS.  THE PRINTED EXPANSIONS MATCH
 THE ORBITALS USED DURING THE LAST ITERATION.  IF YOU WISH TO SEE
 CI EXPANSIONS BASED ON THE CANONICAL (OR NATURAL) ORBITALS, YOU
 MUST RUN A CI CALCULATION WITH THAT ORBITAL CHOICE READ IN $VEC.

 STATE #    1  ENERGY =    -167.713545489

      CSF      COEF    OCCUPANCY (IGNORING CORE)
      ---      ----    --------- --------- -----
        1    0.894815  2222220000
       17   -0.052345  2122120002
      337    0.117082  2222210100
     1345   -0.080296  2222200200
     1360   -0.078001  2202220200
     2521   -0.056835  2222211000
     2522   -0.078600  2222121000
     2523    0.108321  2221221000
     2850    0.051516  2221121010
     2856   -0.051209  2121221010
     3529    0.116804  2222111100
     3532   -0.070761  2122211100
     5042    0.085614  2222111100
     5043   -0.050877  2221211100
     5045   -0.052610  2122211100
     5053    0.074209  2211221100
     8575   -0.123442  2222022000
     8578    0.075631  2122122000
     8580   -0.112507  2220222000

 STATE #    2  ENERGY =    -167.709806496

      CSF      COEF    OCCUPANCY (IGNORING CORE)
      ---      ----    --------- --------- -----
        1    0.056283  2222220000
     2521    0.913399  2222211000
     2581    0.053043  2122111002
     2633   -0.050841  2222111010
     3531    0.108089  2212211100
     5041   -0.111398  2222201100
     5056    0.056674  2202221100
     6241    0.111745  2202211200
     8570    0.121967  2222112000
     8571   -0.112825  2221212000
     8573   -0.071162  2122212000
     8577   -0.052745  2212122000
     8581   -0.053609  2211222000
     9754   -0.071656  2211212100
     9766   -0.109584  2211212100

 DENSITY MATRIX OVER ACTIVE MO-S

             1           2           3           4           5

    1    1.9862274
    2   -0.0011377   1.9529590
    3   -0.0001636  -0.0001896   1.9331659
    4   -0.0018065   0.0027511   0.0005061   1.9297311
    5   -0.0093889  -0.0262079  -0.0002111  -0.0072988   1.9290768
    6   -0.0001874  -0.0011608   0.0124849   0.0015374  -0.0016011
    7   -0.0187841  -0.0488029  -0.0010320  -0.0077914  -0.0162869
    8   -0.0004256  -0.0012863   0.0521458  -0.0010069   0.0001662
    9    0.0019290   0.0068869  -0.0002807  -0.0202972  -0.0097154
   10    0.0001329  -0.0007430   0.0001230   0.0015944   0.0026516

             6           7           8           9          10

    6    1.4556494
    7    0.0010551   0.6265428
    8    0.0226576   0.0011787   0.1140591
    9   -0.0003480  -0.0096159   0.0001706   0.0440116
   10    0.0002224  -0.0006754   0.0001643  -0.0016921   0.0285772

 FORMING THE "STANDARD FOCK OPERATOR" USING INTEGRALS FROM DISK...
     5 FILLED,   10 ACTIVE, AND   35 VIRTUAL ORBITALS  WILL BE CANONICALIZED

          ----------------------
          MCSCF NATURAL ORBITALS
          ----------------------

                      1          2          3          4          5
                  -20.6612   -15.6117   -11.3897    -1.4733    -0.7758
                     A          A          A          A          A   
    1  H  1  S    0.000010  -0.001859   0.000177   0.003787   0.006187
    2  H  1  S    0.000041   0.000393   0.000185  -0.000436  -0.005802
    3  H  1  X   -0.000019   0.000282  -0.000008   0.000656   0.001851
    4  H  1  Y    0.000009   0.000975  -0.000042   0.000694   0.000701
    5  H  1  Z    0.000000  -0.000000  -0.000000  -0.000009   0.000066
    6  N  2  S    0.000005   1.000975  -0.000023   0.000531   0.001684
    7  N  2  S   -0.000120  -0.004045   0.000118   0.004647   0.023704
    8  N  2  S   -0.000588  -0.008438   0.000293  -0.016864  -0.008751
    9  N  2  X    0.000014  -0.000484   0.000408  -0.009385  -0.004878
   10  N  2  Y    0.000074   0.002188  -0.000094   0.000548  -0.008339
   11  N  2  Z   -0.000003  -0.000012   0.000021   0.000655   0.001471
   12  N  2  X    0.000113   0.000855   0.000201   0.003814   0.018079
   13  N  2  Y    0.000041   0.000345  -0.000127   0.006838   0.004426
   14  N  2  Z   -0.000004   0.000013   0.000012   0.000095   0.000609
   15  N  2 XX   -0.000008  -0.001592  -0.000090   0.005256   0.005179
   16  N  2 YY    0.000044  -0.000777  -0.000031   0.000522   0.000587
   17  N  2 ZZ   -0.000013  -0.001300   0.000005   0.000134   0.000963
   18  N  2 XY    0.000027   0.000236   0.000016   0.000993   0.002293
   19  N  2 XZ   -0.000003  -0.000006  -0.000001  -0.000087  -0.000159
   20  N  2 YZ   -0.000007  -0.000003   0.000001   0.000046   0.000183
   21  C  3  S    0.000034   0.000043   1.001151  -0.018200  -0.001510
   22  C  3  S    0.000135  -0.000207   0.002138   0.165991   0.190302
   23  C  3  S    0.001728   0.001051  -0.001095   0.061952   0.046065
   24  C  3  X   -0.000042  -0.001146   0.000256  -0.032755  -0.024980
   25  C  3  Y    0.000198  -0.000519  -0.002630  -0.206323  -0.236539
   26  C  3  Z   -0.000016   0.000068   0.000202   0.017161   0.019435
   27  C  3  X    0.000127   0.000340  -0.000122   0.002729   0.016002
   28  C  3  Y   -0.000602   0.000068  -0.000733  -0.021941  -0.017059
   29  C  3  Z    0.000053   0.000014   0.000062   0.001559   0.000941
   30  C  3 XX    0.000062  -0.000468  -0.002387  -0.014390  -0.004471
   31  C  3 YY   -0.000637   0.000079  -0.001184   0.045334   0.030749
   32  C  3 ZZ   -0.000036  -0.000089  -0.002453  -0.015937  -0.008662
   33  C  3 XY   -0.000124   0.000096   0.000139   0.009857   0.000548
   34  C  3 XZ    0.000011  -0.000003  -0.000011  -0.000777   0.000048
   35  C  3 YZ    0.000061  -0.000018  -0.000125  -0.006015  -0.003723
   36  O  4  S    1.001168   0.000001  -0.000181  -0.006340  -0.001880
   37  O  4  S    0.002332   0.000172   0.000664   0.430237  -0.218433
   38  O  4  S   -0.002584   0.000014  -0.001253   0.371638  -0.373368
   39  O  4  X    0.000090   0.000353   0.001198   0.044398   0.161279
   40  O  4  Y    0.001613   0.000706   0.000620   0.141620   0.508359
   41  O  4  Z   -0.000142  -0.000071  -0.000076  -0.013905  -0.046589
   42  O  4  X   -0.000204   0.000330   0.000588   0.015587   0.096143
   43  O  4  Y   -0.000852   0.000409  -0.000750   0.033277   0.285436
   44  O  4  Z    0.000077  -0.000046   0.000053  -0.003944  -0.026421
   45  O  4 XX   -0.001218   0.000001   0.000076  -0.003696  -0.007088
   46  O  4 YY   -0.000834   0.000050   0.000398   0.023248   0.031183
   47  O  4 ZZ   -0.001260  -0.000031   0.000092  -0.004032  -0.007622
   48  O  4 XY    0.000137   0.000003   0.000111   0.006451   0.009827
   49  O  4 XZ   -0.000013   0.000000  -0.000010  -0.000589  -0.000884
   50  O  4 YZ   -0.000042  -0.000008  -0.000031  -0.002877  -0.004101

                      6          7          8          9         10
                    1.9885     1.9706     1.9351     1.9302     1.9114
                     A          A          A          A          A   
    1  H  1  S    0.107805   0.415489  -0.010970  -0.051779   0.072694
    2  H  1  S   -0.018796   0.136177  -0.006181  -0.027154   0.033519
    3  H  1  X   -0.008235  -0.011819  -0.000621  -0.004234  -0.008345
    4  H  1  Y   -0.023543  -0.029634   0.000940   0.004518   0.004729
    5  H  1  Z   -0.000010  -0.000057   0.002802  -0.000471  -0.000115
    6  N  2  S    0.009635   0.001465  -0.000212  -0.000541   0.000448
    7  N  2  S    0.460124   0.024771  -0.005732  -0.024864  -0.130207
    8  N  2  S    0.477845  -0.107410  -0.008690  -0.041226  -0.311673
    9  N  2  X   -0.043056   0.194163  -0.023512  -0.116105  -0.256900
   10  N  2  Y   -0.056842   0.429949   0.003511   0.016574   0.245826
   11  N  2  Z   -0.000621   0.001094   0.095852  -0.019381  -0.003098
   12  N  2  X   -0.019193   0.071729  -0.012076  -0.059246  -0.157493
   13  N  2  Y   -0.072210   0.220351   0.003309   0.014026   0.184876
   14  N  2  Z   -0.000402   0.001103   0.061785  -0.012289  -0.002046
   15  N  2 XX    0.009280  -0.015258   0.001428   0.007838   0.014529
   16  N  2 YY   -0.004152   0.029912  -0.000799  -0.003712   0.010008
   17  N  2 ZZ   -0.001685  -0.005465  -0.000031   0.000337  -0.007191
   18  N  2 XY    0.000534   0.007454  -0.002388  -0.010707  -0.011991
   19  N  2 XZ    0.000124  -0.000421  -0.008506   0.001775   0.000383
   20  N  2 YZ    0.000026  -0.000115   0.002076  -0.000262  -0.000179
   21  C  3  S   -0.005900   0.003837  -0.002326  -0.015848  -0.006416
   22  C  3  S    0.041406  -0.038654   0.033616   0.232700   0.145060
   23  C  3  S    0.046051  -0.082240   0.060193   0.422752   0.208261
   24  C  3  X    0.133493  -0.143380  -0.010971  -0.145605   0.267669
   25  C  3  Y    0.067720  -0.036704   0.065039   0.260530   0.155120
   26  C  3  Z   -0.007151   0.009665   0.334973  -0.065689  -0.017926
   27  C  3  X    0.036909  -0.056291  -0.004801  -0.065045   0.118455
   28  C  3  Y    0.003540   0.015351   0.029477   0.107549   0.083195
   29  C  3  Z   -0.001042   0.002732   0.171923  -0.031033  -0.008051
   30  C  3 XX    0.032932  -0.017339   0.004558   0.030900   0.015731
   31  C  3 YY   -0.015057   0.010209  -0.010446  -0.024071  -0.001676
   32  C  3 ZZ   -0.001603   0.000670   0.007656   0.004060   0.004711
   33  C  3 XY   -0.005531   0.022788   0.003063   0.033490  -0.020304
   34  C  3 XZ    0.000284  -0.000505  -0.002634  -0.002745   0.002908
   35  C  3 YZ    0.001189  -0.000839  -0.045809   0.008694   0.002089
   36  O  4  S    0.001565  -0.000498  -0.000300  -0.002839  -0.001111
   37  O  4  S   -0.018644   0.022981  -0.008091  -0.060286  -0.015019
   38  O  4  S   -0.021258   0.047982  -0.013573  -0.090998   0.023403
   39  O  4  X   -0.011584  -0.043798  -0.044385  -0.401992   0.313317
   40  O  4  Y   -0.074111   0.061223   0.046108   0.020299  -0.133272
   41  O  4  Z    0.007800  -0.004702   0.506017  -0.064666  -0.003645
   42  O  4  X   -0.026212  -0.006671  -0.029708  -0.261317   0.196192
   43  O  4  Y   -0.043367   0.038403   0.027240   0.006829  -0.075916
   44  O  4  Z    0.005044  -0.004378   0.311780  -0.039279  -0.004101
   45  O  4 XX    0.003181  -0.003607  -0.000477  -0.004922   0.002643
   46  O  4 YY   -0.004943   0.004321   0.004674   0.004929  -0.007759
   47  O  4 ZZ    0.001730  -0.000247  -0.004046   0.000383   0.001070
   48  O  4 XY    0.001522  -0.003754  -0.001453  -0.017194   0.015425
   49  O  4 XZ   -0.000149   0.000397   0.004296   0.000994  -0.001418
   50  O  4 YZ    0.000684  -0.000234   0.026304  -0.003840   0.000276

                     11         12         13         14         15
                    1.4556     0.6244     0.1122     0.0437     0.0284
                     A          A          A          A          A   
    1  H  1  S   -0.003936   0.007224  -0.006854   0.013644   0.824157
    2  H  1  S   -0.002205   0.015447  -0.003456  -0.038993   0.276867
    3  H  1  X   -0.000446   0.010005   0.000081   0.003627  -0.011422
    4  H  1  Y    0.000131  -0.004825   0.000459  -0.002788   0.018475
    5  H  1  Z    0.021371   0.000148  -0.000791  -0.000220  -0.000743
    6  N  2  S   -0.000059   0.004220   0.000563  -0.041001  -0.082682
    7  N  2  S    0.001923  -0.005256   0.003706  -0.233931  -0.339407
    8  N  2  S    0.005202  -0.037510   0.004506  -0.281524  -0.266566
    9  N  2  X   -0.007496   0.358665   0.005261   0.599682  -0.238144
   10  N  2  Y   -0.000880  -0.137626  -0.009737  -0.044716  -0.760441
   11  N  2  Z    0.574183   0.006015  -0.347550   0.005817   0.004006
   12  N  2  X   -0.005436   0.274709   0.001995   0.261255  -0.075095
   13  N  2  Y    0.000287  -0.110254  -0.003790  -0.022428  -0.081324
   14  N  2  Z    0.454440   0.005361  -0.117456   0.002443  -0.002631
   15  N  2 XX    0.000121  -0.014720  -0.000033   0.029435   0.034378
   16  N  2 YY   -0.000194   0.000166  -0.000853   0.015284  -0.007329
   17  N  2 ZZ   -0.000120   0.008439   0.000078  -0.014899   0.002618
   18  N  2 XY   -0.000783   0.004617  -0.001119  -0.002213   0.002403
   19  N  2 XZ   -0.012130   0.000054  -0.019960  -0.000116   0.000947
   20  N  2 YZ    0.016561  -0.000024  -0.006135  -0.001003   0.001032
   21  C  3  S   -0.000379  -0.004842  -0.000165   0.028055  -0.001077
   22  C  3  S    0.000663   0.159820  -0.000469   0.198258  -0.011217
   23  C  3  S    0.006934   0.412656   0.002704   0.240401  -0.058023
   24  C  3  X   -0.002268  -0.282421   0.001109   0.692931   0.004316
   25  C  3  Y    0.010859   0.269276   0.050328   0.094751   0.006900
   26  C  3  Z    0.090623  -0.021815   0.624877  -0.008848   0.001474
   27  C  3  X   -0.003334  -0.147126  -0.000112   0.358765   0.002971
   28  C  3  Y    0.005523   0.132396   0.028244   0.006091   0.045383
   29  C  3  Z    0.096031  -0.010096   0.380781  -0.000367  -0.002052
   30  C  3 XX    0.001142  -0.030795  -0.000118  -0.023072  -0.007386
   31  C  3 YY    0.001612   0.007230   0.001578   0.008929   0.008827
   32  C  3 ZZ   -0.002624   0.013155  -0.001938   0.005584  -0.002632
   33  C  3 XY    0.001476  -0.034250  -0.000584   0.013133   0.005614
   34  C  3 XZ    0.028713   0.002941   0.004301  -0.000245   0.000096
   35  C  3 YZ    0.018527   0.000491   0.017224  -0.000395  -0.000136
   36  O  4  S    0.000076   0.000015  -0.000240  -0.004546  -0.004168
   37  O  4  S   -0.003094  -0.015689  -0.001168  -0.003041  -0.004864
   38  O  4  S   -0.008310  -0.029942  -0.003313   0.031121   0.050314
   39  O  4  X   -0.011877   0.381707  -0.001191  -0.299120  -0.053345
   40  O  4  Y   -0.023980  -0.133002  -0.043698   0.080895   0.010291
   41  O  4  Z   -0.243035   0.011449  -0.486013  -0.006598   0.000529
   42  O  4  X   -0.009199   0.272607   0.000796  -0.067531   0.005054
   43  O  4  Y   -0.019243  -0.088566  -0.018155   0.024717   0.010433
   44  O  4  Z   -0.191294   0.007717  -0.203647  -0.002503  -0.001797
   45  O  4 XX    0.000292   0.000270   0.000171   0.001142  -0.004290
   46  O  4 YY   -0.000846  -0.003031   0.001513  -0.004603  -0.002268
   47  O  4 ZZ    0.000760   0.001662  -0.001402   0.001970  -0.002012
   48  O  4 XY   -0.000527   0.000552   0.000154   0.019813  -0.000150
   49  O  4 XZ    0.000561   0.000005   0.000407  -0.001789   0.000169
   50  O  4 YZ   -0.004389   0.000526   0.008915   0.000599   0.000224

          ------------------------
          MCSCF OPTIMIZED ORBITALS
          ------------------------

                      1          2          3          4          5
                  -20.6612   -15.6117   -11.3897    -1.4733    -0.7758
                     A          A          A          A          A   
    1  H  1  S    0.000010  -0.001859   0.000177   0.003787   0.006187
    2  H  1  S    0.000041   0.000393   0.000185  -0.000436  -0.005802
    3  H  1  X   -0.000019   0.000282  -0.000008   0.000656   0.001851
    4  H  1  Y    0.000009   0.000975  -0.000042   0.000694   0.000701
    5  H  1  Z    0.000000  -0.000000  -0.000000  -0.000009   0.000066
    6  N  2  S    0.000005   1.000975  -0.000023   0.000531   0.001684
    7  N  2  S   -0.000120  -0.004045   0.000118   0.004647   0.023704
    8  N  2  S   -0.000588  -0.008438   0.000293  -0.016864  -0.008751
    9  N  2  X    0.000014  -0.000484   0.000408  -0.009385  -0.004878
   10  N  2  Y    0.000074   0.002188  -0.000094   0.000548  -0.008339
   11  N  2  Z   -0.000003  -0.000012   0.000021   0.000655   0.001471
   12  N  2  X    0.000113   0.000855   0.000201   0.003814   0.018079
   13  N  2  Y    0.000041   0.000345  -0.000127   0.006838   0.004426
   14  N  2  Z   -0.000004   0.000013   0.000012   0.000095   0.000609
   15  N  2 XX   -0.000008  -0.001592  -0.000090   0.005256   0.005179
   16  N  2 YY    0.000044  -0.000777  -0.000031   0.000522   0.000587
   17  N  2 ZZ   -0.000013  -0.001300   0.000005   0.000134   0.000963
   18  N  2 XY    0.000027   0.000236   0.000016   0.000993   0.002293
   19  N  2 XZ   -0.000003  -0.000006  -0.000001  -0.000087  -0.000159
   20  N  2 YZ   -0.000007  -0.000003   0.000001   0.000046   0.000183
   21  C  3  S    0.000034   0.000043   1.001151  -0.018200  -0.001510
   22  C  3  S    0.000135  -0.000207   0.002138   0.165991   0.190302
   23  C  3  S    0.001728   0.001051  -0.001095   0.061952   0.046065
   24  C  3  X   -0.000042  -0.001146   0.000256  -0.032755  -0.024980
   25  C  3  Y    0.000198  -0.000519  -0.002630  -0.206323  -0.236539
   26  C  3  Z   -0.000016   0.000068   0.000202   0.017161   0.019435
   27  C  3  X    0.000127   0.000340  -0.000122   0.002729   0.016002
   28  C  3  Y   -0.000602   0.000068  -0.000733  -0.021941  -0.017059
   29  C  3  Z    0.000053   0.000014   0.000062   0.001559   0.000941
   30  C  3 XX    0.000062  -0.000468  -0.002387  -0.014390  -0.004471
   31  C  3 YY   -0.000637   0.000079  -0.001184   0.045334   0.030749
   32  C  3 ZZ   -0.000036  -0.000089  -0.002453  -0.015937  -0.008662
   33  C  3 XY   -0.000124   0.000096   0.000139   0.009857   0.000548
   34  C  3 XZ    0.000011  -0.000003  -0.000011  -0.000777   0.000048
   35  C  3 YZ    0.000061  -0.000018  -0.000125  -0.006015  -0.003723
   36  O  4  S    1.001168   0.000001  -0.000181  -0.006340  -0.001880
   37  O  4  S    0.002332   0.000172   0.000664   0.430237  -0.218433
   38  O  4  S   -0.002584   0.000014  -0.001253   0.371638  -0.373368
   39  O  4  X    0.000090   0.000353   0.001198   0.044398   0.161279
   40  O  4  Y    0.001613   0.000706   0.000620   0.141620   0.508359
   41  O  4  Z   -0.000142  -0.000071  -0.000076  -0.013905  -0.046589
   42  O  4  X   -0.000204   0.000330   0.000588   0.015587   0.096143
   43  O  4  Y   -0.000852   0.000409  -0.000750   0.033277   0.285436
   44  O  4  Z    0.000077  -0.000046   0.000053  -0.003944  -0.026421
   45  O  4 XX   -0.001218   0.000001   0.000076  -0.003696  -0.007088
   46  O  4 YY   -0.000834   0.000050   0.000398   0.023248   0.031183
   47  O  4 ZZ   -0.001260  -0.000031   0.000092  -0.004032  -0.007622
   48  O  4 XY    0.000137   0.000003   0.000111   0.006451   0.009827
   49  O  4 XZ   -0.000013   0.000000  -0.000010  -0.000589  -0.000884
   50  O  4 YZ   -0.000042  -0.000008  -0.000031  -0.002877  -0.004101

                      6          7          8          9         10
                   -1.0764    -0.6564    -0.6014    -0.5859    -0.4756
                     A          A          A          A          A   
    1  H  1  S    0.211532  -0.277828  -0.004592  -0.095532   0.246442
    2  H  1  S    0.018367  -0.091321  -0.002553  -0.039508   0.101961
    3  H  1  X   -0.011581   0.006005  -0.000112  -0.004304  -0.010176
    4  H  1  Y   -0.029350   0.021756   0.000508   0.010009  -0.006123
    5  H  1  Z   -0.000019   0.000074   0.002263  -0.000218  -0.000045
    6  N  2  S    0.009793   0.000897  -0.000190  -0.001048  -0.001016
    7  N  2  S    0.435358  -0.005338  -0.005194  -0.061069  -0.193565
    8  N  2  S    0.400194   0.023373  -0.007605  -0.102733  -0.411568
    9  N  2  X   -0.019141  -0.246761  -0.011033  -0.199474  -0.085884
   10  N  2  Y    0.073897  -0.255840   0.003151   0.009423   0.422827
   11  N  2  Z   -0.000242   0.000595   0.091313  -0.010347   0.000669
   12  N  2  X   -0.015265  -0.111955  -0.005767  -0.104131  -0.078838
   13  N  2  Y    0.002246  -0.112578   0.002951   0.024744   0.273597
   14  N  2  Z    0.000016   0.000330   0.053447  -0.006759   0.000857
   15  N  2 XX    0.006685   0.018198   0.000575   0.013930   0.001517
   16  N  2 YY    0.004261  -0.019605  -0.000262  -0.005596   0.024427
   17  N  2 ZZ   -0.003600   0.001105  -0.000114  -0.000770  -0.008314
   18  N  2 XY    0.001000  -0.008745  -0.001123  -0.014600  -0.004915
   19  N  2 XZ    0.000038   0.000356  -0.007742   0.000905   0.000001
   20  N  2 YZ   -0.000012   0.000049   0.001802  -0.000106  -0.000171
   21  C  3  S   -0.005634  -0.003201  -0.000408  -0.017261   0.000121
   22  C  3  S    0.049729   0.051108   0.006389   0.270364   0.063539
   23  C  3  S    0.055040   0.076986   0.010185   0.478210   0.070798
   24  C  3  X    0.118662   0.291370   0.008789  -0.042823   0.145196
   25  C  3  Y    0.078492   0.054387   0.032511   0.302209   0.063513
   26  C  3  Z   -0.006098  -0.012903   0.319691  -0.030426  -0.007574
   27  C  3  X    0.032505   0.118832   0.004143  -0.020311   0.072594
   28  C  3  Y    0.018624   0.003497   0.015968   0.124787   0.062339
   29  C  3  Z   -0.000946  -0.004334   0.160670  -0.012491  -0.004744
   30  C  3 XX    0.029051   0.017574   0.000783   0.036231  -0.007328
   31  C  3 YY   -0.012282  -0.004659  -0.007512  -0.025967   0.010540
   32  C  3 ZZ   -0.000652   0.000580   0.007281   0.005937   0.004061
   33  C  3 XY   -0.002438  -0.039385  -0.001253   0.023351  -0.009750
   34  C  3 XZ    0.000510   0.002839  -0.003176  -0.002161   0.002699
   35  C  3 YZ    0.001113   0.001359  -0.047479   0.003654   0.001019
   36  O  4  S    0.001259   0.000880   0.000038  -0.002971  -0.001129
   37  O  4  S   -0.014595  -0.013638  -0.000711  -0.065664   0.010974
   38  O  4  S   -0.007250  -0.008885  -0.001938  -0.089293   0.060083
   39  O  4  X    0.016630   0.304107   0.007928  -0.301479   0.302783
   40  O  4  Y   -0.073176  -0.137392   0.044133  -0.018892  -0.070728
   41  O  4  Z    0.006970   0.001199   0.530288  -0.003508  -0.010633
   42  O  4  X   -0.002558   0.173837   0.004306  -0.199917   0.206220
   43  O  4  Y   -0.042125  -0.080577   0.026628  -0.015977  -0.038000
   44  O  4  Z    0.003975   0.000935   0.325079  -0.001656  -0.009086
   45  O  4 XX    0.002474   0.006014   0.000129  -0.003465   0.000470
   46  O  4 YY   -0.004589  -0.009552   0.003959   0.002483  -0.004163
   47  O  4 ZZ    0.001740   0.001080  -0.004034   0.000249   0.000478
   48  O  4 XY    0.002183   0.015126   0.000785  -0.011764   0.013244
   49  O  4 XZ   -0.000188  -0.001430   0.004101   0.000989  -0.001205
   50  O  4 YZ    0.000692   0.000479   0.026423  -0.000514  -0.000124

                     11         12         13         14         15
                   -0.2872    -0.1144     0.1849     0.4474     0.6092
                     A          A          A          A          A   
    1  H  1  S   -0.004567   0.014440  -0.008622   0.102522   0.818073
    2  H  1  S   -0.002526   0.017621  -0.003936  -0.009153   0.279591
    3  H  1  X   -0.000449   0.010138   0.000108   0.002299  -0.011782
    4  H  1  Y    0.000149  -0.005196   0.000418  -0.000695   0.018665
    5  H  1  Z    0.021451   0.000168  -0.000368  -0.000307  -0.000713
    6  N  2  S   -0.000086   0.003168   0.000848  -0.049834  -0.077705
    7  N  2  S    0.002013  -0.012970   0.004841  -0.267471  -0.312047
    8  N  2  S    0.005803  -0.043234   0.005525  -0.304650  -0.234754
    9  N  2  X   -0.007796   0.379733   0.004849   0.565737  -0.302910
   10  N  2  Y   -0.001221  -0.137861  -0.008043  -0.128500  -0.750154
   11  N  2  Z    0.582289   0.007559  -0.335470   0.005081   0.002788
   12  N  2  X   -0.005625   0.284972   0.001966   0.248016  -0.103681
   13  N  2  Y   -0.000025  -0.110584  -0.003634  -0.031451  -0.077825
   14  N  2  Z    0.457851   0.006192  -0.108379   0.001667  -0.003035
   15  N  2 XX    0.000147  -0.015022  -0.000220   0.033177   0.030975
   16  N  2 YY   -0.000237   0.000770  -0.000871   0.014252  -0.008923
   17  N  2 ZZ   -0.000113   0.008334   0.000125  -0.014611   0.004211
   18  N  2 XY   -0.000808   0.005055  -0.001140  -0.001865   0.002607
   19  N  2 XZ   -0.012028   0.000070  -0.020393  -0.000074   0.000915
   20  N  2 YZ    0.016711  -0.000004  -0.005809  -0.000903   0.001127
   21  C  3  S   -0.000419  -0.004094  -0.000252   0.028014  -0.004149
   22  C  3  S    0.001183   0.158107  -0.000603   0.190200  -0.032707
   23  C  3  S    0.007787   0.409327   0.003206   0.220631  -0.083927
   24  C  3  X   -0.003002  -0.285465  -0.001341   0.694804  -0.071156
   25  C  3  Y    0.011218   0.265183   0.051582   0.087335  -0.003365
   26  C  3  Z    0.089521  -0.022617   0.635815  -0.006236   0.003612
   27  C  3  X   -0.003602  -0.147089  -0.001402   0.359672  -0.036103
   28  C  3  Y    0.005516   0.130702   0.028916   0.007283   0.044551
   29  C  3  Z    0.094441  -0.010636   0.387129   0.000765  -0.001277
   30  C  3 XX    0.001277  -0.032385  -0.000108  -0.023489  -0.004767
   31  C  3 YY    0.001274   0.007767   0.001382   0.009922   0.007785
   32  C  3 ZZ   -0.002405   0.013142  -0.001754   0.004956  -0.003234
   33  C  3 XY    0.001706  -0.032557  -0.000700   0.013880   0.004199
   34  C  3 XZ    0.028538   0.002833   0.004693  -0.000255   0.000132
   35  C  3 YZ    0.016961   0.000405   0.016160  -0.000402  -0.000057
   36  O  4  S    0.000072  -0.000088  -0.000216  -0.004933  -0.003651
   37  O  4  S   -0.003280  -0.014816  -0.001208  -0.002714  -0.004525
   38  O  4  S   -0.008740  -0.029159  -0.003706   0.037538   0.046641
   39  O  4  X   -0.014969   0.363204   0.000519  -0.306582  -0.020647
   40  O  4  Y   -0.021331  -0.124562  -0.043229   0.083573   0.001366
   41  O  4  Z   -0.220879   0.011735  -0.474775  -0.007998   0.000321
   42  O  4  X   -0.011235   0.263741   0.001520  -0.069312   0.012178
   43  O  4  Y   -0.017811  -0.084034  -0.017914   0.027138   0.007684
   44  O  4  Z   -0.179203   0.007682  -0.197433  -0.003325  -0.001917
   45  O  4 XX    0.000264   0.000033   0.000183   0.000722  -0.004393
   46  O  4 YY   -0.000710  -0.002664   0.001631  -0.004815  -0.001745
   47  O  4 ZZ    0.000666   0.001624  -0.001505   0.001708  -0.002219
   48  O  4 XY   -0.000628   0.000176   0.000113   0.019786  -0.002314
   49  O  4 XZ    0.000678   0.000039   0.000540  -0.001770   0.000365
   50  O  4 YZ   -0.003810   0.000469   0.009609   0.000643   0.000174

                     16         17         18         19         20
                    0.4017     0.4689     0.5808     0.6603     0.7819
                     A          A          A          A          A   
    1  H  1  S   -0.098708  -0.636755  -0.005034   0.010713   0.236167
    2  H  1  S    0.037456   1.895678  -0.322299  -0.025320  -0.667064
    3  H  1  X   -0.030939  -0.078193  -0.037108  -0.002541  -0.093530
    4  H  1  Y   -0.011821  -0.189091   0.032796   0.001949   0.033976
    5  H  1  Z   -0.001125   0.000564   0.001725   0.008152   0.001667
    6  N  2  S    0.007140   0.092670   0.079671   0.001437  -0.061456
    7  N  2  S    0.073059   0.118484   0.093432   0.004878  -0.160571
    8  N  2  S    0.235392  -1.137996  -1.164020   0.008269  -0.331808
    9  N  2  X   -0.006370  -0.036890  -0.121039   0.005184   0.081013
   10  N  2  Y   -0.055699   0.200072  -0.009331  -0.006663   0.016732
   11  N  2  Z    0.009440  -0.002692   0.002411  -0.079837   0.005937
   12  N  2  X   -0.192611  -0.089047   0.909904  -0.004888   0.397477
   13  N  2  Y   -0.287990  -0.570737   0.171961  -0.012046  -0.043224
   14  N  2  Z    0.024155  -0.002022  -0.005444  -0.210377  -0.002339
   15  N  2 XX    0.003792   0.033572  -0.058792   0.001564  -0.109850
   16  N  2 YY   -0.004869  -0.085276   0.052621   0.002140  -0.000032
   17  N  2 ZZ    0.006365   0.087820   0.063325  -0.000274  -0.002361
   18  N  2 XY   -0.012287  -0.068940  -0.015523   0.001698   0.006754
   19  N  2 XZ   -0.000008   0.000139   0.001642   0.017897  -0.000261
   20  N  2 YZ   -0.001396   0.000381   0.001472   0.001975   0.002193
   21  C  3  S    0.052953  -0.047829   0.014106   0.004170  -0.448245
   22  C  3  S   -0.009767  -0.118531   0.115548   0.008644  -0.839977
   23  C  3  S   -1.767362   0.369877   0.881903  -0.015528   2.566453
   24  C  3  X   -0.069032  -0.017050  -0.664998  -0.001308  -0.204329
   25  C  3  Y    0.067983  -0.106711   0.226218  -0.073189  -0.639503
   26  C  3  Z   -0.005352  -0.001255  -0.017188  -0.916959   0.048730
   27  C  3  X    0.184977   0.045577   1.957678  -0.002058   0.863149
   28  C  3  Y    1.859618  -0.254101  -0.499278   0.102117   0.257796
   29  C  3  Z   -0.156042   0.029862   0.042260   1.257838  -0.005238
   30  C  3 XX    0.028289  -0.016251   0.132261   0.001603  -0.389243
   31  C  3 YY   -0.044526  -0.027369   0.049967   0.010088  -0.310203
   32  C  3 ZZ    0.011942  -0.028937   0.035350  -0.003497  -0.180519
   33  C  3 XY   -0.003679   0.040692   0.026956  -0.002372   0.009569
   34  C  3 XZ    0.001170  -0.000299  -0.001833  -0.034438  -0.001395
   35  C  3 YZ    0.005805  -0.000719  -0.001516   0.038177   0.014403
   36  O  4  S   -0.076359   0.020266   0.029464   0.000331  -0.004627
   37  O  4  S    0.074807  -0.004716   0.049062   0.001116  -0.107725
   38  O  4  S    1.977354  -0.379010  -0.375177  -0.002239  -0.470352
   39  O  4  X   -0.013870   0.012101  -0.028419   0.000688  -0.057988
   40  O  4  Y    0.103058   0.017967   0.001833  -0.003535   0.085286
   41  O  4  Z   -0.010865  -0.001282  -0.000892  -0.038599  -0.008247
   42  O  4  X    0.112418  -0.104690  -0.334089   0.000550  -0.192271
   43  O  4  Y    0.673719  -0.148193  -0.065301  -0.016099  -0.445648
   44  O  4  Z   -0.062456   0.013738   0.005415  -0.190416   0.036392
   45  O  4 XX   -0.044092   0.012732  -0.011182   0.000133  -0.016247
   46  O  4 YY   -0.006704   0.004458   0.025533  -0.005882   0.018457
   47  O  4 ZZ   -0.053433   0.014693   0.022103   0.005922   0.005146
   48  O  4 XY    0.006730  -0.001910  -0.028763  -0.001103   0.007489
   49  O  4 XZ   -0.000566  -0.000029   0.002605  -0.010721  -0.000927
   50  O  4 YZ   -0.004797   0.000448  -0.000239  -0.037248  -0.001557

                     21         22         23         24         25
                    0.9318     0.9796     0.9900     1.0053     1.0849
                     A          A          A          A          A   
    1  H  1  S    0.281569  -0.594354   0.055941  -0.394970  -0.132555
    2  H  1  S    0.219486   0.026582  -0.037734  -0.835109  -0.178999
    3  H  1  X   -0.090253   0.032265  -0.002144   0.054204   0.025403
    4  H  1  Y   -0.055432   0.075967  -0.002100   0.121692   0.020092
    5  H  1  Z    0.000220   0.000265  -0.007083   0.000999  -0.000976
    6  N  2  S   -0.079960   0.118829  -0.022604  -0.197156  -0.065351
    7  N  2  S   -0.142269   0.332205  -0.057673  -0.414307  -0.139813
    8  N  2  S    0.276116  -0.185289   0.058439   0.746015   0.168400
    9  N  2  X    0.147233   0.354696  -0.063501  -0.623919   0.012185
   10  N  2  Y    0.170577  -0.562698   0.060378  -0.076312  -0.033826
   11  N  2  Z   -0.009444  -0.114879  -0.938134   0.028600  -0.006276
   12  N  2  X   -0.673114  -0.338509   0.091168   1.468210   0.143377
   13  N  2  Y   -0.457522   1.139405  -0.102722   0.730838   0.258545
   14  N  2  Z    0.004617   0.137004   1.141920  -0.037236   0.002668
   15  N  2 XX   -0.096378   0.062764  -0.010393  -0.067313  -0.048769
   16  N  2 YY   -0.007806   0.046044  -0.008628  -0.100962  -0.039370
   17  N  2 ZZ   -0.039711   0.124466  -0.018168  -0.087820   0.015449
   18  N  2 XY   -0.047603  -0.032914   0.003192  -0.032685   0.028876
   19  N  2 XZ    0.003801   0.001852   0.013973   0.001313  -0.004316
   20  N  2 YZ   -0.002170   0.000699  -0.008193   0.000331   0.002595
   21  C  3  S   -0.228215  -0.087171   0.009671  -0.176330  -0.428492
   22  C  3  S   -0.573755  -0.204618   0.021124  -0.421412  -0.768833
   23  C  3  S    0.240485   0.573063  -0.038436   1.469296   0.231758
   24  C  3  X   -0.032520  -0.054658   0.009095   0.298301   0.056918
   25  C  3  Y    0.742190   0.038584  -0.018574   0.106842   0.385237
   26  C  3  Z   -0.058074  -0.013237  -0.064509  -0.016446  -0.038871
   27  C  3  X   -0.364006   0.044589   0.005329   0.340291   0.239129
   28  C  3  Y   -0.517608  -0.657919   0.075326  -0.329323   0.103019
   29  C  3  Z    0.049391  -0.027013  -0.429083   0.041178  -0.017345
   30  C  3 XX   -0.333558  -0.247338   0.037017   0.026345  -0.179004
   31  C  3 YY    0.225620   0.099284  -0.013487   0.085032  -0.523046
   32  C  3 ZZ   -0.243919  -0.010855  -0.003193  -0.221462   0.111306
   33  C  3 XY    0.151100   0.030258   0.013154   0.078696  -0.091896
   34  C  3 XZ   -0.017436   0.023100   0.083199   0.000767   0.015698
   35  C  3 YZ   -0.046430  -0.015902  -0.007021  -0.032995   0.063783
   36  O  4  S    0.012869   0.039800  -0.004752   0.067546   0.064768
   37  O  4  S    0.109017   0.076797  -0.009643   0.173105   0.219215
   38  O  4  S   -0.245477  -0.608906   0.078024  -0.581508   0.430413
   39  O  4  X   -0.013408   0.342637  -0.058414   0.248322  -0.024226
   40  O  4  Y    0.419933   0.107820  -0.008424   0.207555  -0.520393
   41  O  4  Z   -0.031587  -0.022483  -0.055224  -0.029108   0.035529
   42  O  4  X    0.107483  -0.341243   0.057914  -0.195782   0.142991
   43  O  4  Y    0.106181  -0.199801   0.027746  -0.159809   1.479503
   44  O  4  Z   -0.017108   0.061112   0.233556   0.019319  -0.113218
   45  O  4 XX    0.049812  -0.004471   0.001610   0.024800   0.055039
   46  O  4 YY   -0.115332  -0.007905  -0.000181  -0.014866   0.031939
   47  O  4 ZZ    0.036843   0.039107  -0.004386   0.049094   0.081871
   48  O  4 XY   -0.033620  -0.009735   0.003113  -0.008999  -0.004216
   49  O  4 XZ    0.002303   0.005669   0.020413   0.001425   0.001161
   50  O  4 YZ    0.015964   0.003370  -0.007148   0.005917   0.004460

                     26         27         28         29         30
                    1.1994     1.2816     1.2963     1.3316     1.4662
                     A          A          A          A          A   
    1  H  1  S   -0.004287  -0.379611   0.105687  -0.301881   0.110712
    2  H  1  S    0.013966  -0.116977  -0.003529  -0.234433   0.070691
    3  H  1  X    0.004376   0.095302  -0.113086  -0.316502  -0.058727
    4  H  1  Y   -0.000501   0.023329   0.027379   0.174522   0.008256
    5  H  1  Z   -0.095019  -0.135087  -0.291620   0.071915   0.407173
    6  N  2  S   -0.008833   0.020157  -0.122260  -0.557904   0.110584
    7  N  2  S   -0.016784   0.059259  -0.244469  -1.074873   0.212168
    8  N  2  S    0.053491   0.229340   0.469316   2.786517  -0.501078
    9  N  2  X    0.009722  -0.036017   0.068666   0.284766  -0.049132
   10  N  2  Y    0.002587  -0.214437   0.084821  -0.041703   0.013794
   11  N  2  Z    0.168321   0.044761   0.054180  -0.006706  -0.010027
   12  N  2  X   -0.040815   0.151404  -0.210542  -0.752606   0.148747
   13  N  2  Y    0.006712   0.715181  -0.263480   0.276087  -0.154044
   14  N  2  Z   -0.076930  -0.103090  -0.166912   0.023850  -0.202405
   15  N  2 XX   -0.004790   0.064565  -0.085632  -0.281362   0.056221
   16  N  2 YY   -0.005933  -0.005022  -0.030369  -0.183630   0.074142
   17  N  2 ZZ    0.000933   0.021895  -0.049449  -0.173962  -0.011553
   18  N  2 XY    0.000440   0.008151  -0.044551  -0.177419  -0.053051
   19  N  2 XZ   -0.050456  -0.091626  -0.228575   0.052780  -0.067262
   20  N  2 YZ   -0.053296  -0.040138  -0.070145   0.017250   0.230474
   21  C  3  S    0.008225  -0.055668   0.072552   0.246392  -0.006691
   22  C  3  S    0.015036  -0.138818   0.160569   0.509158  -0.014302
   23  C  3  S   -0.055922   0.302038  -0.464181  -1.582138   0.193957
   24  C  3  X   -0.011376  -0.069712  -0.001037  -0.118799   0.060354
   25  C  3  Y   -0.005089   0.025137  -0.029769  -0.105124   0.003209
   26  C  3  Z   -0.082712  -0.023078  -0.049383   0.020909   0.055570
   27  C  3  X   -0.045365  -0.542906   0.030518  -1.011361   0.056437
   28  C  3  Y   -0.043532  -0.215919   0.130805   0.052682  -0.023336
   29  C  3  Z   -0.500643   0.120760   0.189474  -0.045891  -0.174284
   30  C  3 XX    0.004841   0.104238  -0.015152   0.145274   0.000051
   31  C  3 YY    0.028977  -0.143263   0.040873  -0.037637   0.078833
   32  C  3 ZZ   -0.028408  -0.016041   0.024681   0.020456  -0.055660
   33  C  3 XY    0.018426   0.394838  -0.055154   0.372791   0.156750
   34  C  3 XZ    0.161111   0.248957   0.735932  -0.164454   0.316183
   35  C  3 YZ    0.156394  -0.054252  -0.121009   0.035054   0.804659
   36  O  4  S   -0.004237   0.037477  -0.026766  -0.002738   0.015733
   37  O  4  S   -0.008998   0.080886  -0.060181  -0.025141   0.032071
   38  O  4  S    0.017285  -0.293890   0.198981   0.135158  -0.087709
   39  O  4  X   -0.029948  -0.630305   0.251943   0.073819   0.027993
   40  O  4  Y   -0.063460   0.145748  -0.070597  -0.173073   0.015350
   41  O  4  Z   -0.839700   0.083172   0.172614  -0.008496   0.175066
   42  O  4  X    0.048954   1.272905  -0.466234   0.277818   0.031217
   43  O  4  Y    0.098841  -0.250046   0.079820  -0.014640   0.004679
   44  O  4  Z    1.318179  -0.136534  -0.258421   0.043620   0.315685
   45  O  4 XX   -0.001423  -0.014299   0.006297   0.011292  -0.008502
   46  O  4 YY   -0.007516   0.026423  -0.010807   0.043824  -0.003209
   47  O  4 ZZ    0.002517   0.031866  -0.025065  -0.039814   0.029744
   48  O  4 XY   -0.001236  -0.059315   0.030183  -0.017497  -0.010503
   49  O  4 XZ    0.001620   0.027926   0.053213  -0.008964  -0.002740
   50  O  4 YZ   -0.038177  -0.001176  -0.011563  -0.006931  -0.083704

                     31         32         33         34         35
                    1.4957     1.5399     1.6587     1.7277     1.9188
                     A          A          A          A          A   
    1  H  1  S   -0.522432   0.018364  -0.183630  -0.250488  -0.164321
    2  H  1  S   -0.295568   0.017065   0.125392  -0.114090  -0.113727
    3  H  1  X    0.251834   0.018049  -0.081734  -0.767385   0.092452
    4  H  1  Y   -0.056369  -0.003011   0.107448   0.279878  -0.038590
    5  H  1  Z    0.102548   0.686012  -0.028694   0.024136   0.022093
    6  N  2  S   -0.444355  -0.000497  -0.150748   0.209964  -0.221103
    7  N  2  S   -0.848532   0.000559  -0.209220   0.398204  -0.397774
    8  N  2  S    2.023649   0.021029   1.355011  -1.002781   1.603188
    9  N  2  X    0.186421  -0.001461  -0.233427  -0.125944  -0.102031
   10  N  2  Y   -0.094718   0.011040   0.051880  -0.142772  -0.022437
   11  N  2  Z   -0.004068   0.039712   0.000346   0.001604   0.000162
   12  N  2  X   -0.561476  -0.039951  -0.450008   1.053869  -0.498576
   13  N  2  Y    0.756946  -0.032213   0.110858   0.477198   0.017826
   14  N  2  Z   -0.054160  -0.427789   0.009916  -0.015639   0.004310
   15  N  2 XX   -0.214223  -0.004448  -0.215855   0.138118  -0.081947
   16  N  2 YY   -0.287124  -0.005211  -0.062199   0.158014  -0.121684
   17  N  2 ZZ    0.030830   0.009638   0.154290  -0.082748   0.058233
   18  N  2 XY    0.228117  -0.001080  -0.042882  -0.076539   0.120583
   19  N  2 XZ   -0.024152  -0.054145   0.001382  -0.009179  -0.005529
   20  N  2 YZ    0.054827   0.244350  -0.002034   0.003400  -0.003543
   21  C  3  S    0.016625   0.013023   0.350467  -0.127071   0.115024
   22  C  3  S    0.023128   0.020094   0.594489  -0.217031   0.140185
   23  C  3  S   -0.622313  -0.021127  -0.928001   0.707122  -3.347467
   24  C  3  X   -0.258444  -0.000778   0.085916   0.143217   0.091740
   25  C  3  Y    0.014723  -0.009545  -0.062838   0.165079   0.479129
   26  C  3  Z    0.009952  -0.072782   0.008707  -0.012027  -0.042740
   27  C  3  X   -0.277513  -0.049664  -1.073209   0.507128  -0.581525
   28  C  3  Y   -0.100363   0.002475  -0.368472  -0.198643   1.651461
   29  C  3  Z   -0.030295   0.263545   0.019793  -0.003307  -0.141057
   30  C  3 XX    0.012487  -0.014328  -0.659515   0.177876  -0.040141
   31  C  3 YY    0.223441  -0.086555   0.315706  -0.028772  -0.526431
   32  C  3 ZZ   -0.325060   0.115906   0.796744  -0.182175   0.810563
   33  C  3 XY   -0.600905   0.022618  -0.177634  -0.520925  -0.039594
   34  C  3 XZ    0.091374   0.282347  -0.004351   0.006393   0.006928
   35  C  3 YZ    0.133438  -0.617254   0.062769  -0.033530   0.141419
   36  O  4  S   -0.016516   0.019811   0.294119  -0.136803  -0.668854
   37  O  4  S   -0.033965   0.039969   0.593071  -0.273635  -1.278181
   38  O  4  S    0.099569  -0.085939  -1.279289   0.499836   4.394934
   39  O  4  X   -0.237189  -0.018246  -0.212171  -0.262804   0.084161
   40  O  4  Y    0.049742  -0.003062   0.116814   0.068142   0.330878
   41  O  4  Z    0.048089  -0.177807  -0.006552  -0.017475  -0.024942
   42  O  4  X    0.025399   0.026164   0.191094   0.201377   0.300472
   43  O  4  Y    0.013153  -0.049122  -0.548781   0.243444   0.926539
   44  O  4  Z    0.050132  -0.134846   0.050931  -0.013007  -0.084345
   45  O  4 XX    0.052197   0.004947   0.027242  -0.037422  -0.203851
   46  O  4 YY   -0.023079   0.019450   0.156998  -0.106684  -0.304135
   47  O  4 ZZ   -0.043889  -0.000647   0.134808  -0.001655  -0.147774
   48  O  4 XY    0.041273   0.003376   0.066753   0.035425  -0.043697
   49  O  4 XZ   -0.006391   0.039944  -0.008041  -0.006876   0.004522
   50  O  4 YZ   -0.021963   0.056332  -0.003425   0.015070   0.014649

                     36         37         38         39         40
                    2.1377     2.2569     2.2705     2.4586     2.4685
                     A          A          A          A          A   
    1  H  1  S    0.161703   0.089042   0.003957  -0.197714  -0.326327
    2  H  1  S   -0.265070   0.281304   0.015324  -0.009956  -0.041296
    3  H  1  X    0.220752  -0.218963  -0.013878   0.315451   0.489136
    4  H  1  Y    0.769449  -0.651585  -0.030525   0.011682   0.057113
    5  H  1  Z   -0.027101  -0.064254   0.149355   0.613813  -0.406140
    6  N  2  S    0.141287  -0.200610  -0.011251  -0.150900  -0.215474
    7  N  2  S    0.247367  -0.431625  -0.024920  -0.273566  -0.383088
    8  N  2  S   -0.339729   0.183383   0.006164   0.938035   1.439718
    9  N  2  X    0.294601   0.077032   0.010665   0.052874   0.061677
   10  N  2  Y    0.427743  -0.301470  -0.013158   0.033540   0.064562
   11  N  2  Z   -0.002420  -0.006628   0.077951  -0.013012   0.008530
   12  N  2  X    0.063707  -0.299082  -0.017003  -0.510314  -0.741958
   13  N  2  Y   -0.214438  -0.112226  -0.006709   0.208185   0.346001
   14  N  2  Z    0.018122   0.045101  -0.305883  -0.176595   0.118820
   15  N  2 XX    0.208219   0.080588   0.014457   0.173578   0.241029
   16  N  2 YY   -0.224911   0.054641   0.001094   0.165224   0.254213
   17  N  2 ZZ    0.254853  -0.380686  -0.028266  -0.386483  -0.553592
   18  N  2 XY   -0.135727   0.026395   0.001564  -0.346657  -0.518260
   19  N  2 XZ   -0.009530  -0.045457   0.911761  -0.336360   0.216425
   20  N  2 YZ    0.024154   0.075951  -0.353817  -0.786910   0.528808
   21  C  3  S   -0.076372   0.055909  -0.001344   0.015513   0.021368
   22  C  3  S   -0.323018  -0.133716  -0.028019  -0.122689  -0.148953
   23  C  3  S    0.271745  -0.215785  -0.004089  -0.822498  -1.301708
   24  C  3  X   -0.058040  -0.063715  -0.012058  -0.181011  -0.259760
   25  C  3  Y    0.127484   0.165023   0.014001  -0.066674  -0.107871
   26  C  3  Z   -0.011837  -0.015242   0.019365   0.003781   0.005214
   27  C  3  X    0.368596  -0.047854   0.003453  -0.382126  -0.595922
   28  C  3  Y    0.168106  -0.031006  -0.007612  -0.007693   0.034942
[...]
   31= 1,A      32= 1,A      33= 1,A      34= 1,A      35= 1,A      36= 1,A   
   37= 1,A      38= 1,A      39= 1,A      40= 1,A      41= 1,A      42= 1,A   
   43= 1,A      44= 1,A      45= 1,A      46= 1,A      47= 1,A      48= 1,A   
   49= 1,A      50= 1,A   
 THE CORRELATED ORBITALS RUN FROM     4 TO    15
 THE     ACTIVE ORBITALS RUN FROM     6 TO    15

 THE RESULTS OF REARRANGING THE ORBITALS BY SYMMETRY TYPE ARE
 SYM.       1       2       3       4       5       6       7       8
 -----------------------------------------------------------------------
 FZC /  1-  3/  0-  0/  0-  0/  0-  0/  0-  0/  0-  0/  0-  0/  0-  0/
 DOC /  4-  5/  0-  0/  0-  0/  0-  0/  0-  0/  0-  0/  0-  0/  0-  0/
 ACT /  6- 15/  0-  0/  0-  0/  0-  0/  0-  0/  0-  0/  0-  0/  0-  0/
 EXT / 16- 50/  0-  0/  0-  0/  0-  0/  0-  0/  0-  0/  0-  0/  0-  0/
 -----------------------------------------------------------------------
 NUMBER OF SPACE ORBITAL PRODUCTS      =      6765
 MAXIMUM NUMBER OF SPIN FUNCTIONS      =        14
 TOTAL NUMBER OF CSFS (ALL SYMMETRIES) =     13860
 EVALUATING ONE-PARTICLE COUPLING CONSTANTS FOR CAS-CI...
 CAS-CI COUPLING CONSTANTS TOOK     0.2 SECONDS.
 EVALUATING ONE-PARTICLE COUPLING CONSTANTS FOR PT...
 PT COUPLING CONSTANTS TOOK     0.2 SECONDS.
 TOTAL NUMBER OF SYMMETRY ADAPTED CSFS =     13860
 CPU TIME TO SET UP SYMMETRY, GENERATE CSFS, AND COUPLING CONSTANTS=      0.39

 TRANSFORMING INTEGRALS OVER ALL CANONICAL MCSCF ORBITALS.

 SORTING DUPLICATED AO INTEGRAL LIST
 AO INTEGRAL FILE  8 READ     1 TIMES, SORTING TIME=      0.05

 MAXIMUM MEMDDI THAT CAN BE USED IN THE INTEGRAL TRANSFORMATION IS     1 MWORDS
    THE MEMDDI THAT WILL BE USED IN THE INTEGRAL TRANSFORMATION IS     1 MWORDS
 DDI: Creating Array [0] - 1275 x 645 = 822375 words.
 TIME FOR FIRST TWO INDEX TRANSFORM=      0.30
 TIME FOR  LAST TWO INDEX TRANSFORM=      0.09
 CPU TIME TO TRANSFORM INTEGRALS=      0.44

 SOLVING FOR CAS-CI STATE FUNCTIONS IN CANONICAL ORBITAL BASIS

 ##########################
 ###   CAS-CI RESULTS   ###
 ##########################
 CAS-CI STATES CONVERGED, COUPLING COEFFICIENT FILE 51 WAS READ  25 TIMES.

 STATE #    1  ENERGY =    -167.713545489

      CSF      COEF    OCCUPANCY (IGNORING CORE)
      ---      ----    --------- --------- -----
        1   -0.898465  2222220000
        2    0.071691  22222+-000
        4   -0.089700  22222+00-0
       13    0.084599  2222200020
       16    0.051294  2222+2-000
       60    0.087609  2222020200
      113    0.058071  222+2-+0-0
      114   -0.093667  222+2+-0-0
      146   -0.059033  222+-22000
      316    0.129685  2220222000
      319   -0.067066  222022+00-
      704    0.073939  22+-22+0-0
      705    0.073993  22++22-0-0
     1282    0.077372  2202220020
     5293    0.112298  +22222-000
     5300   -0.084634  +2222-+0-0
     5301    0.072270  +2222+-0-0
     5310   -0.051988  +2222-00+-
     6080    0.050919  +2-222+0-0
    11341    0.091923  0222222000

 STATE #    2  ENERGY =    -167.709806497

      CSF      COEF    OCCUPANCY (IGNORING CORE)
      ---      ----    --------- --------- -----
        1    0.071107  2222220000
        2    0.914528  22222+-000
        8   -0.131282  222220+0-0
       20    0.060421  2222+-2000
       69   -0.090499  22220+-200
      498    0.067550  22+22-+0-0
      499   -0.069016  22+22+-0-0
      701    0.084665  22+-222000
      719   -0.080772  22+-2+20-0
      720   -0.082397  22++2-20-0
     1277    0.057771  220222+0-0
     1293   -0.111963  22022+-020
     5297    0.152900  +2222-2000
     5303    0.051458  +2222+-00-
     6095   -0.078581  +2-22+20-0
    11362   -0.059080  02222+-002
 CPU TIME TO GENERATE REFERENCE CI STATES =     14.19

 *** ONE PARTICLE DENSITY MATRIX OVER CANONICAL ORBITALS ***
                   1            2            3            4            5
     1  1.927549E+00
     2  1.373502E-02 1.983366E+00
     3  7.954873E-04-6.994165E-05 1.934996E+00
     4 -3.187615E-03 1.165392E-02-6.909234E-05 1.926569E+00
     5 -1.240390E-02 4.228656E-03 4.616268E-04-1.497536E-02 1.962979E+00
     6  1.064184E-03-3.272255E-04 1.267865E-03 8.562226E-04 4.235164E-04
     7 -1.408800E-02 4.126108E-03 3.606714E-04-1.025530E-03-5.680730E-03
     8 -4.917259E-05-2.047338E-04 2.516156E-05-1.854840E-05-3.364465E-05
     9 -3.928550E-04-2.319520E-04 1.743776E-05-5.204535E-04-2.672387E-04
    10 -1.078381E-04 3.002286E-05 1.541304E-05 1.446008E-04-1.096814E-05
                   6            7            8            9           10
     6  1.455485E+00
     7 -8.576160E-03 6.246494E-01
     8  2.229192E-04-6.466742E-04 2.838841E-02
     9 -1.058082E-02-6.547139E-04 1.783922E-04 1.122762E-01
    10 -2.853043E-05-1.572865E-05-5.411725E-05 1.843036E-04 4.374155E-02

 *** ORBITAL ENERGIES OF THE CANONICAL ORBITALS ***
 DOUBLY OCCUPIED ORBITALS:
   -2.066119E+01  -1.561172E+01  -1.138974E+01  -1.473300E+00  -7.758389E-01
 ACTIVE ORBITALS:
   -6.108421E-01  -1.000031E+00  -6.005052E-01  -6.144407E-01  -5.681036E-01
   -2.870850E-01  -1.151508E-01   6.074132E-01   1.839643E-01   4.489204E-01
 VIRTUAL ORBITALS:
    4.017109E-01   4.689231E-01   5.808477E-01   6.603405E-01   7.819019E-01
    9.318388E-01   9.796088E-01   9.900078E-01   1.005331E+00   1.084888E+00
    1.199391E+00   1.281591E+00   1.296319E+00   1.331634E+00   1.466168E+00
    1.495699E+00   1.539927E+00   1.658705E+00   1.727701E+00   1.918847E+00
    2.137693E+00   2.256934E+00   2.270540E+00   2.458594E+00   2.468487E+00
    2.673281E+00   2.854177E+00   2.939550E+00   2.957618E+00   3.111100E+00
    3.363679E+00   3.427944E+00   3.847831E+00   4.258012E+00   6.048324E+00
 CPU TIME TO GENERATE ORBITAL ENERGIES =      0.03

 DISCARDING NEGLIGIBLE GENERATORS
 STEP ONE:  ORIGINAL SPACE PRODUCTS=         6765 REDUCED TO         6765
 STEP TWO: NUMBER OF SPACE PRODUCTS=         6765 REDUCED TO         6765
 CONDENSED LABELS MADE FOR         13860 CSFS
 CPU TIME TO REDUCE GENERATORS TO MINIMUM =      0.22

 FINISHING SETUP FOR MRMP/MCQDPT CALCULATION.

 THE FROZEN CORE ENERGY IS     -162.0648499982
 MAXIMUM MEMDDI THAT CAN BE USED IN THE PERTURBATION CALCULATION IS     1 MWORDS
    THE MEMDDI THAT WILL BE USED IN THE PERTURBATION CALCULATION IS     1 MWORDS
 DDI: Creating Array [0] - 420 x 420 = 176400 words.
 PREPARING TRANSFORMED INTEGRALS FOR PT...
 TIME FOR FINISHING SETUPS =      0.01

 EVALUATING PERTURBATION THEORY CORRECTIONS TO HAMILTONIAN ELEMENTS.


 EVALUATING MATRIX ELEMENTS BETWEEN STATE   1 AND ALL OTHER STATES.

 TIME FOR 0-BODY FORMULAE =      0.15
 TIME FOR 1-BODY FORMULAE =      2.74
 TIME FOR 2-BODY FORMULAE =     61.13
 TIME FOR 3-BODY FORMULAE =    190.30
 TIME FOR 0-BODY FORMULAE INVOLVING 2 EXTERNAL ORBITALS=      0.24
 TIME FOR 1-BODY FORMULAE INVOLVING 2 EXTERNAL ORBITALS=      3.20
 TIME FOR 2-BODY FORMULAE INVOLVING 2 EXTERNAL ORBITALS=     43.78
 DONE EVALUATING PERTURBATIONS TO STATE   1
 TIME FOR PERTURBATION TREATMENT =    301.55

 EVALUATING MATRIX ELEMENTS BETWEEN STATE   2 AND ALL OTHER STATES.

 TIME FOR 0-BODY FORMULAE =      0.15
 TIME FOR 1-BODY FORMULAE =      2.68
 TIME FOR 2-BODY FORMULAE =     59.70
 TIME FOR 3-BODY FORMULAE =    186.57
 TIME FOR 0-BODY FORMULAE INVOLVING 2 EXTERNAL ORBITALS=      0.21
 TIME FOR 1-BODY FORMULAE INVOLVING 2 EXTERNAL ORBITALS=      3.12
 TIME FOR 2-BODY FORMULAE INVOLVING 2 EXTERNAL ORBITALS=     42.73
 DONE EVALUATING PERTURBATIONS TO STATE   2
 TIME FOR PERTURBATION TREATMENT =    295.16

 MULTICONFIGURATION QUASIDEGENERATE PERTURBATION (MCQDPT) ENERGY FOR   2 STATES

 ###########################
 ###   MCQDPT2 RESULTS   ###
 ###########################

 *** EFFECTIVE HAMILTONIAN (AT SECOND ORDER) ***
                   1            2
     1 -1.680565E+02
     2  7.814491E-04-1.680564E+02

 *** ZEROTH ORDER ENERGIES ***
   STATE        0TH ORDER
     1     -106.9368806805
     2     -106.8183139581

 *** DIAGONAL ELEMENTS OF EFFECTIVE HAMILTONIAN ***
   STATE                  2ND ORDER
     1   E(MRMP2)=     -168.0565098138
     2   E(MRMP2)=     -168.0564357360
 THE DIAGONAL ELEMENTS ARE ALMOST THE STATE-SPECIFIC E(MRMP2) CORRECTIONS.
 HOWEVER, THEY DIFFER SLIGHTLY BECAUSE OF THE USE OF STATE-AVERAGED,
 RATHER THAN STATE-SPECIFIC CANONICAL ORBITALS.

 *** MCQDPT2 ENERGIES ***
   STATE                       1ST ORDER                       2ND ORDER
     1     E(MCSCF)=     -167.7135454887     E(MP2)=     -168.0572551013
     2     E(MCSCF)=     -167.7098064970     E(MP2)=     -168.0556904485

 THE UNPERTURBED CAS-CI STATE(S) WERE PRINTED ABOVE

 *** PERTURBED MCQDPT STATES ***
 (FROM DIAGONALIZATION OF 2ND ORDER EFFECTIVE HAMILTONIAN)

 THE ROTATION FROM CAS-CI STATES (ROWS) TO QDPT STATES (COLUMNS) IS

             1           2

    1    0.7236520   0.6901650
    2   -0.6901650   0.7236520

 STATE #    1  ENERGY =    -168.057255101

      CSF      COEF    OCCUPANCY (IGNORING CORE)
      ---      ----    --------- --------- -----
        1   -0.699252  2222220000
        2   -0.579296  22222+-000
        4   -0.067364  22222+00-0
        8    0.084007  222220+0-0
       13    0.064997  2222200020
       60    0.068204  2222020200
       69    0.057336  22220+-200
      114   -0.072644  222+2+-0-0
      316    0.101697  2220222000
      319   -0.052049  222022+00-
      701   -0.053625  22+-222000
      704    0.057707  22+-22+0-0
      705    0.057758  22++22-0-0
      719    0.050744  22+-2+20-0
      720    0.051182  22++2-20-0
     1282    0.060292  2202220020
     1293    0.070831  22022+-020
     5293    0.083313  +22222-000
     5297   -0.101041  +2222-2000
     5300   -0.063805  +2222-+0-0
     5301    0.055043  +2222+-0-0
     6095    0.050434  +2-22+20-0
    11341    0.069462  0222222000

 STATE #    2  ENERGY =    -168.055690448

      CSF      COEF    OCCUPANCY (IGNORING CORE)
      ---      ----    --------- --------- -----
        1   -0.568633  2222220000
        2    0.711278  22222+-000
        4   -0.059337  22222+00-0
        8   -0.101296  222220+0-0
       13    0.054428  2222200020
       60    0.055425  2222020200
       69   -0.070376  22220+-200
      114   -0.059547  222+2+-0-0
      316    0.081273  2220222000
      498    0.050867  22+22-+0-0
      499   -0.054023  22+22+-0-0
      701    0.065854  22+-222000
      719   -0.063222  22+-2+20-0
      720   -0.065050  22++2-20-0
     1293   -0.087166  22022+-020
     5293    0.075356  +22222-000
     5297    0.114923  +2222-2000
     5300   -0.055729  +2222-+0-0
     6095   -0.060489  +2-22+20-0
    11341    0.060358  0222222000
 ...... END OF MC-QDPT2 (MR-MP2) CALCULATION ......

 ..... DONE WITH MP2 ENERGY .....
 STEP CPU TIME =   611.99 TOTAL CPU TIME =      624.2 (   10.4 MIN)
 TOTAL WALL CLOCK TIME=      624.7 SECONDS, CPU UTILIZATION IS  99.92%

    ******************************************
    DETERMINATION OF DIABATIC STATES BASED ON
              MCQDPT WAVE FUNCTIONS
    PROGRAM WRITTEN BY H.NAKAMURA, D.G.TRUHLAR
    ******************************************

     ======= INPUT VALUES OF $DIABAT =======

 PARAMETER FOR SYMMETRY OF DMOS:
     DMOSYM=       T
 PARAMETER FOR REFERENCE GEOMETRY MOS:
     REFMOS=       T (IF TRUE, $DFMVEC INPUT REQUIRED)
 PARAMETER FOR DOMINANT CSF SELECTION
     REFGRP=       T (IF TRUE, $REFCSF AND PERHAPS $REFQD INPUT REQUIRED)
 PARAMETERS FOR ADIABATIC STATE SELECTION:
       NGRST=       0  WITH BLOCK WEIGHTING 0.000 IN 3-FOLD'S NO TERM
      NDIAST=       2  WITH BLOCK WEIGHTING 1.000 IN 3-FOLD'S NO TERM
       NEXST=       0  WITH BLOCK WEIGHTING 0.000 IN 3-FOLD'S NO TERM
          NOTE: MCSCF FOUND   2 STATES OF DESIRED SPIN.
          NOTE: MCSCF WEIGHTED THE FIRST   2 STATES.
 PARAMETERS FOR 3-FOLD WAY'S D3 FUNCTION
      SA-NO TERM       SS-ON TERM        TDM TERM
     ALPHAN=  2.00    ALPHAR=  1.00    ALPHAT=  0.50
 PARAMETERS FOR 3-FOLD-WAY OR 4-FOLD-WAY ITERS:
      MAXIT=    1000
     CONVTH= 1.00E-05
 REFERENCE STATE SELECTION THRESHOLD
     SLCTTH=0.200

     PARAMETERS FOR FINE TUNING THE 4-FOLD WAY:

 NUMBER OF RESOLUTION MOS
      NDLAP=       3 (PRE-4-FOLD WAY STEP, USING $DPSVEC)
      NMLAP=       1  (FOUR-FOLD WAY STEP, USING $DIAVEC)
     ORIENT=       T (IF TRUE, PROVIDE $LCLDC IF NDLAP>0, $LCLVL IF NMLAP>0)
 IN CASE PRE-FOUR-FOLD WAY IS USED (NDLAP>0),
 ELECTRON OCCUPANCY THRESHOLDS TO SEPARATE FIL/DIF/VIR ACTIVE SPACE RESOLUTION
     > THDOC= 1.800  WILL BE "DOC" PART OF ACTIVE SPACE (IF PRE-4-FOLD)
     < THVIR= 0.500  WILL BE "VIR" PART OF ACTIVE SPACE (IF 4-FOLD)
       BETWEEN THESE IS THE "VAL" PART OF ACTIVE SPACE.
 ACTIVE SPACE CHARACTERIZATION FOR THE FOUR-FOLD WAY: (KEYWORD MOSLAB)
         2    2    2    2    1    1    1    0    0    0

 ORBITAL AND STATE SIZES FOR DIABATIZATION:
 NUMBER OF    FILLED ORBITALS=    5
 NUMBER OF    ACTIVE ORBITALS=   10 (THESE WILL BE TURNED INTO DMOS)
 NUMBER OF MOLECULAR ORBITALS=   50
 NUMBER OF    ATOMIC ORBITALS=   50
 NUMBER OF ELECTRONIC STATES OF CORRECT SPIN:  2
 NUMBER OF STATES USED DURING DMO GENERATION:  2
 NUMBER OF STATES TO BE DIABATIZED:            2

   BEGINNING DIABATIZATION OF THE MCQDPT ADIABATIC "STATES",
       PREPARED BY ROTATING THE DMO-BASED CAS-CI STATES
             BY THE QDPT 2ND ORDER STATE ROTATION.


 READING MCSCF-LEVEL DOMINANT CSF INFORMATION FROM THE $REFCSF INPUT GROUP.
 TOTAL NO. OF IMPORTANT CSF'S IN ALL STATES=    4
 CSF       1 IS DOMINANT IN STATE    1
 CSF    2522 IS DOMINANT IN STATE    1
 CSF    8569 IS DOMINANT IN STATE    1
 CSF    2521 IS DOMINANT IN STATE    2

 READING MCQDPT-LEVEL DOMINANT CSF INFORMATION FROM THE $REFQD INPUT GROUP.
 UNABLE TO FIND MCQDPT-LEVEL DOMINANT CSF INFO IN THE $REFQD GROUP,
 THEREFORE, WILL USE MCSCF-LEVEL $REFCSF INPUT AS THE $REFQD INPUT.
 TOTAL NO. OF IMPORTANT CSF'S IN ALL STATES=    4
 CSF       1 IS DOMINANT IN STATE    1
 CSF    2522 IS DOMINANT IN STATE    1
 CSF    8569 IS DOMINANT IN STATE    1
 CSF    2521 IS DOMINANT IN STATE    2
 ADJUSTING PHASE OF CAS-CI STATE   1 TO MATCH MCQDPT STATE'S PHASE
 THE PHASE-ADJUSTED ROTATION FROM CAS-CI TO MCQDPT STATES IS

             1           2

    1   -0.7236520  -0.6901650
    2   -0.6901650   0.7236520

 ---------------------------------------------------
 CSF EXPANSION BASED ON DMO'S AS THE ACTIVE ORBITALS
 ---------------------------------------------------
 PRINTING ALL CI COEFFICIENTS LARGER THAN SLCTTH=   2.0E-01,
 EVEN IF THEY AREN'T IN THE DOMINANT CSF INPUT.

 ADIABATIC STATE #    1  ENERGY =    -168.057255101
      CSF    COEFFICIENT    OCCUPANCY
      ---    -----------    ---------
        1      -0.699252    2222220000
     2521      -0.579296    2222211000

 ADIABATIC STATE #    2  ENERGY =    -168.055690448
      CSF    COEFFICIENT    OCCUPANCY
      ---    -----------    ---------
        1      -0.568633    2222220000
     2521       0.711278    2222211000

 -------------------------------------------------
 CI COEFS OF DOMINANT CSFS IN MCQDPT PSEUDO-STATES
 -------------------------------------------------
 ONLY CONFIGURATIONS ENTERED IN $REFCSF WILL BE PRINTED BELOW.
 IF THE TOTAL WEIGHT OF THE DOMINANT CSF LIST IN ANY ADIABATIC STATE IS SMALL,
 THE LIST OF DOMINANT CSF'S GIVEN IN THE INPUT SHOULD BE RECONSIDERED.

 ADIABATIC STATE #    1 ENERGY =    -168.057255101
      CSF   GROUP #   COEFFICIENT
        1       1      -0.699252
     2522       1       0.037977
     8569       1       0.042121
     2521       2      -0.579296
 TOTAL WEIGHT OF ALL DOMINANT CSFS IN THIS STATE IS 82.8%

 ADIABATIC STATE #    2 ENERGY =    -168.055690448
      CSF   GROUP #   COEFFICIENT
        1       1      -0.568633
     2522       1       0.034502
     8569       1       0.016468
     2521       2       0.711278
 TOTAL WEIGHT OF ALL DOMINANT CSFS IN THIS STATE IS 83.1%


 -------------------------------------------
   - DIABATIC HAMILTONIAN MATRIX ELEMENTS - 
 -------------------------------------------
                                            
 --- DIABATIC ENERGIES (DIAGONAL ELEMENT) ---
 STATE #  1'S MCQDPT-LEVEL DIABATIC ENERGY=    -168.056632118
 STATE #  2'S MCQDPT-LEVEL DIABATIC ENERGY=    -168.056313432

 --- DIABATIC COUPLINGS (OFF DIAGONAL ELEMENTS)---
 STATE #  1 &  2'S MCQDPT-LEVEL COUPLING  =      -0.000765927

 ---------------------------------------
          - DIABATIC STATES -           
 ---------------------------------------
 STATE #  1
 ----------
    <CSF>      <COEFFICIENT>
        1        -0.901275
     2522         0.051233
     8569         0.043068
 STATE #  2
 ----------
    <CSF>      <COEFFICIENT>
     2521        -0.917333

 ---------------------------------------
     - ROTATION TO DIABATIC STATES -    
 ---------------------------------------
 ROWS=ADIABATIC, COLUMNS=DIABATIC STATES

             1           2

    1    0.7757828   0.6310000
    2    0.6310000  -0.7757828

 THIS RUN CANNOT OUTPUT $REFQD DATA FOR MCQDPT-LEVEL STATES
 AS IT WAS FORCED TO WORK WITH THE APPROXIMATION THAT $REFCSF DATA
 SHOULD BE USED IN THE MCQDPT DIABATIZATION, TOO.

 ..... FINISHED WITH MCQDPT DIABATIZATION .....
 STEP CPU TIME =     0.04 TOTAL CPU TIME =      624.3 (   10.4 MIN)
 TOTAL WALL CLOCK TIME=      624.8 SECONDS, CPU UTILIZATION IS  99.92%
              7225573  WORDS OF DYNAMIC MEMORY USED
 EXECUTION OF GAMESS TERMINATED NORMALLY Fri Jun  2 03:51:22 2017
 DDI: 6842640 bytes (6.5 MB / 0 MWords) used by master data server.

 ----------------------------------------
 CPU timing information for all processes
 ========================================
 0: 621.959 + 2.303 = 624.263
 ----------------------------------------
 ddikick.x: exited gracefully.
unset echo
----- accounting info -----
Files used on the master node compute-0-1.local were:
-rw-rw-r-- 1 sarom sarom    101771 Jun  2 03:40 /scratch/mc-diab-hnco.F05
-rw-rw-r-- 1 sarom sarom   8100720 Jun  2 03:40 /scratch/mc-diab-hnco.F08
-rw-rw-r-- 1 sarom sarom    190224 Jun  2 03:41 /scratch/mc-diab-hnco.F09
-rw-rw-r-- 1 sarom sarom   2224960 Jun  2 03:51 /scratch/mc-diab-hnco.F10
-rw-rw-r-- 1 sarom sarom    395976 Jun  2 03:51 /scratch/mc-diab-hnco.F11
-rw-rw-r-- 1 sarom sarom    221960 Jun  2 03:41 /scratch/mc-diab-hnco.F12
-rw-rw-r-- 1 sarom sarom    700304 Jun  2 03:51 /scratch/mc-diab-hnco.F13
-rw-rw-r-- 1 sarom sarom    400008 Jun  2 03:41 /scratch/mc-diab-hnco.F14
-rw-rw-r-- 1 sarom sarom   1551232 Jun  2 03:41 /scratch/mc-diab-hnco.F15
-rw-rw-r-- 1 sarom sarom 126610328 Jun  2 03:41 /scratch/mc-diab-hnco.F16
-rw-rw-r-- 1 sarom sarom    221776 Jun  2 03:51 /scratch/mc-diab-hnco.F21
-rw-rw-r-- 1 sarom sarom         0 Jun  2 03:40 /scratch/mc-diab-hnco.F23
-rw-rw-r-- 1 sarom sarom   2905320 Jun  2 03:51 /scratch/mc-diab-hnco.F50
-rw-rw-r-- 1 sarom sarom  18424640 Jun  2 03:41 /scratch/mc-diab-hnco.F51
-rw-rw-r-- 1 sarom sarom  16993328 Jun  2 03:41 /scratch/mc-diab-hnco.F52
-rw-rw-r-- 1 sarom sarom  16993328 Jun  2 03:41 /scratch/mc-diab-hnco.F53
-rw-rw-r-- 1 sarom sarom  16993328 Jun  2 03:42 /scratch/mc-diab-hnco.F54
-rw-rw-r-- 1 sarom sarom  13541088 Jun  2 03:41 /scratch/mc-diab-hnco.F55
-rw-rw-r-- 1 sarom sarom         0 Jun  2 03:41 /scratch/mc-diab-hnco.F56
-rw-rw-r-- 1 sarom sarom    151720 Jun  2 03:41 /scratch/mc-diab-hnco.F57
-rw-rw-r-- 1 sarom sarom    663640 Jun  2 03:41 /scratch/mc-diab-hnco.F58
-rw-rw-r-- 1 sarom sarom   2793040 Jun  2 03:41 /scratch/mc-diab-hnco.F59
-rw-rw-r-- 1 sarom sarom    311376 Jun  2 03:41 /scratch/mc-diab-hnco.F60
-rw-rw-r-- 1 sarom sarom   8719216 Jun  2 03:46 /scratch/mc-diab-hnco.F61
-rw-rw-r-- 1 sarom sarom 289114080 Jun  2 03:47 /scratch/mc-diab-hnco.F62
-rw-rw-r-- 1 sarom sarom         0 Jun  2 03:41 /scratch/mc-diab-hnco.F63
-rw-rw-r-- 1 sarom sarom    474572 Jun  2 03:51 /scratch/mc-diab-hnco.F64
rm: cannot remove `/scratch/sarom': Is a directory
rm: cannot remove `/scratch/tmp': Is a directory
ls: No match.
ls: No match.
ls: No match.
Fri Jun  2 03:51:25 CDT 2017
0.251u 0.200s 10:28.38 0.0%	0+0k 200+552io 0pf+0w
/opt/gridengine/default/spool/compute-0-1/active_jobs/23874.1/pe_hostfile compute-0-1.local
