-catch_rsh /opt/gridengine/default/spool/compute-0-8/active_jobs/23877.1/pe_hostfile
compute-0-8
The primary node assigned by SGE to this run is compute-0-8
Warning: no access to tty (Bad file descriptor).
Thus no job control in this shell.
Deleting shmid=2785280.
Deleting shmid=2818049.
source /home/sarom/gamess.github.2017-05-31.14.06/install.info
setenv GMS_PATH /home/sarom/gamess.github.2017-05-31.14.06
setenv GMS_BUILD_DIR /home/sarom/gamess.github.2017-05-31.14.06
setenv GMS_TARGET linux64
setenv GMS_FORTRAN gfortran
setenv GMS_GFORTRAN_VERNO 4.4
setenv GMS_MATHLIB mkl-so
setenv GMS_MATHLIB_PATH /share/apps/intel/compilers_and_libraries_2017.1.132/linux/mkl/lib/intel64
setenv GMS_MKL_VERNO 12
setenv GMS_DDI_COMM sockets
setenv GMS_LIBCCHEM false
setenv GMS_EIGEN_PATH
setenv GMS_PHI false
setenv GMS_SHMTYPE sysv
setenv GMS_OPENMP false
unset echo
mc-diab-nh3
tests/mcscf/diabat
----- GAMESS execution script 'rungms' -----
This job is running on host compute-0-8.local
under operating system Linux at Fri Jun 2 03:43:42 CDT 2017
Available scratch disk space (Kbyte units) at beginning of the job is
Filesystem           1K-blocks      Used Available Use% Mounted on
/dev/sda1             16126920   3867344  11440376  26% /
GAMESS temporary binary files will be written to /scratch
GAMESS supplementary output files will be written to /home/sarom/restart
Copying input file mc-diab-nh3.inp to your run's scratch directory...
cp tests/mcscf/diabat/mc-diab-nh3.inp /scratch/mc-diab-nh3.F05
unset echo
The generated host list is
compute-0-8.local
/home/sarom/gamess.github.2017-05-31.14.06/ddikick.x /home/sarom/gamess.github.2017-05-31.14.06/gamess.00.x mc-diab-nh3 -ddi 1 1 compute-0-8.local -scr /scratch

 Distributed Data Interface kickoff program.
 Initiating 1 compute processes on 1 nodes to run the following command:
 /home/sarom/gamess.github.2017-05-31.14.06/gamess.00.x mc-diab-nh3 

          ******************************************************
          *         GAMESS VERSION = 20 APR 2017 (R1)          *
          *             FROM IOWA STATE UNIVERSITY             *
          * M.W.SCHMIDT, K.K.BALDRIDGE, J.A.BOATZ, S.T.ELBERT, *
          *   M.S.GORDON, J.H.JENSEN, S.KOSEKI, N.MATSUNAGA,   *
          *          K.A.NGUYEN, S.J.SU, T.L.WINDUS,           *
          *       TOGETHER WITH M.DUPUIS, J.A.MONTGOMERY       *
          *         J.COMPUT.CHEM.  14, 1347-1363(1993)        *
          **************** 64 BIT LINUX VERSION ****************

  SINCE 1993, STUDENTS AND POSTDOCS WORKING AT IOWA STATE UNIVERSITY
  AND ALSO IN THEIR VARIOUS JOBS AFTER LEAVING ISU HAVE MADE IMPORTANT
  CONTRIBUTIONS TO THE CODE:
     IVANA ADAMOVIC, CHRISTINE AIKENS, YURI ALEXEEV, POOJA ARORA,
     ANDREY ASADCHEV, ROB BELL, PRADIPTA BANDYOPADHYAY, JONATHAN BENTZ,
     BRETT BODE, KURT BRORSEN, CALEB CARLIN, GALINA CHABAN, WEI CHEN,
     CHEOL HO CHOI, PAUL DAY, ALBERT DEFUSCO, NUWAN DESILVA, TIM DUDLEY,
     DMITRI FEDOROV, GRAHAM FLETCHER, MARK FREITAG, KURT GLAESEMANN,
     DAN KEMP, GRANT MERRILL, NORIYUKI MINEZAWA, JONATHAN MULLIN,
     TAKESHI NAGATA, SEAN NEDD, HEATHER NETZLOFF, BOSILJKA NJEGIC, RYAN OLSON,
     MIKE PAK, SPENCER PRUITT, LUKE ROSKOP, JIM SHOEMAKER, LYUDMILA SLIPCHENKO,
     TONY SMITH, SAROM SOK LEANG, JIE SONG, TETSUYA TAKETSUGU, SIMON WEBB,
     PENG XU, SOOHAENG YOO, FEDERICO ZAHARIEV

  ADDITIONAL CODE HAS BEEN PROVIDED BY COLLABORATORS IN OTHER GROUPS:
     IOWA STATE UNIVERSITY:
          JOE IVANIC, AARON WEST, LAIMUTIS BYTAUTAS, KLAUS RUEDENBERG
     UNIVERSITY OF TOKYO: KIMIHIKO HIRAO, TAKAHITO NAKAJIMA,
          TAKAO TSUNEDA, MUNEAKI KAMIYA, SUSUMU YANAGISAWA,
          KIYOSHI YAGI, MAHITO CHIBA, SEIKEN TOKURA, NAOAKI KAWAKAMI
     UNIVERSITY OF AARHUS: FRANK JENSEN
     UNIVERSITY OF IOWA: VISVALDAS KAIRYS, HUI LI
     NATIONAL INST. OF STANDARDS AND TECHNOLOGY: WALT STEVENS, DAVID GARMER
     UNIVERSITY OF PISA: BENEDETTA MENNUCCI, JACOPO TOMASI
     UNIVERSITY OF MEMPHIS: HENRY KURTZ, PRAKASHAN KORAMBATH
     UNIVERSITY OF ALBERTA: TOBY ZENG, MARIUSZ KLOBUKOWSKI
     UNIVERSITY OF NEW ENGLAND: MARK SPACKMAN
     MIE UNIVERSITY: HIROAKI UMEDA
     NAT. INST. OF ADVANCED INDUSTRIAL SCIENCE AND TECHNOLOGY: KAZUO KITAURA
     MICHIGAN STATE UNIVERSITY:
          KAROL KOWALSKI, MARTA WLOCH, JEFFREY GOUR, JESSE LUTZ,
          WEI LI, PIOTR PIECUCH
     UNIVERSITY OF SILESIA: MONIKA MUSIAL, STANISLAW KUCHARSKI
     FACULTES UNIVERSITAIRES NOTRE-DAME DE LA PAIX:
          OLIVIER QUINET, BENOIT CHAMPAGNE
     UNIVERSITY OF CALIFORNIA - SANTA BARBARA: BERNARD KIRTMAN
     INSTITUTE FOR MOLECULAR SCIENCE:
          KAZUYA ISHIMURA, MICHIO KATOUDA, AND SHIGERU NAGASE
     UNIVERSITY OF NOTRE DAME: ANNA POMOGAEVA, DAN CHIPMAN
     KYUSHU UNIVERSITY:
          HARUYUKI NAKANO,
          FENG LONG GU, JACEK KORCHOWIEC, MARCIN MAKOWSKI, AND YURIKO AOKI,
          HIROTOSHI MORI AND EISAKU MIYOSHI
     PENNSYLVANIA STATE UNIVERSITY:
          TZVETELIN IORDANOV, CHET SWALINA, JONATHAN SKONE,
          SHARON HAMMES-SCHIFFER
     WASEDA UNIVERSITY:
          MASATO KOBAYASHI, TOMOKO AKAMA, TSUGUKI TOUMA,
          TAKESHI YOSHIKAWA, YASUHIRO IKABATA, JUNJI SEINO,
          YUYA NAKAJIMA, HIROMI NAKAI
     NANJING UNIVERSITY: SHUHUA LI
     UNIVERSITY OF NEBRASKA:
          PEIFENG SU, DEJUN SI, NANDUN THELLAMUREGE, YALI WANG, HUI LI
     UNIVERSITY OF ZURICH: ROBERTO PEVERATI, KIM BALDRIDGE
     N. COPERNICUS UNIVERSITY AND JACKSON STATE UNIVERSITY:
          MARIA BARYSZ
     UNIVERSITY OF COPENHAGEN: Jimmy Kromann, CASPER STEINMANN
     TOKYO INSTITUTE OF TECHNOLOGY: HIROYA NAKATA
     NAGOYA UNIVERSITY: YOSHIO NISHIMOTO, STEPHAN IRLE
     MOSCOW STATE UNIVERSITY: VLADIMIR MIRONOV

 EXECUTION OF GAMESS BEGUN Fri Jun  2 03:43:42 2017

            ECHO OF THE FIRST FEW INPUT CARDS -
 INPUT CARD>!   test of MCQPDT diabatic state generation: HONDO+ test case sampleS9         
 INPUT CARD>!     Z.H.Li, R.Valero, D.G.Truhlar  Theoret.Chem.Acc. 118, 9-24(2007)          
 INPUT CARD>!   but there is also an earlier paper                                          
 INPUT CARD>!     S.Nangia, D.G.Truhlar 124, 124309(2006)                                   
 INPUT CARD>!   NH3...102 AOs, 102 MOs, 8e- in 7 orbs, 2 states, 6 reference CSFs.          
 INPUT CARD>!                                                                               
 INPUT CARD>!   expected results for diabatizing the two states follow.                     
 INPUT CARD>!   Note that both CAS and multireference PT diabatic surfaces                  
 INPUT CARD>!   flip the state order.                                                       
 INPUT CARD>!                                                                               
 INPUT CARD>!   CAS level:                                                                  
 INPUT CARD>!        state            energy    weight in MCSCF   weight in DMO             
 INPUT CARD>!           1       -56.2556895484      0.500              0.500                
 INPUT CARD>!           2       -56.0372093475      0.500              0.500                
 INPUT CARD>!        --- Diabatic Energies (diagonal element) ---                           
 INPUT CARD>!     STATE #  1's CAS-level diabatic ENERGY=     -56.041372390                 
 INPUT CARD>!     STATE #  2's CAS-level diabatic ENERGY=     -56.251526506                 
 INPUT CARD>!        --- Diabatic Couplings (off diagonal elements)---                      
 INPUT CARD>!     STATE #  1 &  2's CAS-level COUPLING  =      -0.029869907                 
 INPUT CARD>!                 - Diabatic States -                                           
 INPUT CARD>!        State #  1                                                             
 INPUT CARD>!        ----------                                                             
 INPUT CARD>!           <CSF>      <Coefficient>                                            
 INPUT CARD>!            106        -0.949619                                               
 INPUT CARD>!            318         0.011747                                               
 INPUT CARD>!            107         0.000192                                               
 INPUT CARD>!        State #  2                                                             
 INPUT CARD>!        ----------                                                             
 INPUT CARD>!           <CSF>      <Coefficient>                                            
 INPUT CARD>!              1        -0.981313                                               
 INPUT CARD>!            108        -0.008300                                               
 INPUT CARD>!            323         0.008843                                               
 INPUT CARD>!         - rotation to diabatic states -                                       
 INPUT CARD>!           1   -0.1380382  -0.9904269                                          
 INPUT CARD>!           2   -0.9904269   0.1380382                                          
 INPUT CARD>!                                                                               
 INPUT CARD>!   MCQDPT level:                                                               
 INPUT CARD>!        STATE                   1ST ORDER                   2ND ORDER          
 INPUT CARD>!           1     E(MCSCF)=  -56.2556895484     E(MP2)=  -56.4645833837         
 INPUT CARD>!           2     E(MCSCF)=  -56.0372093475     E(MP2)=  -56.2213082842         
 INPUT CARD>!        the phase-adjusted rotation from CAS-CI to MCQDPT states is            
 INPUT CARD>!           1   -0.9998946   0.0145155                                          
 INPUT CARD>!           2    0.0145155   0.9998946                                          
 INPUT CARD>!        --- DIABATIC ENERGIES (DIAGONAL ELEMENT) ---                           
 INPUT CARD>!        STATE #  1's MCQDPT-level diabatic ENERGY=     -56.225027625           
 INPUT CARD>!        STATE #  2's MCQDPT-level diabatic ENERGY=     -56.460864043           
 INPUT CARD>!                                                                               
 INPUT CARD>!        --- DIABATIC COUPLINGS (OFF DIAGONAL ELEMENTS)---                      
 INPUT CARD>!        STATE #  1 &  2's MCQDPT-level COUPLING  =      -0.029849448           
 INPUT CARD>!                 - DIABATIC STATES -                                           
    5000000 WORDS OF MEMORY AVAILABLE


     RUN TITLE
     ---------
 NH3...6-311++G(3df,3pd)...can't get at this H polarization via $BASIS           

 THE POINT GROUP OF THE MOLECULE IS C1      
 THE ORDER OF THE PRINCIPAL AXIS IS     0

 ATOM      ATOMIC                      COORDINATES (BOHR)
           CHARGE         X                   Y                   Z
 N           7.0     0.0000000000        0.0000000000        0.0000000000
 H           1.0     1.9275205075        0.0000000000        0.0000000000
 H           1.0    -0.4466990982        1.8750447065        0.0000000000
 H           1.0    -0.4466990982       -0.5669574806       -1.7872763830

          INTERNUCLEAR DISTANCES (ANGS.)
          ------------------------------

                1 N          2 H          3 H          4 H     

   1 N       0.0000000    1.0200000 *  1.0199996 *  1.0200003 *
   2 H       1.0200000 *  0.0000000    1.6009437 *  1.6009441 *
   3 H       1.0199996 *  1.6009437 *  0.0000000    1.6013826 *
   4 H       1.0200003 *  1.6009441 *  1.6013826 *  0.0000000  

  * ... LESS THAN  3.000


     ATOMIC BASIS SET
     ----------------
 THE CONTRACTED PRIMITIVE FUNCTIONS HAVE BEEN UNNORMALIZED
 THE CONTRACTED BASIS FUNCTIONS ARE NOW NORMALIZED TO UNITY

  SHELL TYPE  PRIMITIVE        EXPONENT          CONTRACTION COEFFICIENT(S)

 N         

      1   S       1          6293.4800000    0.001969788147
      1   S       2           949.0440000    0.014961285923
      1   S       3           218.7760000    0.073500530843
      1   S       4            63.6916000    0.248936765774
      1   S       5            18.8282000    0.602459433142
      1   S       6             2.7202300    0.256201758938

      2   L       7            30.6331000    0.111906079519    0.038311918640
      2   L       8             7.0261400    0.921666654920    0.237403115502
      2   L       9             2.1120500   -0.002569191826    0.817592397779

      3   L      10             0.6840090    1.000000000000    1.000000000000

      4   L      11             0.2008780    1.000000000000    1.000000000000

      5   D      12             3.6520000    1.000000000000

      6   D      13             0.9130000    1.000000000000

      7   D      14             0.2282500    1.000000000000

      8   F      15             1.0000000    1.000000000000

      9   L      16             0.0639000    1.000000000000    1.000000000000

 H         

     10   S      17            33.8650000    0.025493814541
     10   S      18             5.0947900    0.190373108582
     10   S      19             1.1587900    0.852161486043

     11   S      20             0.3258400    1.000000000000

     12   S      21             0.1027410    1.000000000000

     13   P      22             3.0000000    1.000000000000

     14   P      23             0.7500000    1.000000000000

     15   P      24             0.1875000    1.000000000000

     16   D      25             1.0000000    1.000000000000

     17   S      26             0.0360000    1.000000000000

 H         

     18   S      27            33.8650000    0.025493814541
     18   S      28             5.0947900    0.190373108582
     18   S      29             1.1587900    0.852161486043

     19   S      30             0.3258400    1.000000000000

     20   S      31             0.1027410    1.000000000000

     21   P      32             3.0000000    1.000000000000

     22   P      33             0.7500000    1.000000000000

     23   P      34             0.1875000    1.000000000000

     24   D      35             1.0000000    1.000000000000

     25   S      36             0.0360000    1.000000000000

 H         

     26   S      37            33.8650000    0.025493814541
     26   S      38             5.0947900    0.190373108582
     26   S      39             1.1587900    0.852161486043

     27   S      40             0.3258400    1.000000000000

     28   S      41             0.1027410    1.000000000000

     29   P      42             3.0000000    1.000000000000

     30   P      43             0.7500000    1.000000000000

     31   P      44             0.1875000    1.000000000000

     32   D      45             1.0000000    1.000000000000

     33   S      46             0.0360000    1.000000000000

 TOTAL NUMBER OF BASIS SET SHELLS             =   33
 NUMBER OF CARTESIAN GAUSSIAN BASIS FUNCTIONS =  102
 NUMBER OF ELECTRONS                          =   10
 CHARGE OF MOLECULE                           =    0
 SPIN MULTIPLICITY                            =    1
 NUMBER OF OCCUPIED ORBITALS (ALPHA)          =    5
 NUMBER OF OCCUPIED ORBITALS (BETA )          =    5
 TOTAL NUMBER OF ATOMS                        =    4
 THE NUCLEAR REPULSION ENERGY IS       11.8863575819

     $CONTRL OPTIONS
     ---------------
 SCFTYP=MCSCF        RUNTYP=ENERGY       EXETYP=RUN     
 MPLEVL=       2     CITYP =NONE         CCTYP =NONE         VBTYP =NONE    
 DFTTYP=NONE         TDDFT =NONE    
 MULT  =       1     ICHARG=       0     NZVAR =       0     COORD =UNIQUE  
 PP    =NONE         RELWFN=NONE         LOCAL =NONE         NUMGRD=       F
 ISPHER=      -1     NOSYM =       0     MAXIT =      30     UNITS =ANGS    
 PLTORB=       F     MOLPLT=       F     AIMPAC=       F     FRIEND=        
 NPRINT=       7     IREST =       0     GEOM  =INPUT   
 NORMF =       0     NORMP =       0     ITOL  =      20     ICUT  =       9
 INTTYP=BEST         GRDTYP=BEST         QMTTOL= 1.0E-06

     $SYSTEM OPTIONS
     ---------------
  REPLICATED MEMORY=     5000000 WORDS (ON EVERY NODE).
 DISTRIBUTED MEMDDI=           5 MILLION WORDS IN AGGREGATE,
 MEMDDI DISTRIBUTED OVER   1 PROCESSORS IS     5000000 WORDS/PROCESSOR.
 TOTAL MEMORY REQUESTED ON EACH PROCESSOR=    10000000 WORDS.
 TIMLIM=      525600.00 MINUTES, OR     365.0 DAYS.
 PARALL= F  BALTYP=  DLB     KDIAG=    0  COREFL= F
 MXSEQ2=     300 MXSEQ3=     150  mem10=         0

          ----------------
          PROPERTIES INPUT
          ----------------

     MOMENTS            FIELD           POTENTIAL          DENSITY
 IEMOM =       1   IEFLD =       0   IEPOT =       0   IEDEN =       0
 WHERE =COMASS     WHERE =NUCLEI     WHERE =NUCLEI     WHERE =NUCLEI  
 OUTPUT=BOTH       OUTPUT=BOTH       OUTPUT=BOTH       OUTPUT=BOTH    
 IEMINT=       0   IEFINT=       0                     IEDINT=       0
                                                       MORB  =       0

     -------------------------------
     INTEGRAL TRANSFORMATION OPTIONS
     -------------------------------
     NWORD  =            0
     CUTOFF = 1.0E-09     MPTRAN =       0
     DIRTRF =       F     AOINTS =DUP     

          ----------------------
          MCSCF INPUT PARAMETERS
          ----------------------
 CONVERGER SELECTION: FOCAS = F  SOSCF = T  FULLNR = F  QUD = F  JACOBI = F
 SECULAR EQUATION METHOD CISTEP = GUGA    
 --- GENERAL INPUT OPTIONS:
 MAXIT =      60  MICIT =       5  ACURCY= 1.000E-06
 DAMP  =   0.000  CANONC=       T  ENGTOL= 1.000E-10
 EKT   =       F  NPUNCH=       2  NWORD =         0
 REGENERATE CI AFTER CONVERGENCE = NONE    
 DIABATIZATION AFTER CONVERGENCE =        T
 --- INPUT FOR SOSCF CONVERGER:
 FORS  =       T  NOFO  =       1

          ----------------------
          INTEGRAL INPUT OPTIONS
          ----------------------
 NOPK  =       1 NORDER=       0 SCHWRZ=       F

 ------------------------------------------
 MULTIREFERENCE PERTURBATION THEORY CONTROL
 ------------------------------------------
 MRPT=MCQDPT   READ CONVERGED MCSCF VECTORS= F


    ----------------------------
    MRMP/MCQDPT INPUT PARAMETERS
    ----------------------------
 # OF ELECTRONS                =        10
 SPIN MULTIPLICITY             =         1
 SPATIAL STATE SYMMETRY        =         1
 # OF STATES                   =         1 (DIMENSION OF EFFECTIVE HAMILTONIAN)
 # OF FROZEN CORE ORBITALS     =         1
 # OF DOUBLY OCCUPIED ORBITALS =         0
 # OF ACTIVE ORBITALS          =         7
 # OF EXTERNAL ORBITALS        =        94
 # OF FROZEN VIRTUAL ORBITALS  =         0

      IFORB      IROT    ISELCT    LENGTH    MAXCSF    MAXERI
          0         0         0      4096      2048      4096
     MAXROW       MDI    MXBASE    MXTRFR    NSOLUT     NSTCI     NSTOP
        200        50        50        80         1         1       100
     GENZRO    THRCON    THRENE    THRERI    THRGEN    THRWGT    REFWGT
  1.000D-12 1.000D-06-1.000D+00 1.000D-12 1.000D-08 1.000D-06       F
      NOSYM    PARAIO    DOORD0    DELSCR
          0         T         T         F

 THE WEIGHTS OF THE CAS STATES IN THE DENSITY MATRIX AVERAGING ARE
   1=  1.000000

     ------------------------------------------
     THE POINT GROUP IS C1 , NAXIS= 0, ORDER= 1
     ------------------------------------------

     DIMENSIONS OF THE SYMMETRY SUBSPACES ARE
 A   =  102

 ..... DONE SETTING UP THE RUN .....
 STEP CPU TIME =     0.15 TOTAL CPU TIME =        0.2 (    0.0 MIN)
 TOTAL WALL CLOCK TIME=        0.2 SECONDS, CPU UTILIZATION IS  93.75%

          ********************
          1 ELECTRON INTEGRALS
          ********************
 TIME TO DO   DIPOLE INTEGRALS=      0.00
 ...... END OF ONE-ELECTRON INTEGRALS ......
 STEP CPU TIME =     0.00 TOTAL CPU TIME =        0.2 (    0.0 MIN)
 TOTAL WALL CLOCK TIME=        0.2 SECONDS, CPU UTILIZATION IS  93.75%

          -------------
          GUESS OPTIONS
          -------------
          GUESS =MOREAD            NORB  =     102          NORDER=       0
          MIX   =       F          PRTMO =       F          PUNMO =       F
          TOLZ  = 1.0E-08          TOLE  = 1.0E-05
          SYMDEN=       F          PURIFY=       F

 INITIAL GUESS ORBITALS GENERATED BY MOREAD   ROUTINE.

 SYMMETRIES FOR INITIAL GUESS ORBITALS FOLLOW.   BOTH SET(S).
     8 ORBITALS ARE OCCUPIED (    1 CORE ORBITALS).
     1=A        2=A        3=A        4=A        5=A        6=A        7=A   
     8=A        9=A       10=A       11=A       12=A       13=A       14=A   
    15=A       16=A       17=A       18=A       19=A       20=A       21=A   
    22=A       23=A       24=A       25=A       26=A       27=A       28=A   
    29=A       30=A       31=A       32=A       33=A       34=A       35=A   
    36=A       37=A       38=A       39=A       40=A       41=A       42=A   
    43=A       44=A       45=A       46=A       47=A       48=A       49=A   
    50=A       51=A       52=A       53=A       54=A       55=A       56=A   
    57=A       58=A       59=A       60=A       61=A       62=A       63=A   
    64=A       65=A       66=A       67=A       68=A       69=A       70=A   
    71=A       72=A       73=A       74=A       75=A       76=A       77=A   
    78=A       79=A       80=A       81=A       82=A       83=A       84=A   
    85=A       86=A       87=A       88=A       89=A       90=A       91=A   
    92=A       93=A       94=A       95=A       96=A       97=A       98=A   
    99=A      100=A      101=A      102=A   
 ...... END OF INITIAL ORBITAL SELECTION ......
 STEP CPU TIME =     0.02 TOTAL CPU TIME =        0.2 (    0.0 MIN)
 TOTAL WALL CLOCK TIME=        0.2 SECONDS, CPU UTILIZATION IS  94.44%

                    ----------------------
                    AO INTEGRAL TECHNOLOGY
                    ----------------------
     S,P,L SHELL ROTATED AXIS INTEGRALS, REPROGRAMMED BY
        KAZUYA ISHIMURA (IMS) AND JOSE SIERRA (SYNSTAR).
     S,P,D,L SHELL ROTATED AXIS INTEGRALS PROGRAMMED BY
        KAZUYA ISHIMURA (INSTITUTE FOR MOLECULAR SCIENCE).
     S,P,D,F,G SHELL TO TOTAL QUARTET ANGULAR MOMENTUM SUM 5,
        ERIC PROGRAM BY GRAHAM FLETCHER (ELORET AND NASA ADVANCED
        SUPERCOMPUTING DIVISION, AMES RESEARCH CENTER).
     S,P,D,F,G,L SHELL GENERAL RYS QUADRATURE PROGRAMMED BY
        MICHEL DUPUIS (PACIFIC NORTHWEST NATIONAL LABORATORY).

          --------------------
          2 ELECTRON INTEGRALS
          --------------------

 THE -PK- OPTION IS OFF, THE INTEGRALS ARE NOT IN SUPERMATRIX FORM.
 STORING   15000 INTEGRALS/RECORD ON DISK, USING 12 BYTES/INTEGRAL.
 TWO ELECTRON INTEGRAL EVALUATION REQUIRES   99661 WORDS OF MEMORY.
 II,JST,KST,LST =  1  1  1  1 NREC =         1 INTLOC =    1
 II,JST,KST,LST =  2  1  1  1 NREC =         1 INTLOC =    2
 II,JST,KST,LST =  3  1  1  1 NREC =         1 INTLOC =   34
 II,JST,KST,LST =  4  1  1  1 NREC =         1 INTLOC =  214
 II,JST,KST,LST =  5  1  1  1 NREC =         1 INTLOC =  776
 II,JST,KST,LST =  6  1  1  1 NREC =         1 INTLOC = 2864
 II,JST,KST,LST =  7  1  1  1 NREC =         1 INTLOC = 7967
 II,JST,KST,LST =  8  1  1  1 NREC =         2 INTLOC = 3425
 II,JST,KST,LST =  9  1  1  1 NREC =         4 INTLOC = 5324
 II,JST,KST,LST = 10  1  1  1 NREC =         5 INTLOC =12962
 II,JST,KST,LST = 11  1  1  1 NREC =         6 INTLOC =11793
 II,JST,KST,LST = 12  1  1  1 NREC =         7 INTLOC =11720
 II,JST,KST,LST = 13  1  1  1 NREC =         8 INTLOC =12812
 II,JST,KST,LST = 14  1  1  1 NREC =        12 INTLOC = 2272
 II,JST,KST,LST = 15  1  1  1 NREC =        16 INTLOC = 1017
 II,JST,KST,LST = 16  1  1  1 NREC =        20 INTLOC =10088
 II,JST,KST,LST = 17  1  1  1 NREC =        32 INTLOC = 3512
 II,JST,KST,LST = 18  1  1  1 NREC =        34 INTLOC =10599
 II,JST,KST,LST = 19  1  1  1 NREC =        39 INTLOC = 9465
 II,JST,KST,LST = 20  1  1  1 NREC =        44 INTLOC =12126
 II,JST,KST,LST = 21  1  1  1 NREC =        50 INTLOC = 3723
 II,JST,KST,LST = 22  1  1  1 NREC =        67 INTLOC = 2388
 II,JST,KST,LST = 23  1  1  1 NREC =        86 INTLOC = 5253
 II,JST,KST,LST = 24  1  1  1 NREC =       107 INTLOC =14941
 II,JST,KST,LST = 25  1  1  1 NREC =       159 INTLOC = 5644
 II,JST,KST,LST = 26  1  1  1 NREC =       169 INTLOC = 8449
 II,JST,KST,LST = 27  1  1  1 NREC =       189 INTLOC = 3025
 II,JST,KST,LST = 28  1  1  1 NREC =       209 INTLOC = 8171
 II,JST,KST,LST = 29  1  1  1 NREC =       230 INTLOC = 9035
 II,JST,KST,LST = 30  1  1  1 NREC =       297 INTLOC =13064
 II,JST,KST,LST = 31  1  1  1 NREC =       372 INTLOC = 4317
 II,JST,KST,LST = 32  1  1  1 NREC =       454 INTLOC =  352
 II,JST,KST,LST = 33  1  1  1 NREC =       641 INTLOC =  836
 TOTAL NUMBER OF NONZERO TWO-ELECTRON INTEGRALS =            10117858
        675 INTEGRAL RECORDS WERE STORED ON DISK FILE  8.
  ...... END OF TWO-ELECTRON INTEGRALS .....
 STEP CPU TIME =     0.47 TOTAL CPU TIME =        0.6 (    0.0 MIN)
 TOTAL WALL CLOCK TIME=        0.7 SECONDS, CPU UTILIZATION IS  98.46%

          -----------------
          MCSCF CALCULATION
          -----------------

 ----- NUCLEAR ENERGY ----- =        11.8863575819

          -----------------------     ----------------------------
          GUGA DISTINCT ROW TABLE     WRITTEN BY B.R.BROOKS,P.SAXE
          -----------------------     ----------------------------

      GROUP=C1           NPRT=       0
       FORS=       T   INTACT=       F
       FOCI=       F   MXNINT=   50000
       SOCI=       F   MXNEME=   10000
     IEXCIT=       0

      -CORE-    -INTERNAL-  -EXTERNAL-
     NFZC=   0   NDOC=   4   NEXT=   0
     NMCC=   1   NAOS=   0   NFZV=   0
                 NBOS=   0
                 NALP=   0
                 NVAL=   3

 THE MAXIMUM ELECTRON EXCITATION WILL BE   6

 SYMMETRIES FOR THE   1 CORE,   7 ACTIVE,   0 EXTERNAL MO-S ARE
     CORE= A   
   ACTIVE= A     A     A     A     A     A     A   
           DOC   DOC   DOC   DOC   VAL   VAL   VAL 

 MOLECULAR CHARGE          =    0
 NUMBER OF ALPHA ELECTRONS =    5
 NUMBER OF  BETA ELECTRONS =    5

 THE ELECTRONIC STATE IS  1-A   

 THE DISTINCT ROW TABLE HAS        40 ROWS.
  THE WAVEFUNCTION CONTAINS       490 WALKS (CSF-S).

 TOTAL NUMBER OF INTEGRALS =        504
 NUMBER OF INTEGRALS/GROUP =        504
 NUMBER OF INTEGRAL GROUPS =          1
 MAXIMUM RECORD SIZES ARE     500 FOR UNIT 11     490 FOR UNIT 12
                            30001 FOR UNIT 15   30001 FOR UNIT 16
 ...... END OF -DRT- GENERATION ...... 
 STEP CPU TIME =     0.01 TOTAL CPU TIME =        0.6 (    0.0 MIN)
 TOTAL WALL CLOCK TIME=        0.7 SECONDS, CPU UTILIZATION IS  97.01%
 OPENING FILE DAFL30 WITH      81 LOGICAL RECORDS OF   10404 WORDS
 WITH A MAXIMUM OF         486 PHYSICAL RECORDS OF    2048 WORDS

          ------------------------------
          CASSCF INTEGRAL TRANSFORMATION
          ------------------------------
 AO INTEGRALS WILL BE READ IN FROM DISK...

 NUMBER OF CORE MOLECULAR ORBITALS     =     1
 NUMBER OF OCCUPIED MOLECULAR ORBITALS =     8
 TOTAL NUMBER OF MOLECULAR ORBITALS    =   102
 TOTAL NUMBER OF ATOMIC ORBITALS       =   102

 ----- CHOOSING THREE STEPS TRANSFORMATION -----
 NUMBER OF WORDS USED      =    3983992
 NUMBER OF WORDS AVAILABLE =    5000000
 NUMBER OF PASSES          =          1

 ----- NUCLEAR REPULSION ENERGY =     11.88635758
 ----- FROZEN CORE ENERGY       =    -47.84099022

 ... SYMMETRY ...           CPU =    0.01
 ... (PQ|RS) -> (PQ|KL) ... CPU =    0.35
 ... (PQ|KL) -> (IJ|KL) ... CPU =    0.00

 NUMBER OF (PQ|KL) INTEGRALS WRITTEN     147051
 NUMBER OF (IJ|KL) INTEGRALS WRITTEN        406
 ..... END OF CAS INTEGRAL TRANSFORMATION .....
 STEP CPU TIME =     0.36 TOTAL CPU TIME =        1.0 (    0.0 MIN)
 TOTAL WALL CLOCK TIME=        1.0 SECONDS, CPU UTILIZATION IS  98.06%

          ------------------------
          GUGA-CI INTEGRAL SORTING
          ------------------------

     80127 WORDS NEEDED TO SORT            504 GUGA INTEGRALS IN MEMORY
   5000000 WORDS ARE AVAILABLE
 CHOOSING IN-MEMORY SORTING...
 IN CORE ALGORITHM SORTED             28 NON-ZERO 1E- INTEGRALS
 IN CORE ALGORITHM SORTED            406 NON-ZERO 2E- INTEGRALS
 ...... END OF INTEGRAL SORTING ...... 
 STEP CPU TIME =     0.01 TOTAL CPU TIME =        1.0 (    0.0 MIN)
 TOTAL WALL CLOCK TIME=        1.0 SECONDS, CPU UTILIZATION IS  98.08%

 -------------------------     ---------------------------------------
 ENERGY MATRIX CALCULATION     WRITTEN BY B.R.BROOKS,W.D.LAIDIG,P.SAXE
 -------------------------     ---------------------------------------

 COMPUTING THE HAMILTONIAN FOR THE       490 CSF-S...

       55420 IS THE TOTAL NUMBER OF GENERATED LOOPS
       55420 WERE CREATED BY THE LOOP-DRIVEN ALGORITHM
           0 WERE CREATED IMPLICITLY

       54902 IS THE TOTAL NUMBER OF PROCESSED LOOPS
        2398     DIAGONAL LOOPS ARE STORED ON WORK15 IN     1 BUFFERS OF  10000 ELEMENTS.
       52504 OFF DIAGONAL LOOPS ARE STORED ON WORK16 IN     6 BUFFERS OF  10000 ELEMENTS.
 ...... END OF ENERGY MATRIX CALCULATION ...... 
 STEP CPU TIME =     0.02 TOTAL CPU TIME =        1.0 (    0.0 MIN)
 TOTAL WALL CLOCK TIME=        1.1 SECONDS, CPU UTILIZATION IS  99.05%

          -----------------------------------------
          DAVIDSON METHOD CI-MATRIX DIAGONALIZATION
                   WRITTEN BY STEVE ELBERT
          -----------------------------------------
 NUMBER OF STATES REQUESTED =     2
 MAX. NUMB. OF EXPAN. VEC   =    30
 MAX. NUMB. IMPROVED STATES =     2
 MAX. NUMB. OF ITERATIONS   =    50
 CONVERGENCE CRITERION      =    1.0E-07

 CHOOSING TO SOLVE SECULAR EQUATION IN MEMORY
 NUMBER OF WORDS AVAILABLE =    5000000
 NUMBER OF WORDS USED      =     188585
 ENERGY MATRIX BUFFER SIZE =      10000

 ITER. NO.JUST IMPROVED    ENERGY AND STATE
   0  50(MAX.TOL.STATE)    -56.237444394  1    -55.558290215  2
   1   7  0.36176834  5    -56.255251827  1    -55.575359389  2
   2   6  0.10362674  5    -56.255672452  1    -55.575956874  2
   3   5  0.37787812  4    -56.255689004  1    -55.576010651  2
   4   4  0.20660279  3    -56.255690341  1    -55.576016913  2
   5   3  0.00190226  2    -56.255690382  1    -55.576017402  2
   6   2  0.00018283  2    -56.255690384  1    -55.576017418  2
   7   2  0.56150082  2    -56.255690384  1    -55.745103519  2
   8   2  0.36690722  2    -56.255690384  1    -55.895408178  2
   9   2  0.24827067  2    -56.255690384  1    -56.019759847  2
  10   2  0.09855804  2    -56.255690384  1    -56.036559473  2
  11   1  0.01778452  2    -56.255690384  1    -56.037165466  2
  12   1  0.00670124  2    -56.255690384  1    -56.037205856  2
  13   1  0.00122185  2    -56.255690384  1    -56.037208140  2
  14   1  0.00046832  2    -56.255690384  1    -56.037208477  2
  15   1  0.00017216  2    -56.255690384  1    -56.037208508  2
  16   1  0.00003626  2    -56.255690384  1    -56.037208510  2
  17   1  0.00000912  2    -56.255690384  1    -56.037208510  2
  18   1  0.00000212  2    -56.255690384  1    -56.037208510  2
  19   1  0.00000064  2    -56.255690384  1    -56.037208510  2
  20   1  0.00000016  2    -56.255690384  1    -56.037208510  2
  21   1  0.00000006  2    -56.255690384  1    -56.037208510  2
 SOLUTION FOUND WITH INDIRECT METHOD

 STATE #    1  ENERGY =     -56.255690384

      CSF      COEF    OCCUPANCY (IGNORING CORE)
      ---      ----    --------- --------- -----
        1    0.985013  2222000
        2    0.004291  2221001
        3    0.001348  2212001
        4   -0.059509  2122001
        5    0.011042  1222001
        6   -0.021006  2220002
        7   -0.000082  2211002
        8    0.005283  2121002
        9    0.003309  1221002
       10   -0.021037  2202002
       11    0.000904  2112002
       12   -0.000531  1212002
       13   -0.051145  2022002
       14    0.024533  1122002
       15   -0.018034  0222002
       16    0.000002  2221010
       17    0.064208  2212010
       18    0.001452  2122010
       19    0.000015  1222010
       20   -0.006597  2211011
       21   -0.000159  2121011
       23   -0.036501  2112011
       24    0.007793  1212011
       25    0.000186  1122011
       26    0.000006  2220011
       27   -0.023065  2211011
       28   -0.000572  2121011
       29   -0.000006  1221011
       30   -0.002007  2202011
       31    0.061491  2112011
       32   -0.028728  1212011
       33    0.002010  2022011
       34   -0.000657  1122011
       35   -0.000004  0222011
       36   -0.000902  2210012
       37   -0.000020  2120012
       39   -0.002669  2111012
       40    0.001381  1211012
       41    0.000032  1121012
       42    0.000014  2201012
       43   -0.000312  2111012
       44   -0.000318  1211012
       45   -0.000012  2021012
       46   -0.000007  1121012
       48   -0.000227  2102012
       49    0.000055  1202012
       50    0.000508  1112012
       51    0.010088  2012012
       52   -0.004345  1112012
       53    0.001294  0212012
       54   -0.000058  1022012
       55    0.000031  0122012
       56   -0.023256  2220020
       57   -0.000298  2211020
       58    0.010481  2121020
       59    0.008626  1221020
       60   -0.067444  2202020
       61   -0.001748  2112020
       62   -0.000216  1212020
       63   -0.012313  2022020
       64    0.006839  1122020
       65   -0.016069  0222020
       66    0.000015  2210021
       67   -0.000673  2120021
       68   -0.000068  1220021
       69   -0.000002  2111021
       70   -0.000015  1211021
       71    0.000702  1121021
       72   -0.002407  2201021
       73   -0.000099  2111021
       74    0.000006  1211021
       75    0.000481  2021021
       76   -0.000268  1121021
       77    0.000246  0221021
       78   -0.011611  2102021
       79    0.003121  1202021
       80    0.000104  1112021
       81   -0.000265  2012021
       82    0.000053  1112021
       84   -0.000396  1022021
       85    0.000063  0122021
       86    0.002333  2200022
       87    0.000028  2110022
       88    0.000021  1210022
       89    0.001503  2020022
       90   -0.000864  1120022
       91    0.000800  0220022
       92    0.001735  2101022
       93    0.000106  1201022
       94   -0.000022  1111022
       95    0.000041  2011022
       96   -0.000013  1111022
       97    0.000013  0211022
       98    0.000858  1021022
       99   -0.000524  0121022
      100    0.006443  2002022
      101   -0.003356  1102022
      102    0.002120  0202022
      103   -0.000080  1012022
      104    0.000038  0112022
      105    0.001004  0022022
      106    0.029025  2221100
      107   -0.000226  2212100
      108    0.009695  2122100
      109    0.034676  1222100
      110    0.000182  2211101
      111   -0.007922  2121101
      112   -0.000894  1221101
      113    0.000001  2112101
      114   -0.000273  1212101
      115    0.012126  1122101
      116   -0.003104  2220101
      117   -0.000172  2211101
      118    0.007826  2121101
      119   -0.009103  1221101
      120   -0.012124  2202101
      121   -0.000480  2112101
      122   -0.000527  1212101
      123    0.001660  2022101
      124    0.023457  1122101
      125   -0.007821  0222101
      126    0.000007  2210102
      127   -0.000357  2120102
      128   -0.000398  1220102
      130   -0.000005  1211102
      131    0.000279  1121102
      132    0.000790  2201102
      133   -0.000034  2111102
      134    0.000020  1211102
      135    0.001924  2021102
      136   -0.000866  1121102
      137    0.000141  0221102
      138   -0.000454  2102102
      139   -0.000747  1202102
      140    0.000073  1112102
      141   -0.000011  2012102
      142    0.000042  1112102
      143   -0.000022  0212102
      144   -0.003430  1022102
      145    0.001030  0122102
      146    0.007572  2211110
      147    0.000169  2121110
      149   -0.003737  2112110
      150   -0.012089  1212110
      151   -0.000274  1122110
      152   -0.001523  2111111
      153    0.000028  1211111
      155   -0.002097  1112111
      156    0.000760  2210111
      157    0.000018  2120111
      159    0.000806  2111111
      160   -0.000642  1211111
      161   -0.000015  1121111
      162    0.000064  2201111
      163   -0.001955  2111111
      164    0.000267  1211111
      165   -0.000064  2021111
      166    0.000005  1121111
      168   -0.000005  2102111
      169   -0.000103  1202111
      170    0.002373  1112111
      171    0.000188  2012111
      172    0.002244  1112111
      173   -0.001579  0212111
      174    0.000103  1022111
      175   -0.000037  0122111
      176    0.000292  2110112
      177    0.000357  1210112
      178    0.000008  1120112
      179    0.000472  1111112
      180    0.000024  2101112
      182   -0.000176  1111112
      183   -0.001068  2011112
      184    0.000318  1111112
      185   -0.000189  0211112
      187   -0.000004  0121112
      188    0.000045  1102112
      189   -0.002007  1012112
      190    0.000711  0112112
      191   -0.000003  2220110
      192   -0.008578  2211110
      193   -0.000197  2121110
      194   -0.000009  1221110
      195   -0.000273  2202110
      196    0.007492  2112110
      197   -0.027378  1212110
      198    0.000259  2022110
      199   -0.000624  1122110
      200   -0.000012  0222110
      201   -0.000143  2210111
      202   -0.000003  2120111
      204   -0.001758  2111111
      205   -0.000080  1211111
      206   -0.000002  1121111
      207    0.000032  2201111
      208   -0.000980  2111111
      209    0.000193  1211111
      210   -0.000032  2021111
      211    0.000004  1121111
      213   -0.000011  2102111
      214   -0.000061  1202111
      215    0.002537  1112111
      216    0.000421  2012111
      217   -0.000600  1112111
      218   -0.000173  0212111
      219    0.000062  1022111
      220   -0.000004  0122111
      221    0.000002  2200112
      222   -0.000042  2110112
      223    0.000681  1210112
      224   -0.000002  2020112
      225    0.000016  1120112
      227   -0.000019  2101112
      228    0.000014  1201112
      229   -0.000459  1111112
      230    0.000839  2011112
      231   -0.000084  1111112
      232    0.000243  0211112
      233   -0.000014  1021112
      234    0.000005  0121112
      236    0.000055  1102112
      237   -0.000013  0202112
      238   -0.002483  1012112
      239    0.000455  0112112
      240    0.000015  0022112
      241    0.000010  2210120
      242   -0.000374  2120120
      243   -0.000570  1220120
      245   -0.000006  1211120
      246    0.000223  1121120
      247    0.002405  2201120
      248    0.000063  2111120
      250    0.000436  2021120
      251   -0.000009  1121120
      252    0.000072  0221120
      253   -0.000484  2102120
      254   -0.004068  1202120
      255   -0.000098  1112120
      256   -0.000011  2012120
      257   -0.000057  1112120
      258   -0.000016  0212120
      259   -0.000506  1022120
      260    0.000558  0122120
      262   -0.000009  1210121
      263    0.000399  1120121
      265    0.001230  2101121
      266    0.000223  1201121
      267    0.000009  1111121
      268    0.000028  2011121
      269    0.000005  1111121
      270    0.000006  0211121
      271   -0.000077  1021121
      272   -0.000266  0121121
      273    0.002308  1102121
      274    0.000052  1012121
      276   -0.000706  2200121
      277   -0.000027  2110121
      278   -0.000013  1210121
      279    0.000079  2020121
      280    0.000591  1120121
      281   -0.000321  0220121
      282   -0.001196  2101121
      283    0.001097  1201121
      284    0.000034  1111121
      285   -0.000027  2011121
      286    0.000020  1111121
      287   -0.000008  0211121
      288   -0.000076  1021121
      289    0.000338  0121121
      290   -0.000254  2002121
      291    0.003079  1102121
      292   -0.001466  0202121
      293    0.000070  1012121
      294   -0.000053  0112121
      295    0.000112  0022121
      296    0.000107  2100122
      297    0.000045  1200122
      299    0.000003  2010122
      302    0.000047  1020122
      303   -0.000013  0120122
      304    0.000154  1101122
      305    0.000004  1011122
      307    0.000440  2001122
      308   -0.000111  1101122
      309   -0.000022  0201122
      310   -0.000003  1011122
      312   -0.000016  0021122
      313    0.000808  1002122
      314   -0.000287  0102122
      315   -0.000007  0012122
      316   -0.007624  2220200
      317    0.000010  2211200
      318   -0.000396  2121200
      319   -0.007760  1221200
      320   -0.007738  2202200
      321    0.000005  2112200
      322    0.000030  1212200
      323   -0.007861  2022200
      324   -0.001312  1122200
      325   -0.008286  0222200
      326   -0.000007  2210201
      327    0.000286  2120201
      328   -0.000066  1220201
      330   -0.000001  1211201
      331    0.000042  1121201
      332    0.000388  2201201
      333    0.000006  2111201
      334    0.000002  1211201
      335    0.000219  2021201
      336   -0.000106  1121201
      337    0.000119  0221201
      338    0.000363  2102201
      339   -0.000238  1202201
      340    0.000004  1112201
      341    0.000008  2012201
      342    0.000002  1112201
      343   -0.000011  0212201
      344   -0.000375  1022201
      345    0.000458  0122201
      346    0.000278  2200202
      347   -0.000011  2110202
      348    0.000003  1210202
      349    0.000622  2020202
      350   -0.000119  1120202
      351    0.000343  0220202
      352   -0.000091  2101202
      353   -0.000057  1201202
      354    0.000016  1111202
      355   -0.000003  2011202
      356    0.000009  1111202
      358   -0.000639  1021202
      359    0.000017  0121202
      360    0.000624  2002202
      361    0.000124  1102202
      362    0.000222  0202202
      363    0.000004  1012202
      364   -0.000026  0112202
      365    0.001042  0022202
      366   -0.000314  2210210
      367   -0.000007  2120210
      369   -0.000049  2111210
      370    0.000040  1211210
      371    0.000001  1121210
      372    0.000009  2201210
      373   -0.000249  2111210
      374    0.000142  1211210
      375   -0.000008  2021210
      376    0.000003  1121210
      378   -0.000013  2102210
      379   -0.000008  1202210
      380    0.000179  1112210
      381    0.000558  2012210
      382    0.000155  1112210
      383   -0.000410  0212210
      384    0.000007  1022210
      385   -0.000009  0122210
      386    0.000359  2110211
      387   -0.000015  1210211
      389    0.000454  1111211
      392   -0.000241  1111211
      393    0.000012  2011211
      394    0.000385  1111211
      395    0.000038  0211211
      399    0.000026  1012211
      400    0.000811  0112211
      401    0.000017  2200211
      402   -0.000524  2110211
      403    0.000089  1210211
      404   -0.000017  2020211
      405    0.000002  1120211
      407   -0.000007  2101211
      408   -0.000022  1201211
      409    0.000593  1111211
      410    0.000281  2011211
      411    0.000340  1111211
      412    0.000120  0211211
      413    0.000022  1021211
      414    0.000003  0121211
      416    0.000012  1102211
      417    0.000032  0202211
      418   -0.000456  1012211
      419   -0.000986  0112211
      420   -0.000032  0022211
      423   -0.000011  1110212
      424   -0.000038  2010212
      425    0.000017  1110212
      426   -0.000040  0210212
      430    0.000037  1011212
      431   -0.000006  0111212
      435   -0.000008  1011212
      436    0.000020  0111212
      439    0.000001  0102212
      440   -0.000062  0012212
      441    0.000769  2200220
      442    0.000016  2110220
      444    0.000269  2020220
      445    0.000022  1120220
      446    0.000370  0220220
      447    0.000098  2101220
      448   -0.000744  1201220
      449   -0.000019  1111220
      450    0.000003  2011220
      451   -0.000011  1111220
      452    0.000001  0211220
      453   -0.000067  1021220
      454   -0.000040  0121220
      455    0.000695  2002220
      456   -0.000095  1102220
      457    0.001224  0202220
      458   -0.000003  1012220
      459    0.000032  0112220
      460    0.000238  0022220
      461    0.000032  2100221
      462   -0.000028  1200221
      467   -0.000013  1020221
      468   -0.000030  0120221
      469   -0.000057  1101221
      470   -0.000001  1011221
      472   -0.000038  2001221
      473    0.000020  1101221
      474   -0.000015  0201221
      477   -0.000011  0021221
      478   -0.000066  1002221
      479    0.000093  0102221
      480    0.000002  0012221
      481   -0.000103  2000222
      482    0.000013  1100222
      483   -0.000053  0200222
      486   -0.000044  0020222
      487   -0.000127  1001222
      488   -0.000011  0101222
      490   -0.000219  0002222

 STATE #    2  ENERGY =     -56.037208510

      CSF      COEF    OCCUPANCY (IGNORING CORE)
      ---      ----    --------- --------- -----
        1   -0.026759  2222000
        2    0.017167  2221001
        3   -0.000349  2212001
        4    0.015392  2122001
        5   -0.004269  1222001
        6   -0.011119  2220002
        7    0.000254  2211002
        8   -0.009760  2121002
        9    0.000844  1221002
       10    0.000910  2202002
       12    0.000009  1212002
       13    0.001019  2022002
       14   -0.000534  1122002
       15    0.001609  0222002
       16    0.000030  2221010
       17   -0.015962  2212010
       18   -0.000359  2122010
       19   -0.000006  1222010
       20    0.007275  2211011
       21    0.000171  2121011
       23   -0.000829  2112011
       24   -0.000184  1212011
       25   -0.000005  1122011
       26    0.000010  2220011
       27   -0.010182  2211011
       28   -0.000284  2121011
       29    0.000004  1221011
       30    0.000062  2202011
       31   -0.001861  2112011
       32    0.001643  1212011
       33   -0.000062  2022011
       34    0.000039  1122011
       36   -0.000269  2210012
       37   -0.000006  2120012
       39   -0.001165  2111012
       40    0.001047  1211012
       41    0.000024  1121012
       42   -0.000004  2201012
       43    0.000187  2111012
       44   -0.000594  1211012
       45    0.000007  2021012
       46   -0.000014  1121012
       48    0.000048  2102012
       49   -0.000017  1202012
       50   -0.000127  1112012
       51   -0.002160  2012012
       52    0.001327  1112012
       53   -0.000536  0212012
       54    0.000019  1022012
       55   -0.000012  0122012
       56   -0.015718  2220020
       57   -0.000231  2211020
       58    0.008588  2121020
       59   -0.001391  1221020
       60    0.001468  2202020
       61    0.000027  2112020
       62    0.000014  1212020
       63    0.000567  2022020
       64   -0.000444  1122020
       65    0.002084  0222020
       66   -0.000006  2210021
       67    0.000232  2120021
       68   -0.000040  1220021
       69   -0.000002  2111021
       70   -0.000021  1211021
       71    0.000951  1121021
       72   -0.001406  2201021
       73   -0.000038  2111021
       74    0.000008  1211021
       75   -0.000287  2021021
       76   -0.000365  1121021
       77   -0.000273  0221021
       78    0.002635  2102021
       79   -0.000971  1202021
       80   -0.000028  1112021
       81    0.000060  2012021
       82   -0.000015  1112021
       83    0.000005  0212021
       84   -0.000015  1022021
       85   -0.000231  0122021
       86    0.001286  2200022
       87    0.000008  2110022
       88    0.000011  1210022
       89    0.001048  2020022
       90   -0.000452  1120022
       91    0.000454  0220022
       92   -0.000397  2101022
       93   -0.000074  1201022
       94   -0.000003  1111022
       95   -0.000009  2011022
       96   -0.000002  1111022
       98    0.000027  1021022
       99    0.000038  0121022
      100    0.000064  2002022
      101    0.000066  1102022
      102   -0.000238  0202022
      103    0.000002  1012022
      104   -0.000002  0112022
      105   -0.000180  0022022
      106    0.981954  2221100
      107   -0.000152  2212100
      108    0.006920  2122100
      109   -0.037872  1222100
      110    0.000855  2211101
      111   -0.037771  2121101
      112    0.011168  1221101
      114    0.000252  1212101
      115   -0.011184  1122101
      116   -0.013900  2220101
      117   -0.001351  2211101
      118    0.059579  2121101
      119   -0.005754  1221101
      120    0.010051  2202101
      121    0.000335  2112101
      122    0.000587  1212101
      123    0.000766  2022101
      124   -0.026100  1122101
      125   -0.000129  0222101
      126    0.000086  2210102
      127   -0.005003  2120102
      128   -0.000089  1220102
      130    0.000006  1211102
      131   -0.000224  1121102
      132    0.020546  2201102
      133   -0.001030  2111102
      134    0.000525  1211102
      135    0.054405  2021102
      136   -0.024408  1121102
      137    0.017194  0221102
      138   -0.000167  2102102
      139    0.000732  1202102
      140   -0.000042  1112102
      141   -0.000004  2012102
      142   -0.000024  1112102
      143    0.000011  0212102
      144    0.002285  1022102
      145   -0.000655  0122102
      146    0.040084  2211110
      147    0.000908  2121110
      148    0.000015  1221110
      149    0.000817  2112110
      150    0.012260  1212110
      151    0.000279  1122110
      152   -0.032383  2111111
      153    0.006740  1211111
      154    0.000161  1121111
      155    0.000883  1112111
      156    0.017286  2210111
      157    0.000425  2120111
      158    0.000004  1220111
      159    0.008816  2111111
      160   -0.002686  1211111
      161   -0.000065  1121111
      162    0.001752  2201111
      163   -0.053860  2111111
      164    0.026945  1211111
      165   -0.001755  2021111
      166    0.000621  1121111
      167    0.000004  0221111
      168    0.000002  2102111
      169    0.000056  1202111
      170   -0.002068  1112111
      171   -0.000108  2012111
      172    0.000037  1112111
      173    0.002133  0212111
      174   -0.000057  1022111
      175    0.000052  0122111
      176    0.000487  2110112
      177    0.000503  1210112
      178    0.000011  1120112
      179   -0.000576  1111112
      180    0.000107  2101112
      181   -0.000029  1201112
      182   -0.000211  1111112
      183   -0.004778  2011112
      184    0.002263  1111112
      185   -0.001157  0211112
      186    0.000032  1021112
      187   -0.000026  0121112
      188   -0.000046  1102112
      189    0.002057  1012112
      190   -0.000380  0112112
      191   -0.000008  2220110
      192   -0.065196  2211110
      193   -0.001474  2121110
      194   -0.000014  1221110
      195    0.000323  2202110
      196   -0.009324  2112110
      197    0.029843  1212110
      198   -0.000318  2022110
      199    0.000679  1122110
      200    0.000002  0222110
      201    0.004309  2210111
      202    0.000108  2120111
      203    0.000002  1220111
      204   -0.016389  2111111
      205    0.004070  1211111
      206    0.000097  1121111
      207    0.001010  2201111
      208   -0.031049  2111111
      209    0.014532  1211111
      210   -0.001012  2021111
      211    0.000334  1121111
      212    0.000002  0221111
      213   -0.000019  2102111
      214    0.000051  1202111
      215   -0.000295  1112111
      216    0.000822  2012111
      217   -0.002604  1112111
      218    0.001115  0212111
      219   -0.000051  1022111
      220    0.000027  0122111
      221   -0.000021  2200112
      222    0.000689  2110112
      223   -0.000246  1210112
      224    0.000022  2020112
      225   -0.000006  1120112
      227   -0.000137  2101112
      228    0.000005  1201112
      229    0.001507  1111112
      230    0.006081  2011112
      231   -0.003005  1111112
      232    0.001277  0211112
      233   -0.000007  1021112
      234    0.000029  0121112
      236   -0.000061  1102112
      238    0.002710  1012112
      239   -0.000014  0112112
      241    0.000214  2210120
      242   -0.007535  2120120
      243   -0.003546  1220120
      244   -0.000002  2111120
      245   -0.000005  1211120
      246    0.000135  1121120
      247    0.070845  2201120
      248    0.001874  2111120
      249    0.000255  1211120
      250    0.011983  2021120
      251   -0.008251  1121120
      252    0.014893  0221120
      253   -0.000130  2102120
      254    0.003168  1202120
      255    0.000074  1112120
      256   -0.000002  2012120
      257    0.000043  1112120
      258    0.000027  0212120
      259    0.000497  1022120
      260   -0.000907  0122120
      262   -0.000024  1210121
      263    0.001050  1120121
      265    0.005694  2101121
      266   -0.002122  1201121
      267   -0.000061  1111121
      268    0.000130  2011121
      269   -0.000033  1111121
      270    0.000025  0211121
      271   -0.000021  1021121
      272   -0.001075  0121121
      273   -0.002384  1102121
      274   -0.000054  1012121
      276   -0.002146  2200121
      277   -0.000092  2110121
      278   -0.000009  1210121
      279    0.000605  2020121
      280    0.000362  1120121
      281   -0.000639  0220121
      282   -0.006788  2101121
      283    0.001149  1201121
      284    0.000042  1111121
      285   -0.000154  2011121
      286    0.000020  1111121
      287   -0.000028  0211121
      288   -0.000224  1021121
      289    0.001196  0121121
      290    0.000599  2002121
      291   -0.003485  1102121
      292    0.001023  0202121
      293   -0.000080  1012121
      294    0.000045  0112121
      295   -0.000305  0022121
      296    0.001651  2100122
      297   -0.000366  1200122
      298   -0.000020  1110122
      299    0.000039  2010122
      300   -0.000012  1110122
      301    0.000006  0210122
      302    0.000321  1020122
      303   -0.000240  0120122
      304    0.000054  1101122
      305    0.000001  1011122
      307    0.007766  2001122
      308   -0.003918  1101122
      309    0.002156  0201122
      310   -0.000094  1011122
      311    0.000047  0111122
      312    0.000780  0021122
      313   -0.000329  1002122
      314    0.000242  0102122
      315    0.000006  0012122
      316   -0.024218  2220200
      317    0.000063  2211200
      318   -0.002933  2121200
      319   -0.021943  1221200
      320    0.006836  2202200
      321    0.000002  2112200
      322   -0.000019  1212200
      323    0.006777  2022200
      324    0.000826  1122200
      325   -0.002854  0222200
      326    0.000150  2210201
      327   -0.006620  2120201
      328    0.002600  1220201
      330   -0.000139  1211201
      331    0.006172  1121201
      332    0.006884  2201201
      333    0.000257  2111201
      334    0.000339  1211201
      335   -0.000442  2021201
      336   -0.015050  1121201
      337    0.004730  0221201
      338   -0.000806  2102201
      339   -0.000327  1202201
      340   -0.000013  1112201
      341   -0.000018  2012201
      342   -0.000008  1112201
      343    0.000016  0212201
      344    0.000097  1022201
      345   -0.000718  0122201
      346    0.000238  2200202
      347   -0.000066  2110202
      348    0.000015  1210202
      349    0.002336  2020202
      350   -0.000671  1120202
      351    0.000867  0220202
      352   -0.000953  2101202
      353   -0.000444  1201202
      354    0.000058  1111202
      355   -0.000023  2011202
      356    0.000034  1111202
      357   -0.000029  0211202
      358   -0.002603  1021202
      359    0.001249  0121202
      360   -0.000516  2002202
      361   -0.000292  1102202
      362    0.000009  0202202
      363   -0.000008  1012202
      364    0.000024  0112202
      365   -0.000743  0022202
      366    0.006771  2210210
      367    0.000153  2120210
      368    0.000003  1220210
      369   -0.000857  2111210
      370   -0.006440  1211210
      371   -0.000146  1121210
      372    0.000196  2201210
      373   -0.005468  2111210
      374    0.016764  1211210
      375   -0.000188  2021210
      376    0.000381  1121210
      377    0.000007  0221210
      378    0.000018  2102210
      379   -0.000026  1202210
      380    0.000719  1112210
      381   -0.000815  2012210
      382    0.000245  1112210
      383    0.000725  0212210
      384    0.000026  1022210
      385    0.000016  0122210
      386    0.001902  2110211
      387   -0.000384  1210211
      388   -0.000009  1120211
      389    0.002017  1111211
      390    0.000002  2101211
      391   -0.000004  1201211
      392   -0.001074  1111211
      393   -0.000095  2011211
      394    0.002108  1111211
      395   -0.000808  0211211
      396    0.000004  1021211
      397   -0.000019  0121211
      398    0.000001  1102211
      399   -0.000049  1012211
      400   -0.000589  0112211
      401    0.000086  2200211
      402   -0.002675  2110211
      403    0.000583  1210211
      404   -0.000087  2020211
      405    0.000012  1120211
      407   -0.000018  2101211
      408   -0.000097  1201211
      409    0.002697  1111211
      410    0.000626  2011211
      411    0.001346  1111211
      412   -0.000566  0211211
      413    0.000098  1021211
      414   -0.000011  0121211
      416   -0.000012  1102211
      417   -0.000022  0202211
      418    0.000435  1012211
      419    0.000706  0112211
      420    0.000023  0022211
      421   -0.000019  2100212
      422    0.000005  1200212
      423   -0.000152  1110212
      424    0.000845  2010212
      425   -0.000063  1110212
      427   -0.000005  1020212
      429   -0.000023  1101212
      430    0.001032  1011212
      431   -0.000283  0111212
      433    0.000034  1101212
      434   -0.000005  0201212
      435   -0.001520  1011212
      436    0.000188  0111212
      437    0.000006  0021212
      440   -0.000041  0012212
      441    0.002894  2200220
      442    0.000081  2110220
      443    0.000001  1210220
      444    0.000342  2020220
      445   -0.000008  1120220
      446    0.001090  0220220
      447    0.000018  2101220
      448   -0.003243  1201220
      449   -0.000079  1111220
      450    0.000002  2011220
      451   -0.000046  1111220
      452    0.000001  0211220
      453   -0.000380  1021220
      454   -0.000077  0121220
      455   -0.000632  2002220
      456    0.000233  1102220
      457   -0.000872  0202220
      458    0.000007  1012220
      459   -0.000025  0112220
      460   -0.000081  0022220
      461   -0.001075  2100221
      462    0.000207  1200221
      463    0.000006  1110221
      464   -0.000025  2010221
      465    0.000004  1110221
      466   -0.000002  0210221
      467   -0.000016  1020221
      468    0.000065  0120221
      469   -0.001178  1101221
      470   -0.000027  1011221
      472   -0.000318  2001221
      473    0.001963  1101221
      474   -0.000867  0201221
      475    0.000045  1011221
      476   -0.000033  0111221
      477    0.000110  0021221
      478   -0.000032  1002221
      479    0.000041  0102221
      481   -0.000462  2000222
      482    0.000111  1100222
      483   -0.000107  0200222
      484    0.000003  1010222
      486   -0.000115  0020222
      487   -0.000586  1001222
      488    0.000259  0101222
      489    0.000006  0011222
      490    0.000230  0002222
 ...... END OF CI-MATRIX DIAGONALIZATION ......
 STEP CPU TIME =     0.01 TOTAL CPU TIME =        1.0 (    0.0 MIN)
 TOTAL WALL CLOCK TIME=        1.1 SECONDS, CPU UTILIZATION IS  99.06%

          -------------------------------------
          2-PARTICLE DENSITY MATRIX CALCULATION
          -------------------------------------
 2 BODY DENSITY IS AN AVERAGE OF  2 STATE(S).
   STATE    WEIGHT          ENERGY
     1    0.500000      -56.2556903842
     2    0.500000      -56.0372085098
        55420 -DM2- LOOPS WERE GENERATED
        55420 WERE CREATED BY THE LOOP-DRIVEN ALGORITHM
            0 WERE CREATED IMPLICITLY
          1 RECORDS OF LENGTH 50000 WRITTEN TO FILE 15
 ...... END OF 2-PARTICLE DENSITY MATRIX CALCULATION ......
 STEP CPU TIME =     0.01 TOTAL CPU TIME =        1.1 (    0.0 MIN)
 TOTAL WALL CLOCK TIME=        1.1 SECONDS, CPU UTILIZATION IS  99.07%

          ----------------------------------
          2-PARTICLE DENSITY MATRIX LABELING
          ----------------------------------
      96494 WORDS NEEDED TO LABEL DM2 MATRIX
          1 RECORDS OF LENGTH 50000  READ FROM FILE 15
          1 RECORDS OF LENGTH 15000 WRITTEN TO FILE 16
 ...... END OF 2-PARTICLE DENSITY MATRIX LABELING ......
 STEP CPU TIME =     0.00 TOTAL CPU TIME =        1.1 (    0.0 MIN)
 TOTAL WALL CLOCK TIME=        1.1 SECONDS, CPU UTILIZATION IS  99.07%

          --------------
          -DM2- ORDERING
          --------------
      30435 WORDS NEEDED (   5000000 AVAILABLE) TO ORDER DM2 IN MEMORY
 CHOOSING IN MEMORY ORDERING...
                               1 RECORDS OF LENGTH 15000  READ FROM FILE 16
        406 DM2 VALUES IN      1 RECORDS OF LENGTH 15000 WRITTEN TO FILE 15
 ...... END OF -DM2- ORDERING ...... 
 STEP CPU TIME =     0.00 TOTAL CPU TIME =        1.1 (    0.0 MIN)
 TOTAL WALL CLOCK TIME=        1.1 SECONDS, CPU UTILIZATION IS  99.07%

          --------------------------------------
          APPROXIMATE SECOND-ORDER MCSCF PROGRAM
          --------------------------------------
          PROGRAM WRITTEN BY G.CHABAN, A.MARQUEZ, AND M.DUPUIS

  NUMBER OF WORDS NEEDED     =     235343
  NUMBER AVAILABLE           =    5000000

 ----- GAMMA(IJKL)*(PQ|KL) PRODUCTS ----- CPU TIME =      0.010
 ----- ORBITAL SYMMETRY             ----- CPU TIME =      0.000
 ----- FOCK OPERATORS CONSTRUCTION  ----- CPU TIME =      0.100
     MICIT =   1 ASYMM =    0.000004 ROTMAX =    0.000004
 ----- EFFECTIVE FOCK + ROTATE ORBS ----- CPU TIME =      0.010
     MICIT =   2 ASYMM =    0.000003 ROTMAX =    0.000001
     MICIT =   3 ASYMM =    0.000003 ROTMAX =    0.000001
     MICIT =   4 ASYMM =    0.000003 ROTMAX =    0.000001
     MICIT =   5 ASYMM =    0.000004 ROTMAX =    0.000001
 ..... DONE WITH CASSCF ORBITAL UPDATE .....
 STEP CPU TIME =     0.17 TOTAL CPU TIME =        1.2 (    0.0 MIN)
 TOTAL WALL CLOCK TIME=        1.2 SECONDS, CPU UTILIZATION IS  99.19%

 ITER     TOTAL ENERGY      DEL(E)  LAGRANGIAN ASYMMETRY   SQCDF  MICIT   DAMP
   1      -56.146449447 -0.146449447  0.000004    3    1 3.612E-06  5   0.0000
       ----------START APPROXIMATE SECOND ORDER MCSCF----------
   2      -56.146449447 -0.000000000  0.000003   11    6 2.333E-09  1   0.0000
   3      -56.146449448 -0.000000000  0.000002   11    6 1.023E-08  1   0.0000
   4      -56.146449448 -0.000000000  0.000002    5    1 4.773E-10  1   0.0000
   5      -56.146449448 -0.000000000  0.000001    5    1 3.426E-09  1   0.0000

          --------------------
          LAGRANGIAN CONVERGED
          --------------------

 FINAL MCSCF ENERGY IS      -56.1464494479 AFTER   5 ITERATIONS

 -MCCI- BASED ON OPTIMIZED ORBITALS
 ----------------------------------

 PLEASE NOTE: IF THE ACTIVE ORBITALS ARE CANONICALIZED BELOW,
 THE FOLLOWING CI EXPANSION COEFFICIENTS AND THE DENSITY DO NOT
 CORRESPOND TO THE PRINTED ORBITALS.  THE PRINTED EXPANSIONS MATCH
 THE ORBITALS USED DURING THE LAST ITERATION.  IF YOU WISH TO SEE
 CI EXPANSIONS BASED ON THE CANONICAL (OR NATURAL) ORBITALS, YOU
 MUST RUN A CI CALCULATION WITH THAT ORBITAL CHOICE READ IN $VEC.

 STATE #    1  ENERGY =     -56.255689502

      CSF      COEF    OCCUPANCY (IGNORING CORE)
      ---      ----    --------- --------- -----
        1    0.985013  2222000
        4   -0.059513  2122001
       13   -0.051147  2022002
       17    0.064207  2212010
       31    0.061490  2112011
       60   -0.067444  2202020

 STATE #    2  ENERGY =     -56.037209393

      CSF      COEF    OCCUPANCY (IGNORING CORE)
      ---      ----    --------- --------- -----
      106    0.981955  2221100
      118    0.059582  2121101
      135    0.054409  2021102
      163   -0.053860  2111111
      192   -0.065198  2211110
      247    0.070846  2201120

 DENSITY MATRIX OVER ACTIVE MO-S

             1           2           3           4           5

    1    1.9930896
    2   -0.0060925   1.9818774
    3   -0.0001458   0.0001536   1.9753722
    4   -0.0191410  -0.0011531  -0.0000211   1.4995046
    5   -0.0120743   0.0052347   0.0001250  -0.0148855   0.5024541
    6    0.0000034  -0.0000465   0.0020074  -0.0000035   0.0000208
    7    0.0008937   0.0018816   0.0000429  -0.0045106   0.0110708

             6           7

    6    0.0253917
    7   -0.0000014   0.0223106

 FORMING THE "STANDARD FOCK OPERATOR" USING INTEGRALS FROM DISK...
     1 FILLED,    7 ACTIVE, AND   94 VIRTUAL ORBITALS  WILL BE CANONICALIZED

          ----------------------
          MCSCF NATURAL ORBITALS
          ----------------------

                      1          2          3          4          5
                  -15.6380     1.9965     1.9794     1.9754     1.4990
                     A          A          A          A          A   
    1  N  1  S    0.559176  -0.087834  -0.040102  -0.000008  -0.040670
    2  N  1  S    0.472683  -0.166360  -0.072945  -0.000015  -0.074579
    3  N  1  X    0.000745  -0.020569   0.101730   0.175666  -0.107899
    4  N  1  Y    0.000943  -0.026115   0.129092  -0.138544  -0.136644
    5  N  1  Z    0.000243  -0.090963   0.125788   0.000116   0.186527
    6  N  1  S   -0.009310   0.452198   0.194634   0.000033   0.206370
    7  N  1  X   -0.000502  -0.031374   0.153014   0.265097  -0.161748
    8  N  1  Y   -0.000635  -0.039828   0.194169  -0.209077  -0.204843
    9  N  1  Z    0.003286  -0.136507   0.190489   0.000179   0.280142
   10  N  1  S   -0.007651   0.364018   0.143393  -0.000044   0.280034
   11  N  1  X    0.000660  -0.031847   0.106443   0.188915  -0.165095
   12  N  1  Y    0.000834  -0.040360   0.135050  -0.148980  -0.209086
   13  N  1  Z    0.000647  -0.088099   0.145899   0.000160   0.289654
   14  N  1 XX    0.001681  -0.009625  -0.002016   0.003312  -0.003278
   15  N  1 YY    0.001684  -0.009687  -0.002249  -0.003313  -0.003335
   16  N  1 ZZ    0.001661  -0.007991  -0.007167  -0.000004  -0.003492
   17  N  1 XY    0.000006  -0.000150  -0.000574   0.000911  -0.000137
   18  N  1 XZ   -0.000018   0.000778  -0.000514  -0.000147   0.000131
   19  N  1 YZ   -0.000023   0.000987  -0.000653   0.000115   0.000165
   20  N  1 XX    0.003291  -0.031278   0.000936   0.023711  -0.009543
   21  N  1 YY    0.003248  -0.031274  -0.000622  -0.023702  -0.010289
   22  N  1 ZZ    0.002967  -0.017643  -0.035624  -0.000026  -0.012453
   23  N  1 XY   -0.000105  -0.000002  -0.003832   0.006519  -0.001793
   24  N  1 XZ    0.000094   0.004197  -0.004793  -0.001683   0.002263
   25  N  1 YZ    0.000120   0.005328  -0.006086   0.001320   0.002860
   26  N  1 XX    0.001747  -0.046709  -0.006547   0.019457  -0.032202
   27  N  1 YY    0.001741  -0.047037  -0.004688  -0.019435  -0.035058
   28  N  1 ZZ    0.001521  -0.031143  -0.039648  -0.000027  -0.042827
   29  N  1 XY   -0.000014  -0.000801   0.004465   0.005352  -0.006936
   30  N  1 XZ    0.000027   0.000398  -0.004135  -0.008123   0.009779
   31  N  1 YZ    0.000034   0.000509  -0.005259   0.006411   0.012388
   32  N  1 XXX   0.000890  -0.000335   0.002872   0.004557  -0.002973
   33  N  1 YYY   0.000965  -0.000729   0.002017  -0.004401  -0.003548
   34  N  1 ZZZ  -0.001116  -0.001828   0.003887   0.000007   0.004494
   35  N  1 XXY   0.000264  -0.000646  -0.000779   0.000302  -0.001357
   36  N  1 XXZ  -0.000375   0.000748   0.000221   0.000232   0.002023
   37  N  1 YYX   0.000038  -0.000841  -0.002332   0.000983  -0.000837
   38  N  1 YYZ  -0.000394   0.000537   0.000488  -0.000230   0.001808
   39  N  1 ZZX   0.000082  -0.001962   0.000781  -0.001246  -0.000552
   40  N  1 ZZY   0.000103  -0.002487   0.000992   0.000988  -0.000697
   41  N  1 XYZ  -0.000047  -0.000504   0.000637   0.000065  -0.000521
   42  N  1  S    0.000233   0.014017   0.009601  -0.000037  -0.055593
   43  N  1  X    0.000068   0.000362   0.001217   0.001562  -0.027663
   44  N  1  Y    0.000085   0.000465   0.001535  -0.001231  -0.035021
   45  N  1  Z   -0.000101  -0.001954   0.001544   0.000011   0.049217
   46  H  2  S   -0.001112   0.050742   0.113443   0.146000  -0.046509
   47  H  2  S   -0.001557   0.046231   0.125827   0.166495  -0.051102
   48  H  2  S   -0.000674  -0.000960   0.039888   0.062651   0.029953
   49  H  2  X    0.000004  -0.002454  -0.003117  -0.003346   0.000319
   50  H  2  Y    0.000004  -0.000247   0.000986  -0.000924  -0.001182
   51  H  2  Z    0.000006  -0.000605   0.000883  -0.000118   0.001621
   52  H  2  X    0.000878  -0.017139  -0.015780  -0.014213   0.005514
   53  H  2  Y    0.000014  -0.001576   0.008084  -0.007492  -0.009710
   54  H  2  Z    0.000076  -0.005541   0.006989  -0.000786   0.013423
   55  H  2  X    0.000248  -0.004396  -0.006624  -0.006955  -0.007402
   56  H  2  Y   -0.000021  -0.000043  -0.000172   0.001872   0.000644
   57  H  2  Z    0.000013   0.001213  -0.001282  -0.000733  -0.001413
   58  H  2 XX   -0.000401   0.005831   0.005110   0.004472  -0.003070
   59  H  2 YY   -0.000040  -0.000198   0.002662   0.003420  -0.002676
   60  H  2 ZZ   -0.000042   0.000068   0.001790   0.003829  -0.002536
   61  H  2 XY   -0.000007   0.000369  -0.002338   0.002079   0.002408
   62  H  2 XZ   -0.000018   0.001709  -0.001822   0.000379  -0.003355
   63  H  2 YZ   -0.000004   0.000191  -0.000035   0.000170  -0.000325
   64  H  2  S   -0.000022  -0.000424   0.003340   0.011841   0.007158
   65  H  3  S   -0.001112   0.050704   0.113648  -0.145842  -0.046532
   66  H  3  S   -0.001557   0.046187   0.126058  -0.166315  -0.051131
   67  H  3  S   -0.000674  -0.000970   0.039964  -0.062557   0.029945
   68  H  3  X    0.000003   0.000329   0.001681   0.000126  -0.001223
   69  H  3  Y    0.000005  -0.002443  -0.002809   0.003466   0.000037
   70  H  3  Z    0.000006  -0.000605   0.000882   0.000120   0.001621
   71  H  3  X   -0.000190   0.002440   0.011515   0.004013  -0.010724
   72  H  3  Y    0.000858  -0.017025  -0.013505   0.015544   0.003111
   73  H  3  Z    0.000076  -0.005538   0.006986   0.000796   0.013419
   74  H  3  X   -0.000078   0.000975   0.001375  -0.003430   0.002338
   75  H  3  Y    0.000237  -0.004279  -0.006499   0.006318  -0.007058
   76  H  3  Z    0.000013   0.001213  -0.001282   0.000724  -0.001425
   77  H  3 XX   -0.000056  -0.000019   0.003710  -0.002658  -0.003638
   78  H  3 YY   -0.000385   0.005646   0.004076  -0.005220  -0.002107
   79  H  3 ZZ   -0.000042   0.000067   0.001795  -0.003824  -0.002536
   80  H  3 XY    0.000088  -0.001240  -0.002722  -0.001586   0.002252
   81  H  3 XZ    0.000000  -0.000211   0.000388  -0.000076   0.000461
   82  H  3 YZ   -0.000018   0.001705  -0.001780  -0.000411  -0.003338
   83  H  3  S   -0.000022  -0.000429   0.003353  -0.011829   0.007151
   84  H  4  S   -0.002334   0.149071  -0.118058  -0.000074  -0.048036
   85  H  4  S   -0.002894   0.154281  -0.133451  -0.000082  -0.052177
   86  H  4  S   -0.001185   0.039900  -0.058475  -0.000028   0.031024
   87  H  4  X   -0.000007   0.001130  -0.000193   0.001281  -0.001234
   88  H  4  Y   -0.000009   0.001435  -0.000245  -0.001011  -0.001563
   89  H  4  Z   -0.000031   0.004439  -0.002359  -0.000001   0.000414
   90  H  4  X   -0.000246   0.007020   0.001186   0.010355  -0.011170
   91  H  4  Y   -0.000312   0.008906   0.001505  -0.008164  -0.014149
   92  H  4  Z   -0.000939   0.026332  -0.009846   0.000005   0.000535
   93  H  4  X   -0.000094   0.002339  -0.002164  -0.001365   0.002487
   94  H  4  Y   -0.000120   0.002964  -0.002738   0.001082   0.003173
   95  H  4  Z   -0.000282   0.009266  -0.004167   0.000005   0.005398
   96  H  4 XX   -0.000095   0.003127  -0.003253   0.001641  -0.003806
   97  H  4 YY   -0.000106   0.003341  -0.003004  -0.001645  -0.004299
   98  H  4 ZZ   -0.000391   0.008168  -0.003595   0.000003  -0.000591
   99  H  4 XY   -0.000025   0.000517   0.000595   0.000455  -0.001190
  100  H  4 XZ   -0.000093   0.001933   0.000904   0.002594  -0.002093
  101  H  4 YZ   -0.000118   0.002451   0.001147  -0.002042  -0.002650
  102  H  4  S   -0.000162   0.009378  -0.016316  -0.000010   0.009630

                      6          7          8
                    0.5024     0.0254     0.0220
                     A          A          A   
    1  N  1  S   -0.039137  -0.000018  -0.040442
    2  N  1  S   -0.072831  -0.000039  -0.086462
    3  N  1  X    0.016335   0.294601   0.197342
    4  N  1  Y    0.020655  -0.232266   0.250491
    5  N  1  Z   -0.038719   0.000214   0.175273
    6  N  1  S    0.218804   0.000183   0.439981
    7  N  1  X    0.026689   0.564413   0.377840
    8  N  1  Y    0.033749  -0.445013   0.479648
    9  N  1  Z   -0.062307   0.000399   0.340887
   10  N  1  S    0.543210   0.000220   0.163855
   11  N  1  X    0.051103   0.065095   0.003330
   12  N  1  Y    0.064618  -0.051410   0.004284
   13  N  1  Z   -0.106376  -0.000087  -0.076479
   14  N  1 XX   -0.003399   0.002091  -0.006134
   15  N  1 YY   -0.003529  -0.002107  -0.007734
   16  N  1 ZZ   -0.003862   0.000005  -0.004359
   17  N  1 XY   -0.000314   0.000580  -0.003910
   18  N  1 XZ    0.000412   0.007598   0.005007
   19  N  1 YZ    0.000521  -0.005991   0.006358
   20  N  1 XX   -0.009573   0.000619  -0.039615
   21  N  1 YY   -0.010165  -0.000710  -0.052395
   22  N  1 ZZ   -0.011357   0.000046  -0.005188
   23  N  1 XY   -0.001421   0.000185  -0.031100
   24  N  1 XZ    0.001907   0.047722   0.022671
   25  N  1 YZ    0.002416  -0.037646   0.028807
   26  N  1 XX   -0.023724   0.002838   0.004311
   27  N  1 YY   -0.022451  -0.002870  -0.015313
   28  N  1 ZZ   -0.019876   0.000073   0.054326
   29  N  1 XY    0.003104   0.000750  -0.047570
   30  N  1 XZ   -0.005974   0.034793   0.006625
   31  N  1 YZ   -0.007553  -0.027472   0.008471
   32  N  1 XXX   0.001648  -0.056910  -0.043572
   33  N  1 YYY   0.001425   0.044081  -0.059006
   34  N  1 ZZZ  -0.001643  -0.000050  -0.047187
   35  N  1 XXY  -0.000046   0.021910  -0.030230
   36  N  1 XXZ  -0.000186   0.006787  -0.010880
   37  N  1 YYX  -0.000736  -0.026471  -0.027761
   38  N  1 YYZ  -0.000034  -0.006811  -0.011126
   39  N  1 ZZX  -0.001122  -0.033906  -0.021033
   40  N  1 ZZY  -0.001422   0.026741  -0.026716
   41  N  1 XYZ   0.000370   0.001870  -0.000621
   42  N  1  S    0.926227   0.000006  -0.068437
   43  N  1  X    0.047668  -0.016997  -0.013901
   44  N  1  Y    0.060327   0.013390  -0.017628
   45  N  1  Z   -0.082809  -0.000040  -0.019949
   46  H  2  S   -0.014686  -0.205796  -0.183246
   47  H  2  S   -0.067998  -0.470369  -0.386672
   48  H  2  S   -0.285876  -0.221285  -0.142335
   49  H  2  X   -0.002419  -0.004631  -0.003216
   50  H  2  Y    0.000203  -0.000500  -0.000333
   51  H  2  Z   -0.000278   0.000671   0.000370
   52  H  2  X   -0.011166  -0.006111  -0.008041
   53  H  2  Y    0.001141  -0.001453  -0.020583
   54  H  2  Z   -0.001934   0.011435  -0.001707
   55  H  2  X   -0.006942   0.043847   0.049776
   56  H  2  Y    0.000981   0.005732  -0.008857
   57  H  2  Z    0.003411   0.001364  -0.000957
   58  H  2 XX    0.001149   0.006074   0.009116
   59  H  2 YY   -0.000224  -0.005606  -0.008668
   60  H  2 ZZ   -0.000172  -0.005601  -0.003208
   61  H  2 XY   -0.000383   0.001940   0.004481
   62  H  2 XZ    0.000691  -0.003040  -0.000287
   63  H  2 YZ   -0.000152  -0.001793  -0.000936
   64  H  2  S   -0.432566   0.024863   0.094305
   65  H  3  S   -0.014701   0.205498  -0.183621
   66  H  3  S   -0.068005   0.469707  -0.387470
   67  H  3  S   -0.285905   0.220974  -0.142676
   68  H  3  X    0.000758  -0.000586   0.000423
   69  H  3  Y   -0.002305   0.004615  -0.003216
   70  H  3  Z   -0.000279  -0.000671   0.000372
   71  H  3  X    0.003697  -0.000028  -0.018158
   72  H  3  Y   -0.010594   0.006251  -0.012591
   73  H  3  Z   -0.001936  -0.011442  -0.001673
   74  H  3  X    0.002545   0.004546  -0.020157
   75  H  3  Y   -0.006514  -0.043910   0.046447
   76  H  3  Z    0.003391  -0.001366  -0.000941
   77  H  3 XX   -0.000001   0.005723  -0.009477
   78  H  3 YY    0.000925  -0.006184   0.009914
   79  H  3 ZZ   -0.000172   0.005599  -0.003224
   80  H  3 XY   -0.000699   0.001306  -0.000632
   81  H  3 XZ   -0.000308   0.001037  -0.000846
   82  H  3 YZ    0.000637   0.003372  -0.000506
   83  H  3  S   -0.432409  -0.024707   0.094303
   84  H  4  S   -0.013187   0.000118   0.106889
   85  H  4  S   -0.070137   0.000215   0.204785
   86  H  4  S   -0.320071   0.000144   0.155327
   87  H  4  X    0.000797   0.000260  -0.000986
   88  H  4  Y    0.001011  -0.000206  -0.001251
   89  H  4  Z    0.002339  -0.000003  -0.005389
   90  H  4  X    0.004115  -0.004016   0.001211
   91  H  4  Y    0.005221   0.003169   0.001509
   92  H  4  Z    0.010395  -0.000008  -0.015858
   93  H  4  X    0.001107  -0.007023  -0.007652
   94  H  4  Y    0.001446   0.005522  -0.009728
   95  H  4  Z    0.011566  -0.000013  -0.012408
   96  H  4 XX    0.000253  -0.000399   0.006366
   97  H  4 YY    0.000448   0.000405   0.006135
   98  H  4 ZZ    0.000540   0.000001  -0.003311
   99  H  4 XY    0.000470  -0.000109  -0.000549
  100  H  4 XZ    0.000512   0.001699   0.000613
  101  H  4 YZ    0.000649  -0.001339   0.000767
  102  H  4  S   -0.513502   0.000049   0.077377

          ------------------------
          MCSCF OPTIMIZED ORBITALS
          ------------------------

                      1          2          3          4          5
                  -15.6380    -1.2269    -0.6999    -0.6977    -0.4159
                     A          A          A          A          A   
    1  N  1  S    0.559176  -0.098291  -0.003078  -0.000062  -0.037619
    2  N  1  S    0.472683  -0.184897  -0.003042  -0.000052  -0.068863
    3  N  1  X    0.000745   0.016141   0.097086   0.177687  -0.108084
    4  N  1  Y    0.000943   0.020415   0.131671  -0.135255  -0.136882
    5  N  1  Z    0.000243  -0.028668   0.151639   0.003679   0.187183
    6  N  1  S   -0.009310   0.501376   0.004663   0.000051   0.191788
    7  N  1  X   -0.000502   0.023869   0.146101   0.268015  -0.161752
    8  N  1  Y   -0.000635   0.030192   0.198173  -0.204030  -0.204852
    9  N  1  Z    0.003286  -0.042429   0.229094   0.005561   0.281251
   10  N  1  S   -0.007651   0.406000  -0.009275  -0.000337   0.273468
   11  N  1  X    0.000660   0.005765   0.105342   0.191372  -0.164945
   12  N  1  Y    0.000834   0.007298   0.142754  -0.145618  -0.208904
   13  N  1  Z    0.000647  -0.014738   0.169863   0.004148   0.288031
   14  N  1 XX    0.001681  -0.009801   0.001781   0.003354  -0.002978
   15  N  1 YY    0.001684  -0.009951   0.001747  -0.003269  -0.003035
   16  N  1 ZZ    0.001661  -0.010292  -0.003523  -0.000084  -0.003159
   17  N  1 XY    0.000006  -0.000365  -0.000488   0.000899  -0.000137
   18  N  1 XZ   -0.000018   0.000525  -0.000776  -0.000173   0.000134
   19  N  1 YZ   -0.000023   0.000666  -0.000993   0.000098   0.000168
   20  N  1 XX    0.003291  -0.028896   0.012406   0.024013  -0.008733
   21  N  1 YY    0.003248  -0.029527   0.012091  -0.023418  -0.009497
   22  N  1 ZZ    0.002967  -0.030559  -0.026050  -0.000631  -0.011396
   23  N  1 XY   -0.000105  -0.001539  -0.003659   0.006435  -0.001833
   24  N  1 XZ    0.000094   0.002112  -0.006018  -0.001874   0.002294
   25  N  1 YZ    0.000120   0.002681  -0.007725   0.001177   0.002900
   26  N  1 XX    0.001747  -0.047017   0.011493   0.019738  -0.030801
   27  N  1 YY    0.001741  -0.046699   0.014251  -0.019094  -0.033713
   28  N  1 ZZ    0.001521  -0.045826  -0.024674  -0.000598  -0.041170
   29  N  1 XY   -0.000014   0.000769   0.004313   0.005453  -0.007068
   30  N  1 XZ    0.000027  -0.000905  -0.003732  -0.008249   0.009758
   31  N  1 YZ    0.000034  -0.001148  -0.005141   0.006321   0.012362
   32  N  1 XXX   0.000890   0.000723   0.002694   0.004680  -0.003107
   33  N  1 YYY   0.000965   0.000013   0.002284  -0.004394  -0.003700
   34  N  1 ZZZ  -0.001116  -0.000002   0.004352   0.000109   0.004326
[...]
   1=  0.500000   2=  0.500000
 THE SYMMETRY OF EACH ORBITAL IS
    1= 1,A       2= 1,A       3= 1,A       4= 1,A       5= 1,A       6= 1,A   
    7= 1,A       8= 1,A       9= 1,A      10= 1,A      11= 1,A      12= 1,A   
   13= 1,A      14= 1,A      15= 1,A      16= 1,A      17= 1,A      18= 1,A   
   19= 1,A      20= 1,A      21= 1,A      22= 1,A      23= 1,A      24= 1,A   
   25= 1,A      26= 1,A      27= 1,A      28= 1,A      29= 1,A      30= 1,A   
   31= 1,A      32= 1,A      33= 1,A      34= 1,A      35= 1,A      36= 1,A   
   37= 1,A      38= 1,A      39= 1,A      40= 1,A      41= 1,A      42= 1,A   
   43= 1,A      44= 1,A      45= 1,A      46= 1,A      47= 1,A      48= 1,A   
   49= 1,A      50= 1,A      51= 1,A      52= 1,A      53= 1,A      54= 1,A   
   55= 1,A      56= 1,A      57= 1,A      58= 1,A      59= 1,A      60= 1,A   
   61= 1,A      62= 1,A      63= 1,A      64= 1,A      65= 1,A      66= 1,A   
   67= 1,A      68= 1,A      69= 1,A      70= 1,A      71= 1,A      72= 1,A   
   73= 1,A      74= 1,A      75= 1,A      76= 1,A      77= 1,A      78= 1,A   
   79= 1,A      80= 1,A      81= 1,A      82= 1,A      83= 1,A      84= 1,A   
   85= 1,A      86= 1,A      87= 1,A      88= 1,A      89= 1,A      90= 1,A   
   91= 1,A      92= 1,A      93= 1,A      94= 1,A      95= 1,A      96= 1,A   
   97= 1,A      98= 1,A      99= 1,A     100= 1,A     101= 1,A     102= 1,A   
 THE CORRELATED ORBITALS RUN FROM     2 TO     8
 THE     ACTIVE ORBITALS RUN FROM     2 TO     8

 THE RESULTS OF REARRANGING THE ORBITALS BY SYMMETRY TYPE ARE
 SYM.       1       2       3       4       5       6       7       8
 -----------------------------------------------------------------------
 FZC /  1-  1/  0-  0/  0-  0/  0-  0/  0-  0/  0-  0/  0-  0/  0-  0/
 DOC /  0-  0/  0-  0/  0-  0/  0-  0/  0-  0/  0-  0/  0-  0/  0-  0/
 ACT /  2-  8/  0-  0/  0-  0/  0-  0/  0-  0/  0-  0/  0-  0/  0-  0/
 EXT /  9-102/  0-  0/  0-  0/  0-  0/  0-  0/  0-  0/  0-  0/  0-  0/
 -----------------------------------------------------------------------
 NUMBER OF SPACE ORBITAL PRODUCTS      =       357
 MAXIMUM NUMBER OF SPIN FUNCTIONS      =         5
 TOTAL NUMBER OF CSFS (ALL SYMMETRIES) =       490
 EVALUATING ONE-PARTICLE COUPLING CONSTANTS FOR CAS-CI...
 CAS-CI COUPLING CONSTANTS TOOK     0.0 SECONDS.
 EVALUATING ONE-PARTICLE COUPLING CONSTANTS FOR PT...
 PT COUPLING CONSTANTS TOOK     0.0 SECONDS.
 TOTAL NUMBER OF SYMMETRY ADAPTED CSFS =       490
 CPU TIME TO SET UP SYMMETRY, GENERATE CSFS, AND COUPLING CONSTANTS=      0.02

 TRANSFORMING INTEGRALS OVER ALL CANONICAL MCSCF ORBITALS.

 SORTING DUPLICATED AO INTEGRAL LIST
 AO INTEGRAL FILE  8 READ     6 TIMES, SORTING TIME=      0.97

 MAXIMUM MEMDDI THAT CAN BE USED IN THE INTEGRAL TRANSFORMATION IS     5 MWORDS
    THE MEMDDI THAT WILL BE USED IN THE INTEGRAL TRANSFORMATION IS     5 MWORDS
 DDI: Creating Array [0] - 5253 x 788 = 4139364 words.
 TIME FOR FIRST TWO INDEX TRANSFORM=      9.36
 TIME FOR  LAST TWO INDEX TRANSFORM=      0.75
 CPU TIME TO TRANSFORM INTEGRALS=     11.12

 SOLVING FOR CAS-CI STATE FUNCTIONS IN CANONICAL ORBITAL BASIS

 ##########################
 ###   CAS-CI RESULTS   ###
 ##########################
 CAS-CI STATES CONVERGED, COUPLING COEFFICIENT FILE 51 WAS READ  13 TIMES.

 STATE #    1  ENERGY =     -56.255689548

      CSF      COEF    OCCUPANCY (IGNORING CORE)
      ---      ----    --------- --------- -----
        1   -0.972808  2222000
        2   -0.137082  222+-00
        4   -0.085077  222+00-
       12   -0.067894  22+20-0
       34    0.066264  2202020
       53    0.060591  2+2200-
       77   -0.055804  2+-20+-

 STATE #    2  ENERGY =     -56.037209347

      CSF      COEF    OCCUPANCY (IGNORING CORE)
      ---      ----    --------- --------- -----
        1   -0.129084  2222000
        2    0.939692  222+-00
        5    0.066656  2220200
       15   -0.056843  22+-+-0
       39   -0.068040  220+-20
       86    0.054238  2+-+-+-
      176   -0.242034  +222-00
 CPU TIME TO GENERATE REFERENCE CI STATES =      0.04

 *** ONE PARTICLE DENSITY MATRIX OVER CANONICAL ORBITALS ***
                   1            2            3            4            5
     1  1.960799E+00
     2 -2.121494E-03 1.983302E+00
     3 -1.203332E-04 1.779363E-04 1.975375E+00
     4 -1.194588E-01 2.279788E-02 1.213016E-07 1.522854E+00
     5  2.614414E-03-9.541879E-04 1.231615E-04 5.997233E-02 5.059442E-01
     6 -5.980759E-06-4.622386E-05 3.588759E-05-5.832510E-06 1.955724E-05
     7  7.759301E-05 5.590512E-06 3.868281E-05 8.006620E-02 2.405772E-03
                   6            7
     6  2.538951E-02
     7 -2.626713E-06 2.633693E-02

 *** ORBITAL ENERGIES OF THE CANONICAL ORBITALS ***
 DOUBLY OCCUPIED ORBITALS:
   -1.563797E+01
 ACTIVE ORBITALS:
   -1.174236E+00  -7.144867E-01  -6.977137E-01  -4.479967E-01   6.391935E-03
    6.175648E-01   6.407794E-01
 VIRTUAL ORBITALS:
    7.910321E-02   7.994759E-02   1.397777E-01   1.777330E-01   1.870121E-01
    1.873442E-01   2.811548E-01   3.791903E-01   3.805783E-01   3.969538E-01
    4.017511E-01   4.935421E-01   5.829428E-01   6.068981E-01   6.311293E-01
    6.347903E-01   6.965760E-01   8.002977E-01   8.006877E-01   8.092819E-01
    8.454018E-01   8.593655E-01   9.350998E-01   9.389672E-01   1.102086E+00
    1.148706E+00   1.148867E+00   1.242907E+00   1.885557E+00   1.979060E+00
    1.979821E+00   2.039068E+00   2.066616E+00   2.152317E+00   2.155611E+00
    2.223065E+00   2.225682E+00   2.580239E+00   2.754933E+00   2.784216E+00
    2.785089E+00   2.998574E+00   3.007068E+00   3.041138E+00   3.206053E+00
    3.216800E+00   3.216966E+00   3.355244E+00   3.400242E+00   3.401812E+00
    3.507081E+00   3.507762E+00   3.866892E+00   3.921192E+00   3.921599E+00
    4.137557E+00   4.265737E+00   4.266462E+00   4.671981E+00   4.717826E+00
    4.718279E+00   4.752820E+00   5.054783E+00   5.054931E+00   5.175322E+00
    5.254170E+00   5.494326E+00   5.496030E+00   5.620428E+00   5.621739E+00
    5.675013E+00   5.676736E+00   6.994315E+00   6.994491E+00   8.370588E+00
    8.639316E+00   8.640150E+00   8.778972E+00   8.796803E+00   8.842912E+00
    8.843594E+00   9.578366E+00   9.617940E+00   9.619234E+00   1.141825E+01
    1.141915E+01   1.160160E+01   1.186137E+01   1.186147E+01   1.207495E+01
    1.336525E+01   1.336613E+01   1.424395E+01   4.441152E+01
 CPU TIME TO GENERATE ORBITAL ENERGIES =      0.14

 DISCARDING NEGLIGIBLE GENERATORS
 STEP ONE:  ORIGINAL SPACE PRODUCTS=          357 REDUCED TO          357
 STEP TWO: NUMBER OF SPACE PRODUCTS=          357 REDUCED TO          357
 CONDENSED LABELS MADE FOR           490 CSFS
 CPU TIME TO REDUCE GENERATORS TO MINIMUM =      0.01

 FINISHING SETUP FOR MRMP/MCQDPT CALCULATION.

 THE FROZEN CORE ENERGY IS      -47.8409754593
 MAXIMUM MEMDDI THAT CAN BE USED IN THE PERTURBATION CALCULATION IS     1 MWORDS
    THE MEMDDI THAT WILL BE USED IN THE PERTURBATION CALCULATION IS     1 MWORDS
 DDI: Creating Array [0] - 658 x 658 = 432964 words.
 PREPARING TRANSFORMED INTEGRALS FOR PT...
 TIME FOR FINISHING SETUPS =      0.01

 EVALUATING PERTURBATION THEORY CORRECTIONS TO HAMILTONIAN ELEMENTS.


 EVALUATING MATRIX ELEMENTS BETWEEN STATE   1 AND ALL OTHER STATES.

 TIME FOR 0-BODY FORMULAE =      0.00
 TIME FOR 1-BODY FORMULAE =      0.00
 TIME FOR 2-BODY FORMULAE =      1.90
 TIME FOR 3-BODY FORMULAE =      4.51
 TIME FOR 0-BODY FORMULAE INVOLVING 2 EXTERNAL ORBITALS=      0.00
 TIME FOR 1-BODY FORMULAE INVOLVING 2 EXTERNAL ORBITALS=      0.00
 TIME FOR 2-BODY FORMULAE INVOLVING 2 EXTERNAL ORBITALS=      6.49
 DONE EVALUATING PERTURBATIONS TO STATE   1
 TIME FOR PERTURBATION TREATMENT =     12.90

 EVALUATING MATRIX ELEMENTS BETWEEN STATE   2 AND ALL OTHER STATES.

 TIME FOR 0-BODY FORMULAE =      0.00
 TIME FOR 1-BODY FORMULAE =      0.01
 TIME FOR 2-BODY FORMULAE =      2.18
 TIME FOR 3-BODY FORMULAE =      5.22
 TIME FOR 0-BODY FORMULAE INVOLVING 2 EXTERNAL ORBITALS=      0.00
 TIME FOR 1-BODY FORMULAE INVOLVING 2 EXTERNAL ORBITALS=      0.00
 TIME FOR 2-BODY FORMULAE INVOLVING 2 EXTERNAL ORBITALS=      7.52
 DONE EVALUATING PERTURBATIONS TO STATE   2
 TIME FOR PERTURBATION TREATMENT =     14.93

 MULTICONFIGURATION QUASIDEGENERATE PERTURBATION (MCQDPT) ENERGY FOR   2 STATES

 ###########################
 ###   MCQDPT2 RESULTS   ###
 ###########################

 *** EFFECTIVE HAMILTONIAN (AT SECOND ORDER) ***
                   1            2
     1 -5.646453E+01
     2 -3.530880E-03-5.622136E+01

 *** ZEROTH ORDER ENERGIES ***
   STATE        0TH ORDER
     1      -37.2645130766
     2      -36.7756989831

 *** DIAGONAL ELEMENTS OF EFFECTIVE HAMILTONIAN ***
   STATE                  2ND ORDER
     1   E(MRMP2)=      -56.4645321259
     2   E(MRMP2)=      -56.2213595420
 THE DIAGONAL ELEMENTS ARE ALMOST THE STATE-SPECIFIC E(MRMP2) CORRECTIONS.
 HOWEVER, THEY DIFFER SLIGHTLY BECAUSE OF THE USE OF STATE-AVERAGED,
 RATHER THAN STATE-SPECIFIC CANONICAL ORBITALS.

 *** MCQDPT2 ENERGIES ***
   STATE                       1ST ORDER                       2ND ORDER
     1     E(MCSCF)=      -56.2556895484     E(MP2)=      -56.4645833837
     2     E(MCSCF)=      -56.0372093475     E(MP2)=      -56.2213082842

 THE UNPERTURBED CAS-CI STATE(S) WERE PRINTED ABOVE

 *** PERTURBED MCQDPT STATES ***
 (FROM DIAGONALIZATION OF 2ND ORDER EFFECTIVE HAMILTONIAN)

 THE ROTATION FROM CAS-CI STATES (ROWS) TO QDPT STATES (COLUMNS) IS

             1           2

    1    0.9998946  -0.0145155
    2    0.0145155   0.9998946

 STATE #    1  ENERGY =     -56.464583384

      CSF      COEF    OCCUPANCY (IGNORING CORE)
      ---      ----    --------- --------- -----
        1   -0.974579  2222000
        2   -0.123427  222+-00
        4   -0.085295  222+00-
       12   -0.068021  22+20-0
       34    0.066386  2202020
       53    0.060718  2+2200-
       77   -0.055900  2+-20+-

 STATE #    2  ENERGY =     -56.221308284

      CSF      COEF    OCCUPANCY (IGNORING CORE)
      ---      ----    --------- --------- -----
        1   -0.114950  2222000
        2    0.941583  222+-00
        5    0.066630  2220200
       15   -0.057004  22+-+-0
       39   -0.068182  220+-20
       86    0.054353  2+-+-+-
      176   -0.241965  +222-00
 ...... END OF MC-QDPT2 (MR-MP2) CALCULATION ......

 ..... DONE WITH MP2 ENERGY .....
 STEP CPU TIME =    39.17 TOTAL CPU TIME =       43.4 (    0.7 MIN)
 TOTAL WALL CLOCK TIME=       43.6 SECONDS, CPU UTILIZATION IS  99.61%

    ******************************************
    DETERMINATION OF DIABATIC STATES BASED ON
              MCQDPT WAVE FUNCTIONS
    PROGRAM WRITTEN BY H.NAKAMURA, D.G.TRUHLAR
    ******************************************

     ======= INPUT VALUES OF $DIABAT =======

 PARAMETER FOR SYMMETRY OF DMOS:
     DMOSYM=       T
 PARAMETER FOR REFERENCE GEOMETRY MOS:
     REFMOS=       T (IF TRUE, $DFMVEC INPUT REQUIRED)
 PARAMETER FOR DOMINANT CSF SELECTION
     REFGRP=       T (IF TRUE, $REFCSF AND PERHAPS $REFQD INPUT REQUIRED)
 PARAMETERS FOR ADIABATIC STATE SELECTION:
       NGRST=       0  WITH BLOCK WEIGHTING 0.000 IN 3-FOLD'S NO TERM
      NDIAST=       2  WITH BLOCK WEIGHTING 1.000 IN 3-FOLD'S NO TERM
       NEXST=       0  WITH BLOCK WEIGHTING 0.000 IN 3-FOLD'S NO TERM
          NOTE: MCSCF FOUND   2 STATES OF DESIRED SPIN.
          NOTE: MCSCF WEIGHTED THE FIRST   2 STATES.
 PARAMETERS FOR 3-FOLD WAY'S D3 FUNCTION
      SA-NO TERM       SS-ON TERM        TDM TERM
     ALPHAN=  2.00    ALPHAR=  1.00    ALPHAT=  0.50
 PARAMETERS FOR 3-FOLD-WAY OR 4-FOLD-WAY ITERS:
      MAXIT=     200
     CONVTH= 1.00E-06
 REFERENCE STATE SELECTION THRESHOLD
     SLCTTH=0.200

     PARAMETERS FOR FINE TUNING THE 4-FOLD WAY:

 NUMBER OF RESOLUTION MOS
      NDLAP=       0 (PRE-4-FOLD WAY STEP, USING $DPSVEC)
      NMLAP=       1  (FOUR-FOLD WAY STEP, USING $DIAVEC)
     ORIENT=       F (IF TRUE, PROVIDE $LCLDC IF NDLAP>0, $LCLVL IF NMLAP>0)
 IN CASE PRE-FOUR-FOLD WAY IS USED (NDLAP>0),
 ELECTRON OCCUPANCY THRESHOLDS TO SEPARATE FIL/DIF/VIR ACTIVE SPACE RESOLUTION
     > THDOC= 1.800  WILL BE "DOC" PART OF ACTIVE SPACE (IF PRE-4-FOLD)
     < THVIR= 0.200  WILL BE "VIR" PART OF ACTIVE SPACE (IF 4-FOLD)
       BETWEEN THESE IS THE "VAL" PART OF ACTIVE SPACE.
 ACTIVE SPACE CHARACTERIZATION FOR THE FOUR-FOLD WAY: (KEYWORD MOSLAB)
         1    1    1    1    1    1    1

 ORBITAL AND STATE SIZES FOR DIABATIZATION:
 NUMBER OF    FILLED ORBITALS=    1
 NUMBER OF    ACTIVE ORBITALS=    7 (THESE WILL BE TURNED INTO DMOS)
 NUMBER OF MOLECULAR ORBITALS=  102
 NUMBER OF    ATOMIC ORBITALS=  102
 NUMBER OF ELECTRONIC STATES OF CORRECT SPIN:  2
 NUMBER OF STATES USED DURING DMO GENERATION:  2
 NUMBER OF STATES TO BE DIABATIZED:            2

   BEGINNING DIABATIZATION OF THE MCQDPT ADIABATIC "STATES",
       PREPARED BY ROTATING THE DMO-BASED CAS-CI STATES
             BY THE QDPT 2ND ORDER STATE ROTATION.


 READING MCSCF-LEVEL DOMINANT CSF INFORMATION FROM THE $REFCSF INPUT GROUP.
 TOTAL NO. OF IMPORTANT CSF'S IN ALL STATES=    6
 CSF       1 IS DOMINANT IN STATE    2
 CSF     108 IS DOMINANT IN STATE    2
 CSF     323 IS DOMINANT IN STATE    2
 CSF     106 IS DOMINANT IN STATE    1
 CSF     318 IS DOMINANT IN STATE    1
 CSF     107 IS DOMINANT IN STATE    1

 READING MCQDPT-LEVEL DOMINANT CSF INFORMATION FROM THE $REFQD INPUT GROUP.
 UNABLE TO FIND MCQDPT-LEVEL DOMINANT CSF INFO IN THE $REFQD GROUP,
 THEREFORE, WILL USE MCSCF-LEVEL $REFCSF INPUT AS THE $REFQD INPUT.
 TOTAL NO. OF IMPORTANT CSF'S IN ALL STATES=    6
 CSF       1 IS DOMINANT IN STATE    2
 CSF     108 IS DOMINANT IN STATE    2
 CSF     323 IS DOMINANT IN STATE    2
 CSF     106 IS DOMINANT IN STATE    1
 CSF     318 IS DOMINANT IN STATE    1
 CSF     107 IS DOMINANT IN STATE    1
 ADJUSTING PHASE OF CAS-CI STATE   1 TO MATCH MCQDPT STATE'S PHASE
 THE PHASE-ADJUSTED ROTATION FROM CAS-CI TO MCQDPT STATES IS

             1           2

    1   -0.9998946   0.0145155
    2    0.0145155   0.9998946

 ---------------------------------------------------
 CSF EXPANSION BASED ON DMO'S AS THE ACTIVE ORBITALS
 ---------------------------------------------------
 PRINTING ALL CI COEFFICIENTS LARGER THAN SLCTTH=   2.0E-01,
 EVEN IF THEY AREN'T IN THE DOMINANT CSF INPUT.

 ADIABATIC STATE #    1  ENERGY =     -56.464583384
      CSF    COEFFICIENT    OCCUPANCY
      ---    -----------    ---------
        1      -0.974579    2222000

 ADIABATIC STATE #    2  ENERGY =     -56.221308284
      CSF    COEFFICIENT    OCCUPANCY
      ---    -----------    ---------
      106       0.941583    2221100
      109      -0.241965    1222100

 -------------------------------------------------
 CI COEFS OF DOMINANT CSFS IN MCQDPT PSEUDO-STATES
 -------------------------------------------------
 ONLY CONFIGURATIONS ENTERED IN $REFCSF WILL BE PRINTED BELOW.
 IF THE TOTAL WEIGHT OF THE DOMINANT CSF LIST IN ANY ADIABATIC STATE IS SMALL,
 THE LIST OF DOMINANT CSF'S GIVEN IN THE INPUT SHOULD BE RECONSIDERED.

 ADIABATIC STATE #    1 ENERGY =     -56.464583384
      CSF   GROUP #   COEFFICIENT
        1       2      -0.974579
      108       2      -0.003659
      323       2       0.008027
      106       1      -0.123427
      318       1       0.001334
      107       1       0.000188
 TOTAL WEIGHT OF ALL DOMINANT CSFS IN THIS STATE IS 96.5%

 ADIABATIC STATE #    2 ENERGY =     -56.221308284
      CSF   GROUP #   COEFFICIENT
        1       2      -0.114950
      108       2      -0.037758
      323       2       0.007100
      106       1       0.941583
      318       1      -0.011671
      107       1      -0.000171
 TOTAL WEIGHT OF ALL DOMINANT CSFS IN THIS STATE IS 90.1%


 -------------------------------------------
   - DIABATIC HAMILTONIAN MATRIX ELEMENTS - 
 -------------------------------------------
                                            
 --- DIABATIC ENERGIES (DIAGONAL ELEMENT) ---
 STATE #  1'S MCQDPT-LEVEL DIABATIC ENERGY=     -56.225027625
 STATE #  2'S MCQDPT-LEVEL DIABATIC ENERGY=     -56.460864043

 --- DIABATIC COUPLINGS (OFF DIAGONAL ELEMENTS)---
 STATE #  1 &  2'S MCQDPT-LEVEL COUPLING  =      -0.029849448

 ---------------------------------------
          - DIABATIC STATES -           
 ---------------------------------------
 STATE #  1
 ----------
    <CSF>      <COEFFICIENT>
      106        -0.949619
      318         0.011747
      107         0.000192
 STATE #  2
 ----------
    <CSF>      <COEFFICIENT>
        1        -0.981313
      108        -0.008300
      323         0.008843

 ---------------------------------------
     - ROTATION TO DIABATIC STATES -    
 ---------------------------------------
 ROWS=ADIABATIC, COLUMNS=DIABATIC STATES

             1           2

    1    0.1236472   0.9923262
    2   -0.9923262   0.1236472

 THIS RUN CANNOT OUTPUT $REFQD DATA FOR MCQDPT-LEVEL STATES
 AS IT WAS FORCED TO WORK WITH THE APPROXIMATION THAT $REFCSF DATA
 SHOULD BE USED IN THE MCQDPT DIABATIZATION, TOO.

 ..... FINISHED WITH MCQDPT DIABATIZATION .....
 STEP CPU TIME =     0.02 TOTAL CPU TIME =       43.5 (    0.7 MIN)
 TOTAL WALL CLOCK TIME=       43.6 SECONDS, CPU UTILIZATION IS  99.61%
              4998931  WORDS OF DYNAMIC MEMORY USED
 EXECUTION OF GAMESS TERMINATED NORMALLY Fri Jun  2 03:44:26 2017
 DDI: 33378552 bytes (31.8 MB / 3 MWords) used by master data server.

 ----------------------------------------
 CPU timing information for all processes
 ========================================
 0: 42.886 + 0.580 = 43.467
 ----------------------------------------
 ddikick.x: exited gracefully.
unset echo
----- accounting info -----
Files used on the master node compute-0-8.local were:
-rw-rw-r-- 1 sarom sarom    188272 Jun  2 03:43 /scratch/mc-diab-nh3.F05
-rw-rw-r-- 1 sarom sarom 121510800 Jun  2 03:43 /scratch/mc-diab-nh3.F08
-rw-rw-r-- 1 sarom sarom    222048 Jun  2 03:43 /scratch/mc-diab-nh3.F09
-rw-rw-r-- 1 sarom sarom   3010240 Jun  2 03:44 /scratch/mc-diab-nh3.F10
-rw-rw-r-- 1 sarom sarom    283496 Jun  2 03:44 /scratch/mc-diab-nh3.F11
-rw-rw-r-- 1 sarom sarom      8040 Jun  2 03:43 /scratch/mc-diab-nh3.F12
-rw-rw-r-- 1 sarom sarom   1471568 Jun  2 03:44 /scratch/mc-diab-nh3.F13
-rw-rw-r-- 1 sarom sarom    400008 Jun  2 03:43 /scratch/mc-diab-nh3.F14
-rw-rw-r-- 1 sarom sarom    164144 Jun  2 03:43 /scratch/mc-diab-nh3.F15
-rw-rw-r-- 1 sarom sarom   1200296 Jun  2 03:43 /scratch/mc-diab-nh3.F16
-rw-rw-r-- 1 sarom sarom      7856 Jun  2 03:44 /scratch/mc-diab-nh3.F21
-rw-rw-r-- 1 sarom sarom     54720 Jun  2 03:44 /scratch/mc-diab-nh3.F23
-rw-rw-r-- 1 sarom sarom    564696 Jun  2 03:44 /scratch/mc-diab-nh3.F50
-rw-rw-r-- 1 sarom sarom    274120 Jun  2 03:43 /scratch/mc-diab-nh3.F51
-rw-rw-r-- 1 sarom sarom    351896 Jun  2 03:43 /scratch/mc-diab-nh3.F52
-rw-rw-r-- 1 sarom sarom    351896 Jun  2 03:43 /scratch/mc-diab-nh3.F53
-rw-rw-r-- 1 sarom sarom    351896 Jun  2 03:44 /scratch/mc-diab-nh3.F54
-rw-rw-r-- 1 sarom sarom 202617616 Jun  2 03:43 /scratch/mc-diab-nh3.F55
-rw-rw-r-- 1 sarom sarom         0 Jun  2 03:43 /scratch/mc-diab-nh3.F56
-rw-rw-r-- 1 sarom sarom     15304 Jun  2 03:43 /scratch/mc-diab-nh3.F57
-rw-rw-r-- 1 sarom sarom    318888 Jun  2 03:43 /scratch/mc-diab-nh3.F58
-rw-rw-r-- 1 sarom sarom   5703208 Jun  2 03:43 /scratch/mc-diab-nh3.F59
-rw-rw-r-- 1 sarom sarom    153888 Jun  2 03:43 /scratch/mc-diab-nh3.F60
-rw-rw-r-- 1 sarom sarom    156744 Jun  2 03:44 /scratch/mc-diab-nh3.F61
-rw-rw-r-- 1 sarom sarom   2704768 Jun  2 03:44 /scratch/mc-diab-nh3.F62
-rw-rw-r-- 1 sarom sarom         0 Jun  2 03:43 /scratch/mc-diab-nh3.F63
-rw-rw-r-- 1 sarom sarom     20042 Jun  2 03:44 /scratch/mc-diab-nh3.F64
rm: cannot remove `/scratch/sarom': Is a directory
rm: cannot remove `/scratch/tmp': Is a directory
ls: No match.
ls: No match.
ls: No match.
Fri Jun  2 03:44:29 CDT 2017
0.248u 0.212s 0:47.17 0.9%	0+0k 368+736io 0pf+0w
Deleting shmid=2785280.
Deleting shmid=2818049.
/opt/gridengine/default/spool/compute-0-8/active_jobs/23877.1/pe_hostfile compute-0-8.local
