-catch_rsh /opt/gridengine/default/spool/compute-0-5/active_jobs/36214.1/pe_hostfile
compute-0-5
The primary node assigned by SGE to this run is compute-0-5
Warning: no access to tty (Bad file descriptor).
Thus no job control in this shell.
source /home/sarom/dir.git.branch.saromleang-travis-ci/install.info
setenv GMS_PATH /home/sarom/dir.git.branch.saromleang-travis-ci
setenv GMS_BUILD_DIR /home/sarom/dir.git.branch.saromleang-travis-ci
setenv GMS_TARGET linux64
setenv GMS_FORTRAN gfortran
setenv GMS_GFORTRAN_VERNO 4.4
setenv GMS_MATHLIB mkl-so
setenv GMS_MATHLIB none
setenv GMS_MATHLIB_PATH /share/apps/intel/compilers_and_libraries_2017.1.132/linux/mkl/lib/intel64
setenv GMS_MKL_VERNO 12
setenv GMS_DDI_COMM sockets
setenv GMS_LIBCCHEM false
setenv GMS_EIGEN_PATH
setenv GMS_PHI false
setenv GMS_SHMTYPE sysv
setenv GMS_OPENMP false
unset echo
gvb-nh-3sig
/home/sarom/dir.git.branch.saromleang-travis-ci/tests/gvb/parallel
----- GAMESS execution script 'rungms' -----
This job is running on host compute-0-5.local
under operating system Linux at Wed Aug 9 22:20:11 CDT 2017
Available scratch disk space (Kbyte units) at beginning of the job is
Filesystem           1K-blocks      Used Available Use% Mounted on
/dev/sda1             16126920   3962036  11345684  26% /
GAMESS temporary binary files will be written to /scratch
GAMESS supplementary output files will be written to /home/sarom/restart
Copying input file gvb-nh-3sig.inp to your run's scratch directory...
cp /home/sarom/dir.git.branch.saromleang-travis-ci/tests/gvb/parallel/gvb-nh-3sig.inp /scratch/gvb-nh-3sig.F05
unset echo
The generated host list is
compute-0-5.local
/home/sarom/dir.git.branch.saromleang-travis-ci/ddikick.x /home/sarom/dir.git.branch.saromleang-travis-ci/gamess.00.x gvb-nh-3sig -ddi 1 1 compute-0-5.local -scr /scratch

 Distributed Data Interface kickoff program.
 Initiating 1 compute processes on 1 nodes to run the following command:
 /home/sarom/dir.git.branch.saromleang-travis-ci/gamess.00.x gvb-nh-3sig 

          ******************************************************
          *         GAMESS VERSION = 20 APR 2017 (R1)          *
          *             FROM IOWA STATE UNIVERSITY             *
          * M.W.SCHMIDT, K.K.BALDRIDGE, J.A.BOATZ, S.T.ELBERT, *
          *   M.S.GORDON, J.H.JENSEN, S.KOSEKI, N.MATSUNAGA,   *
          *          K.A.NGUYEN, S.J.SU, T.L.WINDUS,           *
          *       TOGETHER WITH M.DUPUIS, J.A.MONTGOMERY       *
          *         J.COMPUT.CHEM.  14, 1347-1363(1993)        *
          **************** 64 BIT LINUX VERSION ****************

  SINCE 1993, STUDENTS AND POSTDOCS WORKING AT IOWA STATE UNIVERSITY
  AND ALSO IN THEIR VARIOUS JOBS AFTER LEAVING ISU HAVE MADE IMPORTANT
  CONTRIBUTIONS TO THE CODE:
     IVANA ADAMOVIC, CHRISTINE AIKENS, YURI ALEXEEV, POOJA ARORA,
     ANDREY ASADCHEV, ROB BELL, PRADIPTA BANDYOPADHYAY, JONATHAN BENTZ,
     BRETT BODE, KURT BRORSEN, CALEB CARLIN, GALINA CHABAN, WEI CHEN,
     CHEOL HO CHOI, PAUL DAY, ALBERT DEFUSCO, NUWAN DESILVA, TIM DUDLEY,
     DMITRI FEDOROV, GRAHAM FLETCHER, MARK FREITAG, KURT GLAESEMANN,
     DAN KEMP, GRANT MERRILL, NORIYUKI MINEZAWA, JONATHAN MULLIN,
     TAKESHI NAGATA, SEAN NEDD, HEATHER NETZLOFF, BOSILJKA NJEGIC, RYAN OLSON,
     MIKE PAK, SPENCER PRUITT, LUKE ROSKOP, JIM SHOEMAKER, LYUDMILA SLIPCHENKO,
     TONY SMITH, SAROM SOK LEANG, JIE SONG, TETSUYA TAKETSUGU, SIMON WEBB,
     PENG XU, SOOHAENG YOO, FEDERICO ZAHARIEV

  ADDITIONAL CODE HAS BEEN PROVIDED BY COLLABORATORS IN OTHER GROUPS:
     IOWA STATE UNIVERSITY:
          JOE IVANIC, AARON WEST, LAIMUTIS BYTAUTAS, KLAUS RUEDENBERG
     UNIVERSITY OF TOKYO: KIMIHIKO HIRAO, TAKAHITO NAKAJIMA,
          TAKAO TSUNEDA, MUNEAKI KAMIYA, SUSUMU YANAGISAWA,
          KIYOSHI YAGI, MAHITO CHIBA, SEIKEN TOKURA, NAOAKI KAWAKAMI
     UNIVERSITY OF AARHUS: FRANK JENSEN
     UNIVERSITY OF IOWA: VISVALDAS KAIRYS, HUI LI
     NATIONAL INST. OF STANDARDS AND TECHNOLOGY: WALT STEVENS, DAVID GARMER
     UNIVERSITY OF PISA: BENEDETTA MENNUCCI, JACOPO TOMASI
     UNIVERSITY OF MEMPHIS: HENRY KURTZ, PRAKASHAN KORAMBATH
     UNIVERSITY OF ALBERTA: TOBY ZENG, MARIUSZ KLOBUKOWSKI
     UNIVERSITY OF NEW ENGLAND: MARK SPACKMAN
     MIE UNIVERSITY: HIROAKI UMEDA
     NAT. INST. OF ADVANCED INDUSTRIAL SCIENCE AND TECHNOLOGY: KAZUO KITAURA
     MICHIGAN STATE UNIVERSITY:
          KAROL KOWALSKI, MARTA WLOCH, JEFFREY GOUR, JESSE LUTZ,
          WEI LI, PIOTR PIECUCH
     UNIVERSITY OF SILESIA: MONIKA MUSIAL, STANISLAW KUCHARSKI
     FACULTES UNIVERSITAIRES NOTRE-DAME DE LA PAIX:
          OLIVIER QUINET, BENOIT CHAMPAGNE
     UNIVERSITY OF CALIFORNIA - SANTA BARBARA: BERNARD KIRTMAN
     INSTITUTE FOR MOLECULAR SCIENCE:
          KAZUYA ISHIMURA, MICHIO KATOUDA, AND SHIGERU NAGASE
     UNIVERSITY OF NOTRE DAME: ANNA POMOGAEVA, DAN CHIPMAN
     KYUSHU UNIVERSITY:
          HARUYUKI NAKANO,
          FENG LONG GU, JACEK KORCHOWIEC, MARCIN MAKOWSKI, AND YURIKO AOKI,
          HIROTOSHI MORI AND EISAKU MIYOSHI
     PENNSYLVANIA STATE UNIVERSITY:
          TZVETELIN IORDANOV, CHET SWALINA, JONATHAN SKONE,
          SHARON HAMMES-SCHIFFER
     WASEDA UNIVERSITY:
          MASATO KOBAYASHI, TOMOKO AKAMA, TSUGUKI TOUMA,
          TAKESHI YOSHIKAWA, YASUHIRO IKABATA, JUNJI SEINO,
          YUYA NAKAJIMA, HIROMI NAKAI
     NANJING UNIVERSITY: SHUHUA LI
     UNIVERSITY OF NEBRASKA:
          PEIFENG SU, DEJUN SI, NANDUN THELLAMUREGE, YALI WANG, HUI LI
     UNIVERSITY OF ZURICH: ROBERTO PEVERATI, KIM BALDRIDGE
     N. COPERNICUS UNIVERSITY AND JACKSON STATE UNIVERSITY:
          MARIA BARYSZ
     UNIVERSITY OF COPENHAGEN: Jimmy Kromann, CASPER STEINMANN
     TOKYO INSTITUTE OF TECHNOLOGY: HIROYA NAKATA
     NAGOYA UNIVERSITY: YOSHIO NISHIMOTO, STEPHAN IRLE
     MOSCOW STATE UNIVERSITY: VLADIMIR MIRONOV

 EXECUTION OF GAMESS BEGUN Wed Aug  9 22:20:11 2017

            ECHO OF THE FIRST FEW INPUT CARDS -
 INPUT CARD>!  Open shell SCF on X-3-sigma-minus state of NH...(pi)2 config.                
 INPUT CARD>!                                                                               
 INPUT CARD>!  FINAL E= -54.9557018112 after 8 iters, RMS grad= 0.000002137                 
 INPUT CARD>!                                                                               
 INPUT CARD>!  This run takes 0 seconds on anything ( 8 Nov 2005)                           
 INPUT CARD>!  test has been in use since at least 2005.                                    
 INPUT CARD>!                                                                               
 INPUT CARD>!  Of course, the most straightforward way to do                                
 INPUT CARD>!  a half-filled high-spin open shell is to select                              
 INPUT CARD>!  SCFTYP=ROHF and omit the $SCF group.  This is                                
 INPUT CARD>!  done by SCFTYP=GVB just to be sure the GVB code                              
 INPUT CARD>!  gives the correct results.                                                   
 INPUT CARD>!                                                                               
 INPUT CARD> $contrl mult=3 runtyp=gradient $end                                            
 INPUT CARD>!                                                                               
 INPUT CARD>!            treating the state as having orbital degeneracy                    
 INPUT CARD> $contrl scftyp=gvb $end                                                        
 INPUT CARD> $scf    nco=3 nseto=1 no(1)=2 npair=0 couple=.true.                            
 INPUT CARD>             f(1)=1.0, 0.5                                                      
 INPUT CARD>         alpha(1)= 2.00, 1.00, 0.50                                             
 INPUT CARD>          beta(1)=-1.00,-0.50,-0.50 $end                                        
 INPUT CARD>!                                                                               
 INPUT CARD>!            treating the state as if two non-degenerate orbitals               
 INPUT CARD>x$contrl scftyp=gvb $end                                                        
 INPUT CARD>x$scf    nco=3 nseto=2 no(1)=1,1 npair=0 $end                                   
 INPUT CARD>                                                                                
 INPUT CARD>!            independent check by half-filled high spin coupling                
 INPUT CARD>x$contrl scftyp=rohf $end                                                       
 INPUT CARD>                                                                                
 INPUT CARD> $basis  gbasis=n31 ngauss=6 ndfunc=1 npfunc=1 $end                             
 INPUT CARD> $guess  guess=huckel $end                                                      
 INPUT CARD> $data                                                                          
 INPUT CARD>imidogen...open shell SCF on 3-sigma-minus state                                
 INPUT CARD>Cnv 4                                                                           
 INPUT CARD>                                                                                
 INPUT CARD>Nitrogen   7.0                                                                  
 INPUT CARD>Hydrogen   1.0  0.0 0.0 1.0220667                                               
 INPUT CARD> $end                                                                           
    1000000 WORDS OF MEMORY AVAILABLE

     BASIS OPTIONS
     -------------
     GBASIS=N31          IGAUSS=       6      POLAR=POPN31  
     NDFUNC=       1     NFFUNC=       0     DIFFSP=       F
     NPFUNC=       1      DIFFS=       F     BASNAM=        


     RUN TITLE
     ---------
 imidogen...open shell SCF on 3-sigma-minus state                                

 THE POINT GROUP OF THE MOLECULE IS CNV     
 THE ORDER OF THE PRINCIPAL AXIS IS     4

 ATOM      ATOMIC                      COORDINATES (BOHR)
           CHARGE         X                   Y                   Z
 NITROGEN    7.0     0.0000000000        0.0000000000        0.0000000000
 HYDROGEN    1.0     0.0000000000        0.0000000000        1.9314260042

          INTERNUCLEAR DISTANCES (ANGS.)
          ------------------------------

                1 NITR       2 HYDR  

   1 NITR    0.0000000    1.0220667 *
   2 HYDR    1.0220667 *  0.0000000  

  * ... LESS THAN  3.000


     ATOMIC BASIS SET
     ----------------
 THE CONTRACTED PRIMITIVE FUNCTIONS HAVE BEEN UNNORMALIZED
 THE CONTRACTED BASIS FUNCTIONS ARE NOW NORMALIZED TO UNITY

  SHELL TYPE  PRIMITIVE        EXPONENT          CONTRACTION COEFFICIENT(S)

 NITROGEN  

      1   S       1          4173.5114600    0.001834772160
      1   S       2           627.4579110    0.013994627002
      1   S       3           142.9020930    0.068586551812
      1   S       4            40.2343293    0.232240873040
      1   S       5            12.8202129    0.469069948082
      1   S       6             4.3904370    0.360455199063

      2   L       7            11.6263619   -0.114961181702    0.067579743878
      2   L       8             2.7162798   -0.169117478561    0.323907295893
      2   L       9             0.7722184    1.145851947027    0.740895139755

      3   L      10             0.2120315    1.000000000000    1.000000000000

      4   D      11             0.8000000    1.000000000000

 HYDROGEN  

      5   S      12            18.7311370    0.033494604338
      5   S      13             2.8253944    0.234726953484
      5   S      14             0.6401217    0.813757326146

      6   S      15             0.1612778    1.000000000000

      7   P      16             1.1000000    1.000000000000

 TOTAL NUMBER OF BASIS SET SHELLS             =    7
 NUMBER OF CARTESIAN GAUSSIAN BASIS FUNCTIONS =   20
 NUMBER OF ELECTRONS                          =    8
 CHARGE OF MOLECULE                           =    0
 SPIN MULTIPLICITY                            =    3
 NUMBER OF OCCUPIED ORBITALS (ALPHA)          =    5
 NUMBER OF OCCUPIED ORBITALS (BETA )          =    3
 TOTAL NUMBER OF ATOMS                        =    2
 THE NUCLEAR REPULSION ENERGY IS        3.6242651724

 THIS MOLECULE IS RECOGNIZED AS BEING LINEAR,
 ORBITAL LZ DEGENERACY TOLERANCE ETOLLZ= 1.00E-06

     $CONTRL OPTIONS
     ---------------
 SCFTYP=GVB          RUNTYP=GRADIENT     EXETYP=RUN     
 MPLEVL=       0     CITYP =NONE         CCTYP =NONE         VBTYP =NONE    
 DFTTYP=NONE         TDDFT =NONE    
 MULT  =       3     ICHARG=       0     NZVAR =       0     COORD =UNIQUE  
 PP    =NONE         RELWFN=NONE         LOCAL =NONE         NUMGRD=       F
 ISPHER=      -1     NOSYM =       0     MAXIT =      30     UNITS =ANGS    
 PLTORB=       F     MOLPLT=       F     AIMPAC=       F     FRIEND=        
 NPRINT=       7     IREST =       0     GEOM  =INPUT   
 NORMF =       0     NORMP =       0     ITOL  =      20     ICUT  =       9
 INTTYP=BEST         GRDTYP=BEST         QMTTOL= 1.0E-06

     $SYSTEM OPTIONS
     ---------------
  REPLICATED MEMORY=     1000000 WORDS (ON EVERY NODE).
 DISTRIBUTED MEMDDI=           0 MILLION WORDS IN AGGREGATE,
 MEMDDI DISTRIBUTED OVER   1 PROCESSORS IS           0 WORDS/PROCESSOR.
 TOTAL MEMORY REQUESTED ON EACH PROCESSOR=     1000000 WORDS.
 TIMLIM=      525600.00 MINUTES, OR     365.0 DAYS.
 PARALL= F  BALTYP=  DLB     KDIAG=    0  COREFL= F
 MXSEQ2=     300 MXSEQ3=     150  mem10=         0

          ----------------
          PROPERTIES INPUT
          ----------------

     MOMENTS            FIELD           POTENTIAL          DENSITY
 IEMOM =       1   IEFLD =       0   IEPOT =       0   IEDEN =       0
 WHERE =COMASS     WHERE =NUCLEI     WHERE =NUCLEI     WHERE =NUCLEI  
 OUTPUT=BOTH       OUTPUT=BOTH       OUTPUT=BOTH       OUTPUT=BOTH    
 IEMINT=       0   IEFINT=       0                     IEDINT=       0
                                                       MORB  =       0
          EXTRAPOLATION IN EFFECT
          DIIS IN EFFECT
 ORBITAL PRINTING OPTION: NPREO=     1    20     2     1

          *************************
          ROHF-GVB INPUT PARAMETERS
          *************************

          NORB   =    5          NCO    =    3
          NPAIR  =    0          NSETO  =    1
          NO     =    2
          OPEN SHELL ORBITALS
          SET     1 HAS ORBS    4    5

          ----------------------------
          ROHF-GVB COUPLING PARAMETERS
          ----------------------------

          F VECTOR (OCCUPANCIES)
    1   1.0000000000
    2   0.5000000000
          ALPHA COUPLING COEFFICEINTS

             1           2

    1    2.0000000
    2    1.0000000   0.5000000
           BETA COUPLING COEFFICIENTS

             1           2

    1   -1.0000000
    2   -0.5000000  -0.5000000

     -------------------------------
     INTEGRAL TRANSFORMATION OPTIONS
     -------------------------------
     NWORD  =            0
     CUTOFF = 1.0E-09     MPTRAN =       0
     DIRTRF =       F     AOINTS =DUP     

          ----------------------
          INTEGRAL INPUT OPTIONS
          ----------------------
 NOPK  =       1 NORDER=       0 SCHWRZ=       F

     ------------------------------------------
     THE POINT GROUP IS CNV, NAXIS= 4, ORDER= 8
     ------------------------------------------

     DIMENSIONS OF THE SYMMETRY SUBSPACES ARE
 A1  =   10     A2  =    0     B1  =    1     B2  =    1     E   =    4

 ..... DONE SETTING UP THE RUN .....
 STEP CPU TIME =     0.02 TOTAL CPU TIME =        0.0 (    0.0 MIN)
 TOTAL WALL CLOCK TIME=        0.0 SECONDS, CPU UTILIZATION IS  66.67%

                    --------------------------------
                    SINGLE POINT ENERGY AND GRADIENT
                    --------------------------------

          ********************
          1 ELECTRON INTEGRALS
          ********************
 ...... END OF ONE-ELECTRON INTEGRALS ......
 STEP CPU TIME =     0.00 TOTAL CPU TIME =        0.0 (    0.0 MIN)
 TOTAL WALL CLOCK TIME=        0.0 SECONDS, CPU UTILIZATION IS  66.67%

          -------------
          GUESS OPTIONS
          -------------
          GUESS =HUCKEL            NORB  =       0          NORDER=       0
          MIX   =       F          PRTMO =       F          PUNMO =       F
          TOLZ  = 1.0E-08          TOLE  = 1.0E-05
          SYMDEN=       F          PURIFY=       F

 INITIAL GUESS ORBITALS GENERATED BY HUCKEL   ROUTINE.
 HUCKEL GUESS REQUIRES      4646 WORDS.

 SYMMETRIES FOR INITIAL GUESS ORBITALS FOLLOW.   BOTH SET(S).
     5 ORBITALS ARE OCCUPIED (    1 CORE ORBITALS).
     2=A1       3=A1       4=E        5=E        6=A1       7=A1       8=A1  
     9=A1      10=A1      11=A1      12=A1      13=B1      14=B2      15=E   
 ...... END OF INITIAL ORBITAL SELECTION ......
 STEP CPU TIME =     0.00 TOTAL CPU TIME =        0.0 (    0.0 MIN)
 TOTAL WALL CLOCK TIME=        0.0 SECONDS, CPU UTILIZATION IS  66.67%

                    ----------------------
                    AO INTEGRAL TECHNOLOGY
                    ----------------------
     S,P,L SHELL ROTATED AXIS INTEGRALS, REPROGRAMMED BY
        KAZUYA ISHIMURA (IMS) AND JOSE SIERRA (SYNSTAR).
     S,P,D,L SHELL ROTATED AXIS INTEGRALS PROGRAMMED BY
        KAZUYA ISHIMURA (INSTITUTE FOR MOLECULAR SCIENCE).
     S,P,D,F,G SHELL TO TOTAL QUARTET ANGULAR MOMENTUM SUM 5,
        ERIC PROGRAM BY GRAHAM FLETCHER (ELORET AND NASA ADVANCED
        SUPERCOMPUTING DIVISION, AMES RESEARCH CENTER).
     S,P,D,F,G,L SHELL GENERAL RYS QUADRATURE PROGRAMMED BY
        MICHEL DUPUIS (PACIFIC NORTHWEST NATIONAL LABORATORY).

          --------------------
          2 ELECTRON INTEGRALS
          --------------------

 THE -PK- OPTION IS OFF, THE INTEGRALS ARE NOT IN SUPERMATRIX FORM.
 STORING   15000 INTEGRALS/RECORD ON DISK, USING 12 BYTES/INTEGRAL.
 TWO ELECTRON INTEGRAL EVALUATION REQUIRES   90424 WORDS OF MEMORY.
 II,JST,KST,LST =  1  1  1  1 NREC =         1 INTLOC =    1
 II,JST,KST,LST =  2  1  1  1 NREC =         1 INTLOC =    2
 II,JST,KST,LST =  3  1  1  1 NREC =         1 INTLOC =   34
 II,JST,KST,LST =  4  1  1  1 NREC =         1 INTLOC =  214
 II,JST,KST,LST =  5  1  1  1 NREC =         1 INTLOC = 1189
 II,JST,KST,LST =  6  1  1  1 NREC =         1 INTLOC = 1867
 II,JST,KST,LST =  7  1  1  1 NREC =         1 INTLOC = 2713
 TOTAL NUMBER OF NONZERO TWO-ELECTRON INTEGRALS =                5596
          1 INTEGRAL RECORDS WERE STORED ON DISK FILE  8.
  ...... END OF TWO-ELECTRON INTEGRALS .....
 STEP CPU TIME =     0.02 TOTAL CPU TIME =        0.0 (    0.0 MIN)
 TOTAL WALL CLOCK TIME=        0.0 SECONDS, CPU UTILIZATION IS  80.00%

          ------------------------
          ROHF-GVB SCF CALCULATION
          ------------------------
 GVB STEP WILL USE    124318 WORDS OF MEMORY.

     RSTRCT FORCED TRUE BY THE PRESENCE OF DEGENERATE OPEN SHELLS.

     MAXIT=  30   NPUNCH= 2   SQCDF TOL=1.0000E-05
     NUCLEAR ENERGY=        3.6242651724
     EXTRAP=T   DAMP=F   SHIFT=F   RSTRCT=T   DIIS=T  SOSCF=F

 ITER EX     TOTAL ENERGY       E CHANGE        SQCDF       DIIS ERROR
          * * *   INITIATING DIIS PROCEDURE   * * *
   0  0      -54.805370090   -54.805370090   0.200366809   0.322340372
   1  1      -54.949809937    -0.144439847   0.038551942   0.038944338
   2  2      -54.955171966    -0.005362028   0.015838125   0.007210695
   3  3      -54.955667546    -0.000495580   0.003544340   0.002481399
   4  4      -54.955701461    -0.000033916   0.000403905   0.000201089
   5  5      -54.955701785    -0.000000323   0.000146178   0.000046264
   6  6      -54.955701811    -0.000000026   0.000018685   0.000006845
   7  7      -54.955701811    -0.000000000   0.000001175   0.000000683
   8  8      -54.955701811    -0.000000000   0.000000139   0.000000090

          -----------------
          DENSITY CONVERGED
          -----------------

 FINAL GVB ENERGY IS      -54.9557018112 AFTER   8 ITERATIONS

          ----------------------------
          SCF STATISTICS PER ITERATION
          ----------------------------
          NUMBER OF INTEGRAL PASSES       1
          FOCK FORMATION TIME         0.001
          GEMINAL OPT TIME            0.000
          MIXORB  OPT TIME            0.000
          OCBSE   OPT TIME            0.000

     THE MAXIMUM LAGRANGIAN ASYMMETRY IS 8.3266752E-17

 LZ VALUE ANALYSIS FOR THE MOS
 ----------------------------------------
 MO     1 (    1) HAS LZ(WEIGHT)= 0.00(100.0%) 
 MO     2 (    2) HAS LZ(WEIGHT)= 0.00(100.0%) 
 MO     3 (    3) HAS LZ(WEIGHT)= 0.00(100.0%) 
 MO     4 (    4) HAS LZ(WEIGHT)=-1.00( 50.0%)  1.00( 50.0%) 
 MO     5 (    4) HAS LZ(WEIGHT)=-1.00( 50.0%)  1.00( 50.0%) 
 MO     6 (    5) HAS LZ(WEIGHT)= 0.00(100.0%) 
 MO     7 (    6) HAS LZ(WEIGHT)= 0.00(100.0%) 
 MO     8 (    7) HAS LZ(WEIGHT)=-1.00( 50.0%)  1.00( 50.0%) 
 MO     9 (    7) HAS LZ(WEIGHT)=-1.00( 50.0%)  1.00( 50.0%) 
 MO    10 (    8) HAS LZ(WEIGHT)= 0.00(100.0%) 
 MO    11 (    9) HAS LZ(WEIGHT)= 0.00(100.0%) 
 MO    12 (   10) HAS LZ(WEIGHT)=-1.00( 50.0%)  1.00( 50.0%) 
 MO    13 (   10) HAS LZ(WEIGHT)=-1.00( 50.0%)  1.00( 50.0%) 
 MO    14 (   11) HAS LZ(WEIGHT)=-2.00( 50.0%)  2.00( 50.0%) 
 MO    15 (   11) HAS LZ(WEIGHT)=-2.00( 50.0%)  2.00( 50.0%) 
 MO    16 (   12) HAS LZ(WEIGHT)= 0.00(100.0%) 
 MO    17 (   13) HAS LZ(WEIGHT)=-1.00( 50.0%)  1.00( 50.0%) 
 MO    18 (   13) HAS LZ(WEIGHT)=-1.00( 50.0%)  1.00( 50.0%) 
 MO    19 (   14) HAS LZ(WEIGHT)= 0.00(100.0%) 
 MO    20 (   15) HAS LZ(WEIGHT)= 0.00(100.0%) 

          ------------
          EIGENVECTORS
          ------------

                      1          2          3          4          5
                  -15.6122    -1.0438    -0.5465    -0.2668    -0.2668
                     A1         A1         A1         E          E   
    1  N  1  S    0.995216  -0.204370   0.089034  -0.000000  -0.000000
    2  N  1  S    0.023515   0.453131  -0.192849  -0.000000  -0.000000
    3  N  1  X    0.000000   0.000000   0.000000  -0.425789   0.514796
    4  N  1  Y    0.000000   0.000000   0.000000   0.514796   0.425789
    5  N  1  Z    0.001805   0.117703   0.498171  -0.000000  -0.000000
    6  N  1  S   -0.000564   0.459249  -0.401564  -0.000000  -0.000000
    7  N  1  X    0.000000   0.000000   0.000000  -0.298959   0.361454
    8  N  1  Y    0.000000   0.000000   0.000000   0.361454   0.298959
    9  N  1  Z   -0.000681   0.051127   0.300877  -0.000000  -0.000000
   10  N  1 XX   -0.003509  -0.006858  -0.007542  -0.000000  -0.000000
   11  N  1 YY   -0.003509  -0.006858  -0.007542  -0.000000  -0.000000
   12  N  1 ZZ   -0.002618   0.015277   0.045634  -0.000000  -0.000000
   13  N  1 XY    0.000000   0.000000   0.000000  -0.000000  -0.000000
   14  N  1 XZ    0.000000   0.000000   0.000000  -0.015435   0.018661
   15  N  1 YZ    0.000000   0.000000   0.000000   0.018661   0.015435
   16  H  2  S   -0.000348   0.208691   0.258686  -0.000000  -0.000000
   17  H  2  S    0.000601   0.040717   0.208352  -0.000000  -0.000000
   18  H  2  X    0.000000   0.000000   0.000000  -0.010731   0.012974
   19  H  2  Y    0.000000   0.000000   0.000000   0.012974   0.010731
   20  H  2  Z    0.000691  -0.023512  -0.008220  -0.000000  -0.000000

                      6          7          8          9         10
                    0.2510     0.9237     0.9374     0.9374     0.9765
                     A1         A1         E          E          A1  
    1  N  1  S    0.077429   0.007099  -0.000000   0.000000  -0.051581
    2  N  1  S   -0.102872  -0.735661  -0.000000   0.000000  -0.441882
    3  N  1  X    0.000000   0.000000   0.626114  -0.726480   0.000000
    4  N  1  Y    0.000000   0.000000  -0.726480  -0.626114   0.000000
    5  N  1  Z   -0.291127   0.702451  -0.000000   0.000000   0.065779
    6  N  1  S   -1.193305   1.049552  -0.000000   0.000000   1.127732
    7  N  1  X    0.000000   0.000000  -0.701387   0.813820   0.000000
    8  N  1  Y    0.000000   0.000000   0.813820   0.701387   0.000000
    9  N  1  Z   -0.854659  -0.915552  -0.000000   0.000000   0.708291
   10  N  1 XX    0.024179  -0.191856  -0.000000   0.000000  -0.023954
   11  N  1 YY    0.024179  -0.191856  -0.000000   0.000000  -0.023954
   12  N  1 ZZ   -0.011809  -0.206026  -0.000000   0.000000  -0.376995
   13  N  1 XY    0.000000   0.000000  -0.000000   0.000000   0.000000
   14  N  1 XZ    0.000000   0.000000   0.001913  -0.002220   0.000000
   15  N  1 YZ    0.000000   0.000000  -0.002220  -0.001913   0.000000
   16  H  2  S    0.040414   0.222964  -0.000000   0.000000  -1.066323
   17  H  2  S    1.908501  -0.024418  -0.000000   0.000000   0.122925
   18  H  2  X    0.000000   0.000000   0.011813  -0.013706   0.000000
   19  H  2  Y    0.000000   0.000000  -0.013706  -0.011813   0.000000
   20  H  2  Z   -0.010120  -0.088150  -0.000000   0.000000  -0.091474

                     11         12         13         14         15
                    1.1518     1.7936     1.7936     2.0231     2.0231
                     A1         E          E          ?B2        ?B1 
    1  N  1  S   -0.014081  -0.000000   0.000000   0.000000   0.000000
    2  N  1  S   -1.114723  -0.000000   0.000000   0.000000   0.000000
    3  N  1  X    0.000000   0.008619  -0.049803   0.000000   0.000000
    4  N  1  Y    0.000000  -0.049803  -0.008619   0.000000   0.000000
    5  N  1  Z   -0.650537  -0.000000   0.000000   0.000000   0.000000
    6  N  1  S    2.523120  -0.000000   0.000000   0.000000   0.000000
    7  N  1  X    0.000000   0.017919  -0.103541   0.000000   0.000000
    8  N  1  Y    0.000000  -0.103541  -0.017919   0.000000   0.000000
    9  N  1  Z    1.287334  -0.000000   0.000000   0.000000   0.000000
   10  N  1 XX   -0.243180  -0.000000   0.000000   0.006881   0.865998
   11  N  1 YY   -0.243180  -0.000000   0.000000  -0.006881  -0.865998
   12  N  1 ZZ   -0.063482  -0.000000   0.000000   0.000000   0.000000
   13  N  1 XY    0.000000  -0.000000   0.000000   0.999968  -0.007946
   14  N  1 XZ    0.000000  -0.126593   0.731497   0.000000   0.000000
   15  N  1 YZ    0.000000   0.731497   0.126593   0.000000   0.000000
   16  H  2  S    0.353834  -0.000000   0.000000   0.000000   0.000000
   17  H  2  S   -1.780409  -0.000000   0.000000   0.000000   0.000000
   18  H  2  X    0.000000  -0.080039   0.462493   0.000000   0.000000
   19  H  2  Y    0.000000   0.462493   0.080039   0.000000   0.000000
   20  H  2  Z    0.189925  -0.000000   0.000000   0.000000   0.000000

                     16         17         18         19         20
                    2.5085     2.8540     2.8540     3.6258     3.8788
                     A1         E          E          A1         A1  
    1  N  1  S   -0.037814   0.000000   0.000000  -0.251836   0.332510
    2  N  1  S   -0.195372   0.000000   0.000000   0.851609  -1.134894
    3  N  1  X    0.000000  -0.039402  -0.003133   0.000000   0.000000
    4  N  1  Y    0.000000   0.003133  -0.039402   0.000000   0.000000
    5  N  1  Z   -0.227772   0.000000   0.000000   0.538967   0.558101
    6  N  1  S    0.590258   0.000000   0.000000   1.778085  -1.160169
    7  N  1  X    0.000000  -0.212193  -0.016872   0.000000   0.000000
    8  N  1  Y    0.000000   0.016872  -0.212193   0.000000   0.000000
    9  N  1  Z    0.499937   0.000000   0.000000   0.713232   0.202293
   10  N  1 XX   -0.556305   0.000000   0.000000  -1.043617   0.913741
   11  N  1 YY   -0.556305   0.000000   0.000000  -1.043617   0.913741
   12  N  1 ZZ    0.770597   0.000000   0.000000   0.222892   1.944004
   13  N  1 XY    0.000000   0.000000   0.000000   0.000000   0.000000
   14  N  1 XZ    0.000000  -0.767198  -0.061001   0.000000   0.000000
   15  N  1 YZ    0.000000   0.061001  -0.767198   0.000000   0.000000
   16  H  2  S   -0.709399   0.000000   0.000000  -0.813750  -0.909264
   17  H  2  S   -0.002642   0.000000   0.000000  -0.851548   0.106408
   18  H  2  X    0.000000   0.993625   0.079005   0.000000   0.000000
   19  H  2  Y    0.000000  -0.079005   0.993625   0.000000   0.000000
   20  H  2  Z   -0.417763   0.000000   0.000000   1.145469   0.916673

 ... END OF ROHF-GVB SCF CALCULATION ...
 STEP CPU TIME =     0.01 TOTAL CPU TIME =        0.0 (    0.0 MIN)
 TOTAL WALL CLOCK TIME=        0.1 SECONDS, CPU UTILIZATION IS  83.33%

     ----------------------------------------------------------------
     PROPERTY VALUES FOR THE GVB   SELF-CONSISTENT FIELD WAVEFUNCTION
     ----------------------------------------------------------------

          -----------------
          ENERGY COMPONENTS
          -----------------

         WAVEFUNCTION NORMALIZATION =       1.0000000000

                ONE ELECTRON ENERGY =     -81.6877722515
                TWO ELECTRON ENERGY =      23.1078052679
           NUCLEAR REPULSION ENERGY =       3.6242651724
                                      ------------------
                       TOTAL ENERGY =     -54.9557018112

 ELECTRON-ELECTRON POTENTIAL ENERGY =      23.1078052679
  NUCLEUS-ELECTRON POTENTIAL ENERGY =    -136.5280578636
   NUCLEUS-NUCLEUS POTENTIAL ENERGY =       3.6242651724
                                      ------------------
             TOTAL POTENTIAL ENERGY =    -109.7959874233
               TOTAL KINETIC ENERGY =      54.8402856121
                 VIRIAL RATIO (V/T) =       2.0021045879

          ---------------------------------------
          MULLIKEN AND LOWDIN POPULATION ANALYSES
          ---------------------------------------

     ATOMIC MULLIKEN POPULATION IN EACH MOLECULAR ORBITAL

                      1          2          3          4          5

                  2.000000   2.000000   2.000000   1.000000   1.000000

    1             2.000001   1.675166   1.597689   0.996051   0.996051
    2            -0.000001   0.324834   0.402311   0.003949   0.003949

               ----- POPULATIONS IN EACH AO -----
                             MULLIKEN      LOWDIN
              1  N  1  S      1.99633     1.98180
              2  N  1  S      0.89401     0.62277
              3  N  1  X      0.61068     0.59098
              4  N  1  Y      0.61068     0.59098
              5  N  1  Z      0.83227     0.75675
              6  N  1  S      1.03263     0.58339
              7  N  1  X      0.38465     0.39542
              8  N  1  Y      0.38465     0.39542
              9  N  1  Z      0.51639     0.62355
             10  N  1 XX     -0.00504     0.20107
             11  N  1 YY     -0.00504     0.20107
             12  N  1 ZZ      0.01132     0.21729
             13  N  1 XY      0.00000     0.00000
             14  N  1 XZ      0.00073     0.00038
             15  N  1 YZ      0.00073     0.00038
             16  H  2  S      0.52802     0.48350
             17  H  2  S      0.18310     0.29030
             18  H  2  X      0.00395     0.01323
             19  H  2  Y      0.00395     0.01323
             20  H  2  Z      0.01602     0.03850

          ----- MULLIKEN ATOMIC OVERLAP POPULATIONS -----
          (OFF-DIAGONAL ELEMENTS NEED TO BE MULTIPLIED BY 2)

             1           2

    1    7.0071014
    2    0.2578574   0.4771838

          TOTAL MULLIKEN AND LOWDIN ATOMIC POPULATIONS
       ATOM         MULL.POP.    CHARGE          LOW.POP.     CHARGE
    1 NITROGEN      7.264959   -0.264959         7.161240   -0.161240
    2 HYDROGEN      0.735041    0.264959         0.838760    0.161240

          -----------------------------------------
          ATOMIC SPIN DENSITY AT THE NUCLEUS (A.U.)
          -----------------------------------------
                            SPIN DENS    ALPHA DENS     BETA DENS
    1  NITROGEN     7.0     0.0000000      96.23700      96.23700
    2  HYDROGEN     1.0     0.0000000       0.21438       0.21438

          ---------------------
          ELECTROSTATIC MOMENTS
          ---------------------

 POINT   1           X           Y           Z (BOHR)    CHARGE
                 0.000000    0.000000    0.129675       -0.00 (A.U.)
         DX          DY          DZ         /D/  (DEBYE)
     0.000000    0.000000    1.735687    1.735687
 ...... END OF PROPERTY EVALUATION ......
 STEP CPU TIME =     0.00 TOTAL CPU TIME =        0.0 (    0.0 MIN)
 TOTAL WALL CLOCK TIME=        0.1 SECONDS, CPU UTILIZATION IS  83.33%

 BEGINNING ONE ELECTRON GRADIENT...
 ..... END OF 1-ELECTRON GRADIENT ......
 STEP CPU TIME =     0.00 TOTAL CPU TIME =        0.0 (    0.0 MIN)
 TOTAL WALL CLOCK TIME=        0.1 SECONDS, CPU UTILIZATION IS  83.33%

          ----------------------
          GRADIENT OF THE ENERGY
          ----------------------

 THE MINIMUM MEMORY REQUIRED FOR THIS RUN IS      70500 WORDS.
 USING     997244 WORDS FOR 2E- DERIVATIVE INTEGRAL CONTRIBUTIONS.
 THE COARSE/FINE SCHWARZ SCREENINGS SKIPPED            0/           0 BLOCKS.
 THE NUMBER OF GRADIENT INTEGRAL BLOCKS COMPUTED WAS       330
 ...... END OF 2-ELECTRON GRADIENT ......
 STEP CPU TIME =     0.01 TOTAL CPU TIME =        0.1 (    0.0 MIN)
 TOTAL WALL CLOCK TIME=        0.1 SECONDS, CPU UTILIZATION IS 100.00%

                         ----------------------
                         GRADIENT OF THE ENERGY
                         ----------------------

 UNITS ARE HARTREE/BOHR    E'X               E'Y               E'Z 
    1 NITROGEN         0.000000000       0.000000000      -0.000003702
    2 HYDROGEN         0.000000000       0.000000000       0.000003702

                   MAXIMUM GRADIENT =    0.000003702
                       RMS GRADIENT =    0.000002137
  $VIB   
          IVIB=   0 IATOM=   0 ICOORD=   0 E=      -54.9557018112
  0.000000000E+00 0.000000000E+00-3.701536451E-06 0.000000000E+00 0.000000000E+00
  3.701536457E-06
  0.000000000E+00 0.000000000E+00 1.735687158E+00

..... END OF SINGLE POINT GRADIENT .....
 STEP CPU TIME =     0.00 TOTAL CPU TIME =        0.1 (    0.0 MIN)
 TOTAL WALL CLOCK TIME=        0.1 SECONDS, CPU UTILIZATION IS 100.00%
               997244  WORDS OF DYNAMIC MEMORY USED
 EXECUTION OF GAMESS TERMINATED NORMALLY Wed Aug  9 22:20:11 2017
 DDI: 263640 bytes (0.3 MB / 0 MWords) used by master data server.

 ----------------------------------------
 CPU timing information for all processes
 ========================================
 0: 0.41 + 0.22 = 0.64
 ----------------------------------------
 ddikick.x: exited gracefully.
unset echo
----- accounting info -----
Files used on the master node compute-0-5.local were:
-rw-rw-r-- 1 sarom sarom 1.2K Aug  9 22:20 /scratch/gvb-nh-3sig.F05
-rw-rw-r-- 1 sarom sarom 176K Aug  9 22:20 /scratch/gvb-nh-3sig.F08
-rw-rw-r-- 1 sarom sarom 1.7M Aug  9 22:20 /scratch/gvb-nh-3sig.F10
-rw-rw-r-- 1 sarom sarom 8.3K Aug  9 22:20 /scratch/gvb-nh-3sig.F23
rm: No match.
ls: No match.
ls: No match.
ls: No match.
Wed Aug  9 22:20:14 CDT 2017
0.257u 0.163s 0:03.54 11.5%	0+0k 8+360io 0pf+0w
/opt/gridengine/default/spool/compute-0-5/active_jobs/36214.1/pe_hostfile compute-0-5.local
