-catch_rsh /opt/gridengine/default/spool/compute-1-0/active_jobs/36205.1/pe_hostfile
compute-1-0
The primary node assigned by SGE to this run is compute-1-0
Warning: no access to tty (Bad file descriptor).
Thus no job control in this shell.
source /home/sarom/dir.git.branch.saromleang-travis-ci/install.info
setenv GMS_PATH /home/sarom/dir.git.branch.saromleang-travis-ci
setenv GMS_BUILD_DIR /home/sarom/dir.git.branch.saromleang-travis-ci
setenv GMS_TARGET linux64
setenv GMS_FORTRAN gfortran
setenv GMS_GFORTRAN_VERNO 4.4
setenv GMS_MATHLIB mkl-so
setenv GMS_MATHLIB none
setenv GMS_MATHLIB_PATH /share/apps/intel/compilers_and_libraries_2017.1.132/linux/mkl/lib/intel64
setenv GMS_MKL_VERNO 12
setenv GMS_DDI_COMM sockets
setenv GMS_LIBCCHEM false
setenv GMS_EIGEN_PATH
setenv GMS_PHI false
setenv GMS_SHMTYPE sysv
setenv GMS_OPENMP false
unset echo
gvb-h2-tcscf
/home/sarom/dir.git.branch.saromleang-travis-ci/tests/gvb/parallel
----- GAMESS execution script 'rungms' -----
This job is running on host compute-1-0.local
under operating system Linux at Wed Aug 9 22:18:41 CDT 2017
Available scratch disk space (Kbyte units) at beginning of the job is
Filesystem           1K-blocks      Used Available Use% Mounted on
/dev/sda1             16126920   9111844   6195876  60% /
GAMESS temporary binary files will be written to /scratch
GAMESS supplementary output files will be written to /home/sarom/restart
Copying input file gvb-h2-tcscf.inp to your run's scratch directory...
cp /home/sarom/dir.git.branch.saromleang-travis-ci/tests/gvb/parallel/gvb-h2-tcscf.inp /scratch/gvb-h2-tcscf.F05
unset echo
The generated host list is
compute-1-0.local
/home/sarom/dir.git.branch.saromleang-travis-ci/ddikick.x /home/sarom/dir.git.branch.saromleang-travis-ci/gamess.00.x gvb-h2-tcscf -ddi 1 1 compute-1-0.local -scr /scratch

 Distributed Data Interface kickoff program.
 Initiating 1 compute processes on 1 nodes to run the following command:
 /home/sarom/dir.git.branch.saromleang-travis-ci/gamess.00.x gvb-h2-tcscf 

          ******************************************************
          *         GAMESS VERSION = 20 APR 2017 (R1)          *
          *             FROM IOWA STATE UNIVERSITY             *
          * M.W.SCHMIDT, K.K.BALDRIDGE, J.A.BOATZ, S.T.ELBERT, *
          *   M.S.GORDON, J.H.JENSEN, S.KOSEKI, N.MATSUNAGA,   *
          *          K.A.NGUYEN, S.J.SU, T.L.WINDUS,           *
          *       TOGETHER WITH M.DUPUIS, J.A.MONTGOMERY       *
          *         J.COMPUT.CHEM.  14, 1347-1363(1993)        *
          **************** 64 BIT LINUX VERSION ****************

  SINCE 1993, STUDENTS AND POSTDOCS WORKING AT IOWA STATE UNIVERSITY
  AND ALSO IN THEIR VARIOUS JOBS AFTER LEAVING ISU HAVE MADE IMPORTANT
  CONTRIBUTIONS TO THE CODE:
     IVANA ADAMOVIC, CHRISTINE AIKENS, YURI ALEXEEV, POOJA ARORA,
     ANDREY ASADCHEV, ROB BELL, PRADIPTA BANDYOPADHYAY, JONATHAN BENTZ,
     BRETT BODE, KURT BRORSEN, CALEB CARLIN, GALINA CHABAN, WEI CHEN,
     CHEOL HO CHOI, PAUL DAY, ALBERT DEFUSCO, NUWAN DESILVA, TIM DUDLEY,
     DMITRI FEDOROV, GRAHAM FLETCHER, MARK FREITAG, KURT GLAESEMANN,
     DAN KEMP, GRANT MERRILL, NORIYUKI MINEZAWA, JONATHAN MULLIN,
     TAKESHI NAGATA, SEAN NEDD, HEATHER NETZLOFF, BOSILJKA NJEGIC, RYAN OLSON,
     MIKE PAK, SPENCER PRUITT, LUKE ROSKOP, JIM SHOEMAKER, LYUDMILA SLIPCHENKO,
     TONY SMITH, SAROM SOK LEANG, JIE SONG, TETSUYA TAKETSUGU, SIMON WEBB,
     PENG XU, SOOHAENG YOO, FEDERICO ZAHARIEV

  ADDITIONAL CODE HAS BEEN PROVIDED BY COLLABORATORS IN OTHER GROUPS:
     IOWA STATE UNIVERSITY:
          JOE IVANIC, AARON WEST, LAIMUTIS BYTAUTAS, KLAUS RUEDENBERG
     UNIVERSITY OF TOKYO: KIMIHIKO HIRAO, TAKAHITO NAKAJIMA,
          TAKAO TSUNEDA, MUNEAKI KAMIYA, SUSUMU YANAGISAWA,
          KIYOSHI YAGI, MAHITO CHIBA, SEIKEN TOKURA, NAOAKI KAWAKAMI
     UNIVERSITY OF AARHUS: FRANK JENSEN
     UNIVERSITY OF IOWA: VISVALDAS KAIRYS, HUI LI
     NATIONAL INST. OF STANDARDS AND TECHNOLOGY: WALT STEVENS, DAVID GARMER
     UNIVERSITY OF PISA: BENEDETTA MENNUCCI, JACOPO TOMASI
     UNIVERSITY OF MEMPHIS: HENRY KURTZ, PRAKASHAN KORAMBATH
     UNIVERSITY OF ALBERTA: TOBY ZENG, MARIUSZ KLOBUKOWSKI
     UNIVERSITY OF NEW ENGLAND: MARK SPACKMAN
     MIE UNIVERSITY: HIROAKI UMEDA
     NAT. INST. OF ADVANCED INDUSTRIAL SCIENCE AND TECHNOLOGY: KAZUO KITAURA
     MICHIGAN STATE UNIVERSITY:
          KAROL KOWALSKI, MARTA WLOCH, JEFFREY GOUR, JESSE LUTZ,
          WEI LI, PIOTR PIECUCH
     UNIVERSITY OF SILESIA: MONIKA MUSIAL, STANISLAW KUCHARSKI
     FACULTES UNIVERSITAIRES NOTRE-DAME DE LA PAIX:
          OLIVIER QUINET, BENOIT CHAMPAGNE
     UNIVERSITY OF CALIFORNIA - SANTA BARBARA: BERNARD KIRTMAN
     INSTITUTE FOR MOLECULAR SCIENCE:
          KAZUYA ISHIMURA, MICHIO KATOUDA, AND SHIGERU NAGASE
     UNIVERSITY OF NOTRE DAME: ANNA POMOGAEVA, DAN CHIPMAN
     KYUSHU UNIVERSITY:
          HARUYUKI NAKANO,
          FENG LONG GU, JACEK KORCHOWIEC, MARCIN MAKOWSKI, AND YURIKO AOKI,
          HIROTOSHI MORI AND EISAKU MIYOSHI
     PENNSYLVANIA STATE UNIVERSITY:
          TZVETELIN IORDANOV, CHET SWALINA, JONATHAN SKONE,
          SHARON HAMMES-SCHIFFER
     WASEDA UNIVERSITY:
          MASATO KOBAYASHI, TOMOKO AKAMA, TSUGUKI TOUMA,
          TAKESHI YOSHIKAWA, YASUHIRO IKABATA, JUNJI SEINO,
          YUYA NAKAJIMA, HIROMI NAKAI
     NANJING UNIVERSITY: SHUHUA LI
     UNIVERSITY OF NEBRASKA:
          PEIFENG SU, DEJUN SI, NANDUN THELLAMUREGE, YALI WANG, HUI LI
     UNIVERSITY OF ZURICH: ROBERTO PEVERATI, KIM BALDRIDGE
     N. COPERNICUS UNIVERSITY AND JACKSON STATE UNIVERSITY:
          MARIA BARYSZ
     UNIVERSITY OF COPENHAGEN: Jimmy Kromann, CASPER STEINMANN
     TOKYO INSTITUTE OF TECHNOLOGY: HIROYA NAKATA
     NAGOYA UNIVERSITY: YOSHIO NISHIMOTO, STEPHAN IRLE
     MOSCOW STATE UNIVERSITY: VLADIMIR MIRONOV

 EXECUTION OF GAMESS BEGUN Wed Aug  9 22:18:41 2017

            ECHO OF THE FIRST FEW INPUT CARDS -
 INPUT CARD>!  TCSCF H2, using near-Hartree-Fock basis set, at R=1.4 bohr.                  
 INPUT CARD>!  Test to ensure the GVB code can handle the absence of cores.                 
 INPUT CARD>!  Note that initial Huckel guess is normally not a good idea.                  
 INPUT CARD>!  This basis is from my thesis, and has 40 AOs.                                
 INPUT CARD>!                                                                               
 INPUT CARD>!  NSERCH:   0  E= -1.1521311117, R.M.S.=  0.0053312                            
 INPUT CARD>!  NSERCH:   1  E= -1.1522385785, R.M.S.=  0.0015191                            
 INPUT CARD>!  NSERCH:   2  E= -1.1522488933, R.M.S.=  0.0000677                            
 INPUT CARD>!  NSERCH:   3  E= -1.1522489134, R.M.S.=  0.0000009                            
 INPUT CARD>!  At the final geometry, FREQ=4228.31 with no intensity.                       
 INPUT CARD>!  no significant change in answers since 2001.                                 
 INPUT CARD>!                                                                               
 INPUT CARD>!  This run takes 1 seconds on 2.66 GHz Cloverton (10 Sep 2013)                 
 INPUT CARD>!                                                                               
 INPUT CARD> $contrl scftyp=gvb runtyp=optimize units=bohr $end                             
 INPUT CARD> $statpt opttol=0.00001 hssend=.true. $end                                      
 INPUT CARD> $system mwords=1 $end                                                          
 INPUT CARD> $guess  guess=huckel $end                                                      
 INPUT CARD>!   TCSCF via GVB code:                                                         
 INPUT CARD> $scf    nco=0 nseto=0 npair=1 $end                                             
 INPUT CARD>!   TCSCF via MCSCF code:                                                       
 INPUT CARD>--- $contrl scftyp=mcscf $end                                                   
 INPUT CARD>--- $det    ncore=0 nact=2 nels=2 $ned                                          
 INPUT CARD>--- $force  method=numeric nvib=2 $end                                          
 INPUT CARD> $data                                                                          
 INPUT CARD>H2 molecule...duplicating my thesis...(10s,3p,1d)/[5s,3p,1d]                    
 INPUT CARD>Dnh 4                                                                           
 INPUT CARD>                                                                                
 INPUT CARD>H 1.0  0.0 0.0 0.70                                                             
 INPUT CARD>  s 10                                                                          
 INPUT CARD>     1      .07482946 1.95156267E-01                                            
 INPUT CARD>     2      .19371702 4.53965418E-01                                            
 INPUT CARD>     3      .50149074 3.05762078E-01                                            
 INPUT CARD>     4     1.29824919 1.26532678E-01                                            
 INPUT CARD>     5     3.36088154 4.32010073E-02                                            
 INPUT CARD>     6     8.70058290 1.39530055E-02                                            
 INPUT CARD>     7    22.52389501 4.13000009E-03                                            
 INPUT CARD>     8    58.30940893 1.46823856E-03                                            
 INPUT CARD>     9   150.95023164 2.52253630E-04                                            
 INPUT CARD>    10   390.77694067 2.32656775E-04                                            
 INPUT CARD>  s 1 ; 1   .07482946 1.0                                                       
 INPUT CARD>  s 1 ; 1   .19371702 1.0                                                       
 INPUT CARD>  s 1 ; 1   .50149074 1.0                                                       
 INPUT CARD>  s 1 ; 1  1.29824919 1.0                                                       
 INPUT CARD>  p 1 ; 1  0.3 1.0                                                              
 INPUT CARD>  p 1 ; 1  1.2 1.0                                                              
 INPUT CARD>  p 1 ; 1  5.4 1.0                                                              
 INPUT CARD>  d 1 ; 1 1.96 1.0                                                              
 INPUT CARD>                                                                                
 INPUT CARD> $end                                                                           
    1000000 WORDS OF MEMORY AVAILABLE


     RUN TITLE
     ---------
 H2 molecule...duplicating my thesis...(10s,3p,1d)/[5s,3p,1d]                    

 THE POINT GROUP OF THE MOLECULE IS DNH     
 THE ORDER OF THE PRINCIPAL AXIS IS     4

 ATOM      ATOMIC                      COORDINATES (BOHR)
           CHARGE         X                   Y                   Z
 H           1.0     0.0000000000        0.0000000000       -0.7000000000
 H           1.0     0.0000000000        0.0000000000        0.7000000000

          INTERNUCLEAR DISTANCES (ANGS.)
          ------------------------------

                1 H          2 H     

   1 H       0.0000000    0.7408481 *
   2 H       0.7408481 *  0.0000000  

  * ... LESS THAN  3.000


     ATOMIC BASIS SET
     ----------------
 THE CONTRACTED PRIMITIVE FUNCTIONS HAVE BEEN UNNORMALIZED
 THE CONTRACTED BASIS FUNCTIONS ARE NOW NORMALIZED TO UNITY

  SHELL TYPE  PRIMITIVE        EXPONENT          CONTRACTION COEFFICIENT(S)

 H         

     10   S       1             0.0748295    0.195156267001
     10   S       2             0.1937170    0.453965418001
     10   S       3             0.5014907    0.305762078001
     10   S       4             1.2982492    0.126532678000
     10   S       5             3.3608815    0.043201007300
     10   S       6             8.7005829    0.013953005500
     10   S       7            22.5238950    0.004130000090
     10   S       8            58.3094089    0.001468238560
     10   S       9           150.9502316    0.000252253630
     10   S      10           390.7769407    0.000232656775

     11   S      11             0.0748295    1.000000000000

     12   S      12             0.1937170    1.000000000000

     13   S      13             0.5014907    1.000000000000

     14   S      14             1.2982492    1.000000000000

     15   P      15             0.3000000    1.000000000000

     16   P      16             1.2000000    1.000000000000

     17   P      17             5.4000000    1.000000000000

     18   D      18             1.9600000    1.000000000000

 TOTAL NUMBER OF BASIS SET SHELLS             =   18
 NUMBER OF CARTESIAN GAUSSIAN BASIS FUNCTIONS =   40
 NUMBER OF ELECTRONS                          =    2
 CHARGE OF MOLECULE                           =    0
 SPIN MULTIPLICITY                            =    1
 NUMBER OF OCCUPIED ORBITALS (ALPHA)          =    1
 NUMBER OF OCCUPIED ORBITALS (BETA )          =    1
 TOTAL NUMBER OF ATOMS                        =    2
 THE NUCLEAR REPULSION ENERGY IS        0.7142857143

 THIS MOLECULE IS RECOGNIZED AS BEING LINEAR,
 ORBITAL LZ DEGENERACY TOLERANCE ETOLLZ= 1.00E-06

     $CONTRL OPTIONS
     ---------------
 SCFTYP=GVB          RUNTYP=OPTIMIZE     EXETYP=RUN     
 MPLEVL=       0     CITYP =NONE         CCTYP =NONE         VBTYP =NONE    
 DFTTYP=NONE         TDDFT =NONE    
 MULT  =       1     ICHARG=       0     NZVAR =       0     COORD =UNIQUE  
 PP    =NONE         RELWFN=NONE         LOCAL =NONE         NUMGRD=       F
 ISPHER=      -1     NOSYM =       0     MAXIT =      30     UNITS =BOHR    
 PLTORB=       F     MOLPLT=       F     AIMPAC=       F     FRIEND=        
 NPRINT=       7     IREST =       0     GEOM  =INPUT   
 NORMF =       0     NORMP =       0     ITOL  =      20     ICUT  =       9
 INTTYP=BEST         GRDTYP=BEST         QMTTOL= 1.0E-06

     $SYSTEM OPTIONS
     ---------------
  REPLICATED MEMORY=     1000000 WORDS (ON EVERY NODE).
 DISTRIBUTED MEMDDI=           0 MILLION WORDS IN AGGREGATE,
 MEMDDI DISTRIBUTED OVER   1 PROCESSORS IS           0 WORDS/PROCESSOR.
 TOTAL MEMORY REQUESTED ON EACH PROCESSOR=     1000000 WORDS.
 TIMLIM=      525600.00 MINUTES, OR     365.0 DAYS.
 PARALL= F  BALTYP=  DLB     KDIAG=    0  COREFL= F
 MXSEQ2=     300 MXSEQ3=     150  mem10=         0

          ----------------
          PROPERTIES INPUT
          ----------------

     MOMENTS            FIELD           POTENTIAL          DENSITY
 IEMOM =       1   IEFLD =       0   IEPOT =       0   IEDEN =       0
 WHERE =COMASS     WHERE =NUCLEI     WHERE =NUCLEI     WHERE =NUCLEI  
 OUTPUT=BOTH       OUTPUT=BOTH       OUTPUT=BOTH       OUTPUT=BOTH    
 IEMINT=       0   IEFINT=       0                     IEDINT=       0
                                                       MORB  =       0
          EXTRAPOLATION IN EFFECT
          DIIS IN EFFECT
 ORBITAL PRINTING OPTION: NPREO=     1    40     2     1

          *************************
          ROHF-GVB INPUT PARAMETERS
          *************************

          NORB   =    2          NCO    =    0
          NPAIR  =    1          NSETO  =    0
          PAIR ORBITALS
          PAIR    1 HAS ORBS    1    2

          ----------------------------
          ROHF-GVB COUPLING PARAMETERS
          ----------------------------

          F VECTOR (OCCUPANCIES)
    1   0.9529411765
    2   0.0470588235
          ALPHA COUPLING COEFFICEINTS

             1           2

    1    0.9529412
    2    0.0000000   0.0470588
           BETA COUPLING COEFFICIENTS

             1           2

    1    0.0000000
    2   -0.2117647   0.0000000

          NATURAL ORBITAL COEFFICIENTS
          N.O.                PAIR CICOEF-S
            1        0.9761870602    -0.2169304578

     -------------------------------
     INTEGRAL TRANSFORMATION OPTIONS
     -------------------------------
     NWORD  =            0
     CUTOFF = 1.0E-09     MPTRAN =       0
     DIRTRF =       F     AOINTS =DUP     

          ----------------------
          INTEGRAL INPUT OPTIONS
          ----------------------
 NOPK  =       1 NORDER=       0 SCHWRZ=       F

     ------------------------------------------
     THE POINT GROUP IS DNH, NAXIS= 4, ORDER=16
     ------------------------------------------

     DIMENSIONS OF THE SYMMETRY SUBSPACES ARE
 A1G =   10     A1U =    0     B1G =    1     B1U =    1     A2G =    0
 A2U =   10     B2G =    1     B2U =    1     EG  =    4     EU  =    4

 ..... DONE SETTING UP THE RUN .....
 STEP CPU TIME =     0.01 TOTAL CPU TIME =        0.0 (    0.0 MIN)
 TOTAL WALL CLOCK TIME=        0.0 SECONDS, CPU UTILIZATION IS  50.00%


          -----------------------------
          STATIONARY POINT LOCATION RUN
          -----------------------------

 OBTAINING INITIAL HESSIAN, HESS=GUESS   
 CARTESIAN COORDINATE OPTIMIZATION USING BADGER'S RULE FORCE CONSTANT GUESS

          PARAMETERS CONTROLLING GEOMETRY SEARCH ARE
          METHOD =QA                  UPHESS =BFGS    
          NNEG   =         0          NFRZ   =         0
          NSTEP  =        50          IFOLOW =         1
          HESS   =GUESS               RESTAR =         F
          IHREP  =         0          HSSEND =         T
          NPRT   =         0          NPUN   =         0
          OPTTOL = 1.000E-05          RMIN   = 1.500E-03
          RMAX   = 1.000E-01          RLIM   = 7.000E-02
          DXMAX  = 3.000E-01          PURIFY =         F
          MOVIE  =         F          TRUPD  =         T
          TRMAX  = 5.000E-01          TRMIN  = 5.000E-02
          ITBMAT =         5          STPT   =         F
          STSTEP = 1.000E-02          PROJCT=          T

 BEGINNING GEOMETRY SEARCH POINT NSERCH=   0 ...

 COORDINATES OF SYMMETRY UNIQUE ATOMS (ANGS)
   ATOM   CHARGE       X              Y              Z
 ------------------------------------------------------------
 H           1.0   0.0000000000   0.0000000000   0.3704240745
 COORDINATES OF ALL ATOMS ARE (ANGS)
   ATOM   CHARGE       X              Y              Z
 ------------------------------------------------------------
 H           1.0   0.0000000000   0.0000000000  -0.3704240745
 H           1.0   0.0000000000   0.0000000000   0.3704240745

          ********************
          1 ELECTRON INTEGRALS
          ********************
 ...... END OF ONE-ELECTRON INTEGRALS ......
 STEP CPU TIME =     0.00 TOTAL CPU TIME =        0.0 (    0.0 MIN)
 TOTAL WALL CLOCK TIME=        0.0 SECONDS, CPU UTILIZATION IS  50.00%

          -------------
          GUESS OPTIONS
          -------------
          GUESS =HUCKEL            NORB  =       0          NORDER=       0
          MIX   =       F          PRTMO =       F          PUNMO =       F
          TOLZ  = 1.0E-08          TOLE  = 1.0E-05
          SYMDEN=       F          PURIFY=       F

 INITIAL GUESS ORBITALS GENERATED BY HUCKEL   ROUTINE.
 HUCKEL GUESS REQUIRES     13142 WORDS.

 SYMMETRIES FOR INITIAL GUESS ORBITALS FOLLOW.   BOTH SET(S).
     2 ORBITALS ARE OCCUPIED (    0 CORE ORBITALS).
     1=A1G      2=A2U      3=A1G      4=A1G      5=A1G      6=A1G      7=A1G 
     8=A1G      9=A1G     10=A1G     11=A1G     12=B1G 
 ...... END OF INITIAL ORBITAL SELECTION ......
 STEP CPU TIME =     0.00 TOTAL CPU TIME =        0.0 (    0.0 MIN)
 TOTAL WALL CLOCK TIME=        0.0 SECONDS, CPU UTILIZATION IS  33.33%

                    ----------------------
                    AO INTEGRAL TECHNOLOGY
                    ----------------------
     S,P,L SHELL ROTATED AXIS INTEGRALS, REPROGRAMMED BY
        KAZUYA ISHIMURA (IMS) AND JOSE SIERRA (SYNSTAR).
     S,P,D,L SHELL ROTATED AXIS INTEGRALS PROGRAMMED BY
        KAZUYA ISHIMURA (INSTITUTE FOR MOLECULAR SCIENCE).
     S,P,D,F,G SHELL TO TOTAL QUARTET ANGULAR MOMENTUM SUM 5,
        ERIC PROGRAM BY GRAHAM FLETCHER (ELORET AND NASA ADVANCED
        SUPERCOMPUTING DIVISION, AMES RESEARCH CENTER).
     S,P,D,F,G,L SHELL GENERAL RYS QUADRATURE PROGRAMMED BY
        MICHEL DUPUIS (PACIFIC NORTHWEST NATIONAL LABORATORY).

          --------------------
          2 ELECTRON INTEGRALS
          --------------------

 THE -PK- OPTION IS OFF, THE INTEGRALS ARE NOT IN SUPERMATRIX FORM.
 STORING   15000 INTEGRALS/RECORD ON DISK, USING 12 BYTES/INTEGRAL.
 TWO ELECTRON INTEGRAL EVALUATION REQUIRES   90567 WORDS OF MEMORY.
 II,JST,KST,LST =  1  1  1  1 NREC =         1 INTLOC =    1
 II,JST,KST,LST =  2  1  1  1 NREC =         1 INTLOC =    1
 II,JST,KST,LST =  3  1  1  1 NREC =         1 INTLOC =    1
 II,JST,KST,LST =  4  1  1  1 NREC =         1 INTLOC =    1
 II,JST,KST,LST =  5  1  1  1 NREC =         1 INTLOC =    1
 II,JST,KST,LST =  6  1  1  1 NREC =         1 INTLOC =    1
 II,JST,KST,LST =  7  1  1  1 NREC =         1 INTLOC =    1
 II,JST,KST,LST =  8  1  1  1 NREC =         1 INTLOC =    1
 II,JST,KST,LST =  9  1  1  1 NREC =         1 INTLOC =    1
 II,JST,KST,LST = 10  1  1  1 NREC =         1 INTLOC =    1
 II,JST,KST,LST = 11  1  1  1 NREC =         1 INTLOC =    5
 II,JST,KST,LST = 12  1  1  1 NREC =         1 INTLOC =   32
 II,JST,KST,LST = 13  1  1  1 NREC =         1 INTLOC =  124
 II,JST,KST,LST = 14  1  1  1 NREC =         1 INTLOC =  347
 II,JST,KST,LST = 15  1  1  1 NREC =         1 INTLOC =  791
 II,JST,KST,LST = 16  1  1  1 NREC =         1 INTLOC = 2047
 II,JST,KST,LST = 17  1  1  1 NREC =         1 INTLOC = 5406
 II,JST,KST,LST = 18  1  1  1 NREC =         1 INTLOC =12413
 TOTAL NUMBER OF NONZERO TWO-ELECTRON INTEGRALS =               46345
          4 INTEGRAL RECORDS WERE STORED ON DISK FILE  8.
  ...... END OF TWO-ELECTRON INTEGRALS .....
 STEP CPU TIME =     0.03 TOTAL CPU TIME =        0.0 (    0.0 MIN)
 TOTAL WALL CLOCK TIME=        0.0 SECONDS, CPU UTILIZATION IS  80.00%

          ------------------------
          ROHF-GVB SCF CALCULATION
          ------------------------
 GVB STEP WILL USE    138008 WORDS OF MEMORY.

     MAXIT=  30   NPUNCH= 2   SQCDF TOL=1.0000E-05
     NUCLEAR ENERGY=        0.7142857143
     EXTRAP=T   DAMP=F   SHIFT=F   RSTRCT=F   DIIS=T  SOSCF=F

 ITER EX     TOTAL ENERGY       E CHANGE        SQCDF       DIIS ERROR
          * * *   INITIATING DIIS PROCEDURE   * * *
   0  0       -1.142430124    -1.142430124   0.112429872   0.216293592
   1  1       -1.151368085    -0.008937961   0.217704936   0.124695313
   2  2       -1.151302735     0.000065350   0.178219383   0.062130171
   3  3       -1.152075333    -0.000772598   0.024501688   0.027932979
   4  4       -1.152122507    -0.000047174   0.004035608   0.002627579
   5  5       -1.152130933    -0.000008426   0.001603910   0.001031430
   6  6       -1.152131050    -0.000000117   0.000717136   0.000444224
   7  7       -1.152131110    -0.000000060   0.000445086   0.000109255
   8  8       -1.152131110    -0.000000001   0.000434606   0.000075395
   9  9       -1.152131110     0.000000000   0.000213764   0.000091985
  10 10       -1.152131112    -0.000000002   0.000010066   0.000003475
  11 11       -1.152131112    -0.000000000   0.000001076   0.000000791

          -----------------
          DENSITY CONVERGED
          -----------------

 FINAL GVB ENERGY IS       -1.1521311117 AFTER  11 ITERATIONS

          ----------------------------
          SCF STATISTICS PER ITERATION
          ----------------------------
          NUMBER OF INTEGRAL PASSES       1
          FOCK FORMATION TIME         0.002
          GEMINAL OPT TIME            0.000
          MIXORB  OPT TIME            0.002
          OCBSE   OPT TIME            0.000

          ----------------
          PAIR INFORMATION
          ----------------
      ORBITAL   CI COEFFICIENTS    OCCUPATION NUMBERS   GVB      ENERGY
 PAIR 1   2     ORB 1     ORB 2      ORB 1     ORB 2    OVERLAP  LOWERING
  1   1   2    0.993967 -0.109676   1.97594   0.02406   0.80125  -0.01882

     THE MAXIMUM LAGRANGIAN ASYMMETRY IS 3.5721603E-21

 LZ VALUE ANALYSIS FOR THE MOS
 ----------------------------------------
 MO     1 (    1) HAS LZ(WEIGHT)= 0.00(100.0%) 
 MO     2 (    2) HAS LZ(WEIGHT)= 0.00(100.0%) 
 MO     3 (    3) HAS LZ(WEIGHT)= 0.00(100.0%) 
 MO     4 (    4) HAS LZ(WEIGHT)= 0.00(100.0%) 
 MO     5 (    5) HAS LZ(WEIGHT)=-1.00( 50.0%)  1.00( 50.0%) 
 MO     6 (    5) HAS LZ(WEIGHT)=-1.00( 50.0%)  1.00( 50.0%) 
 MO     7 (    6) HAS LZ(WEIGHT)= 0.00(100.0%) 
 MO     8 (    7) HAS LZ(WEIGHT)= 0.00(100.0%) 
 MO     9 (    8) HAS LZ(WEIGHT)=-1.00( 50.0%)  1.00( 50.0%) 
 MO    10 (    8) HAS LZ(WEIGHT)=-1.00( 50.0%)  1.00( 50.0%) 
 MO    11 (    9) HAS LZ(WEIGHT)= 0.00(100.0%) 
 MO    12 (   10) HAS LZ(WEIGHT)= 0.00(100.0%) 
 MO    13 (   11) HAS LZ(WEIGHT)= 0.00(100.0%) 
 MO    14 (   12) HAS LZ(WEIGHT)=-1.00( 50.0%)  1.00( 50.0%) 
 MO    15 (   12) HAS LZ(WEIGHT)=-1.00( 50.0%)  1.00( 50.0%) 
 MO    16 (   13) HAS LZ(WEIGHT)= 0.00(100.0%) 
 MO    17 (   14) HAS LZ(WEIGHT)= 0.00(100.0%) 
 MO    18 (   15) HAS LZ(WEIGHT)=-1.00( 50.0%)  1.00( 50.0%) 
 MO    19 (   15) HAS LZ(WEIGHT)=-1.00( 50.0%)  1.00( 50.0%) 
 MO    20 (   16) HAS LZ(WEIGHT)= 0.00(100.0%) 
 MO    21 (   17) HAS LZ(WEIGHT)=-2.00( 50.0%)  2.00( 50.0%) 
 MO    22 (   17) HAS LZ(WEIGHT)=-2.00( 50.0%)  2.00( 50.0%) 
 MO    23 (   18) HAS LZ(WEIGHT)=-1.00( 50.0%)  1.00( 50.0%) 
 MO    24 (   18) HAS LZ(WEIGHT)=-1.00( 50.0%)  1.00( 50.0%) 
 MO    25 (   19) HAS LZ(WEIGHT)=-2.00( 50.0%)  2.00( 50.0%) 
 MO    26 (   19) HAS LZ(WEIGHT)=-2.00( 50.0%)  2.00( 50.0%) 
 MO    27 (   20) HAS LZ(WEIGHT)= 0.00(100.0%) 
 MO    28 (   21) HAS LZ(WEIGHT)= 0.00(100.0%) 
 MO    29 (   22) HAS LZ(WEIGHT)=-1.00( 50.0%)  1.00( 50.0%) 
 MO    30 (   22) HAS LZ(WEIGHT)=-1.00( 50.0%)  1.00( 50.0%) 
 MO    31 (   23) HAS LZ(WEIGHT)= 0.00(100.0%) 
 MO    32 (   24) HAS LZ(WEIGHT)= 0.00(100.0%) 
 MO    33 (   25) HAS LZ(WEIGHT)=-1.00( 50.0%)  1.00( 50.0%) 
 MO    34 (   25) HAS LZ(WEIGHT)=-1.00( 50.0%)  1.00( 50.0%) 
 MO    35 (   26) HAS LZ(WEIGHT)=-1.00( 50.0%)  1.00( 50.0%) 
 MO    36 (   26) HAS LZ(WEIGHT)=-1.00( 50.0%)  1.00( 50.0%) 
 MO    37 (   27) HAS LZ(WEIGHT)= 0.00(100.0%) 
 MO    38 (   28) HAS LZ(WEIGHT)= 0.00(100.0%) 
 MO    39 (   29) HAS LZ(WEIGHT)= 0.00(100.0%) 
 MO    40 (   30) HAS LZ(WEIGHT)= 0.00(100.0%) 

          ------------
          EIGENVECTORS
          ------------

                      1          2          3          4          5
                   -0.5967    -0.0002     0.1697     0.1996     0.5506
                     A1G        A2U        A1G        A2U        EU  
    1  H  1  S    0.842490   1.185082  -0.424660  -0.188192   0.000000
    2  H  1  S   -0.112611  -0.233780   1.139273   4.489364   0.000000
    3  H  1  S   -0.168685  -0.104101  -0.814581  -2.852365   0.000000
    4  H  1  S   -0.057617   0.253646   0.410365   0.141444   0.000000
    5  H  1  S   -0.006547   0.100304  -0.043271  -0.022245   0.000000
    6  H  1  X    0.000000   0.000000   0.000000   0.000000   0.562162
    7  H  1  Y    0.000000   0.000000   0.000000   0.000000   0.000000
    8  H  1  Z    0.013746   0.029936   0.005769  -0.466723   0.000000
    9  H  1  X    0.000000   0.000000   0.000000   0.000000  -0.055538
   10  H  1  Y    0.000000   0.000000   0.000000   0.000000   0.000000
   11  H  1  Z    0.011507   0.009463  -0.014573   0.046200   0.000000
   12  H  1  X    0.000000   0.000000   0.000000   0.000000   0.012005
   13  H  1  Y    0.000000   0.000000   0.000000   0.000000   0.000000
   14  H  1  Z    0.001425  -0.002595  -0.000025  -0.002769   0.000000
   15  H  1 XX    0.000089  -0.002677  -0.019659  -0.009231   0.000000
   16  H  1 YY    0.000089  -0.002677  -0.019659  -0.009231   0.000000
   17  H  1 ZZ    0.002094  -0.003561  -0.015524   0.003347   0.000000
   18  H  1 XY    0.000000   0.000000   0.000000   0.000000   0.000000
   19  H  1 XZ    0.000000   0.000000   0.000000   0.000000   0.002970
   20  H  1 YZ    0.000000   0.000000   0.000000   0.000000   0.000000
   21  H  2  S    0.842490  -1.185082  -0.424660   0.188192   0.000000
   22  H  2  S   -0.112611   0.233780   1.139273  -4.489364   0.000000
   23  H  2  S   -0.168685   0.104101  -0.814581   2.852365   0.000000
   24  H  2  S   -0.057617  -0.253646   0.410365  -0.141444   0.000000
   25  H  2  S   -0.006547  -0.100304  -0.043271   0.022245   0.000000
   26  H  2  X    0.000000   0.000000   0.000000   0.000000   0.562162
   27  H  2  Y    0.000000   0.000000   0.000000   0.000000   0.000000
   28  H  2  Z   -0.013746   0.029936  -0.005769  -0.466723   0.000000
   29  H  2  X    0.000000   0.000000   0.000000   0.000000  -0.055538
   30  H  2  Y    0.000000   0.000000   0.000000   0.000000   0.000000
   31  H  2  Z   -0.011507   0.009463   0.014573   0.046200   0.000000
   32  H  2  X    0.000000   0.000000   0.000000   0.000000   0.012005
   33  H  2  Y    0.000000   0.000000   0.000000   0.000000   0.000000
   34  H  2  Z   -0.001425  -0.002595   0.000025  -0.002769   0.000000
   35  H  2 XX    0.000089   0.002677  -0.019659   0.009231   0.000000
   36  H  2 YY    0.000089   0.002677  -0.019659   0.009231   0.000000
   37  H  2 ZZ    0.002094   0.003561  -0.015524  -0.003347   0.000000
   38  H  2 XY    0.000000   0.000000   0.000000   0.000000   0.000000
   39  H  2 XZ    0.000000   0.000000   0.000000   0.000000  -0.002970
   40  H  2 YZ    0.000000   0.000000   0.000000   0.000000   0.000000

                      6          7          8          9         10
                    0.5506     0.8307     0.8901     0.9066     0.9066
                     EU         A1G        A2U        EG         EG  
    1  H  1  S    0.000000  -0.197284  -0.351123   0.000000   0.000000
    2  H  1  S    0.000000  -0.708437  -3.646204   0.000000   0.000000
    3  H  1  S    0.000000   1.745584  10.393769   0.000000   0.000000
    4  H  1  S    0.000000  -0.906109  -0.413515   0.000000   0.000000
    5  H  1  S    0.000000   0.104346   0.023669   0.000000   0.000000
    6  H  1  X    0.000000  -0.000000   0.000000   0.000000   1.470577
    7  H  1  Y    0.562162  -0.000000   0.000000   1.470577   0.000000
    8  H  1  Z    0.000000  -0.706820   2.681371   0.000000   0.000000
    9  H  1  X    0.000000  -0.000000   0.000000   0.000000  -0.089978
   10  H  1  Y   -0.055538  -0.000000   0.000000  -0.089978   0.000000
   11  H  1  Z    0.000000   0.048036  -0.155368   0.000000   0.000000
   12  H  1  X    0.000000  -0.000000   0.000000   0.000000   0.013489
   13  H  1  Y    0.012005  -0.000000   0.000000   0.013489   0.000000
   14  H  1  Z    0.000000  -0.010470   0.012862   0.000000   0.000000
   15  H  1 XX    0.000000   0.049487   0.019983   0.000000   0.000000
   16  H  1 YY    0.000000   0.049487   0.019983   0.000000   0.000000
   17  H  1 ZZ    0.000000   0.023381  -0.017622   0.000000   0.000000
   18  H  1 XY    0.000000  -0.000000   0.000000   0.000000   0.000000
   19  H  1 XZ    0.000000  -0.000000   0.000000   0.000000   0.003328
   20  H  1 YZ    0.002970  -0.000000   0.000000   0.003328   0.000000
   21  H  2  S    0.000000  -0.197284   0.351123   0.000000   0.000000
   22  H  2  S    0.000000  -0.708437   3.646204   0.000000   0.000000
   23  H  2  S    0.000000   1.745584 -10.393769   0.000000   0.000000
   24  H  2  S    0.000000  -0.906109   0.413515   0.000000   0.000000
   25  H  2  S    0.000000   0.104346  -0.023669   0.000000   0.000000
   26  H  2  X    0.000000  -0.000000   0.000000   0.000000  -1.470577
   27  H  2  Y    0.562162  -0.000000   0.000000  -1.470577   0.000000
   28  H  2  Z    0.000000   0.706820   2.681371   0.000000   0.000000
   29  H  2  X    0.000000  -0.000000   0.000000   0.000000   0.089978
   30  H  2  Y   -0.055538  -0.000000   0.000000   0.089978   0.000000
   31  H  2  Z    0.000000  -0.048036  -0.155368   0.000000   0.000000
   32  H  2  X    0.000000  -0.000000   0.000000   0.000000  -0.013489
   33  H  2  Y    0.012005  -0.000000   0.000000  -0.013489   0.000000
   34  H  2  Z    0.000000   0.010470   0.012862   0.000000   0.000000
   35  H  2 XX    0.000000   0.049487  -0.019983   0.000000   0.000000
   36  H  2 YY    0.000000   0.049487  -0.019983   0.000000   0.000000
   37  H  2 ZZ    0.000000   0.023381   0.017622   0.000000   0.000000
   38  H  2 XY    0.000000  -0.000000   0.000000   0.000000   0.000000
   39  H  2 XZ    0.000000  -0.000000   0.000000   0.000000   0.003328
   40  H  2 YZ   -0.002970  -0.000000   0.000000   0.003328   0.000000

                     11         12         13         14         15
                    0.9757     1.4588     2.8599     2.8818     2.8818
                     A1G        A2U        A1G        EU         EU  
    1  H  1  S    0.009236  -0.185543  -2.130842   0.000000   0.000000
    2  H  1  S    0.459818  -1.046593   0.882380   0.000000   0.000000
    3  H  1  S   -1.565258   9.827012  -0.561367   0.000000   0.000000
    4  H  1  S    1.779083   4.286854   3.029541   0.000000   0.000000
    5  H  1  S   -0.152823  -0.274215  -0.791157   0.000000   0.000000
    6  H  1  X    0.000000   0.000000   0.000000  -0.392254   0.000000
    7  H  1  Y    0.000000   0.000000   0.000000   0.000000  -0.392254
    8  H  1  Z   -0.937095   5.310916   0.315662   0.000000   0.000000
    9  H  1  X    0.000000   0.000000   0.000000   0.806838   0.000000
   10  H  1  Y    0.000000   0.000000   0.000000   0.000000   0.806838
   11  H  1  Z    0.056287  -0.015200  -0.450946   0.000000   0.000000
   12  H  1  X    0.000000   0.000000   0.000000  -0.047028   0.000000
   13  H  1  Y    0.000000   0.000000   0.000000   0.000000  -0.047028
   14  H  1  Z   -0.008684   0.003528   0.017902   0.000000   0.000000
   15  H  1 XX   -0.058590  -0.099730  -0.213643   0.000000   0.000000
   16  H  1 YY   -0.058590  -0.099730  -0.213643   0.000000   0.000000
   17  H  1 ZZ   -0.062230  -0.084378  -0.122425   0.000000   0.000000
   18  H  1 XY    0.000000   0.000000   0.000000   0.000000   0.000000
   19  H  1 XZ    0.000000   0.000000   0.000000   0.009000   0.000000
   20  H  1 YZ    0.000000   0.000000   0.000000   0.000000   0.009000
   21  H  2  S    0.009236   0.185543  -2.130842   0.000000   0.000000
   22  H  2  S    0.459818   1.046593   0.882380   0.000000   0.000000
   23  H  2  S   -1.565258  -9.827012  -0.561367   0.000000   0.000000
   24  H  2  S    1.779083  -4.286854   3.029541   0.000000   0.000000
   25  H  2  S   -0.152823   0.274215  -0.791157   0.000000   0.000000
   26  H  2  X    0.000000   0.000000   0.000000  -0.392254   0.000000
   27  H  2  Y    0.000000   0.000000   0.000000   0.000000  -0.392254
   28  H  2  Z    0.937095   5.310916  -0.315662   0.000000   0.000000
   29  H  2  X    0.000000   0.000000   0.000000   0.806838   0.000000
   30  H  2  Y    0.000000   0.000000   0.000000   0.000000   0.806838
   31  H  2  Z   -0.056287  -0.015200   0.450946   0.000000   0.000000
   32  H  2  X    0.000000   0.000000   0.000000  -0.047028   0.000000
   33  H  2  Y    0.000000   0.000000   0.000000   0.000000  -0.047028
   34  H  2  Z    0.008684   0.003528  -0.017902   0.000000   0.000000
   35  H  2 XX   -0.058590   0.099730  -0.213643   0.000000   0.000000
   36  H  2 YY   -0.058590   0.099730  -0.213643   0.000000   0.000000
   37  H  2 ZZ   -0.062230   0.084378  -0.122425   0.000000   0.000000
   38  H  2 XY    0.000000   0.000000   0.000000   0.000000   0.000000
   39  H  2 XZ    0.000000   0.000000   0.000000  -0.009000   0.000000
   40  H  2 YZ    0.000000   0.000000   0.000000   0.000000  -0.009000

                     16         17         18         19         20
                    3.2798     3.4974     3.6576     3.6576     4.9035
                     A2U        A1G        EG         EG         A2U 
    1  H  1  S   -2.698743  -2.050650   0.000000   0.000000  -1.230500
    2  H  1  S    1.552772   0.594935   0.000000   0.000000  -0.624668
    3  H  1  S    0.585085   0.021148   0.000000   0.000000   4.981653
    4  H  1  S    6.080601   2.606485   0.000000   0.000000   0.263885
    5  H  1  S   -1.102449  -0.751107   0.000000   0.000000  -0.310761
    6  H  1  X    0.000000  -0.000000   0.000000  -0.741707  -0.000000
    7  H  1  Y    0.000000  -0.000000  -0.741707   0.000000  -0.000000
    8  H  1  Z    1.247041  -0.525495   0.000000   0.000000   1.917486
    9  H  1  X    0.000000  -0.000000   0.000000   1.004194  -0.000000
   10  H  1  Y    0.000000  -0.000000   1.004194   0.000000  -0.000000
   11  H  1  Z    0.590644   0.635703   0.000000   0.000000  -1.982849
   12  H  1  X    0.000000  -0.000000   0.000000  -0.054573  -0.000000
   13  H  1  Y    0.000000  -0.000000  -0.054573   0.000000  -0.000000
   14  H  1  Z   -0.030765  -0.034332   0.000000   0.000000   0.091142
   15  H  1 XX   -0.258064  -0.145867   0.000000   0.000000  -0.092449
   16  H  1 YY   -0.258064  -0.145867   0.000000   0.000000  -0.092449
   17  H  1 ZZ   -0.099185  -0.240879   0.000000   0.000000  -0.189085
   18  H  1 XY    0.000000  -0.000000   0.000000   0.000000  -0.000000
   19  H  1 XZ    0.000000  -0.000000   0.000000  -0.049328  -0.000000
   20  H  1 YZ    0.000000  -0.000000  -0.049328   0.000000  -0.000000
   21  H  2  S    2.698743  -2.050650   0.000000   0.000000   1.230500
   22  H  2  S   -1.552772   0.594935   0.000000   0.000000   0.624668
   23  H  2  S   -0.585085   0.021148   0.000000   0.000000  -4.981653
   24  H  2  S   -6.080601   2.606485   0.000000   0.000000  -0.263885
   25  H  2  S    1.102449  -0.751107   0.000000   0.000000   0.310761
   26  H  2  X    0.000000  -0.000000   0.000000   0.741707  -0.000000
   27  H  2  Y    0.000000  -0.000000   0.741707   0.000000  -0.000000
   28  H  2  Z    1.247041   0.525495   0.000000   0.000000   1.917486
   29  H  2  X    0.000000  -0.000000   0.000000  -1.004194  -0.000000
   30  H  2  Y    0.000000  -0.000000  -1.004194   0.000000  -0.000000
   31  H  2  Z    0.590644  -0.635703   0.000000   0.000000  -1.982849
   32  H  2  X    0.000000  -0.000000   0.000000   0.054573  -0.000000
   33  H  2  Y    0.000000  -0.000000   0.054573   0.000000  -0.000000
   34  H  2  Z   -0.030765   0.034332   0.000000   0.000000   0.091142
   35  H  2 XX    0.258064  -0.145867   0.000000   0.000000   0.092449
   36  H  2 YY    0.258064  -0.145867   0.000000   0.000000   0.092449
   37  H  2 ZZ    0.099185  -0.240879   0.000000   0.000000   0.189085
   38  H  2 XY    0.000000  -0.000000   0.000000   0.000000  -0.000000
   39  H  2 XZ    0.000000  -0.000000   0.000000  -0.049328  -0.000000
   40  H  2 YZ    0.000000  -0.000000  -0.049328   0.000000  -0.000000

                     21         22         23         24         25
                    5.9474     5.9474     6.2676     6.2676     7.0768
                     B1G        B2G        EU         EU         B1U 
    1  H  1  S    0.000000   0.000000   0.000000   0.000000   0.000000
    2  H  1  S    0.000000   0.000000   0.000000   0.000000   0.000000
    3  H  1  S    0.000000   0.000000   0.000000   0.000000   0.000000
    4  H  1  S    0.000000   0.000000   0.000000   0.000000   0.000000
    5  H  1  S    0.000000   0.000000   0.000000   0.000000   0.000000
    6  H  1  X    0.000000   0.000000   0.070303   0.000000   0.000000
    7  H  1  Y    0.000000   0.000000   0.000000   0.070303   0.000000
    8  H  1  Z    0.000000   0.000000   0.000000   0.000000   0.000000
    9  H  1  X    0.000000   0.000000  -0.221003   0.000000   0.000000
   10  H  1  Y    0.000000   0.000000   0.000000  -0.221003   0.000000
   11  H  1  Z    0.000000   0.000000   0.000000   0.000000   0.000000
   12  H  1  X    0.000000   0.000000   0.023153   0.000000   0.000000
   13  H  1  Y    0.000000   0.000000   0.000000   0.023153   0.000000
   14  H  1  Z    0.000000   0.000000   0.000000   0.000000   0.000000
   15  H  1 XX    0.571914   0.000000   0.000000   0.000000   0.000000
   16  H  1 YY   -0.571914   0.000000   0.000000   0.000000   0.000000
   17  H  1 ZZ    0.000000   0.000000   0.000000   0.000000   0.000000
   18  H  1 XY    0.000000   0.660389   0.000000   0.000000   0.765386
   19  H  1 XZ    0.000000   0.000000   0.614441   0.000000   0.000000
   20  H  1 YZ    0.000000   0.000000   0.000000   0.614441   0.000000
   21  H  2  S    0.000000   0.000000   0.000000   0.000000   0.000000
   22  H  2  S    0.000000   0.000000   0.000000   0.000000   0.000000
   23  H  2  S    0.000000   0.000000   0.000000   0.000000   0.000000
   24  H  2  S    0.000000   0.000000   0.000000   0.000000   0.000000
   25  H  2  S    0.000000   0.000000   0.000000   0.000000   0.000000
   26  H  2  X    0.000000   0.000000   0.070303   0.000000   0.000000
   27  H  2  Y    0.000000   0.000000   0.000000   0.070303   0.000000
   28  H  2  Z    0.000000   0.000000   0.000000   0.000000   0.000000
   29  H  2  X    0.000000   0.000000  -0.221003   0.000000   0.000000
   30  H  2  Y    0.000000   0.000000   0.000000  -0.221003   0.000000
   31  H  2  Z    0.000000   0.000000   0.000000   0.000000   0.000000
   32  H  2  X    0.000000   0.000000   0.023153   0.000000   0.000000
   33  H  2  Y    0.000000   0.000000   0.000000   0.023153   0.000000
   34  H  2  Z    0.000000   0.000000   0.000000   0.000000   0.000000
   35  H  2 XX    0.571914   0.000000   0.000000   0.000000   0.000000
   36  H  2 YY   -0.571914   0.000000   0.000000   0.000000   0.000000
   37  H  2 ZZ    0.000000   0.000000   0.000000   0.000000   0.000000
   38  H  2 XY    0.000000   0.660389   0.000000   0.000000  -0.765386
   39  H  2 XZ    0.000000   0.000000  -0.614441   0.000000   0.000000
   40  H  2 YZ    0.000000   0.000000   0.000000  -0.614441   0.000000

                     26         27         28         29         30
                    7.0768     7.9150     8.9615     8.9878     8.9878
                     B2U        A1G        A2U        EG         EG  
    1  H  1  S    0.000000  -1.143101  -1.438678   0.000000   0.000000
    2  H  1  S    0.000000   0.371506   0.702173   0.000000   0.000000
    3  H  1  S    0.000000   0.027851   0.773876   0.000000   0.000000
    4  H  1  S    0.000000   1.380955   3.823809   0.000000   0.000000
    5  H  1  S    0.000000  -0.176081   1.144288   0.000000   0.000000
    6  H  1  X    0.000000   0.000000   0.000000   0.000000   0.060288
    7  H  1  Y    0.000000   0.000000   0.000000   0.060288   0.000000
    8  H  1  Z    0.000000   0.224158   0.891826   0.000000   0.000000
    9  H  1  X    0.000000   0.000000   0.000000   0.000000   0.519604
   10  H  1  Y    0.000000   0.000000   0.000000   0.519604   0.000000
   11  H  1  Z    0.000000  -0.059075   0.875693   0.000000   0.000000
   12  H  1  X    0.000000   0.000000   0.000000   0.000000   0.000190
   13  H  1  Y    0.000000   0.000000   0.000000   0.000190   0.000000
   14  H  1  Z    0.000000   0.081170  -0.025862   0.000000   0.000000
   15  H  1 XX    0.662844  -0.645113  -1.144230   0.000000   0.000000
   16  H  1 YY   -0.662844  -0.645113  -1.144230   0.000000   0.000000
   17  H  1 ZZ    0.000000   0.442842  -0.227334   0.000000   0.000000
   18  H  1 XY    0.000000   0.000000   0.000000   0.000000   0.000000
   19  H  1 XZ    0.000000   0.000000   0.000000   0.000000   1.073429
   20  H  1 YZ    0.000000   0.000000   0.000000   1.073429   0.000000
   21  H  2  S    0.000000  -1.143101   1.438678   0.000000   0.000000
   22  H  2  S    0.000000   0.371506  -0.702173   0.000000   0.000000
   23  H  2  S    0.000000   0.027851  -0.773876   0.000000   0.000000
   24  H  2  S    0.000000   1.380955  -3.823809   0.000000   0.000000
   25  H  2  S    0.000000  -0.176081  -1.144288   0.000000   0.000000
   26  H  2  X    0.000000   0.000000   0.000000   0.000000  -0.060288
   27  H  2  Y    0.000000   0.000000   0.000000  -0.060288   0.000000
   28  H  2  Z    0.000000  -0.224158   0.891826   0.000000   0.000000
   29  H  2  X    0.000000   0.000000   0.000000   0.000000  -0.519604
   30  H  2  Y    0.000000   0.000000   0.000000  -0.519604   0.000000
   31  H  2  Z    0.000000   0.059075   0.875693   0.000000   0.000000
   32  H  2  X    0.000000   0.000000   0.000000   0.000000  -0.000190
   33  H  2  Y    0.000000   0.000000   0.000000  -0.000190   0.000000
   34  H  2  Z    0.000000  -0.081170  -0.025862   0.000000   0.000000
   35  H  2 XX   -0.662844  -0.645113   1.144230   0.000000   0.000000
   36  H  2 YY    0.662844  -0.645113   1.144230   0.000000   0.000000
   37  H  2 ZZ    0.000000   0.442842   0.227334   0.000000   0.000000
   38  H  2 XY    0.000000   0.000000   0.000000   0.000000   0.000000
   39  H  2 XZ    0.000000   0.000000   0.000000   0.000000   1.073429
   40  H  2 YZ    0.000000   0.000000   0.000000   1.073429   0.000000

                     31         32         33         34         35
                    9.2620    12.0363    15.1584    15.1584    15.3192
                     A1G        A2U        EU         EU         EG  
    1  H  1  S   -1.903746   3.145097  -0.000000  -0.000000   0.000000
    2  H  1  S    0.574269  -0.144272  -0.000000  -0.000000   0.000000
    3  H  1  S    0.067094  -3.792206  -0.000000  -0.000000   0.000000
    4  H  1  S    2.287246  -0.013670  -0.000000  -0.000000   0.000000
    5  H  1  S    1.343939   0.407700  -0.000000  -0.000000   0.000000
    6  H  1  X    0.000000   0.000000   0.141699  -0.000000   0.000000
    7  H  1  Y    0.000000   0.000000  -0.000000   0.141699   0.295335
    8  H  1  Z   -0.117138  -0.987686  -0.000000  -0.000000   0.000000
    9  H  1  X    0.000000   0.000000  -0.469926  -0.000000   0.000000
   10  H  1  Y    0.000000   0.000000  -0.000000  -0.469926  -0.680866
   11  H  1  Z    0.109235   4.750171  -0.000000  -0.000000   0.000000
   12  H  1  X    0.000000   0.000000   0.851737  -0.000000   0.000000
   13  H  1  Y    0.000000   0.000000  -0.000000   0.851737   0.869224
   14  H  1  Z   -0.053204  -0.275257  -0.000000  -0.000000   0.000000
   15  H  1 XX   -0.977821   0.105662  -0.000000  -0.000000   0.000000
   16  H  1 YY   -0.977821   0.105662  -0.000000  -0.000000   0.000000
   17  H  1 ZZ   -1.101712   3.471255  -0.000000  -0.000000   0.000000
   18  H  1 XY    0.000000   0.000000  -0.000000  -0.000000   0.000000
   19  H  1 XZ    0.000000   0.000000   0.011330  -0.000000   0.000000
   20  H  1 YZ    0.000000   0.000000  -0.000000   0.011330  -0.150809
   21  H  2  S   -1.903746  -3.145097  -0.000000  -0.000000   0.000000
   22  H  2  S    0.574269   0.144272  -0.000000  -0.000000   0.000000
   23  H  2  S    0.067094   3.792206  -0.000000  -0.000000   0.000000
   24  H  2  S    2.287246   0.013670  -0.000000  -0.000000   0.000000
   25  H  2  S    1.343939  -0.407700  -0.000000  -0.000000   0.000000
   26  H  2  X    0.000000   0.000000   0.141699  -0.000000   0.000000
   27  H  2  Y    0.000000   0.000000  -0.000000   0.141699  -0.295335
   28  H  2  Z    0.117138  -0.987686  -0.000000  -0.000000   0.000000
   29  H  2  X    0.000000   0.000000  -0.469926  -0.000000   0.000000
   30  H  2  Y    0.000000   0.000000  -0.000000  -0.469926   0.680866
   31  H  2  Z   -0.109235   4.750171  -0.000000  -0.000000   0.000000
   32  H  2  X    0.000000   0.000000   0.851737  -0.000000   0.000000
   33  H  2  Y    0.000000   0.000000  -0.000000   0.851737  -0.869224
   34  H  2  Z    0.053204  -0.275257  -0.000000  -0.000000   0.000000
   35  H  2 XX   -0.977821  -0.105662  -0.000000  -0.000000   0.000000
   36  H  2 YY   -0.977821  -0.105662  -0.000000  -0.000000   0.000000
   37  H  2 ZZ   -1.101712  -3.471255  -0.000000  -0.000000   0.000000
   38  H  2 XY    0.000000   0.000000  -0.000000  -0.000000   0.000000
   39  H  2 XZ    0.000000   0.000000  -0.011330  -0.000000   0.000000
   40  H  2 YZ    0.000000   0.000000  -0.000000  -0.011330  -0.150809

                     36         37         38         39         40
                   15.3192    15.4974    16.6159    31.5722    31.8820
                     EG         A2U        A1G        A1G        A2U 
    1  H  1  S    0.000000   0.173817   0.679250  62.707941  62.821254
    2  H  1  S    0.000000  -0.409807  -0.102017 -12.326801 -12.311226
    3  H  1  S    0.000000   1.458260  -0.331408 -28.163190 -29.036252
    4  H  1  S    0.000000  -0.508111  -0.369479 -19.550970 -19.793871
    5  H  1  S    0.000000  -0.107232   0.259054 -15.449695 -15.157201
    6  H  1  X    0.295335   0.000000   0.000000   0.000000   0.000000
    7  H  1  Y    0.000000   0.000000   0.000000   0.000000   0.000000
    8  H  1  Z    0.000000   0.554213   0.192577   0.019166  -0.469260
    9  H  1  X   -0.680866   0.000000   0.000000   0.000000   0.000000
   10  H  1  Y    0.000000   0.000000   0.000000   0.000000   0.000000
   11  H  1  Z    0.000000  -0.603454  -0.554350   0.015305   0.635108
   12  H  1  X    0.869224   0.000000   0.000000   0.000000   0.000000
   13  H  1  Y    0.000000   0.000000   0.000000   0.000000   0.000000
   14  H  1  Z    0.000000   0.844789   0.925999  -0.072186   0.012350
   15  H  1 XX    0.000000   0.071125   0.064348   2.357326   2.332878
   16  H  1 YY    0.000000   0.071125   0.064348   2.357326   2.332878
   17  H  1 ZZ    0.000000   0.277002  -0.293821   2.392358   2.749073
   18  H  1 XY    0.000000   0.000000   0.000000   0.000000   0.000000
   19  H  1 XZ   -0.150809   0.000000   0.000000   0.000000   0.000000
   20  H  1 YZ    0.000000   0.000000   0.000000   0.000000   0.000000
   21  H  2  S    0.000000  -0.173817   0.679250  62.707941 -62.821254
   22  H  2  S    0.000000   0.409807  -0.102017 -12.326801  12.311226
   23  H  2  S    0.000000  -1.458260  -0.331408 -28.163190  29.036252
   24  H  2  S    0.000000   0.508111  -0.369479 -19.550970  19.793871
   25  H  2  S    0.000000   0.107232   0.259054 -15.449695  15.157201
   26  H  2  X   -0.295335   0.000000   0.000000   0.000000   0.000000
   27  H  2  Y    0.000000   0.000000   0.000000   0.000000   0.000000
   28  H  2  Z    0.000000   0.554213  -0.192577  -0.019166  -0.469260
   29  H  2  X    0.680866   0.000000   0.000000   0.000000   0.000000
   30  H  2  Y    0.000000   0.000000   0.000000   0.000000   0.000000
   31  H  2  Z    0.000000  -0.603454   0.554350  -0.015305   0.635108
   32  H  2  X   -0.869224   0.000000   0.000000   0.000000   0.000000
   33  H  2  Y    0.000000   0.000000   0.000000   0.000000   0.000000
   34  H  2  Z    0.000000   0.844789  -0.925999   0.072186   0.012350
   35  H  2 XX    0.000000  -0.071125   0.064348   2.357326  -2.332878
   36  H  2 YY    0.000000  -0.071125   0.064348   2.357326  -2.332878
   37  H  2 ZZ    0.000000  -0.277002  -0.293821   2.392358  -2.749073
   38  H  2 XY    0.000000   0.000000   0.000000   0.000000   0.000000
   39  H  2 XZ   -0.150809   0.000000   0.000000   0.000000   0.000000
   40  H  2 YZ    0.000000   0.000000   0.000000   0.000000   0.000000

          -----------
          GI ORBITALS
          -----------


                    PAIR   1

                      1          2

    1  H  1  S    1.173118  -0.425947
    2  H  1  S   -0.180567   0.033173
    3  H  1  S   -0.192901   0.127268
    4  H  1  S    0.025280   0.134639
    5  H  1  S    0.025407   0.037833
    6  H  1  X    0.000000   0.000000
    7  H  1  Y    0.000000   0.000000
    8  H  1  Z    0.022482  -0.003608
    9  H  1  X    0.000000   0.000000
   10  H  1  Y    0.000000   0.000000
   11  H  1  Z    0.013903  -0.007937
   12  H  1  X    0.000000   0.000000
   13  H  1  Y    0.000000   0.000000
   14  H  1  Z    0.000534  -0.002170
   15  H  1 XX   -0.000760  -0.000928
   16  H  1 YY   -0.000760  -0.000928
   17  H  1 ZZ    0.000865  -0.003110
   18  H  1 XY    0.000000   0.000000
   19  H  1 XZ    0.000000   0.000000
   20  H  1 YZ    0.000000   0.000000
   21  H  2  S    0.425947  -1.173118
   22  H  2  S   -0.033173   0.180567
   23  H  2  S   -0.127268   0.192901
   24  H  2  S   -0.134639  -0.025280
   25  H  2  S   -0.037833  -0.025407
   26  H  2  X    0.000000   0.000000
   27  H  2  Y    0.000000   0.000000
   28  H  2  Z   -0.003608   0.022482
   29  H  2  X    0.000000   0.000000
   30  H  2  Y    0.000000   0.000000
   31  H  2  Z   -0.007937   0.013903
   32  H  2  X    0.000000   0.000000
   33  H  2  Y    0.000000   0.000000
   34  H  2  Z   -0.002170   0.000534
   35  H  2 XX    0.000928   0.000760
   36  H  2 YY    0.000928   0.000760
   37  H  2 ZZ    0.003110  -0.000865
   38  H  2 XY    0.000000   0.000000
   39  H  2 XZ    0.000000   0.000000
   40  H  2 YZ    0.000000   0.000000

 ... END OF ROHF-GVB SCF CALCULATION ...
 STEP CPU TIME =     0.04 TOTAL CPU TIME =        0.1 (    0.0 MIN)
 TOTAL WALL CLOCK TIME=        0.1 SECONDS, CPU UTILIZATION IS  88.89%

     ----------------------------------------------------------------
     PROPERTY VALUES FOR THE GVB   SELF-CONSISTENT FIELD WAVEFUNCTION
     ----------------------------------------------------------------

          -----------------
          ENERGY COMPONENTS
          -----------------

         WAVEFUNCTION NORMALIZATION =       1.0000000000

                ONE ELECTRON ENERGY =      -2.4921554510
                TWO ELECTRON ENERGY =       0.6257386251
           NUCLEAR REPULSION ENERGY =       0.7142857143
                                      ------------------
                       TOTAL ENERGY =      -1.1521311117

 ELECTRON-ELECTRON POTENTIAL ENERGY =       0.6257386251
  NUCLEUS-ELECTRON POTENTIAL ENERGY =      -3.6571936343
   NUCLEUS-NUCLEUS POTENTIAL ENERGY =       0.7142857143
                                      ------------------
             TOTAL POTENTIAL ENERGY =      -2.3171692950
               TOTAL KINETIC ENERGY =       1.1650381833
                 VIRIAL RATIO (V/T) =       1.9889213317

          ---------------------------------------
          MULLIKEN AND LOWDIN POPULATION ANALYSES
          ---------------------------------------

     ATOMIC MULLIKEN POPULATION IN EACH MOLECULAR ORBITAL

                      1          2

                  1.975942   0.024058

    1             0.987971   0.012029
    2             0.987971   0.012029

               ----- POPULATIONS IN EACH AO -----
                             MULLIKEN      LOWDIN
              1  H  1  S      1.55160     0.22677
              2  H  1  S     -0.16209     0.09996
              3  H  1  S     -0.30078     0.20396
              4  H  1  S     -0.09673     0.19083
              5  H  1  S     -0.00742     0.12170
              6  H  1  X      0.00000     0.00000
              7  H  1  Y      0.00000     0.00000
              8  H  1  Z      0.00819     0.02232
              9  H  1  X      0.00000     0.00000
             10  H  1  Y      0.00000     0.00000
             11  H  1  Z      0.00460     0.00649
             12  H  1  X      0.00000     0.00000
             13  H  1  Y      0.00000     0.00000
             14  H  1  Z      0.00015     0.00016
             15  H  1 XX      0.00006     0.03888
             16  H  1 YY      0.00006     0.03888
             17  H  1 ZZ      0.00234     0.05005
             18  H  1 XY      0.00000     0.00000
             19  H  1 XZ      0.00000     0.00000
             20  H  1 YZ      0.00000     0.00000
             21  H  2  S      1.55160     0.22677
             22  H  2  S     -0.16209     0.09996
             23  H  2  S     -0.30078     0.20396
             24  H  2  S     -0.09673     0.19083
             25  H  2  S     -0.00742     0.12170
             26  H  2  X      0.00000     0.00000
             27  H  2  Y      0.00000     0.00000
             28  H  2  Z      0.00819     0.02232
             29  H  2  X      0.00000     0.00000
             30  H  2  Y      0.00000     0.00000
             31  H  2  Z      0.00460     0.00649
             32  H  2  X      0.00000     0.00000
             33  H  2  Y      0.00000     0.00000
             34  H  2  Z      0.00015     0.00016
             35  H  2 XX      0.00006     0.03888
             36  H  2 YY      0.00006     0.03888
             37  H  2 ZZ      0.00234     0.05005
             38  H  2 XY      0.00000     0.00000
             39  H  2 XZ      0.00000     0.00000
             40  H  2 YZ      0.00000     0.00000

          ----- MULLIKEN ATOMIC OVERLAP POPULATIONS -----
          (OFF-DIAGONAL ELEMENTS NEED TO BE MULTIPLIED BY 2)

             1           2

    1    0.6106464
    2    0.3893536   0.6106464

          TOTAL MULLIKEN AND LOWDIN ATOMIC POPULATIONS
       ATOM         MULL.POP.    CHARGE          LOW.POP.     CHARGE
    1 H             1.000000    0.000000         1.000000   -0.000000
    2 H             1.000000    0.000000         1.000000    0.000000

          ---------------------
          ELECTROSTATIC MOMENTS
          ---------------------

 POINT   1           X           Y           Z (BOHR)    CHARGE
                 0.000000    0.000000    0.000000        0.00 (A.U.)
         DX          DY          DZ         /D/  (DEBYE)
     0.000000    0.000000    0.000000    0.000000
 ...... END OF PROPERTY EVALUATION ......
 STEP CPU TIME =     0.00 TOTAL CPU TIME =        0.1 (    0.0 MIN)
 TOTAL WALL CLOCK TIME=        0.1 SECONDS, CPU UTILIZATION IS  88.89%

 BEGINNING ONE ELECTRON GRADIENT...
 ..... END OF 1-ELECTRON GRADIENT ......
 STEP CPU TIME =     0.01 TOTAL CPU TIME =        0.1 (    0.0 MIN)
 TOTAL WALL CLOCK TIME=        0.1 SECONDS, CPU UTILIZATION IS 100.00%

          ----------------------
          GRADIENT OF THE ENERGY
          ----------------------

 THE MINIMUM MEMORY REQUIRED FOR THIS RUN IS      81724 WORDS.
 USING     996274 WORDS FOR 2E- DERIVATIVE INTEGRAL CONTRIBUTIONS.
 THE COARSE/FINE SCHWARZ SCREENINGS SKIPPED            0/          64 BLOCKS.
 THE NUMBER OF GRADIENT INTEGRAL BLOCKS COMPUTED WAS      6317
 ...... END OF 2-ELECTRON GRADIENT ......
 STEP CPU TIME =     0.03 TOTAL CPU TIME =        0.1 (    0.0 MIN)
 TOTAL WALL CLOCK TIME=        0.1 SECONDS, CPU UTILIZATION IS 100.00%

          NSERCH=  0     ENERGY=      -1.1521311

                                 -----------------------
                                 GRADIENT (HARTREE/BOHR)
                                 -----------------------
        ATOM     ZNUC       DE/DX         DE/DY         DE/DZ
 --------------------------------------------------------------
    1  H            1.0     0.0000000     0.0000000     0.0092340
    2  H            1.0     0.0000000     0.0000000    -0.0092340

          MAXIMUM GRADIENT = 0.0092340    RMS GRADIENT = 0.0053312

 NSERCH:   0  E=       -1.1521311117  GRAD. MAX=  0.0092340  R.M.S.=  0.0053312

          FORCE CONSTANT MATRIX NOT UPDATED --- TAKING FIRST STEP
          MIN SEARCH, CORRECT HESSIAN, TRYING PURE NR STEP
               NR STEP HAS LENGTH         =   0.023843
          RADIUS OF STEP TAKEN=   0.02384  CURRENT TRUST RADIUS=   0.30000

 BEGINNING GEOMETRY SEARCH POINT NSERCH=   1 ...

 COORDINATES OF SYMMETRY UNIQUE ATOMS (ANGS)
   ATOM   CHARGE       X              Y              Z
 ------------------------------------------------------------
 H           1.0   0.0000000000   0.0000000000   0.3793458186
 COORDINATES OF ALL ATOMS ARE (ANGS)
   ATOM   CHARGE       X              Y              Z
 ------------------------------------------------------------
 H           1.0   0.0000000000   0.0000000000  -0.3793458186
 H           1.0   0.0000000000   0.0000000000   0.3793458186

          INTERNUCLEAR DISTANCES (ANGS.)
          ------------------------------

                1 H          2 H     

   1 H       0.0000000    0.7586916 *
   2 H       0.7586916 *  0.0000000  

  * ... LESS THAN  3.000

 ...... END OF ONE-ELECTRON INTEGRALS ......
 STEP CPU TIME =     0.00 TOTAL CPU TIME =        0.1 (    0.0 MIN)
 TOTAL WALL CLOCK TIME=        0.1 SECONDS, CPU UTILIZATION IS  92.31%
 TOTAL NUMBER OF NONZERO TWO-ELECTRON INTEGRALS =               46345
          4 INTEGRAL RECORDS WERE STORED ON DISK FILE  8.
  ...... END OF TWO-ELECTRON INTEGRALS .....
 STEP CPU TIME =     0.01 TOTAL CPU TIME =        0.1 (    0.0 MIN)
 TOTAL WALL CLOCK TIME=        0.1 SECONDS, CPU UTILIZATION IS  92.86%

          ------------------------
          ROHF-GVB SCF CALCULATION
          ------------------------

 ITER EX     TOTAL ENERGY       E CHANGE        SQCDF       DIIS ERROR
          * * *   INITIATING DIIS PROCEDURE   * * *
   0  0       -1.152189763    -1.152189763   0.004704928   0.005993830
   1  1       -1.152236676    -0.000046912   0.002813186   0.001748371
   2  2       -1.152238323    -0.000001647   0.004828877   0.001120115
   3  3       -1.152238248     0.000000075   0.003119834   0.001495537
   4  4       -1.152238571    -0.000000323   0.000212195   0.000157799
   5  5       -1.152238578    -0.000000007   0.000033074   0.000040381
   6  6       -1.152238578    -0.000000000   0.000012380   0.000011750

          -----------------
          DENSITY CONVERGED
          -----------------

 FINAL GVB ENERGY IS       -1.1522385785 AFTER   6 ITERATIONS

          ----------------
          PAIR INFORMATION
          ----------------
      ORBITAL   CI COEFFICIENTS    OCCUPATION NUMBERS   GVB      ENERGY
 PAIR 1   2     ORB 1     ORB 2      ORB 1     ORB 2    OVERLAP  LOWERING
  1   1   2    0.993619 -0.112792   1.97456   0.02544   0.79611  -0.01934

     THE MAXIMUM LAGRANGIAN ASYMMETRY IS 1.9203765E-21

 LZ VALUE ANALYSIS FOR THE MOS
 ----------------------------------------
 MO     1 (    1) HAS LZ(WEIGHT)= 0.00(100.0%) 
 MO     2 (    2) HAS LZ(WEIGHT)= 0.00(100.0%) 
 MO     3 (    3) HAS LZ(WEIGHT)= 0.00(100.0%) 
 MO     4 (    4) HAS LZ(WEIGHT)= 0.00(100.0%) 
 MO     5 (    5) HAS LZ(WEIGHT)=-1.00( 50.0%)  1.00( 50.0%) 
 MO     6 (    5) HAS LZ(WEIGHT)=-1.00( 50.0%)  1.00( 50.0%) 
 MO     7 (    6) HAS LZ(WEIGHT)= 0.00(100.0%) 
 MO     8 (    7) HAS LZ(WEIGHT)= 0.00(100.0%) 
 MO     9 (    8) HAS LZ(WEIGHT)=-1.00( 50.0%)  1.00( 50.0%) 
 MO    10 (    8) HAS LZ(WEIGHT)=-1.00( 50.0%)  1.00( 50.0%) 
 MO    11 (    9) HAS LZ(WEIGHT)= 0.00(100.0%) 
 MO    12 (   10) HAS LZ(WEIGHT)= 0.00(100.0%) 
 MO    13 (   11) HAS LZ(WEIGHT)= 0.00(100.0%) 
 MO    14 (   12) HAS LZ(WEIGHT)=-1.00( 50.0%)  1.00( 50.0%) 
 MO    15 (   12) HAS LZ(WEIGHT)=-1.00( 50.0%)  1.00( 50.0%) 
 MO    16 (   13) HAS LZ(WEIGHT)= 0.00(100.0%) 
 MO    17 (   14) HAS LZ(WEIGHT)= 0.00(100.0%) 
 MO    18 (   15) HAS LZ(WEIGHT)=-1.00( 50.0%)  1.00( 50.0%) 
 MO    19 (   15) HAS LZ(WEIGHT)=-1.00( 50.0%)  1.00( 50.0%) 
 MO    20 (   16) HAS LZ(WEIGHT)= 0.00(100.0%) 
 MO    21 (   17) HAS LZ(WEIGHT)=-2.00( 50.0%)  2.00( 50.0%) 
 MO    22 (   17) HAS LZ(WEIGHT)=-2.00( 50.0%)  2.00( 50.0%) 
 MO    23 (   18) HAS LZ(WEIGHT)=-1.00( 50.0%)  1.00( 50.0%) 
 MO    24 (   18) HAS LZ(WEIGHT)=-1.00( 50.0%)  1.00( 50.0%) 
 MO    25 (   19) HAS LZ(WEIGHT)=-2.00( 50.0%)  2.00( 50.0%) 
 MO    26 (   19) HAS LZ(WEIGHT)=-2.00( 50.0%)  2.00( 50.0%) 
 MO    27 (   20) HAS LZ(WEIGHT)= 0.00(100.0%) 
 MO    28 (   21) HAS LZ(WEIGHT)=-1.00( 50.0%)  1.00( 50.0%) 
 MO    29 (   21) HAS LZ(WEIGHT)=-1.00( 50.0%)  1.00( 50.0%) 
 MO    30 (   22) HAS LZ(WEIGHT)= 0.00(100.0%) 
 MO    31 (   23) HAS LZ(WEIGHT)= 0.00(100.0%) 
 MO    32 (   24) HAS LZ(WEIGHT)= 0.00(100.0%) 
 MO    33 (   25) HAS LZ(WEIGHT)=-1.00( 50.0%)  1.00( 50.0%) 
 MO    34 (   25) HAS LZ(WEIGHT)=-1.00( 50.0%)  1.00( 50.0%) 
 MO    35 (   26) HAS LZ(WEIGHT)=-1.00( 50.0%)  1.00( 50.0%) 
 MO    36 (   26) HAS LZ(WEIGHT)=-1.00( 50.0%)  1.00( 50.0%) 
 MO    37 (   27) HAS LZ(WEIGHT)= 0.00(100.0%) 
 MO    38 (   28) HAS LZ(WEIGHT)= 0.00(100.0%) 
 MO    39 (   29) HAS LZ(WEIGHT)= 0.00(100.0%) 
 MO    40 (   30) HAS LZ(WEIGHT)= 0.00(100.0%) 

 ... END OF ROHF-GVB SCF CALCULATION ...
 STEP CPU TIME =     0.01 TOTAL CPU TIME =        0.1 (    0.0 MIN)
 TOTAL WALL CLOCK TIME=        0.2 SECONDS, CPU UTILIZATION IS  87.50%
 ..... END OF 1-ELECTRON GRADIENT ......
 STEP CPU TIME =     0.00 TOTAL CPU TIME =        0.1 (    0.0 MIN)
 TOTAL WALL CLOCK TIME=        0.2 SECONDS, CPU UTILIZATION IS  87.50%
 ...... END OF 2-ELECTRON GRADIENT ......
 STEP CPU TIME =     0.03 TOTAL CPU TIME =        0.2 (    0.0 MIN)
 TOTAL WALL CLOCK TIME=        0.2 SECONDS, CPU UTILIZATION IS  89.47%

          NSERCH=  1     ENERGY=      -1.1522386

                                 -----------------------
                                 GRADIENT (HARTREE/BOHR)
                                 -----------------------
        ATOM     ZNUC       DE/DX         DE/DY         DE/DZ
 --------------------------------------------------------------
    1  H            1.0     0.0000000     0.0000000    -0.0026312
    2  H            1.0     0.0000000     0.0000000     0.0026312

          MAXIMUM GRADIENT = 0.0026312    RMS GRADIENT = 0.0015191

 NSERCH:   1  E=       -1.1522385785  GRAD. MAX=  0.0026312  R.M.S.=  0.0015191

          HESSIAN UPDATED USING THE BFGS FORMULA
             ACTUAL ENERGY CHANGE WAS  -0.0001074668
          PREDICTED ENERGY CHANGE WAS  -0.0001556814 RATIO=  0.690
          MIN SEARCH, CORRECT HESSIAN, TRYING PURE NR STEP
               NR STEP HAS LENGTH         =   0.005287
          RADIUS OF STEP TAKEN=   0.00529  CURRENT TRUST RADIUS=   0.05000

 BEGINNING GEOMETRY SEARCH POINT NSERCH=   2 ...

 COORDINATES OF SYMMETRY UNIQUE ATOMS (ANGS)
   ATOM   CHARGE       X              Y              Z
 ------------------------------------------------------------
 H           1.0   0.0000000000   0.0000000000   0.3773673288
 COORDINATES OF ALL ATOMS ARE (ANGS)
   ATOM   CHARGE       X              Y              Z
 ------------------------------------------------------------
 H           1.0   0.0000000000   0.0000000000  -0.3773673288
 H           1.0   0.0000000000   0.0000000000   0.3773673288

          INTERNUCLEAR DISTANCES (ANGS.)
          ------------------------------

                1 H          2 H     

   1 H       0.0000000    0.7547347 *
   2 H       0.7547347 *  0.0000000  

  * ... LESS THAN  3.000

 ...... END OF ONE-ELECTRON INTEGRALS ......
 STEP CPU TIME =     0.00 TOTAL CPU TIME =        0.2 (    0.0 MIN)
 TOTAL WALL CLOCK TIME=        0.2 SECONDS, CPU UTILIZATION IS  89.47%
 TOTAL NUMBER OF NONZERO TWO-ELECTRON INTEGRALS =               46345
          4 INTEGRAL RECORDS WERE STORED ON DISK FILE  8.
  ...... END OF TWO-ELECTRON INTEGRALS .....
 STEP CPU TIME =     0.02 TOTAL CPU TIME =        0.2 (    0.0 MIN)
 TOTAL WALL CLOCK TIME=        0.2 SECONDS, CPU UTILIZATION IS  95.00%

          ------------------------
          ROHF-GVB SCF CALCULATION
          ------------------------

 ITER EX     TOTAL ENERGY       E CHANGE        SQCDF       DIIS ERROR
          * * *   INITIATING DIIS PROCEDURE   * * *
   0  0       -1.152246539    -1.152246539   0.001035136   0.001299585
   1  1       -1.152248802    -0.000002263   0.000610432   0.000384535
   2  2       -1.152248881    -0.000000079   0.001043356   0.000249129
   3  3       -1.152248878     0.000000003   0.000679644   0.000323395
   4  4       -1.152248893    -0.000000015   0.000050276   0.000035045
   5  5       -1.152248893    -0.000000000   0.000005803   0.000009316
   6  6       -1.152248893    -0.000000000   0.000002269   0.000002666

          -----------------
          DENSITY CONVERGED
          -----------------

 FINAL GVB ENERGY IS       -1.1522488933 AFTER   6 ITERATIONS

          ----------------
          PAIR INFORMATION
          ----------------
      ORBITAL   CI COEFFICIENTS    OCCUPATION NUMBERS   GVB      ENERGY
 PAIR 1   2     ORB 1     ORB 2      ORB 1     ORB 2    OVERLAP  LOWERING
  1   1   2    0.993697 -0.112095   1.97487   0.02513   0.79726  -0.01923

     THE MAXIMUM LAGRANGIAN ASYMMETRY IS 2.5425079E-22

 LZ VALUE ANALYSIS FOR THE MOS
 ----------------------------------------
 MO     1 (    1) HAS LZ(WEIGHT)= 0.00(100.0%) 
 MO     2 (    2) HAS LZ(WEIGHT)= 0.00(100.0%) 
 MO     3 (    3) HAS LZ(WEIGHT)= 0.00(100.0%) 
 MO     4 (    4) HAS LZ(WEIGHT)= 0.00(100.0%) 
 MO     5 (    5) HAS LZ(WEIGHT)=-1.00( 50.0%)  1.00( 50.0%) 
 MO     6 (    5) HAS LZ(WEIGHT)=-1.00( 50.0%)  1.00( 50.0%) 
 MO     7 (    6) HAS LZ(WEIGHT)= 0.00(100.0%) 
 MO     8 (    7) HAS LZ(WEIGHT)= 0.00(100.0%) 
 MO     9 (    8) HAS LZ(WEIGHT)=-1.00( 50.0%)  1.00( 50.0%) 
 MO    10 (    8) HAS LZ(WEIGHT)=-1.00( 50.0%)  1.00( 50.0%) 
 MO    11 (    9) HAS LZ(WEIGHT)= 0.00(100.0%) 
 MO    12 (   10) HAS LZ(WEIGHT)= 0.00(100.0%) 
 MO    13 (   11) HAS LZ(WEIGHT)= 0.00(100.0%) 
 MO    14 (   12) HAS LZ(WEIGHT)=-1.00( 50.0%)  1.00( 50.0%) 
 MO    15 (   12) HAS LZ(WEIGHT)=-1.00( 50.0%)  1.00( 50.0%) 
 MO    16 (   13) HAS LZ(WEIGHT)= 0.00(100.0%) 
 MO    17 (   14) HAS LZ(WEIGHT)= 0.00(100.0%) 
 MO    18 (   15) HAS LZ(WEIGHT)=-1.00( 50.0%)  1.00( 50.0%) 
 MO    19 (   15) HAS LZ(WEIGHT)=-1.00( 50.0%)  1.00( 50.0%) 
 MO    20 (   16) HAS LZ(WEIGHT)= 0.00(100.0%) 
 MO    21 (   17) HAS LZ(WEIGHT)=-2.00( 50.0%)  2.00( 50.0%) 
 MO    22 (   17) HAS LZ(WEIGHT)=-2.00( 50.0%)  2.00( 50.0%) 
 MO    23 (   18) HAS LZ(WEIGHT)=-1.00( 50.0%)  1.00( 50.0%) 
 MO    24 (   18) HAS LZ(WEIGHT)=-1.00( 50.0%)  1.00( 50.0%) 
 MO    25 (   19) HAS LZ(WEIGHT)=-2.00( 50.0%)  2.00( 50.0%) 
 MO    26 (   19) HAS LZ(WEIGHT)=-2.00( 50.0%)  2.00( 50.0%) 
 MO    27 (   20) HAS LZ(WEIGHT)= 0.00(100.0%) 
 MO    28 (   21) HAS LZ(WEIGHT)=-1.00( 50.0%)  1.00( 50.0%) 
 MO    29 (   21) HAS LZ(WEIGHT)=-1.00( 50.0%)  1.00( 50.0%) 
 MO    30 (   22) HAS LZ(WEIGHT)= 0.00(100.0%) 
 MO    31 (   23) HAS LZ(WEIGHT)= 0.00(100.0%) 
 MO    32 (   24) HAS LZ(WEIGHT)= 0.00(100.0%) 
 MO    33 (   25) HAS LZ(WEIGHT)=-1.00( 50.0%)  1.00( 50.0%) 
 MO    34 (   25) HAS LZ(WEIGHT)=-1.00( 50.0%)  1.00( 50.0%) 
 MO    35 (   26) HAS LZ(WEIGHT)=-1.00( 50.0%)  1.00( 50.0%) 
 MO    36 (   26) HAS LZ(WEIGHT)=-1.00( 50.0%)  1.00( 50.0%) 
 MO    37 (   27) HAS LZ(WEIGHT)= 0.00(100.0%) 
 MO    38 (   28) HAS LZ(WEIGHT)= 0.00(100.0%) 
 MO    39 (   29) HAS LZ(WEIGHT)= 0.00(100.0%) 
 MO    40 (   30) HAS LZ(WEIGHT)= 0.00(100.0%) 

 ... END OF ROHF-GVB SCF CALCULATION ...
 STEP CPU TIME =     0.01 TOTAL CPU TIME =        0.2 (    0.0 MIN)
 TOTAL WALL CLOCK TIME=        0.2 SECONDS, CPU UTILIZATION IS  90.91%
 ..... END OF 1-ELECTRON GRADIENT ......
 STEP CPU TIME =     0.00 TOTAL CPU TIME =        0.2 (    0.0 MIN)
 TOTAL WALL CLOCK TIME=        0.2 SECONDS, CPU UTILIZATION IS  90.91%
 ...... END OF 2-ELECTRON GRADIENT ......
 STEP CPU TIME =     0.03 TOTAL CPU TIME =        0.2 (    0.0 MIN)
 TOTAL WALL CLOCK TIME=        0.3 SECONDS, CPU UTILIZATION IS  92.00%

          NSERCH=  2     ENERGY=      -1.1522489

                                 -----------------------
                                 GRADIENT (HARTREE/BOHR)
                                 -----------------------
        ATOM     ZNUC       DE/DX         DE/DY         DE/DZ
 --------------------------------------------------------------
    1  H            1.0     0.0000000     0.0000000    -0.0001172
    2  H            1.0     0.0000000     0.0000000     0.0001172

          MAXIMUM GRADIENT = 0.0001172    RMS GRADIENT = 0.0000677

 NSERCH:   2  E=       -1.1522488933  GRAD. MAX=  0.0001172  R.M.S.=  0.0000677

          HESSIAN UPDATED USING THE BFGS FORMULA
             ACTUAL ENERGY CHANGE WAS  -0.0000103149
          PREDICTED ENERGY CHANGE WAS  -0.0000098377 RATIO=  1.049
          MIN SEARCH, CORRECT HESSIAN, TRYING PURE NR STEP
               NR STEP HAS LENGTH         =   0.000247
          RADIUS OF STEP TAKEN=   0.00025  CURRENT TRUST RADIUS=   0.05000

 BEGINNING GEOMETRY SEARCH POINT NSERCH=   3 ...

 COORDINATES OF SYMMETRY UNIQUE ATOMS (ANGS)
   ATOM   CHARGE       X              Y              Z
 ------------------------------------------------------------
 H           1.0   0.0000000000   0.0000000000   0.3772750649
 COORDINATES OF ALL ATOMS ARE (ANGS)
   ATOM   CHARGE       X              Y              Z
 ------------------------------------------------------------
 H           1.0   0.0000000000   0.0000000000  -0.3772750649
 H           1.0   0.0000000000   0.0000000000   0.3772750649

          INTERNUCLEAR DISTANCES (ANGS.)
          ------------------------------

                1 H          2 H     

   1 H       0.0000000    0.7545501 *
   2 H       0.7545501 *  0.0000000  

  * ... LESS THAN  3.000

 ...... END OF ONE-ELECTRON INTEGRALS ......
 STEP CPU TIME =     0.01 TOTAL CPU TIME =        0.2 (    0.0 MIN)
 TOTAL WALL CLOCK TIME=        0.3 SECONDS, CPU UTILIZATION IS  96.00%
 TOTAL NUMBER OF NONZERO TWO-ELECTRON INTEGRALS =               46345
          4 INTEGRAL RECORDS WERE STORED ON DISK FILE  8.
  ...... END OF TWO-ELECTRON INTEGRALS .....
 STEP CPU TIME =     0.01 TOTAL CPU TIME =        0.3 (    0.0 MIN)
 TOTAL WALL CLOCK TIME=        0.3 SECONDS, CPU UTILIZATION IS  96.15%

          ------------------------
          ROHF-GVB SCF CALCULATION
          ------------------------

 ITER EX     TOTAL ENERGY       E CHANGE        SQCDF       DIIS ERROR
          * * *   INITIATING DIIS PROCEDURE   * * *
   0  0       -1.152248908    -1.152248908   0.000048124   0.000060980
   1  1       -1.152248913    -0.000000005   0.000028121   0.000017887
   2  2       -1.152248913    -0.000000000   0.000048646   0.000011542
   3  3       -1.152248913     0.000000000   0.000031924   0.000015130

          -----------------
          DENSITY CONVERGED
          -----------------

 FINAL GVB ENERGY IS       -1.1522489134 AFTER   3 ITERATIONS

          ----------------
          PAIR INFORMATION
          ----------------
      ORBITAL   CI COEFFICIENTS    OCCUPATION NUMBERS   GVB      ENERGY
 PAIR 1   2     ORB 1     ORB 2      ORB 1     ORB 2    OVERLAP  LOWERING
  1   1   2    0.993701 -0.112063   1.97488   0.02512   0.79731  -0.01922

     THE MAXIMUM LAGRANGIAN ASYMMETRY IS 0.0000000E+00

 LZ VALUE ANALYSIS FOR THE MOS
 ----------------------------------------
 MO     1 (    1) HAS LZ(WEIGHT)= 0.00(100.0%) 
 MO     2 (    2) HAS LZ(WEIGHT)= 0.00(100.0%) 
 MO     3 (    3) HAS LZ(WEIGHT)= 0.00(100.0%) 
 MO     4 (    4) HAS LZ(WEIGHT)= 0.00(100.0%) 
 MO     5 (    5) HAS LZ(WEIGHT)=-1.00( 50.0%)  1.00( 50.0%) 
 MO     6 (    5) HAS LZ(WEIGHT)=-1.00( 50.0%)  1.00( 50.0%) 
 MO     7 (    6) HAS LZ(WEIGHT)= 0.00(100.0%) 
 MO     8 (    7) HAS LZ(WEIGHT)= 0.00(100.0%) 
 MO     9 (    8) HAS LZ(WEIGHT)=-1.00( 50.0%)  1.00( 50.0%) 
 MO    10 (    8) HAS LZ(WEIGHT)=-1.00( 50.0%)  1.00( 50.0%) 
 MO    11 (    9) HAS LZ(WEIGHT)= 0.00(100.0%) 
 MO    12 (   10) HAS LZ(WEIGHT)= 0.00(100.0%) 
 MO    13 (   11) HAS LZ(WEIGHT)= 0.00(100.0%) 
 MO    14 (   12) HAS LZ(WEIGHT)=-1.00( 50.0%)  1.00( 50.0%) 
 MO    15 (   12) HAS LZ(WEIGHT)=-1.00( 50.0%)  1.00( 50.0%) 
 MO    16 (   13) HAS LZ(WEIGHT)= 0.00(100.0%) 
 MO    17 (   14) HAS LZ(WEIGHT)= 0.00(100.0%) 
 MO    18 (   15) HAS LZ(WEIGHT)=-1.00( 50.0%)  1.00( 50.0%) 
 MO    19 (   15) HAS LZ(WEIGHT)=-1.00( 50.0%)  1.00( 50.0%) 
 MO    20 (   16) HAS LZ(WEIGHT)= 0.00(100.0%) 
 MO    21 (   17) HAS LZ(WEIGHT)=-2.00( 50.0%)  2.00( 50.0%) 
 MO    22 (   17) HAS LZ(WEIGHT)=-2.00( 50.0%)  2.00( 50.0%) 
 MO    23 (   18) HAS LZ(WEIGHT)=-1.00( 50.0%)  1.00( 50.0%) 
 MO    24 (   18) HAS LZ(WEIGHT)=-1.00( 50.0%)  1.00( 50.0%) 
 MO    25 (   19) HAS LZ(WEIGHT)=-2.00( 50.0%)  2.00( 50.0%) 
 MO    26 (   19) HAS LZ(WEIGHT)=-2.00( 50.0%)  2.00( 50.0%) 
 MO    27 (   20) HAS LZ(WEIGHT)= 0.00(100.0%) 
 MO    28 (   21) HAS LZ(WEIGHT)=-1.00( 50.0%)  1.00( 50.0%) 
 MO    29 (   21) HAS LZ(WEIGHT)=-1.00( 50.0%)  1.00( 50.0%) 
 MO    30 (   22) HAS LZ(WEIGHT)= 0.00(100.0%) 
 MO    31 (   23) HAS LZ(WEIGHT)= 0.00(100.0%) 
 MO    32 (   24) HAS LZ(WEIGHT)= 0.00(100.0%) 
 MO    33 (   25) HAS LZ(WEIGHT)=-1.00( 50.0%)  1.00( 50.0%) 
 MO    34 (   25) HAS LZ(WEIGHT)=-1.00( 50.0%)  1.00( 50.0%) 
 MO    35 (   26) HAS LZ(WEIGHT)=-1.00( 50.0%)  1.00( 50.0%) 
 MO    36 (   26) HAS LZ(WEIGHT)=-1.00( 50.0%)  1.00( 50.0%) 
 MO    37 (   27) HAS LZ(WEIGHT)= 0.00(100.0%) 
 MO    38 (   28) HAS LZ(WEIGHT)= 0.00(100.0%) 
 MO    39 (   29) HAS LZ(WEIGHT)= 0.00(100.0%) 
 MO    40 (   30) HAS LZ(WEIGHT)= 0.00(100.0%) 

 ... END OF ROHF-GVB SCF CALCULATION ...
 STEP CPU TIME =     0.01 TOTAL CPU TIME =        0.3 (    0.0 MIN)
 TOTAL WALL CLOCK TIME=        0.3 SECONDS, CPU UTILIZATION IS  92.86%
 ..... END OF 1-ELECTRON GRADIENT ......
 STEP CPU TIME =     0.00 TOTAL CPU TIME =        0.3 (    0.0 MIN)
 TOTAL WALL CLOCK TIME=        0.3 SECONDS, CPU UTILIZATION IS  92.86%
 ...... END OF 2-ELECTRON GRADIENT ......
 STEP CPU TIME =     0.03 TOTAL CPU TIME =        0.3 (    0.0 MIN)
 TOTAL WALL CLOCK TIME=        0.3 SECONDS, CPU UTILIZATION IS  93.55%

          NSERCH=  3     ENERGY=      -1.1522489

                                 -----------------------
                                 GRADIENT (HARTREE/BOHR)
                                 -----------------------
        ATOM     ZNUC       DE/DX         DE/DY         DE/DZ
 --------------------------------------------------------------
    1  H            1.0     0.0000000     0.0000000     0.0000015
    2  H            1.0     0.0000000     0.0000000    -0.0000015

          MAXIMUM GRADIENT = 0.0000015    RMS GRADIENT = 0.0000009

 NSERCH:   3  E=       -1.1522489134  GRAD. MAX=  0.0000015  R.M.S.=  0.0000009


      ***** EQUILIBRIUM GEOMETRY LOCATED *****
 COORDINATES OF SYMMETRY UNIQUE ATOMS (ANGS)
   ATOM   CHARGE       X              Y              Z
 ------------------------------------------------------------
 H           1.0   0.0000000000   0.0000000000   0.3772750649
 COORDINATES OF ALL ATOMS ARE (ANGS)
   ATOM   CHARGE       X              Y              Z
 ------------------------------------------------------------
 H           1.0   0.0000000000   0.0000000000  -0.3772750649
 H           1.0   0.0000000000   0.0000000000   0.3772750649

          INTERNUCLEAR DISTANCES (ANGS.)
          ------------------------------

                1 H          2 H     

   1 H       0.0000000    0.7545501 *
   2 H       0.7545501 *  0.0000000  

  * ... LESS THAN  3.000


          NUCLEAR ENERGY    =        0.7013149006
          ELECTRONIC ENERGY =       -1.8535638140
          TOTAL ENERGY      =       -1.1522489134

          ------------------
          MOLECULAR ORBITALS
          ------------------

                      1          2          3          4          5
                   -0.5923    -0.0002    31.6281     2.8616     9.2259
                     A1G        A2U        A1G        A2U        EU  
    1  H  1  S    0.835383   1.176065  62.745503  -2.079309  -1.900551
    2  H  1  S   -0.109988  -0.230568 -12.334753   0.868715   0.580685
    3  H  1  S   -0.163946  -0.098937 -28.178276  -0.567805   0.041918
    4  H  1  S   -0.055867   0.246213 -19.566504   2.975542   2.336040
    5  H  1  S   -0.006456   0.095142 -15.446372  -0.779710   1.308046
    6  H  1  X    0.000000   0.000000   0.000000   0.000000   0.000000
    7  H  1  Y    0.000000   0.000000   0.000000   0.000000   0.000000
    8  H  1  Z    0.013890   0.029920   0.016861   0.329343  -0.104972
    9  H  1  X    0.000000   0.000000   0.000000   0.000000   0.000000
   10  H  1  Y    0.000000   0.000000   0.000000   0.000000   0.000000
   11  H  1  Z    0.011435   0.008663   0.014998  -0.471730   0.106245
   12  H  1  X    0.000000   0.000000   0.000000   0.000000   0.000000
   13  H  1  Y    0.000000   0.000000   0.000000   0.000000   0.000000
   14  H  1  Z    0.001371  -0.002503  -0.071113   0.018397  -0.050162
   15  H  1 XX    0.000116  -0.002557   2.359228  -0.209325  -1.002180
   16  H  1 YY    0.000116  -0.002557   2.359228  -0.209325  -1.002180
   17  H  1 ZZ    0.002087  -0.003707   2.383303  -0.120882  -1.071494
   18  H  1 XY    0.000000   0.000000   0.000000   0.000000   0.000000
   19  H  1 XZ    0.000000   0.000000   0.000000   0.000000   0.000000
   20  H  1 YZ    0.000000   0.000000   0.000000   0.000000   0.000000
   21  H  2  S    0.835383  -1.176065  62.745503  -2.079309  -1.900551
   22  H  2  S   -0.109988   0.230568 -12.334753   0.868715   0.580685
   23  H  2  S   -0.163946   0.098937 -28.178276  -0.567805   0.041918
   24  H  2  S   -0.055867  -0.246213 -19.566504   2.975542   2.336040
[...]
   17  H  1 ZZ    0.242540   0.000000
   18  H  1 XY    0.000000   0.000000
   19  H  1 XZ    0.000000   0.000000
   20  H  1 YZ    0.000000   0.000000
   21  H  2  S    2.102802   0.000000
   22  H  2  S   -0.615292   0.000000
   23  H  2  S   -0.012477   0.000000
   24  H  2  S   -2.669941   0.000000
   25  H  2  S    0.763416   0.000000
   26  H  2  X    0.000000   0.000000
   27  H  2  Y    0.000000   0.000000
   28  H  2  Z   -0.511125   0.000000
   29  H  2  X    0.000000   0.000000
   30  H  2  Y    0.000000   0.000000
   31  H  2  Z    0.618131   0.000000
   32  H  2  X    0.000000   0.000000
   33  H  2  Y    0.000000   0.000000
   34  H  2  Z   -0.033675   0.000000
   35  H  2 XX    0.149952   0.574459
   36  H  2 YY    0.149952  -0.574459
   37  H  2 ZZ    0.242540   0.000000
   38  H  2 XY    0.000000   0.000000
   39  H  2 XZ    0.000000   0.000000
   40  H  2 YZ    0.000000   0.000000

     ----------------------------------------------------------------
     PROPERTY VALUES FOR THE GVB   SELF-CONSISTENT FIELD WAVEFUNCTION
     ----------------------------------------------------------------

          -----------------
          ENERGY COMPONENTS
          -----------------

         WAVEFUNCTION NORMALIZATION =       1.0000000000

                ONE ELECTRON ENERGY =      -2.4737972740
                TWO ELECTRON ENERGY =       0.6202334600
           NUCLEAR REPULSION ENERGY =       0.7013149006
                                      ------------------
                       TOTAL ENERGY =      -1.1522489134

 ELECTRON-ELECTRON POTENTIAL ENERGY =       0.6202334600
  NUCLEUS-ELECTRON POTENTIAL ENERGY =      -3.6260396301
   NUCLEUS-NUCLEUS POTENTIAL ENERGY =       0.7013149006
                                      ------------------
             TOTAL POTENTIAL ENERGY =      -2.3044912695
               TOTAL KINETIC ENERGY =       1.1522423561
                 VIRIAL RATIO (V/T) =       2.0000056909

          ---------------------------------------
          MULLIKEN AND LOWDIN POPULATION ANALYSES
          ---------------------------------------

     ATOMIC MULLIKEN POPULATION IN EACH MOLECULAR ORBITAL

                      1          2

                  1.974884   0.025116

    1             0.987442   0.012558
    2             0.987442   0.012558

               ----- POPULATIONS IN EACH AO -----
                             MULLIKEN      LOWDIN
              1  H  1  S      1.53596     0.22714
              2  H  1  S     -0.15881     0.10175
              3  H  1  S     -0.29219     0.20524
              4  H  1  S     -0.09319     0.19006
              5  H  1  S     -0.00723     0.12038
              6  H  1  X      0.00000     0.00000
              7  H  1  Y      0.00000     0.00000
              8  H  1  Z      0.00832     0.02267
              9  H  1  X      0.00000     0.00000
             10  H  1  Y      0.00000     0.00000
             11  H  1  Z      0.00452     0.00626
             12  H  1  X      0.00000     0.00000
             13  H  1  Y      0.00000     0.00000
             14  H  1  Z      0.00014     0.00016
             15  H  1 XX      0.00009     0.03865
             16  H  1 YY      0.00009     0.03865
             17  H  1 ZZ      0.00231     0.04906
             18  H  1 XY      0.00000     0.00000
             19  H  1 XZ      0.00000     0.00000
             20  H  1 YZ      0.00000     0.00000
             21  H  2  S      1.53596     0.22714
             22  H  2  S     -0.15881     0.10175
             23  H  2  S     -0.29219     0.20524
             24  H  2  S     -0.09319     0.19006
             25  H  2  S     -0.00723     0.12038
             26  H  2  X      0.00000     0.00000
             27  H  2  Y      0.00000     0.00000
             28  H  2  Z      0.00832     0.02267
             29  H  2  X      0.00000     0.00000
             30  H  2  Y      0.00000     0.00000
             31  H  2  Z      0.00452     0.00626
             32  H  2  X      0.00000     0.00000
             33  H  2  Y      0.00000     0.00000
             34  H  2  Z      0.00014     0.00016
             35  H  2 XX      0.00009     0.03865
             36  H  2 YY      0.00009     0.03865
             37  H  2 ZZ      0.00231     0.04906
             38  H  2 XY      0.00000     0.00000
             39  H  2 XZ      0.00000     0.00000
             40  H  2 YZ      0.00000     0.00000

          ----- MULLIKEN ATOMIC OVERLAP POPULATIONS -----
          (OFF-DIAGONAL ELEMENTS NEED TO BE MULTIPLIED BY 2)

             1           2

    1    0.6132560
    2    0.3867440   0.6132560

          TOTAL MULLIKEN AND LOWDIN ATOMIC POPULATIONS
       ATOM         MULL.POP.    CHARGE          LOW.POP.     CHARGE
    1 H             1.000000    0.000000         1.000000    0.000000
    2 H             1.000000    0.000000         1.000000    0.000000

          ---------------------
          ELECTROSTATIC MOMENTS
          ---------------------

 POINT   1           X           Y           Z (BOHR)    CHARGE
                 0.000000    0.000000    0.000000        0.00 (A.U.)
         DX          DY          DZ         /D/  (DEBYE)
     0.000000    0.000000   -0.000000    0.000000
 ...... END OF PROPERTY EVALUATION ......
 STEP CPU TIME =     0.00 TOTAL CPU TIME =        0.3 (    0.0 MIN)
 TOTAL WALL CLOCK TIME=        0.3 SECONDS, CPU UTILIZATION IS  93.55%
  $VIB   
          IVIB=   0 IATOM=   0 ICOORD=   0 E=       -1.1522489134
  0.000000000E+00 0.000000000E+00 1.482645757E-06 0.000000000E+00 0.000000000E+00
 -1.482645757E-06
  0.000000000E+00 0.000000000E+00-1.128770855E-15
 ......END OF GEOMETRY SEARCH......
 STEP CPU TIME =     0.00 TOTAL CPU TIME =        0.3 (    0.0 MIN)
 TOTAL WALL CLOCK TIME=        0.3 SECONDS, CPU UTILIZATION IS  93.55%


     *********************************************************
     THE HESSIAN WILL NOW BE COMPUTED AT THE STATIONARY POINT.
     *********************************************************

     ---------------------------------
     HESSIAN MATRIX CONTROL PARAMETERS
     ---------------------------------
     METHOD=ANALYTIC   NVIB  =       2   VIBSIZ= 0.01000
     RDHESS=       F   PURIFY=       F   PRTIFC=       F
     VIBANL=       F   DECOMP=       F   PROJCT=       F
     SCLFAC= 1.00000   PRTSCN=       F   NPRT  =       0
     PULCOR=       F   NPUN  =       0   REDOVB=       T
     HSSTYP=GENERAL 
 Old integral subroutine is used

     ------------------------------
     CPHF RESPONSE SOLUTION OPTIONS
     ------------------------------
     POLAR  =       F     NWORD  =       0
     CPHF   =MO      

 GENERATING REPLICATED AO INTEGRAL LISTS FOR THE TRANSFORMATION STEP.

 REGENERATING AO INTEGRAL LIST IN C1 POINT GROUP FOR TRANSFORMATION STEP.

          --------------------
          2 ELECTRON INTEGRALS
          --------------------

 THE -PK- OPTION IS OFF, THE INTEGRALS ARE NOT IN SUPERMATRIX FORM.
 STORING   15000 INTEGRALS/RECORD ON DISK, USING 12 BYTES/INTEGRAL.
 TWO ELECTRON INTEGRAL EVALUATION REQUIRES   90567 WORDS OF MEMORY.
 II,JST,KST,LST =  1  1  1  1 NREC =         1 INTLOC =    1
 II,JST,KST,LST =  2  1  1  1 NREC =         1 INTLOC =    2
 II,JST,KST,LST =  3  1  1  1 NREC =         1 INTLOC =    7
 II,JST,KST,LST =  4  1  1  1 NREC =         1 INTLOC =   22
 II,JST,KST,LST =  5  1  1  1 NREC =         1 INTLOC =   56
 II,JST,KST,LST =  6  1  1  1 NREC =         1 INTLOC =  121
 II,JST,KST,LST =  7  1  1  1 NREC =         1 INTLOC =  220
 II,JST,KST,LST =  8  1  1  1 NREC =         1 INTLOC =  496
 II,JST,KST,LST =  9  1  1  1 NREC =         1 INTLOC = 1057
 II,JST,KST,LST = 10  1  1  1 NREC =         1 INTLOC = 3607
 II,JST,KST,LST = 11  1  1  1 NREC =         1 INTLOC = 5161
 II,JST,KST,LST = 12  1  1  1 NREC =         1 INTLOC = 7004
 II,JST,KST,LST = 13  1  1  1 NREC =         1 INTLOC = 9175
 II,JST,KST,LST = 14  1  1  1 NREC =         1 INTLOC =11716
 II,JST,KST,LST = 15  1  1  1 NREC =         1 INTLOC =14672
 II,JST,KST,LST = 16  1  1  1 NREC =         2 INTLOC = 8062
 II,JST,KST,LST = 17  1  1  1 NREC =         3 INTLOC = 4329
 II,JST,KST,LST = 18  1  1  1 NREC =         4 INTLOC = 3998
 TOTAL NUMBER OF NONZERO TWO-ELECTRON INTEGRALS =               90994
          7 INTEGRAL RECORDS WERE STORED ON DISK FILE  8.
  ...... END OF TWO-ELECTRON INTEGRALS .....
 STEP CPU TIME =     0.02 TOTAL CPU TIME =        0.3 (    0.0 MIN)
 TOTAL WALL CLOCK TIME=        0.3 SECONDS, CPU UTILIZATION IS  93.94%

     --------------------------------------------
     PARTIAL TWO ELECTRON INTEGRAL TRANSFORMATION
     --------------------------------------------

 NUMBER OF CORE MOLECULAR ORBITALS     =    0
 NUMBER OF OCCUPIED MOLECULAR ORBITALS =    2
 TOTAL NUMBER OF MOLECULAR ORBITALS    =   40
 TOTAL NUMBER OF ATOMIC ORBITALS       =   40
 THRESHOLD FOR KEEPING TRANSFORMED 2E- INTEGRALS = 1.000E-09
 AO INTEGRALS WILL BE READ IN FROM DISK...

 PLAN A: REQUIREMENTS FOR FULLY IN-MEMORY TRANSFORMATION:
 # OF WORDS AVAILABLE =              1000000
 # OF WORDS NEEDED    =               133682

 CHOOSING IN MEMORY PARTIAL TRANSFORMATION...
 TOTAL NUMBER OF TRANSFORMED 2E- INTEGRALS KEPT =          939
 ... END OF INTEGRAL TRANSFORMATION ...
 STEP CPU TIME =     0.01 TOTAL CPU TIME =        0.3 (    0.0 MIN)
 TOTAL WALL CLOCK TIME=        0.3 SECONDS, CPU UTILIZATION IS  94.12%

     ---------------------------------------------
     1ST AND 2ND INTEGRAL DERIVATIVE CONTRIBUTIONS
     ---------------------------------------------
 ...... END OF 1-ELECTRON GRAD+HESS+FOCKDER ......
 STEP CPU TIME =     0.01 TOTAL CPU TIME =        0.3 (    0.0 MIN)
 TOTAL WALL CLOCK TIME=        0.3 SECONDS, CPU UTILIZATION IS  97.06%

     ----------------------------------------------
     TWO ELECTRON INTEGRAL DERIVATIVE CONTRIBUTIONS
     ----------------------------------------------

      40543 WORDS REQUIRED,   1000000 WORDS AVAILABLE
 THE COARSE/FINE SCHWARZ SCREENINGS SKIPPED          0/         0 BLOCKS.
 THE NUMBER OF DERIVATIVE INTEGRAL BLOCKS COMPUTED WAS      6381
 STEP CPU TIME =     0.41 TOTAL CPU TIME =        0.7 (    0.0 MIN)
 TOTAL WALL CLOCK TIME=        0.8 SECONDS, CPU UTILIZATION IS  98.67%
 ...... END OF 2-ELECTRON GRAD+HESS+FOCKDER ......
 STEP CPU TIME =     0.00 TOTAL CPU TIME =        0.7 (    0.0 MIN)
 TOTAL WALL CLOCK TIME=        0.8 SECONDS, CPU UTILIZATION IS  98.67%

     ------------------------------------------------
     COUPLED-PERTURBED TWO CONFIGURATION HARTREE-FOCK
     ------------------------------------------------
 THE CPHF HAS      77 INDEPENDENT ORBITAL ROTATIONS.
 THE CPHF HAS 2 ADDITIONAL CSF ROTATIONS.
 THE CPHF CODE HAS     1000000 WORDS OF MEMORY AVAILABLE.
 CHOOSING IN MEMORY CPHF ALGORITHM
 DS/DA TRANSFORM STEP WILL REQUIRE       16316 WORDS OF MEMORY.
  CPHF EQUATIONS STEP WILL REQUIRE       57643 WORDS OF MEMORY.
     TRANSFORMING DS/DA TO MO BASIS TOOK         0.0 SECONDS
      SETTING UP THE CPHF EQUATIONS TOOK         0.0 SECONDS
     SOLVING FOR THE CPHF RESPONSES TOOK         0.0 SECONDS
 ...... DONE WITH CPHF CONTRIBUTIONS ......
 STEP CPU TIME =     0.00 TOTAL CPU TIME =        0.7 (    0.0 MIN)
 TOTAL WALL CLOCK TIME=        0.8 SECONDS, CPU UTILIZATION IS  97.37%

          ---------------
          ENERGY GRADIENT
          ---------------

 UNITS ARE HARTREE/BOHR    E'X               E'Y               E'Z 
    1 H               -0.000000000       0.000000000       0.000001646
    2 H               -0.000000000       0.000000000      -0.000001646

          -------------------------------
          CARTESIAN FORCE CONSTANT MATRIX
          -------------------------------

                                   1                          2
                               H                          H         
                          X        Y        Z        X        Y        Z
  1   H            X-0.000001 0.000000 0.000000 0.000001 0.000000 0.000000
                   Y 0.000000-0.000001 0.000000 0.000000 0.000001 0.000000
                   Z 0.000000 0.000000 0.340942 0.000000 0.000000-0.340942
  2   H            X 0.000001 0.000000 0.000000-0.000001 0.000000 0.000000
                   Y 0.000000 0.000001 0.000000 0.000000-0.000001 0.000000
                   Z 0.000000 0.000000-0.340942 0.000000 0.000000 0.340942

          ------------------------          ----------------
          DIPOLE DERIVATIVE TENSOR          (DEBYE/ANGSTROM)
          ------------------------          ----------------

        ATOM                 MU-X           MU-Y           MU-Z
     H          D/DX     0.000000000    0.000000000    0.000000000
                D/DY     0.000000000    0.000000000    0.000000000
                D/DZ     0.000000000    0.000000000    0.000000000
     H          D/DX     0.000000000    0.000000000    0.000000000
                D/DY     0.000000000    0.000000000    0.000000000
                D/DZ     0.000000000    0.000000000    0.000000000

          --------------------------------------------------------
          NORMAL COORDINATE ANALYSIS IN THE HARMONIC APPROXIMATION
          --------------------------------------------------------

          ATOMIC WEIGHTS (AMU)

    1     H                 1.00782
    2     H                 1.00782

 MODES    1 TO    5 ARE TAKEN AS ROTATIONS AND TRANSLATIONS.

 ANALYZING SYMMETRY OF NORMAL MODES...
 WATCH OUT!! THE COUNTING OF DEGENERATE MODES COUNTS INDIVIDUAL MODES,
 E.G. 2*E MEANS ONE (1) SET OF DEGENERATE E MODES

 --- SYMMETRY FOR NORMAL MODES ---
 INCLUDING TRANSLATION AND ROTATION
    1*A1G    0*A1U    0*B1G    0*B1U    0*A2G    1*A2U    0*B2G    0*B2U    2*EG  
   2*EU  
 EXCLUDING TRANSLATION AND ROTATION (SAYVETZ < 0.01)
    1*A1G    0*A1U    0*B1G    0*B1U    0*A2G    0*A2U    0*B2G    0*B2U    0*EG  
   0*EU  

     FREQUENCIES IN CM**-1, IR INTENSITIES IN DEBYE**2/AMU-ANGSTROM**2,
     REDUCED MASSES IN AMU.

                            1           2           3           4           5
       FREQUENCY:         7.84        7.84        0.00        0.00        0.00  
        SYMMETRY:         EG          EG          A2U         EU          EU  
    REDUCED MASS:      1.00782     1.00782     1.00782     1.00782     1.00782
    IR INTENSITY:      0.00000     0.00000     0.00000     0.00000     0.00000

  1   H            X -0.00000000  0.70435636  0.00000000  0.00000000  0.70435636
                   Y -0.70435636 -0.00000000  0.00000000  0.70435636 -0.00000000
                   Z -0.00000000 -0.00000000  0.70435636  0.00000000 -0.00000000
  2   H            X -0.00000000 -0.70435636  0.00000000  0.00000000  0.70435636
                   Y  0.70435636 -0.00000000  0.00000000  0.70435636 -0.00000000
                   Z -0.00000000 -0.00000000  0.70435636  0.00000000 -0.00000000

 TRANS. SAYVETZ    X  0.00000000  0.00000000  0.00000000  0.00000000  1.41973589
                   Y  0.00000000  0.00000000  0.00000000  1.41973589  0.00000000
                   Z  0.00000000  0.00000000  1.41973589  0.00000000  0.00000000
               TOTAL  0.00000000  0.00000000  1.41973589  1.41973589  1.41973589

   ROT. SAYVETZ    X -1.01219573  0.00000000  0.00000000  0.00000000  0.00000000
                   Y  0.00000000 -1.01219573  0.00000000  0.00000000  0.00000000
                   Z  0.00000000  0.00000000  0.00000000  0.00000000  0.00000000
               TOTAL  1.01219573  1.01219573  0.00000000  0.00000000  0.00000000

                            6
       FREQUENCY:      4228.31  
        SYMMETRY:         A1G 
    REDUCED MASS:      1.00782
    IR INTENSITY:      0.00000

  1   H            X  0.00000000
                   Y  0.00000000
                   Z -0.70435636
  2   H            X  0.00000000
                   Y  0.00000000
                   Z  0.70435636

 TRANS. SAYVETZ    X  0.00000000
                   Y  0.00000000
                   Z  0.00000000
               TOTAL  0.00000000

   ROT. SAYVETZ    X  0.00000000
                   Y  0.00000000
                   Z  0.00000000
               TOTAL  0.00000000

 REFERENCE ON SAYVETZ CONDITIONS - A. SAYVETZ, J.CHEM.PHYS., 7, 383-389(1939).

 NOTE - THE MODES J,K ARE ORTHONORMALIZED ACCORDING TO
 SUM ON I   M(I) * (X(I,J)*X(I,K) + Y(I,J)*Y(I,K) + Z(I,J)*Z(I,K)) = DELTA(J,K)

  MODE FREQ(CM**-1)  SYMMETRY  RED. MASS  IR INTENS.
     1       7.837    EG       1.007825    0.000000
     2       7.837    EG       1.007825    0.000000
     3       0.000    A2U      1.007825    0.000000
     4       0.000    EU       1.007825    0.000000
     5       0.000    EU       1.007825    0.000000
     6    4228.314    A1G      1.007825    0.000000

     -------------------------------
     THERMOCHEMISTRY AT T=  298.15 K
     -------------------------------

 USING IDEAL GAS, RIGID ROTOR, HARMONIC NORMAL MODE APPROXIMATIONS.
 P=  1.01325E+05 PASCAL.
 ALL FREQUENCIES ARE SCALED BY   1.00000
 THE MOMENTS OF INERTIA ARE (IN AMU*BOHR**2)
      0.00000     1.02454     1.02454
 THE ROTATIONAL SYMMETRY NUMBER IS  2.0
 THE ROTATIONAL CONSTANTS ARE (IN GHZ)
      0.00000  1759.89997  1759.89997
      6 -      6 VIBRATIONAL MODES ARE USED IN THERMOCHEMISTRY.
 THE HARMONIC ZERO POINT ENERGY IS (SCALED BY   1.000)
        0.009633 HARTREE/MOLECULE     2114.156962 CM**-1/MOLECULE 
        6.044684 KCAL/MOL               25.290958 KJ/MOL

               Q               LN Q
 ELEC.     1.00000E+00       0.000000
 TRANS.    1.12480E+05      11.630533
 ROT.      1.76337E+00       0.567226
 VIB.      1.00000E+00       0.000000
 TOT.      1.98344E+05      12.197760

              E         H         G         CV        CP        S
           KJ/MOL    KJ/MOL    KJ/MOL   J/MOL-K   J/MOL-K   J/MOL-K
 ELEC.      0.000     0.000     0.000     0.000     0.000     0.000
 TRANS.     3.718     6.197   -28.831    12.472    20.786   117.487
 ROT.       2.479     2.479    -1.406     8.314     8.314    13.031
 VIB.      25.291    25.291    25.291     0.000     0.000     0.000
 TOTAL     31.488    33.967    -4.947    20.786    29.100   130.518
 VIB. THERMAL CORRECTION E(T)-E(0) = H(T)-H(0) =     0.000 J/MOL

              E         H         G         CV        CP        S
         KCAL/MOL  KCAL/MOL  KCAL/MOL CAL/MOL-K CAL/MOL-K CAL/MOL-K
 ELEC.      0.000     0.000     0.000     0.000     0.000     0.000
 TRANS.     0.889     1.481    -6.891     2.981     4.968    28.080
 ROT.       0.592     0.592    -0.336     1.987     1.987     3.114
 VIB.       6.045     6.045     6.045     0.000     0.000     0.000
 TOTAL      7.526     8.118    -1.182     4.968     6.955    31.194
 VIB. THERMAL CORRECTION E(T)-E(0) = H(T)-H(0) =     0.000 CAL/MOL
 ......END OF NORMAL COORDINATE ANALYSIS......
 STEP CPU TIME =     0.00 TOTAL CPU TIME =        0.7 (    0.0 MIN)
 TOTAL WALL CLOCK TIME=        0.8 SECONDS, CPU UTILIZATION IS  97.37%
               996298  WORDS OF DYNAMIC MEMORY USED
 EXECUTION OF GAMESS TERMINATED NORMALLY Wed Aug  9 22:18:42 2017
 DDI: 263640 bytes (0.3 MB / 0 MWords) used by master data server.

 ----------------------------------------
 CPU timing information for all processes
 ========================================
 0: 0.719 + 0.31 = 0.751
 ----------------------------------------
 ddikick.x: exited gracefully.
unset echo
----- accounting info -----
Files used on the master node compute-1-0.local were:
-rw-rw-r-- 1 sarom sarom 1.6K Aug  9 22:18 /scratch/gvb-h2-tcscf.F05
-rw-rw-r-- 1 sarom sarom 1.3M Aug  9 22:18 /scratch/gvb-h2-tcscf.F08
-rw-rw-r-- 1 sarom sarom 183K Aug  9 22:18 /scratch/gvb-h2-tcscf.F09
-rw-rw-r-- 1 sarom sarom 2.2M Aug  9 22:18 /scratch/gvb-h2-tcscf.F10
-rw-rw-r-- 1 sarom sarom  76K Aug  9 22:18 /scratch/gvb-h2-tcscf.F18
-rw-rw-r-- 1 sarom sarom  45K Aug  9 22:18 /scratch/gvb-h2-tcscf.F23
rm: cannot remove `/scratch/tmp': Is a directory
ls: No match.
ls: No match.
ls: No match.
Wed Aug  9 22:18:45 CDT 2017
0.250u 0.186s 0:04.25 10.1%	0+0k 0+360io 0pf+0w
/opt/gridengine/default/spool/compute-1-0/active_jobs/36205.1/pe_hostfile compute-1-0.local
