-catch_rsh /opt/gridengine/default/spool/compute-0-5/active_jobs/36203.1/pe_hostfile
compute-0-5
The primary node assigned by SGE to this run is compute-0-5
Warning: no access to tty (Bad file descriptor).
Thus no job control in this shell.
source /home/sarom/dir.git.branch.saromleang-travis-ci/install.info
setenv GMS_PATH /home/sarom/dir.git.branch.saromleang-travis-ci
setenv GMS_BUILD_DIR /home/sarom/dir.git.branch.saromleang-travis-ci
setenv GMS_TARGET linux64
setenv GMS_FORTRAN gfortran
setenv GMS_GFORTRAN_VERNO 4.4
setenv GMS_MATHLIB mkl-so
setenv GMS_MATHLIB none
setenv GMS_MATHLIB_PATH /share/apps/intel/compilers_and_libraries_2017.1.132/linux/mkl/lib/intel64
setenv GMS_MKL_VERNO 12
setenv GMS_DDI_COMM sockets
setenv GMS_LIBCCHEM false
setenv GMS_EIGEN_PATH
setenv GMS_PHI false
setenv GMS_SHMTYPE sysv
setenv GMS_OPENMP false
unset echo
gvb-c4h6
/home/sarom/dir.git.branch.saromleang-travis-ci/tests/gvb/parallel
----- GAMESS execution script 'rungms' -----
This job is running on host compute-0-5.local
under operating system Linux at Wed Aug 9 22:18:11 CDT 2017
Available scratch disk space (Kbyte units) at beginning of the job is
Filesystem           1K-blocks      Used Available Use% Mounted on
/dev/sda1             16126920   3962036  11345684  26% /
GAMESS temporary binary files will be written to /scratch
GAMESS supplementary output files will be written to /home/sarom/restart
Copying input file gvb-c4h6.inp to your run's scratch directory...
cp /home/sarom/dir.git.branch.saromleang-travis-ci/tests/gvb/parallel/gvb-c4h6.inp /scratch/gvb-c4h6.F05
unset echo
The generated host list is
compute-0-5.local
/home/sarom/dir.git.branch.saromleang-travis-ci/ddikick.x /home/sarom/dir.git.branch.saromleang-travis-ci/gamess.00.x gvb-c4h6 -ddi 1 1 compute-0-5.local -scr /scratch

 Distributed Data Interface kickoff program.
 Initiating 1 compute processes on 1 nodes to run the following command:
 /home/sarom/dir.git.branch.saromleang-travis-ci/gamess.00.x gvb-c4h6 

          ******************************************************
          *         GAMESS VERSION = 20 APR 2017 (R1)          *
          *             FROM IOWA STATE UNIVERSITY             *
          * M.W.SCHMIDT, K.K.BALDRIDGE, J.A.BOATZ, S.T.ELBERT, *
          *   M.S.GORDON, J.H.JENSEN, S.KOSEKI, N.MATSUNAGA,   *
          *          K.A.NGUYEN, S.J.SU, T.L.WINDUS,           *
          *       TOGETHER WITH M.DUPUIS, J.A.MONTGOMERY       *
          *         J.COMPUT.CHEM.  14, 1347-1363(1993)        *
          **************** 64 BIT LINUX VERSION ****************

  SINCE 1993, STUDENTS AND POSTDOCS WORKING AT IOWA STATE UNIVERSITY
  AND ALSO IN THEIR VARIOUS JOBS AFTER LEAVING ISU HAVE MADE IMPORTANT
  CONTRIBUTIONS TO THE CODE:
     IVANA ADAMOVIC, CHRISTINE AIKENS, YURI ALEXEEV, POOJA ARORA,
     ANDREY ASADCHEV, ROB BELL, PRADIPTA BANDYOPADHYAY, JONATHAN BENTZ,
     BRETT BODE, KURT BRORSEN, CALEB CARLIN, GALINA CHABAN, WEI CHEN,
     CHEOL HO CHOI, PAUL DAY, ALBERT DEFUSCO, NUWAN DESILVA, TIM DUDLEY,
     DMITRI FEDOROV, GRAHAM FLETCHER, MARK FREITAG, KURT GLAESEMANN,
     DAN KEMP, GRANT MERRILL, NORIYUKI MINEZAWA, JONATHAN MULLIN,
     TAKESHI NAGATA, SEAN NEDD, HEATHER NETZLOFF, BOSILJKA NJEGIC, RYAN OLSON,
     MIKE PAK, SPENCER PRUITT, LUKE ROSKOP, JIM SHOEMAKER, LYUDMILA SLIPCHENKO,
     TONY SMITH, SAROM SOK LEANG, JIE SONG, TETSUYA TAKETSUGU, SIMON WEBB,
     PENG XU, SOOHAENG YOO, FEDERICO ZAHARIEV

  ADDITIONAL CODE HAS BEEN PROVIDED BY COLLABORATORS IN OTHER GROUPS:
     IOWA STATE UNIVERSITY:
          JOE IVANIC, AARON WEST, LAIMUTIS BYTAUTAS, KLAUS RUEDENBERG
     UNIVERSITY OF TOKYO: KIMIHIKO HIRAO, TAKAHITO NAKAJIMA,
          TAKAO TSUNEDA, MUNEAKI KAMIYA, SUSUMU YANAGISAWA,
          KIYOSHI YAGI, MAHITO CHIBA, SEIKEN TOKURA, NAOAKI KAWAKAMI
     UNIVERSITY OF AARHUS: FRANK JENSEN
     UNIVERSITY OF IOWA: VISVALDAS KAIRYS, HUI LI
     NATIONAL INST. OF STANDARDS AND TECHNOLOGY: WALT STEVENS, DAVID GARMER
     UNIVERSITY OF PISA: BENEDETTA MENNUCCI, JACOPO TOMASI
     UNIVERSITY OF MEMPHIS: HENRY KURTZ, PRAKASHAN KORAMBATH
     UNIVERSITY OF ALBERTA: TOBY ZENG, MARIUSZ KLOBUKOWSKI
     UNIVERSITY OF NEW ENGLAND: MARK SPACKMAN
     MIE UNIVERSITY: HIROAKI UMEDA
     NAT. INST. OF ADVANCED INDUSTRIAL SCIENCE AND TECHNOLOGY: KAZUO KITAURA
     MICHIGAN STATE UNIVERSITY:
          KAROL KOWALSKI, MARTA WLOCH, JEFFREY GOUR, JESSE LUTZ,
          WEI LI, PIOTR PIECUCH
     UNIVERSITY OF SILESIA: MONIKA MUSIAL, STANISLAW KUCHARSKI
     FACULTES UNIVERSITAIRES NOTRE-DAME DE LA PAIX:
          OLIVIER QUINET, BENOIT CHAMPAGNE
     UNIVERSITY OF CALIFORNIA - SANTA BARBARA: BERNARD KIRTMAN
     INSTITUTE FOR MOLECULAR SCIENCE:
          KAZUYA ISHIMURA, MICHIO KATOUDA, AND SHIGERU NAGASE
     UNIVERSITY OF NOTRE DAME: ANNA POMOGAEVA, DAN CHIPMAN
     KYUSHU UNIVERSITY:
          HARUYUKI NAKANO,
          FENG LONG GU, JACEK KORCHOWIEC, MARCIN MAKOWSKI, AND YURIKO AOKI,
          HIROTOSHI MORI AND EISAKU MIYOSHI
     PENNSYLVANIA STATE UNIVERSITY:
          TZVETELIN IORDANOV, CHET SWALINA, JONATHAN SKONE,
          SHARON HAMMES-SCHIFFER
     WASEDA UNIVERSITY:
          MASATO KOBAYASHI, TOMOKO AKAMA, TSUGUKI TOUMA,
          TAKESHI YOSHIKAWA, YASUHIRO IKABATA, JUNJI SEINO,
          YUYA NAKAJIMA, HIROMI NAKAI
     NANJING UNIVERSITY: SHUHUA LI
     UNIVERSITY OF NEBRASKA:
          PEIFENG SU, DEJUN SI, NANDUN THELLAMUREGE, YALI WANG, HUI LI
     UNIVERSITY OF ZURICH: ROBERTO PEVERATI, KIM BALDRIDGE
     N. COPERNICUS UNIVERSITY AND JACKSON STATE UNIVERSITY:
          MARIA BARYSZ
     UNIVERSITY OF COPENHAGEN: Jimmy Kromann, CASPER STEINMANN
     TOKYO INSTITUTE OF TECHNOLOGY: HIROYA NAKATA
     NAGOYA UNIVERSITY: YOSHIO NISHIMOTO, STEPHAN IRLE
     MOSCOW STATE UNIVERSITY: VLADIMIR MIRONOV

 EXECUTION OF GAMESS BEGUN Wed Aug  9 22:18:11 2017

            ECHO OF THE FIRST FEW INPUT CARDS -
 INPUT CARD>!  bicyclobutane...TCSCF hessian...72 basis functions                           
 INPUT CARD>!  K.A.Nguyen, M.S.Gordon, J.A.Boatz  J.Am.Chem.Soc.  116,9241-9(1994)          
 INPUT CARD>!  Note that correlation of all ten CC bonding electrons gives a                
 INPUT CARD>!  transition state in the higher symmetry D2h.                                 
 INPUT CARD>!                                                                               
 INPUT CARD>!  FINAL E=-154.8245217247 after 28 iters                                       
 INPUT CARD>!  the transition vector has imaginary FREQuency=448.21i                        
 INPUT CARD>!                                                                               
 INPUT CARD>!  This run takes 12 seconds on a 2.66 GHz Cloverton (10 Sep 2013)              
 INPUT CARD>!                                                                               
 INPUT CARD> $contrl scftyp=gvb runtyp=hessian $end                                         
 INPUT CARD> $system mwords=2 $end                                                          
 INPUT CARD> $scf    nco=14 nseto=0 npair=1 $end                                            
 INPUT CARD> $basis  gbasis=n31 ngauss=6 ndfunc=1 $end                                      
 INPUT CARD> $guess  guess=moread norb=16 $end                                              
 INPUT CARD> $data                                                                          
 INPUT CARD>bicyclobutane inversion...GVB-PP(1)/6-31G(d) structure 6                        
 INPUT CARD>Cs                                                                              
 INPUT CARD>                                                                                
 INPUT CARD>Carbon      6.0   1.0452922610  -0.1224622344   0.0000000000                    
 INPUT CARD>Carbon      6.0  -1.0279901158   0.0316593850   0.0000000000                    
 INPUT CARD>Carbon      6.0   0.0030438188  -0.0317127507   1.1098257302                    
 INPUT CARD>Hydrogen    1.0   2.0511433839   0.2574197471   0.0000000000                    
 INPUT CARD>Hydrogen    1.0  -2.1001208726   0.0104090678   0.0000000000                    
 INPUT CARD>Hydrogen    1.0   0.0629927231   0.8556354777   1.7376300383                    
 INPUT CARD>Hydrogen    1.0  -0.0501988701  -0.8992062785   1.7642532220                    
 INPUT CARD> $end                                                                           
 INPUT CARD>                                                                                
 INPUT CARD>--- ROHF ORBITALS --- GENERATED AT 13:59:09 CST 24-FEB-1995                     
 INPUT CARD>triplet state orbitals at the GVB-PP(1)/6-31G(d) structure 6                    
 INPUT CARD>E(ROHF)=     -154.8275635189, E(NUC)=  111.3305401992,   11 ITERS               
 INPUT CARD> $VEC                                                                           
 INPUT CARD> 1  1 0.00000000E+00 0.00000000E+00 0.00000000E+00 0.00000000E+00-8.80521987E-05
 INPUT CARD> 1  2 0.00000000E+00 0.00000000E+00 0.00000000E+00-1.97217718E-03 0.00000000E+00
 INPUT CARD> 1  3 0.00000000E+00 0.00000000E+00 0.00000000E+00-2.86092707E-04 1.97281563E-05
 INPUT CARD> 1  4 0.00000000E+00 0.00000000E+00 0.00000000E+00 0.00000000E+00-6.97885390E-05
 INPUT CARD> 1  5 0.00000000E+00 0.00000000E+00 0.00000000E+00-2.01047064E-03 0.00000000E+00
 INPUT CARD> 1  6 0.00000000E+00 0.00000000E+00 0.00000000E+00 2.96195994E-04-1.67442817E-05
 INPUT CARD> 1  7 7.04164226E-01 2.01570268E-02-8.15009391E-06 1.99263118E-06 1.88023197E-04
 INPUT CARD> 1  8-1.14055628E-02 5.38566551E-06-1.93305280E-05-8.67078807E-04-1.25559910E-03
 INPUT CARD> 1  9-1.11640380E-03-1.16484494E-03 1.52460605E-05-6.29565558E-06 2.32915290E-06
 INPUT CARD> 1 10-7.04164226E-01-2.01570268E-02 8.15009391E-06-1.99263118E-06 1.88023197E-04
 INPUT CARD> 1 11 1.14055628E-02-5.38566551E-06 1.93305280E-05-8.67078807E-04 1.25559910E-03
 INPUT CARD> 1 12 1.11640380E-03 1.16484494E-03-1.52460605E-05-6.29565558E-06 2.32915290E-06
 INPUT CARD> 1 13 0.00000000E+00 0.00000000E+00 0.00000000E+00 0.00000000E+00 9.36006730E-05
 INPUT CARD> 1 14 1.83395854E-03-9.36006730E-05-1.83395854E-03 9.17162496E-05 1.80711631E-03
 INPUT CARD> 1 15-9.17162496E-05-1.80711631E-03                                             
 INPUT CARD> 2  1 1.88557621E-02 6.85917937E-04-1.28022930E-05-1.99897933E-05 0.00000000E+00
 INPUT CARD> 2  2 6.22658661E-03-1.63332731E-03 2.96689971E-04 0.00000000E+00-6.65627805E-04
 INPUT CARD> 2  3-2.92798128E-04-4.88138740E-04 6.83295295E-05 0.00000000E+00 0.00000000E+00
    2000000 WORDS OF MEMORY AVAILABLE

     BASIS OPTIONS
     -------------
     GBASIS=N31          IGAUSS=       6      POLAR=POPN31  
     NDFUNC=       1     NFFUNC=       0     DIFFSP=       F
     NPFUNC=       0      DIFFS=       F     BASNAM=        


     RUN TITLE
     ---------
 bicyclobutane inversion...GVB-PP(1)/6-31G(d) structure 6                        

 THE POINT GROUP OF THE MOLECULE IS CS      
 THE ORDER OF THE PRINCIPAL AXIS IS     0

 ATOM      ATOMIC                      COORDINATES (BOHR)
           CHARGE         X                   Y                   Z
 CARBON      6.0     1.9753159504       -0.2314200669        0.0000000000
 CARBON      6.0    -1.9426196369        0.0598275626        0.0000000000
 CARBON      6.0     0.0057519835       -0.0599284091       -2.0972665242
 CARBON      6.0     0.0057519835       -0.0599284091        2.0972665242
 HYDROGEN    1.0     3.8760989571        0.4864527858        0.0000000000
 HYDROGEN    1.0    -3.9686529903        0.0196702859        0.0000000000
 HYDROGEN    1.0     0.1190389859        1.6169165982       -3.2836446404
 HYDROGEN    1.0     0.1190389859        1.6169165982        3.2836446404
 HYDROGEN    1.0    -0.0948621094       -1.6992534728       -3.3339551625
 HYDROGEN    1.0    -0.0948621094       -1.6992534728        3.3339551625

          INTERNUCLEAR DISTANCES (ANGS.)
          ------------------------------

                1 CARB       2 CARB       3 CARB       4 CARB       5 HYDR  

   1 CARB    0.0000000    2.0790030 *  1.5251985 *  1.5251985 *  1.0751962 *
   2 CARB    2.0790030 *  0.0000000    1.5161663 *  1.5161663 *  3.0873987  
   3 CARB    1.5251985 *  1.5161663 *  0.0000000    2.2196515 *  2.3473437 *
   4 CARB    1.5251985 *  1.5161663 *  2.2196515 *  0.0000000    2.3473437 *
   5 HYDR    1.0751962 *  3.0873987    2.3473437 *  2.3473437 *  0.0000000  
   6 HYDR    3.1482183    1.0723413 *  2.3784005 *  2.3784005 *  4.1586066  
   7 HYDR    2.2228238 *  2.2110039 *  1.0886317 *  2.9831167 *  2.7073905 *
   8 HYDR    2.2228238 *  2.2110039 *  2.9831167 *  1.0886317 *  2.7073905 *
   9 HYDR    2.2172103 *  2.2215256 *  1.0879592 *  3.0026171    2.9775850 *
  10 HYDR    2.2172103 *  2.2215256 *  3.0026171    1.0879592 *  2.9775850 *

                6 HYDR       7 HYDR       8 HYDR       9 HYDR      10 HYDR  

   1 CARB    3.1482183    2.2228238 *  2.2228238 *  2.2172103 *  2.2172103 *
   2 CARB    1.0723413 *  2.2110039 *  2.2110039 *  2.2215256 *  2.2215256 *
   3 CARB    2.3784005 *  1.0886317 *  2.9831167 *  1.0879592 *  3.0026171  
   4 CARB    2.3784005 *  2.9831167 *  1.0886317 *  3.0026171    1.0879592 *
   5 HYDR    4.1586066    2.7073905 *  2.7073905 *  2.9775850 *  2.9775850 *
   6 HYDR    0.0000000    2.9004872 *  2.9004872 *  2.8534487 *  2.8534487 *
   7 HYDR    2.9004872 *  0.0000000    3.4752601    1.7586901 *  3.9186054  
   8 HYDR    2.9004872 *  3.4752601    0.0000000    3.9186054    1.7586901 *
   9 HYDR    2.8534487 *  1.7586901 *  3.9186054    0.0000000    3.5285064  
  10 HYDR    2.8534487 *  3.9186054    1.7586901 *  3.5285064    0.0000000  

  * ... LESS THAN  3.000


     ATOMIC BASIS SET
     ----------------
 THE CONTRACTED PRIMITIVE FUNCTIONS HAVE BEEN UNNORMALIZED
 THE CONTRACTED BASIS FUNCTIONS ARE NOW NORMALIZED TO UNITY

  SHELL TYPE  PRIMITIVE        EXPONENT          CONTRACTION COEFFICIENT(S)

 CARBON    

      1   S       1          3047.5248800    0.001834737132
      1   S       2           457.3695180    0.014037322813
      1   S       3           103.9486850    0.068842622264
      1   S       4            29.2101553    0.232184443216
      1   S       5             9.2866630    0.467941348435
      1   S       6             3.1639270    0.362311985337

      2   L       7             7.8682723   -0.119332419775    0.068999066591
      2   L       8             1.8812885   -0.160854151696    0.316423960957
      2   L       9             0.5442493    1.143456437840    0.744308290898

      3   L      10             0.1687145    1.000000000000    1.000000000000

      4   D      11             0.8000000    1.000000000000

 CARBON    

      5   S      12          3047.5248800    0.001834737132
      5   S      13           457.3695180    0.014037322813
      5   S      14           103.9486850    0.068842622264
      5   S      15            29.2101553    0.232184443216
      5   S      16             9.2866630    0.467941348435
      5   S      17             3.1639270    0.362311985337

      6   L      18             7.8682723   -0.119332419775    0.068999066591
      6   L      19             1.8812885   -0.160854151696    0.316423960957
      6   L      20             0.5442493    1.143456437840    0.744308290898

      7   L      21             0.1687145    1.000000000000    1.000000000000

      8   D      22             0.8000000    1.000000000000

 CARBON    

     13   S      23          3047.5248800    0.001834737132
     13   S      24           457.3695180    0.014037322813
     13   S      25           103.9486850    0.068842622264
     13   S      26            29.2101553    0.232184443216
     13   S      27             9.2866630    0.467941348435
     13   S      28             3.1639270    0.362311985337

     14   L      29             7.8682723   -0.119332419775    0.068999066591
     14   L      30             1.8812885   -0.160854151696    0.316423960957
     14   L      31             0.5442493    1.143456437840    0.744308290898

     15   L      32             0.1687145    1.000000000000    1.000000000000

     16   D      33             0.8000000    1.000000000000

 HYDROGEN  

     17   S      34            18.7311370    0.033494604338
     17   S      35             2.8253944    0.234726953484
     17   S      36             0.6401217    0.813757326146

     18   S      37             0.1612778    1.000000000000

 HYDROGEN  

     19   S      38            18.7311370    0.033494604338
     19   S      39             2.8253944    0.234726953484
     19   S      40             0.6401217    0.813757326146

     20   S      41             0.1612778    1.000000000000

 HYDROGEN  

     23   S      42            18.7311370    0.033494604338
     23   S      43             2.8253944    0.234726953484
     23   S      44             0.6401217    0.813757326146

     24   S      45             0.1612778    1.000000000000

 HYDROGEN  

     27   S      46            18.7311370    0.033494604338
     27   S      47             2.8253944    0.234726953484
     27   S      48             0.6401217    0.813757326146

     28   S      49             0.1612778    1.000000000000

 TOTAL NUMBER OF BASIS SET SHELLS             =   28
 NUMBER OF CARTESIAN GAUSSIAN BASIS FUNCTIONS =   72
 NUMBER OF ELECTRONS                          =   30
 CHARGE OF MOLECULE                           =    0
 SPIN MULTIPLICITY                            =    1
 NUMBER OF OCCUPIED ORBITALS (ALPHA)          =   15
 NUMBER OF OCCUPIED ORBITALS (BETA )          =   15
 TOTAL NUMBER OF ATOMS                        =   10
 THE NUCLEAR REPULSION ENERGY IS      111.3305401992

     $CONTRL OPTIONS
     ---------------
 SCFTYP=GVB          RUNTYP=HESSIAN      EXETYP=RUN     
 MPLEVL=       0     CITYP =NONE         CCTYP =NONE         VBTYP =NONE    
 DFTTYP=NONE         TDDFT =NONE    
 MULT  =       1     ICHARG=       0     NZVAR =       0     COORD =UNIQUE  
 PP    =NONE         RELWFN=NONE         LOCAL =NONE         NUMGRD=       F
 ISPHER=      -1     NOSYM =       0     MAXIT =      30     UNITS =ANGS    
 PLTORB=       F     MOLPLT=       F     AIMPAC=       F     FRIEND=        
 NPRINT=       7     IREST =       0     GEOM  =INPUT   
 NORMF =       0     NORMP =       0     ITOL  =      20     ICUT  =       9
 INTTYP=BEST         GRDTYP=BEST         QMTTOL= 1.0E-06

     $SYSTEM OPTIONS
     ---------------
  REPLICATED MEMORY=     2000000 WORDS (ON EVERY NODE).
 DISTRIBUTED MEMDDI=           0 MILLION WORDS IN AGGREGATE,
 MEMDDI DISTRIBUTED OVER   1 PROCESSORS IS           0 WORDS/PROCESSOR.
 TOTAL MEMORY REQUESTED ON EACH PROCESSOR=     2000000 WORDS.
 TIMLIM=      525600.00 MINUTES, OR     365.0 DAYS.
 PARALL= F  BALTYP=  DLB     KDIAG=    0  COREFL= F
 MXSEQ2=     300 MXSEQ3=     150  mem10=         0

          ----------------
          PROPERTIES INPUT
          ----------------

     MOMENTS            FIELD           POTENTIAL          DENSITY
 IEMOM =       1   IEFLD =       0   IEPOT =       0   IEDEN =       0
 WHERE =COMASS     WHERE =NUCLEI     WHERE =NUCLEI     WHERE =NUCLEI  
 OUTPUT=BOTH       OUTPUT=BOTH       OUTPUT=BOTH       OUTPUT=BOTH    
 IEMINT=       0   IEFINT=       0                     IEDINT=       0
                                                       MORB  =       0
          EXTRAPOLATION IN EFFECT
          SOSCF IN EFFECT
 ORBITAL PRINTING OPTION: NPREO=     1    72     2     1

          *************************
          ROHF-GVB INPUT PARAMETERS
          *************************

          NORB   =   16          NCO    =   14
          NPAIR  =    1          NSETO  =    0
          PAIR ORBITALS
          PAIR    1 HAS ORBS   15   16

          ----------------------------
          ROHF-GVB COUPLING PARAMETERS
          ----------------------------

          F VECTOR (OCCUPANCIES)
    1   1.0000000000
    2   0.9529411765
    3   0.0470588235
          ALPHA COUPLING COEFFICEINTS

             1           2           3

    1    2.0000000
    2    1.9058824   0.9529412
    3    0.0941176   0.0000000   0.0470588
           BETA COUPLING COEFFICIENTS

             1           2           3

    1   -1.0000000
    2   -0.9529412   0.0000000
    3   -0.0470588  -0.2117647   0.0000000

          NATURAL ORBITAL COEFFICIENTS
          N.O.                PAIR CICOEF-S
            1        0.9761870602    -0.2169304578

     -------------------------------
     INTEGRAL TRANSFORMATION OPTIONS
     -------------------------------
     NWORD  =            0
     CUTOFF = 1.0E-09     MPTRAN =       0
     DIRTRF =       F     AOINTS =DUP     

          ----------------------
          INTEGRAL INPUT OPTIONS
          ----------------------
 NOPK  =       1 NORDER=       0 SCHWRZ=       T

     ------------------------------------------
     THE POINT GROUP IS CS , NAXIS= 0, ORDER= 2
     ------------------------------------------

     DIMENSIONS OF THE SYMMETRY SUBSPACES ARE
 A'  =   45     A'' =   27

 ..... DONE SETTING UP THE RUN .....
 STEP CPU TIME =     0.03 TOTAL CPU TIME =        0.0 (    0.0 MIN)
 TOTAL WALL CLOCK TIME=        0.0 SECONDS, CPU UTILIZATION IS 100.00%

     ---------------------------------
     HESSIAN MATRIX CONTROL PARAMETERS
     ---------------------------------
     METHOD=ANALYTIC   NVIB  =       2   VIBSIZ= 0.01000
     RDHESS=       F   PURIFY=       F   PRTIFC=       F
     VIBANL=       T   DECOMP=       F   PROJCT=       F
     SCLFAC= 1.00000   PRTSCN=       F   NPRT  =       0
     PULCOR=       F   NPUN  =       0   REDOVB=       T
     HSSTYP=GENERAL 
     THERMOCHEMISTRY WILL BE PRINTED FOR    1 TEMPERATURES:
      298.15000
 Old integral subroutine is used

     ------------------------------
     CPHF RESPONSE SOLUTION OPTIONS
     ------------------------------
     POLAR  =       F     NWORD  =       0
     CPHF   =MO      

          ********************
          1 ELECTRON INTEGRALS
          ********************
 ...... END OF ONE-ELECTRON INTEGRALS ......
 STEP CPU TIME =     0.00 TOTAL CPU TIME =        0.0 (    0.0 MIN)
 TOTAL WALL CLOCK TIME=        0.0 SECONDS, CPU UTILIZATION IS 100.00%

          -------------
          GUESS OPTIONS
          -------------
          GUESS =MOREAD            NORB  =      16          NORDER=       0
          MIX   =       F          PRTMO =       F          PUNMO =       F
          TOLZ  = 1.0E-08          TOLE  = 1.0E-05
          SYMDEN=       F          PURIFY=       F

 INITIAL GUESS ORBITALS GENERATED BY MOREAD   ROUTINE.

 SYMMETRIES FOR INITIAL GUESS ORBITALS FOLLOW.   BOTH SET(S).
    16 ORBITALS ARE OCCUPIED (    4 CORE ORBITALS).
     1=A''      2=A'       3=A'       4=A'       5=A'       6=A''      7=A'  
     8=A'       9=A'      10=A'      11=A''     12=A''     13=A'      14=A'' 
    15=A'      16=A'      17=A'      18=A'      19=A'      20=A'      21=A'  
    22=A'      23=A'      24=A'      25=A'      26=A'      27=A'      28=A'  
    29=A'      30=A'      31=A'      32=A'      33=A'      34=A'      35=A'  
    36=A'      37=A'      38=A'      39=A'      40=A'      41=A'      42=A'  
    43=A'      44=A'      45=A'      46=A'      47=A'      48=A'      49=A'  
    50=A'      51=A''     52=A''     53=A''     54=A''     55=A''     56=A'' 
    57=A''     58=A''     59=A''     60=A''     61=A''     62=A''     63=A'' 
    64=A''     65=A''     66=A''     67=A''     68=A''     69=A''     70=A'' 
    71=A''     72=A'' 
 ...... END OF INITIAL ORBITAL SELECTION ......
 STEP CPU TIME =     0.00 TOTAL CPU TIME =        0.0 (    0.0 MIN)
 TOTAL WALL CLOCK TIME=        0.0 SECONDS, CPU UTILIZATION IS  75.00%

                    ----------------------
                    AO INTEGRAL TECHNOLOGY
                    ----------------------
     S,P,L SHELL ROTATED AXIS INTEGRALS, REPROGRAMMED BY
        KAZUYA ISHIMURA (IMS) AND JOSE SIERRA (SYNSTAR).
     S,P,D,L SHELL ROTATED AXIS INTEGRALS PROGRAMMED BY
        KAZUYA ISHIMURA (INSTITUTE FOR MOLECULAR SCIENCE).
     S,P,D,F,G SHELL TO TOTAL QUARTET ANGULAR MOMENTUM SUM 5,
        ERIC PROGRAM BY GRAHAM FLETCHER (ELORET AND NASA ADVANCED
        SUPERCOMPUTING DIVISION, AMES RESEARCH CENTER).
     S,P,D,F,G,L SHELL GENERAL RYS QUADRATURE PROGRAMMED BY
        MICHEL DUPUIS (PACIFIC NORTHWEST NATIONAL LABORATORY).

          --------------------
          2 ELECTRON INTEGRALS
          --------------------

 THE -PK- OPTION IS OFF, THE INTEGRALS ARE NOT IN SUPERMATRIX FORM.
 STORING   15000 INTEGRALS/RECORD ON DISK, USING 12 BYTES/INTEGRAL.
 TWO ELECTRON INTEGRAL EVALUATION REQUIRES   90802 WORDS OF MEMORY.
 SCHWARZ INEQUALITY OVERHEAD:      2628 INTEGRALS, T=        0.00
 II,JST,KST,LST =  1  1  1  1 NREC =         1 INTLOC =    1
 II,JST,KST,LST =  2  1  1  1 NREC =         1 INTLOC =    2
 II,JST,KST,LST =  3  1  1  1 NREC =         1 INTLOC =   34
 II,JST,KST,LST =  4  1  1  1 NREC =         1 INTLOC =  214
 II,JST,KST,LST =  5  1  1  1 NREC =         1 INTLOC = 1189
 II,JST,KST,LST =  6  1  1  1 NREC =         1 INTLOC = 2259
 II,JST,KST,LST =  7  1  1  1 NREC =         1 INTLOC = 9093
 II,JST,KST,LST =  8  1  1  1 NREC =         2 INTLOC = 6071
 II,JST,KST,LST =  9  1  1  1 NREC =         4 INTLOC = 6621
 II,JST,KST,LST = 10  1  1  1 NREC =         4 INTLOC = 6621
 II,JST,KST,LST = 11  1  1  1 NREC =         4 INTLOC = 6621
 II,JST,KST,LST = 12  1  1  1 NREC =         4 INTLOC = 6621
 II,JST,KST,LST = 13  1  1  1 NREC =         4 INTLOC = 6621
 II,JST,KST,LST = 14  1  1  1 NREC =         5 INTLOC = 6785
 II,JST,KST,LST = 15  1  1  1 NREC =        12 INTLOC = 2980
 II,JST,KST,LST = 16  1  1  1 NREC =        23 INTLOC =13794
 II,JST,KST,LST = 17  1  1  1 NREC =        54 INTLOC =12237
 II,JST,KST,LST = 18  1  1  1 NREC =        58 INTLOC = 8972
 II,JST,KST,LST = 19  1  1  1 NREC =        62 INTLOC =10348
 II,JST,KST,LST = 20  1  1  1 NREC =        66 INTLOC =11534
 II,JST,KST,LST = 21  1  1  1 NREC =        71 INTLOC = 4186
 II,JST,KST,LST = 22  1  1  1 NREC =        71 INTLOC = 4186
 II,JST,KST,LST = 23  1  1  1 NREC =        71 INTLOC = 4186
 II,JST,KST,LST = 24  1  1  1 NREC =        80 INTLOC = 6635
 II,JST,KST,LST = 25  1  1  1 NREC =        90 INTLOC =10031
 II,JST,KST,LST = 26  1  1  1 NREC =        90 INTLOC =10031
 II,JST,KST,LST = 27  1  1  1 NREC =        90 INTLOC =10031
 II,JST,KST,LST = 28  1  1  1 NREC =       101 INTLOC = 7170
 SCHWARZ INEQUALITY TEST SKIPPED        1746 INTEGRAL BLOCKS.
 TOTAL NUMBER OF NONZERO TWO-ELECTRON INTEGRALS =             1689209
        113 INTEGRAL RECORDS WERE STORED ON DISK FILE  8.
  ...... END OF TWO-ELECTRON INTEGRALS .....
 STEP CPU TIME =     0.13 TOTAL CPU TIME =        0.2 (    0.0 MIN)
 TOTAL WALL CLOCK TIME=        0.2 SECONDS, CPU UTILIZATION IS 100.00%

          ------------------------
          ROHF-GVB SCF CALCULATION
          ------------------------
 GVB STEP WILL USE    186993 WORDS OF MEMORY.

     MAXIT=  30   NPUNCH= 2   SQCDF TOL=1.0000E-05
     NUCLEAR ENERGY=      111.3305401992
     EXTRAP=T   DAMP=F   SHIFT=F   RSTRCT=F   DIIS=F  SOSCF=T
     SOSCF WILL OPTIMIZE     925 ORBITAL ROTATIONS, SOGTOL=   0.250

 ITER EX     TOTAL ENERGY       E CHANGE        SQCDF       ORB. GRAD 
          ---------------START SECOND ORDER SCF---------------
   0  0     -154.652441930  -154.652441930   1.601876369   0.149717590
   1  1     -154.782988198    -0.130546268   0.475950256   0.046687869
   2  2     -154.608501140     0.174487058   0.731459183   0.122038439
   3  3     -154.801008610    -0.192507470   0.113399995   0.047956418
   4  4     -154.803951450    -0.002942840   0.033569408   0.059120007
   5  5     -154.817660494    -0.013709044   0.000969092   0.016787804
   6  6     -154.818099251    -0.000438757   0.000131966   0.016280990
   7  7     -154.818300588    -0.000201337   0.000232340   0.016276643
   8  8     -154.818485423    -0.000184835   0.000085411   0.016362826
   9  9     -154.818639772    -0.000154349   0.000201573   0.016529858
  10 10     -154.818906291    -0.000266519   0.000266648   0.016582504
  11 11     -154.819249225    -0.000342934   0.000521709   0.016183553
  12 12     -154.819802660    -0.000553436   0.000966095   0.015053786
  13 13     -154.820691483    -0.000888823   0.001694391   0.012522977
  14 14     -154.821957816    -0.001266332   0.001908907   0.008196180
  15 15     -154.823260312    -0.001302496   0.001267054   0.003401415
  16 16     -154.824076989    -0.000816677   0.000395303   0.002012083
  17 17     -154.824379140    -0.000302152   0.000106491   0.001319314
  18 18     -154.824477372    -0.000098232   0.000037964   0.000610797
  19 19     -154.824509641    -0.000032269   0.000012579   0.000575240
  20 20     -154.824518446    -0.000008804   0.000002593   0.000299214
  21 21     -154.824520881    -0.000002435   0.000000715   0.000127835
  22 22     -154.824521516    -0.000000634   0.000000211   0.000055348
  23 23     -154.824521679    -0.000000163   0.000000042   0.000028565
  24 24     -154.824521713    -0.000000034   0.000000010   0.000013177
  25 25     -154.824521722    -0.000000009   0.000000002   0.000005685
  26 26     -154.824521724    -0.000000002   0.000000001   0.000003615
  27 27     -154.824521725    -0.000000001   0.000000000   0.000001889
  28 28     -154.824521725    -0.000000000   0.000000000   0.000000893

          -----------------
          DENSITY CONVERGED
          -----------------

 FINAL GVB ENERGY IS     -154.8245217247 AFTER  28 ITERATIONS

          ----------------------------
          SCF STATISTICS PER ITERATION
          ----------------------------
          NUMBER OF INTEGRAL PASSES       1
          FOCK FORMATION TIME         0.051
          GEMINAL OPT TIME            0.000
          MIXORB  OPT TIME            0.000
          OCBSE   OPT TIME            0.000

          ----------------
          PAIR INFORMATION
          ----------------
      ORBITAL   CI COEFFICIENTS    OCCUPATION NUMBERS   GVB      ENERGY
 PAIR 1   2     ORB 1     ORB 2      ORB 1     ORB 2    OVERLAP  LOWERING
  1  15  16    0.690190 -0.723628   0.95272   1.04728   0.02365  -0.15076

     THE MAXIMUM LAGRANGIAN ASYMMETRY IS 1.6308186E-06

          ------------
          EIGENVECTORS
          ------------

                      1          2          3          4          5
                  -11.2232   -11.2231   -11.2216   -11.2181    -1.1186
                     A'         A''        A'         A'         A'  
    1  C  1  S    0.268726  -0.000000   0.958774   0.008261  -0.101757
    2  C  1  S    0.007588  -0.000000   0.026368   0.000362   0.192853
    3  C  1  X   -0.000122  -0.000000  -0.000416  -0.000035  -0.093448
    4  C  1  Y    0.000131  -0.000000   0.000577  -0.000032   0.018942
    5  C  1  Z   -0.000000  -0.000087   0.000000   0.000000  -0.000000
    6  C  1  S    0.002508  -0.000000  -0.014371  -0.002919   0.128087
    7  C  1  X   -0.000924  -0.000000   0.002623   0.001080  -0.015309
    8  C  1  Y    0.000100  -0.000000  -0.000766  -0.000150   0.008484
    9  C  1  Z   -0.000000  -0.001970   0.000000   0.000000  -0.000000
   10  C  1 XX   -0.001031  -0.000000  -0.001348   0.000140   0.016512
   11  C  1 YY   -0.000799  -0.000000  -0.001934   0.000094  -0.008556
   12  C  1 ZZ   -0.000976  -0.000000  -0.001807   0.000004   0.005948
   13  C  1 XY    0.000110  -0.000000   0.000151  -0.000003  -0.000184
   14  C  1 XZ   -0.000000  -0.000288   0.000000   0.000000  -0.000000
   15  C  1 YZ   -0.000000   0.000019   0.000000   0.000000  -0.000000
   16  C  2  S    0.081173  -0.000000  -0.031231   0.991905  -0.102902
   17  C  2  S    0.002476  -0.000000  -0.000787   0.027420   0.194881
   18  C  2  X    0.000041  -0.000000   0.000050   0.000411   0.092921
   19  C  2  Y    0.000000  -0.000000   0.000031  -0.000123  -0.007450
   20  C  2  Z   -0.000000  -0.000069   0.000000   0.000000  -0.000000
   21  C  2  S    0.004560  -0.000000  -0.003391  -0.013499   0.128722
   22  C  2  X    0.001102  -0.000000  -0.001439  -0.003162   0.015883
   23  C  2  Y   -0.000082  -0.000000  -0.000005   0.000217  -0.001740
   24  C  2  Z   -0.000000  -0.002008   0.000000   0.000000  -0.000000
   25  C  2 XX   -0.000725  -0.000000   0.000321  -0.001450   0.016962
   26  C  2 YY   -0.000393  -0.000000   0.000220  -0.002150  -0.009355
   27  C  2 ZZ   -0.000610  -0.000000   0.000166  -0.002022   0.006261
   28  C  2 XY    0.000033  -0.000000  -0.000021  -0.000001  -0.001457
   29  C  2 XZ   -0.000000   0.000299   0.000000   0.000000  -0.000000
   30  C  2 YZ   -0.000000  -0.000016   0.000000   0.000000  -0.000000
   31  C  3  S    0.675472   0.704158  -0.189136  -0.061566  -0.109783
   32  C  3  S    0.019175   0.020175  -0.005336  -0.001743   0.204419
   33  C  3  X   -0.000008  -0.000008  -0.000005   0.000004   0.000224
   34  C  3  Y    0.000006   0.000007  -0.000036   0.000006   0.000125
   35  C  3  Z    0.000176   0.000194  -0.000150  -0.000147   0.082984
   36  C  3  S   -0.010141  -0.011396   0.007596   0.005868   0.155741
   37  C  3  X    0.000155   0.000005   0.000945  -0.000874   0.000345
   38  C  3  Y   -0.000004  -0.000019   0.000243   0.000015  -0.000125
   39  C  3  Z   -0.000771  -0.000882   0.002263   0.002296   0.008906
   40  C  3 XX   -0.001377  -0.001257   0.000027  -0.000236   0.001815
   41  C  3 YY   -0.001134  -0.001117   0.000198  -0.000012  -0.000862
   42  C  3 ZZ   -0.001114  -0.001167  -0.000146  -0.000364   0.013432
   43  C  3 XY    0.000023   0.000014   0.000043   0.000020  -0.000030
   44  C  3 XZ   -0.000051  -0.000006  -0.000226   0.000226   0.000069
   45  C  3 YZ    0.000018   0.000002   0.000048  -0.000024   0.000116
   46  C  4  S    0.675472  -0.704158  -0.189136  -0.061566  -0.109783
   47  C  4  S    0.019175  -0.020175  -0.005336  -0.001743   0.204419
   48  C  4  X   -0.000008   0.000008  -0.000005   0.000004   0.000224
   49  C  4  Y    0.000006  -0.000007  -0.000036   0.000006   0.000125
   50  C  4  Z   -0.000176   0.000194   0.000150   0.000147  -0.082984
   51  C  4  S   -0.010141   0.011396   0.007596   0.005868   0.155741
   52  C  4  X    0.000155  -0.000005   0.000945  -0.000874   0.000345
   53  C  4  Y   -0.000004   0.000019   0.000243   0.000015  -0.000125
   54  C  4  Z    0.000771  -0.000882  -0.002263  -0.002296  -0.008906
   55  C  4 XX   -0.001377   0.001257   0.000027  -0.000236   0.001815
   56  C  4 YY   -0.001134   0.001117   0.000198  -0.000012  -0.000862
   57  C  4 ZZ   -0.001114   0.001167  -0.000146  -0.000364   0.013432
   58  C  4 XY    0.000023  -0.000014   0.000043   0.000020  -0.000030
   59  C  4 XZ    0.000051  -0.000006   0.000226  -0.000226  -0.000069
   60  C  4 YZ   -0.000018   0.000002  -0.000048   0.000024  -0.000116
   61  H  5  S   -0.000250  -0.000000  -0.000180   0.000033   0.037561
   62  H  5  S    0.000240  -0.000000   0.001818  -0.000002   0.005387
   63  H  6  S   -0.000154  -0.000000   0.000035  -0.000394   0.035173
   64  H  6  S   -0.000165  -0.000000  -0.000143   0.001183   0.006837
   65  H  7  S    0.000017   0.000105  -0.000265  -0.000208   0.048501
   66  H  7  S    0.001745   0.001837  -0.000384   0.000213   0.002115
   67  H  8  S    0.000017  -0.000105  -0.000265  -0.000208   0.048501
   68  H  8  S    0.001745  -0.001837  -0.000384   0.000213   0.002115
   69  H  9  S    0.000018   0.000100  -0.000164  -0.000220   0.048283
   70  H  9  S    0.001773   0.001805  -0.000033   0.000134   0.003195
   71  H 10  S    0.000018  -0.000100  -0.000164  -0.000220   0.048283
   72  H 10  S    0.001773  -0.001805  -0.000033   0.000134   0.003195

                      6          7          8          9         10
                   -0.9081    -0.8361    -0.7176    -0.6575    -0.5923
                     A''        A'         A'         A'         A'  
    1  C  1  S    0.000000   0.136474  -0.081415   0.022993   0.017664
    2  C  1  S    0.000000  -0.265646   0.159000  -0.041333  -0.035985
    3  C  1  X    0.000000  -0.051513   0.072872  -0.267977   0.003630
    4  C  1  Y    0.000000  -0.052984   0.044366  -0.056346   0.066988
    5  C  1  Z   -0.133978  -0.000000  -0.000000   0.000000   0.000000
    6  C  1  S    0.000000  -0.273482   0.176843  -0.072606  -0.040729
    7  C  1  X    0.000000  -0.013425   0.036421  -0.097908  -0.002758
    8  C  1  Y    0.000000  -0.032325   0.024740  -0.028043  -0.006103
    9  C  1  Z   -0.024053  -0.000000  -0.000000   0.000000   0.000000
   10  C  1 XX    0.000000  -0.012177   0.017266  -0.002261  -0.000368
   11  C  1 YY    0.000000   0.005890  -0.002994  -0.003875   0.002270
   12  C  1 ZZ    0.000000  -0.003077  -0.010574   0.002650  -0.002507
   13  C  1 XY    0.000000  -0.008035   0.006687  -0.011480  -0.009304
   14  C  1 XZ    0.017849  -0.000000  -0.000000   0.000000   0.000000
   15  C  1 YZ   -0.002462  -0.000000  -0.000000   0.000000   0.000000
   16  C  2  S    0.000000  -0.138957  -0.081935   0.022498  -0.002920
   17  C  2  S    0.000000   0.271111   0.160882  -0.042293   0.006370
   18  C  2  X    0.000000  -0.061216  -0.078547   0.279123   0.074438
   19  C  2  Y    0.000000  -0.010197  -0.002050  -0.013268   0.071754
   20  C  2  Z   -0.136306  -0.000000  -0.000000   0.000000   0.000000
   21  C  2  S    0.000000   0.275354   0.174402  -0.068040   0.007262
   22  C  2  X    0.000000  -0.020867  -0.044111   0.114830   0.029972
   23  C  2  Y    0.000000  -0.007524  -0.001215  -0.000890  -0.002123
   24  C  2  Z   -0.024559  -0.000000  -0.000000   0.000000   0.000000
   25  C  2 XX    0.000000   0.015071   0.020120  -0.006396  -0.003049
   26  C  2 YY    0.000000  -0.008759  -0.005507  -0.000328  -0.001156
   27  C  2 ZZ    0.000000   0.003584  -0.010385   0.002688   0.003376
   28  C  2 XY    0.000000  -0.000044   0.000398  -0.003507   0.008358
   29  C  2 XZ   -0.017753  -0.000000  -0.000000   0.000000   0.000000
   30  C  2 YZ    0.001312  -0.000000  -0.000000   0.000000   0.000000
   31  C  3  S   -0.138929  -0.000164   0.073078   0.002540  -0.002102
   32  C  3  S    0.262060   0.000171  -0.138289  -0.005746   0.003641
   33  C  3  X   -0.000231  -0.145812   0.000745  -0.004090  -0.013722
   34  C  3  Y    0.000585   0.002404   0.007862  -0.034085   0.298586
   35  C  3  Z   -0.035151  -0.000312   0.189802   0.198320   0.019356
   36  C  3  S    0.278390   0.003098  -0.167512  -0.015984   0.001154
   37  C  3  X    0.000341  -0.041610   0.000022  -0.001127  -0.006104
   38  C  3  Y    0.001277   0.005127  -0.000283  -0.013300   0.164696
   39  C  3  Z   -0.008154   0.001163   0.080814   0.072309   0.007207
   40  C  3 XX   -0.001925  -0.000064   0.013314  -0.000954  -0.000786
   41  C  3 YY    0.011060   0.000022  -0.019116  -0.013914  -0.000073
   42  C  3 ZZ    0.005343  -0.000368  -0.000923   0.009952   0.000429
   43  C  3 XY    0.001027  -0.000359  -0.001790  -0.002101   0.000054
   44  C  3 XZ   -0.000078  -0.018275   0.000178  -0.000148  -0.004558
   45  C  3 YZ    0.000097   0.000298  -0.000284   0.000913  -0.019308
   46  C  4  S    0.138929  -0.000164   0.073078   0.002540  -0.002102
   47  C  4  S   -0.262060   0.000171  -0.138289  -0.005746   0.003641
   48  C  4  X    0.000231  -0.145812   0.000745  -0.004090  -0.013722
   49  C  4  Y   -0.000585   0.002404   0.007862  -0.034085   0.298586
   50  C  4  Z   -0.035151   0.000312  -0.189802  -0.198320  -0.019356
   51  C  4  S   -0.278390   0.003098  -0.167512  -0.015984   0.001154
   52  C  4  X   -0.000341  -0.041610   0.000022  -0.001127  -0.006104
   53  C  4  Y   -0.001277   0.005127  -0.000283  -0.013300   0.164696
   54  C  4  Z   -0.008154  -0.001163  -0.080814  -0.072309  -0.007207
   55  C  4 XX    0.001925  -0.000064   0.013314  -0.000954  -0.000786
   56  C  4 YY   -0.011060   0.000022  -0.019116  -0.013914  -0.000073
   57  C  4 ZZ   -0.005343  -0.000368  -0.000923   0.009952   0.000429
   58  C  4 XY   -0.001027  -0.000359  -0.001790  -0.002101   0.000054
   59  C  4 XZ   -0.000078   0.018275  -0.000178   0.000148   0.004558
   60  C  4 YZ    0.000097  -0.000298   0.000284  -0.000913   0.019308
   61  H  5  S    0.000000  -0.144186   0.123694  -0.172959  -0.006428
   62  H  5  S    0.000000  -0.059876   0.065650  -0.112962   0.000800
   63  H  6  S    0.000000   0.144204   0.122857  -0.176183  -0.043160
   64  H  6  S    0.000000   0.059115   0.064325  -0.107131  -0.034305
   65  H  7  S    0.108463  -0.001366  -0.118518  -0.083841   0.152557
   66  H  7  S    0.033918   0.000840  -0.063291  -0.062304   0.119107
   67  H  8  S   -0.108463  -0.001366  -0.118518  -0.083841   0.152557
   68  H  8  S   -0.033918   0.000840  -0.063291  -0.062304   0.119107
   69  H  9  S    0.108428   0.001134  -0.126980  -0.054230  -0.158587
   70  H  9  S    0.034383  -0.000775  -0.068593  -0.040194  -0.123357
   71  H 10  S   -0.108428   0.001134  -0.126980  -0.054230  -0.158587
   72  H 10  S   -0.034383  -0.000775  -0.068593  -0.040194  -0.123357

                     11         12         13         14         15
                   -0.5415    -0.4988    -0.4652    -0.4597    -0.0786
                     A''        A''        A'         A''        A'  
    1  C  1  S   -0.000000  -0.000000   0.035373   0.000000  -0.032120
    2  C  1  S   -0.000000  -0.000000  -0.073089   0.000000   0.069150
    3  C  1  X   -0.000000  -0.000000   0.315316   0.000000   0.079550
    4  C  1  Y   -0.000000  -0.000000   0.049926   0.000000  -0.420932
    5  C  1  Z    0.007052  -0.291970   0.000000  -0.274258   0.000000
    6  C  1  S   -0.000000  -0.000000  -0.122036   0.000000   0.130829
    7  C  1  X   -0.000000  -0.000000   0.179328   0.000000   0.089250
    8  C  1  Y   -0.000000  -0.000000   0.030897   0.000000  -0.381702
    9  C  1  Z    0.001782  -0.142004   0.000000  -0.137796   0.000000
   10  C  1 XX   -0.000000  -0.000000   0.020244   0.000000  -0.006231
   11  C  1 YY   -0.000000  -0.000000   0.003833   0.000000   0.005078
   12  C  1 ZZ   -0.000000  -0.000000  -0.022570   0.000000  -0.004930
   13  C  1 XY   -0.000000  -0.000000   0.012829   0.000000  -0.003196
   14  C  1 XZ   -0.001405   0.016273   0.000000   0.023774   0.000000
   15  C  1 YZ   -0.010249  -0.004134   0.000000  -0.004114   0.000000
   16  C  2  S   -0.000000  -0.000000  -0.036313   0.000000  -0.010774
   17  C  2  S   -0.000000  -0.000000   0.073167   0.000000   0.023531
   18  C  2  X   -0.000000  -0.000000   0.303804   0.000000   0.018570
   19  C  2  Y   -0.000000  -0.000000  -0.016556   0.000000   0.436381
   20  C  2  Z   -0.002205   0.315850   0.000000  -0.246755   0.000000
   21  C  2  S   -0.000000  -0.000000   0.135936   0.000000   0.032768
   22  C  2  X   -0.000000  -0.000000   0.179458   0.000000   0.000276
   23  C  2  Y   -0.000000  -0.000000  -0.004558   0.000000   0.406178
   24  C  2  Z   -0.000095   0.154726   0.000000  -0.124405   0.000000
   25  C  2 XX   -0.000000  -0.000000  -0.024853   0.000000  -0.005098
   26  C  2 YY   -0.000000  -0.000000  -0.000327   0.000000   0.000888
   27  C  2 ZZ   -0.000000  -0.000000   0.022497   0.000000   0.002222
   28  C  2 XY   -0.000000  -0.000000  -0.001691   0.000000   0.000119
   29  C  2 XZ   -0.000790   0.017699   0.000000  -0.021997   0.000000
   30  C  2 YZ   -0.010454  -0.001624   0.000000   0.001846   0.000000
   31  C  3  S    0.000180   0.001201   0.000514  -0.027030   0.006676
   32  C  3  S   -0.001043  -0.003229  -0.000913   0.059355  -0.018977
   33  C  3  X    0.016921   0.305715  -0.241368   0.014062  -0.027786
   34  C  3  Y    0.311988  -0.016433  -0.027233  -0.002934   0.001695
   35  C  3  Z    0.002256  -0.015885  -0.004298   0.330246  -0.015816
   36  C  3  S    0.000168  -0.000813  -0.008525   0.100018   0.007133
   37  C  3  X    0.009811   0.163904  -0.134019   0.009557  -0.021416
   38  C  3  Y    0.176876  -0.005609  -0.027323   0.000147   0.005011
   39  C  3  Z    0.003293  -0.007242  -0.005234   0.192088   0.015024
   40  C  3 XX   -0.000218  -0.001077   0.000227   0.022909   0.000525
   41  C  3 YY    0.000887   0.000898  -0.000048  -0.018682   0.001856
   42  C  3 ZZ   -0.000718   0.000171  -0.000202  -0.005582  -0.002641
   43  C  3 XY    0.000193  -0.000038   0.001245  -0.003263  -0.020735
   44  C  3 XZ   -0.001878   0.019752  -0.021438   0.000888  -0.001277
   45  C  3 YZ   -0.025556  -0.001709   0.006057  -0.000675   0.002306
   46  C  4  S   -0.000180  -0.001201   0.000514   0.027030   0.006676
   47  C  4  S    0.001043   0.003229  -0.000913  -0.059355  -0.018977
   48  C  4  X   -0.016921  -0.305715  -0.241368  -0.014062  -0.027786
   49  C  4  Y   -0.311988   0.016433  -0.027233   0.002934   0.001695
   50  C  4  Z    0.002256  -0.015885   0.004298   0.330246   0.015816
   51  C  4  S   -0.000168   0.000813  -0.008525  -0.100018   0.007133
   52  C  4  X   -0.009811  -0.163904  -0.134019  -0.009557  -0.021416
   53  C  4  Y   -0.176876   0.005609  -0.027323  -0.000147   0.005011
   54  C  4  Z    0.003293  -0.007242   0.005234   0.192088  -0.015024
   55  C  4 XX    0.000218   0.001077   0.000227  -0.022909   0.000525
   56  C  4 YY   -0.000887  -0.000898  -0.000048   0.018682   0.001856
   57  C  4 ZZ    0.000718  -0.000171  -0.000202   0.005582  -0.002641
   58  C  4 XY   -0.000193   0.000038   0.001245   0.003263  -0.020735
   59  C  4 XZ   -0.001878   0.019752   0.021438   0.000888   0.001277
   60  C  4 YZ   -0.025556  -0.001709  -0.006057  -0.000675  -0.002306
   61  H  5  S   -0.000000  -0.000000   0.189790   0.000000  -0.031037
   62  H  5  S   -0.000000  -0.000000   0.175802   0.000000  -0.049636
   63  H  6  S   -0.000000  -0.000000  -0.181886   0.000000  -0.017724
   64  H  6  S   -0.000000  -0.000000  -0.166168   0.000000  -0.034243
   65  H  7  S    0.171472   0.007389  -0.025261  -0.110050  -0.008205
   66  H  7  S    0.136517   0.005876  -0.019030  -0.109780  -0.007057
   67  H  8  S   -0.171472  -0.007389  -0.025261   0.110050  -0.008205
   68  H  8  S   -0.136517  -0.005876  -0.019030   0.109780  -0.007057
   69  H  9  S   -0.169536   0.003676   0.026475  -0.113333   0.001974
   70  H  9  S   -0.132849   0.004154   0.021319  -0.110834   0.018408
   71  H 10  S    0.169536  -0.003676   0.026475   0.113333   0.001974
   72  H 10  S    0.132849  -0.004154   0.021319   0.110834   0.018408

                     16         17         18         19         20
                   -0.0972     0.2707     0.2899     0.2941     0.3001
                     A'         A'         A'         A''        A'  
    1  C  1  S    0.029177  -0.027861  -0.100707  -0.000000   0.057093
    2  C  1  S   -0.062519   0.088487   0.101677  -0.000000  -0.056500
    3  C  1  X   -0.082437   0.080310   0.016170  -0.000000  -0.138143
    4  C  1  Y    0.401576   0.025952   0.049415  -0.000000  -0.069579
    5  C  1  Z   -0.000000  -0.000000   0.000000   0.100380   0.000000
    6  C  1  S   -0.123438   0.423158   1.690906  -0.000000  -0.663958
    7  C  1  X   -0.066591   0.313485   0.129917  -0.000000  -0.749053
    8  C  1  Y    0.362315   0.103588   0.166645  -0.000000  -0.116373
    9  C  1  Z   -0.000000  -0.000000   0.000000   0.709568   0.000000
   10  C  1 XX    0.003259   0.006669   0.005594  -0.000000   0.023112
   11  C  1 YY   -0.005237  -0.003445   0.001495  -0.000000  -0.005543
   12  C  1 ZZ    0.006676   0.015322  -0.014617  -0.000000   0.005115
   13  C  1 XY   -0.000793  -0.001598  -0.002363  -0.000000   0.004176
   14  C  1 XZ   -0.000000  -0.000000   0.000000   0.006436   0.000000
   15  C  1 YZ   -0.000000  -0.000000   0.000000   0.001877   0.000000
   16  C  2  S   -0.001979   0.004139   0.100780  -0.000000   0.081992
   17  C  2  S    0.003001   0.053086  -0.139416  -0.000000  -0.096084
   18  C  2  X   -0.006846  -0.055693   0.045831  -0.000000   0.121744
   19  C  2  Y    0.416256  -0.005556  -0.004126  -0.000000   0.028267
   20  C  2  Z   -0.000000  -0.000000   0.000000   0.096518   0.000000
   21  C  2  S    0.016404  -0.103151  -1.555648  -0.000000  -1.043672
   22  C  2  X    0.007088  -0.120207   0.337609  -0.000000   0.851502
   23  C  2  Y    0.383095  -0.041395  -0.072214  -0.000000   0.230159
   24  C  2  Z   -0.000000  -0.000000   0.000000   0.712108   0.000000
   25  C  2 XX    0.003032   0.005648  -0.007545  -0.000000   0.017061
   26  C  2 YY    0.001268  -0.003774  -0.001731  -0.000000  -0.005584
   27  C  2 ZZ   -0.004687   0.020255   0.007449  -0.000000   0.008421
   28  C  2 XY    0.003064   0.002121   0.006142  -0.000000  -0.011532
   29  C  2 XZ   -0.000000  -0.000000   0.000000  -0.006747   0.000000
   30  C  2 YZ   -0.000000  -0.000000   0.000000  -0.000205   0.000000
   31  C  3  S   -0.004331  -0.080902   0.016967  -0.112784  -0.041666
   32  C  3  S    0.010915   0.073238  -0.006873   0.056166   0.081175
   33  C  3  X    0.033763  -0.020424  -0.148120   0.002945  -0.030037
   34  C  3  Y   -0.060160   0.026652   0.065195   0.004557  -0.083035
   35  C  3  Z    0.009952  -0.114987   0.025892  -0.085268   0.025438
   36  C  3  S    0.003508   1.497838  -0.389478   2.168526   0.222148
   37  C  3  X    0.027042  -0.089731  -0.720671   0.003488  -0.137050
   38  C  3  Y   -0.076709   0.071320   0.224455   0.009527  -0.369867
   39  C  3  Z   -0.004598  -0.521949   0.042868  -0.151252  -0.409386
   40  C  3 XX   -0.001669   0.001689  -0.000163  -0.019042  -0.012855
   41  C  3 YY   -0.000578  -0.008219   0.001586  -0.004634   0.001826
   42  C  3 ZZ    0.002174  -0.004260   0.001102   0.001304   0.004711
   43  C  3 XY   -0.001019  -0.000184   0.001004   0.001217  -0.002262
   44  C  3 XZ    0.004121   0.002522   0.017164  -0.000085   0.003110
   45  C  3 YZ    0.032033   0.001560   0.003748   0.000196  -0.006159
   46  C  4  S   -0.004331  -0.080902   0.016967   0.112784  -0.041666
   47  C  4  S    0.010915   0.073238  -0.006873  -0.056166   0.081175
   48  C  4  X    0.033763  -0.020424  -0.148120  -0.002945  -0.030037
   49  C  4  Y   -0.060160   0.026652   0.065195  -0.004557  -0.083035
   50  C  4  Z   -0.009952   0.114987  -0.025892  -0.085268  -0.025438
   51  C  4  S    0.003508   1.497838  -0.389478  -2.168526   0.222148
   52  C  4  X    0.027042  -0.089731  -0.720671  -0.003488  -0.137050
   53  C  4  Y   -0.076709   0.071320   0.224455  -0.009527  -0.369867
   54  C  4  Z    0.004598   0.521949  -0.042868  -0.151252   0.409386
   55  C  4 XX   -0.001669   0.001689  -0.000163   0.019042  -0.012855
   56  C  4 YY   -0.000578  -0.008219   0.001586   0.004634   0.001826
   57  C  4 ZZ    0.002174  -0.004260   0.001102  -0.001304   0.004711
   58  C  4 XY   -0.001019  -0.000184   0.001004  -0.001217  -0.002262
   59  C  4 XZ   -0.004121  -0.002522  -0.017164  -0.000085  -0.003110
   60  C  4 YZ   -0.032033  -0.001560  -0.003748   0.000196   0.006159
   61  H  5  S    0.023418   0.009989   0.006226  -0.000000   0.052271
   62  H  5  S    0.022300  -0.670751  -1.023712  -0.000000   1.351064
   63  H  6  S    0.005229   0.011921  -0.012167  -0.000000   0.041550
   64  H  6  S    0.017305  -0.187142   1.170878  -0.000000   1.566075
   65  H  7  S   -0.088289  -0.011818  -0.003234   0.019904   0.013603
   66  H  7  S   -0.146739  -1.081442  -0.035120  -0.939930   0.039134
   67  H  8  S   -0.088289  -0.011818  -0.003234  -0.019904   0.013603
   68  H  8  S   -0.146739  -1.081442  -0.035120   0.939930   0.039134
   69  H  9  S    0.089828  -0.009833   0.007637   0.020493  -0.002085
   70  H  9  S    0.137038  -0.915661   0.424519  -0.917372  -0.768922
   71  H 10  S    0.089828  -0.009833   0.007637  -0.020493  -0.002085
   72  H 10  S    0.137038  -0.915661   0.424519   0.917372  -0.768922

                     21         22         23         24         25
                    0.3333     0.3494     0.3560     0.3867     0.4732
                     A'         A''        A''        A'         A'' 
    1  C  1  S   -0.065446  -0.000000  -0.000000  -0.023036  -0.000000
    2  C  1  S    0.066405  -0.000000  -0.000000   0.028865  -0.000000
    3  C  1  X   -0.025769  -0.000000  -0.000000  -0.280226  -0.000000
    4  C  1  Y    0.031407  -0.000000  -0.000000  -0.050338  -0.000000
    5  C  1  Z   -0.000000   0.015437   0.147720   0.000000   0.303764
    6  C  1  S    1.005150  -0.000000  -0.000000   0.028290  -0.000000
    7  C  1  X   -0.130358  -0.000000  -0.000000  -1.437659  -0.000000
    8  C  1  Y    0.624503  -0.000000  -0.000000  -0.478520  -0.000000
    9  C  1  Z   -0.000000   0.128187   0.918135   0.000000   1.412701
   10  C  1 XX   -0.000567  -0.000000  -0.000000  -0.000543  -0.000000
   11  C  1 YY    0.000332  -0.000000  -0.000000   0.002921  -0.000000
   12  C  1 ZZ   -0.002389  -0.000000  -0.000000   0.001797  -0.000000
   13  C  1 XY    0.016902  -0.000000  -0.000000  -0.006729  -0.000000
   14  C  1 XZ   -0.000000   0.003626   0.019669   0.000000   0.008217
   15  C  1 YZ   -0.000000   0.010766   0.001313   0.000000   0.003330
   16  C  2  S    0.003575  -0.000000  -0.000000   0.039231  -0.000000
   17  C  2  S   -0.000851  -0.000000  -0.000000  -0.026081  -0.000000
   18  C  2  X   -0.139368  -0.000000  -0.000000  -0.263825  -0.000000
   19  C  2  Y    0.003220  -0.000000  -0.000000   0.021319  -0.000000
   20  C  2  Z   -0.000000   0.020054   0.134962   0.000000  -0.301543
   21  C  2  S   -0.064868  -0.000000  -0.000000  -0.521071  -0.000000
   22  C  2  X   -0.731672  -0.000000  -0.000000  -1.572682  -0.000000
   23  C  2  Y    0.507474  -0.000000  -0.000000  -0.196056  -0.000000
   24  C  2  Z   -0.000000   0.118482   0.919191   0.000000  -1.483461
   25  C  2 XX   -0.011851  -0.000000  -0.000000  -0.001998  -0.000000
   26  C  2 YY    0.003981  -0.000000  -0.000000  -0.000283  -0.000000
   27  C  2 ZZ   -0.000590  -0.000000  -0.000000  -0.001892  -0.000000
   28  C  2 XY   -0.013366  -0.000000  -0.000000   0.003001  -0.000000
   29  C  2 XZ   -0.000000  -0.001818  -0.020526   0.000000   0.008921
   30  C  2 YZ   -0.000000   0.010894  -0.000534   0.000000   0.000775
   31  C  3  S    0.013469  -0.005118  -0.035267  -0.007980   0.001315
   32  C  3  S   -0.019454   0.004087   0.026510  -0.007255   0.002816
   33  C  3  X   -0.058556  -0.018094   0.006229  -0.065292   0.229796
   34  C  3  Y   -0.200091  -0.268941   0.030928   0.087256  -0.014421
   35  C  3  Z   -0.023195   0.023542   0.234229  -0.010501   0.000096
   36  C  3  S   -0.083075   0.089075   0.548273   0.257223  -0.055595
   37  C  3  X   -0.469563  -0.069453   0.011112  -0.617572   1.484400
   38  C  3  Y   -1.086510  -1.108567   0.115280   0.632232  -0.116370
   39  C  3  Z    0.070199   0.128205   1.257448   0.093980  -0.033329
   40  C  3 XX    0.005647  -0.001633  -0.012221  -0.001071   0.000448
   41  C  3 YY   -0.000166   0.001613   0.013192  -0.000011   0.000052
   42  C  3 ZZ   -0.002433   0.000592   0.004366  -0.000665   0.000361
   43  C  3 XY   -0.000193   0.000426   0.002099  -0.001597   0.001156
   44  C  3 XZ    0.008881   0.000138  -0.000442   0.020089  -0.021664
   45  C  3 YZ   -0.004059  -0.002528   0.000559  -0.005996   0.002006
   46  C  4  S    0.013469   0.005118   0.035267  -0.007980  -0.001315
   47  C  4  S   -0.019454  -0.004087  -0.026510  -0.007255  -0.002816
   48  C  4  X   -0.058556   0.018094  -0.006229  -0.065292  -0.229796
   49  C  4  Y   -0.200091   0.268941  -0.030928   0.087256   0.014421
   50  C  4  Z    0.023195   0.023542   0.234229   0.010501   0.000096
   51  C  4  S   -0.083075  -0.089075  -0.548273   0.257223   0.055595
   52  C  4  X   -0.469563   0.069453  -0.011112  -0.617572  -1.484400
   53  C  4  Y   -1.086510   1.108567  -0.115280   0.632232   0.116370
   54  C  4  Z   -0.070199   0.128205   1.257448  -0.093980  -0.033329
   55  C  4 XX    0.005647   0.001633   0.012221  -0.001071  -0.000448
   56  C  4 YY   -0.000166  -0.001613  -0.013192  -0.000011  -0.000052
   57  C  4 ZZ   -0.002433  -0.000592  -0.004366  -0.000665  -0.000361
   58  C  4 XY   -0.000193  -0.000426  -0.002099  -0.001597  -0.001156
   59  C  4 XZ   -0.008881   0.000138  -0.000442  -0.020089  -0.021664
   60  C  4 YZ    0.004059  -0.002528   0.000559   0.005996   0.002006
   61  H  5  S    0.021018  -0.000000  -0.000000  -0.019736  -0.000000
   62  H  5  S   -0.525785  -0.000000  -0.000000   1.671584  -0.000000
   63  H  6  S   -0.023899  -0.000000  -0.000000   0.021617  -0.000000
   64  H  6  S   -0.855553  -0.000000  -0.000000  -1.486063  -0.000000
   65  H  7  S   -0.004351   0.018608   0.045651   0.009895  -0.001549
   66  H  7  S    1.119011   1.308307   0.523695  -0.537130   0.003084
   67  H  8  S   -0.004351  -0.018608  -0.045651   0.009895   0.001549
   68  H  8  S    1.119011  -1.308307  -0.523695  -0.537130  -0.003084
   69  H  9  S    0.000747  -0.006797   0.046877  -0.010584   0.000267
   70  H  9  S   -0.951713  -1.166626   0.831241   0.433949  -0.015001
   71  H 10  S    0.000747   0.006797  -0.046877  -0.010584  -0.000267
   72  H 10  S   -0.951713   1.166626  -0.831241   0.433949   0.015001

                     26         27         28         29         30
                    0.5426     0.7038     0.7762     0.7791     0.7969
                     A'         A''        A''        A'         A'  
    1  C  1  S   -0.082642  -0.000000   0.000000  -0.016064   0.030858
    2  C  1  S    0.025788  -0.000000   0.000000  -0.248765   0.028532
    3  C  1  X   -0.142709  -0.000000   0.000000  -0.262775   0.198130
    4  C  1  Y   -0.041997  -0.000000   0.000000   0.021302   0.088421
    5  C  1  Z    0.000000   0.407932   0.187491  -0.000000   0.000000
    6  C  1  S    3.298515  -0.000000   0.000000   0.049004  -0.007861
    7  C  1  X   -2.425625  -0.000000   0.000000   0.945484  -0.496355
    8  C  1  Y    0.053949  -0.000000   0.000000  -0.007514  -0.013393
    9  C  1  Z    0.000000  -0.628070  -0.223375  -0.000000   0.000000
   10  C  1 XX    0.048061  -0.000000   0.000000  -0.149478   0.022010
   11  C  1 YY   -0.016329  -0.000000   0.000000   0.006672  -0.030144
   12  C  1 ZZ    0.023160  -0.000000   0.000000   0.024098   0.059060
   13  C  1 XY   -0.002753  -0.000000   0.000000  -0.044592   0.043960
   14  C  1 XZ    0.000000  -0.074332  -0.095333  -0.000000   0.000000
   15  C  1 YZ    0.000000   0.004060   0.007343  -0.000000   0.000000
   16  C  2  S   -0.088010  -0.000000   0.000000  -0.028253  -0.052639
   17  C  2  S    0.035573  -0.000000   0.000000  -0.333387  -0.166801
   18  C  2  X    0.128196  -0.000000   0.000000   0.174646   0.207179
   19  C  2  Y    0.016220  -0.000000   0.000000  -0.231827   0.280716
   20  C  2  Z    0.000000  -0.417568   0.182388  -0.000000   0.000000
   21  C  2  S    3.414365  -0.000000   0.000000   0.182700   0.159303
   22  C  2  X    2.541378  -0.000000   0.000000  -0.677988  -0.487860
   23  C  2  Y   -0.162194  -0.000000   0.000000   0.090755  -0.113766
   24  C  2  Z    0.000000   0.644961  -0.231794  -0.000000   0.000000
   25  C  2 XX    0.048117  -0.000000   0.000000  -0.166541  -0.103674
   26  C  2 YY   -0.016780  -0.000000   0.000000   0.016922   0.056277
   27  C  2 ZZ    0.025694  -0.000000   0.000000   0.001311  -0.079363
   28  C  2 XY   -0.005926  -0.000000   0.000000   0.015827  -0.011415
   29  C  2 XZ    0.000000  -0.073888   0.094280  -0.000000   0.000000
   30  C  2 YZ    0.000000   0.003913  -0.004609  -0.000000   0.000000
   31  C  3  S    0.091517   0.000450  -0.014617  -0.011960   0.000010
   32  C  3  S    0.093227   0.002879  -0.196039  -0.296531  -0.062682
   33  C  3  X    0.002912  -0.490309  -0.006084   0.059190   0.553689
   34  C  3  Y    0.017279   0.025965   0.012340  -0.118466   0.124154
   35  C  3  Z    0.040366   0.001843  -0.562482  -0.127030  -0.102035
   36  C  3  S   -3.305848   0.005274   0.150178   1.087156   0.046523
   37  C  3  X    0.026173   0.384240   0.009883  -0.042102  -0.487313
   38  C  3  Y    0.104154  -0.012349  -0.026834   0.217411  -0.292803
   39  C  3  Z   -2.867590  -0.014007   1.651041   0.290050   0.078221
   40  C  3 XX    0.004533   0.000132  -0.024742   0.048661  -0.000809
   41  C  3 YY   -0.024159  -0.000542   0.042043  -0.046237   0.004976
   42  C  3 ZZ    0.019440   0.000633  -0.058978  -0.060468  -0.017993
   43  C  3 XY   -0.004651   0.000637   0.005080   0.011324  -0.008867
   44  C  3 XZ   -0.000085  -0.070431  -0.001417   0.008625  -0.030242
   45  C  3 YZ   -0.004498   0.005486  -0.000198   0.027081  -0.032295
   46  C  4  S    0.091517  -0.000450   0.014617  -0.011960   0.000010
   47  C  4  S    0.093227  -0.002879   0.196039  -0.296531  -0.062682
   48  C  4  X    0.002912   0.490309   0.006084   0.059190   0.553689
   49  C  4  Y    0.017279  -0.025965  -0.012340  -0.118466   0.124154
   50  C  4  Z   -0.040366   0.001843  -0.562482   0.127030   0.102035
   51  C  4  S   -3.305848  -0.005274  -0.150178   1.087156   0.046523
   52  C  4  X    0.026173  -0.384240  -0.009883  -0.042102  -0.487313
   53  C  4  Y    0.104154   0.012349   0.026834   0.217411  -0.292803
   54  C  4  Z    2.867590  -0.014007   1.651041  -0.290050  -0.078221
   55  C  4 XX    0.004533  -0.000132   0.024742   0.048661  -0.000809
   56  C  4 YY   -0.024159   0.000542  -0.042043  -0.046237   0.004976
   57  C  4 ZZ    0.019440  -0.000633   0.058978  -0.060468  -0.017993
   58  C  4 XY   -0.004651  -0.000637  -0.005080   0.011324  -0.008867
   59  C  4 XZ    0.000085  -0.070431  -0.001417  -0.008625   0.030242
   60  C  4 YZ    0.004498   0.005486  -0.000198  -0.027081   0.032295
   61  H  5  S   -0.015386  -0.000000   0.000000  -0.480013   0.305615
   62  H  5  S    0.788531  -0.000000   0.000000  -0.132470   0.141934
   63  H  6  S   -0.038131  -0.000000   0.000000  -0.480283  -0.399276
   64  H  6  S    0.867936  -0.000000   0.000000  -0.049584  -0.075771
   65  H  7  S   -0.074621  -0.005144   0.189195  -0.266121   0.130086
   66  H  7  S   -0.460133  -0.002118   0.284730  -0.083349   0.020673
   67  H  8  S   -0.074621   0.005144  -0.189195  -0.266121   0.130086
   68  H  8  S   -0.460133   0.002118  -0.284730  -0.083349   0.020673
   69  H  9  S   -0.087972   0.004287   0.171958  -0.072021  -0.137952
   70  H  9  S   -0.320096  -0.006760   0.300125  -0.075658  -0.052380
   71  H 10  S   -0.087972  -0.004287  -0.171958  -0.072021  -0.137952
   72  H 10  S   -0.320096   0.006760  -0.300125  -0.075658  -0.052380

                     31         32         33         34         35
                    0.8228     0.8449     0.8855     0.9187     0.9309
                     A'         A'         A'         A''        A'' 
    1  C  1  S   -0.039860   0.036152   0.073523  -0.000000   0.000000
    2  C  1  S    0.021462   0.085115  -0.028847  -0.000000   0.000000
    3  C  1  X    0.315951   0.089452   0.034022  -0.000000   0.000000
    4  C  1  Y   -0.894275  -0.062653  -0.406279  -0.000000   0.000000
    5  C  1  Z   -0.000000  -0.000000  -0.000000  -0.801383   0.050686
    6  C  1  S    0.204830  -0.001769  -0.227267  -0.000000   0.000000
    7  C  1  X   -0.881930  -0.204686   0.861886  -0.000000   0.000000
    8  C  1  Y    0.919283  -0.080790   0.408622  -0.000000   0.000000
    9  C  1  Z   -0.000000  -0.000000  -0.000000   1.102441  -0.093153
   10  C  1 XX   -0.042808   0.086167   0.075599  -0.000000   0.000000
   11  C  1 YY    0.038523  -0.039766  -0.087555  -0.000000   0.000000
   12  C  1 ZZ   -0.004934   0.038064   0.104707  -0.000000   0.000000
   13  C  1 XY    0.016317  -0.009973  -0.020036  -0.000000   0.000000
   14  C  1 XZ   -0.000000  -0.000000  -0.000000  -0.063433  -0.004587
   15  C  1 YZ   -0.000000  -0.000000  -0.000000  -0.000992  -0.083071
   16  C  2  S   -0.021318   0.003986   0.059138  -0.000000   0.000000
   17  C  2  S    0.038690   0.068507  -0.031793  -0.000000   0.000000
   18  C  2  X    0.074877   0.027353   0.023700  -0.000000   0.000000
   19  C  2  Y   -0.032303  -0.947416   0.299433  -0.000000   0.000000
   20  C  2  Z   -0.000000  -0.000000  -0.000000  -0.773469   0.050673
   21  C  2  S   -0.112680  -0.162830  -0.450851  -0.000000   0.000000
   22  C  2  X   -0.167493  -0.073689  -0.799004  -0.000000   0.000000
   23  C  2  Y   -0.114973   1.113172  -0.503581  -0.000000   0.000000
   24  C  2  Z   -0.000000  -0.000000  -0.000000   1.017644  -0.054181
   25  C  2 XX   -0.046483   0.045195   0.061436  -0.000000   0.000000
   26  C  2 YY    0.036127   0.000161  -0.065228  -0.000000   0.000000
   27  C  2 ZZ   -0.029181  -0.025849   0.060255  -0.000000   0.000000
   28  C  2 XY    0.031415  -0.023477   0.020784  -0.000000   0.000000
   29  C  2 XZ   -0.000000  -0.000000  -0.000000   0.063847  -0.005590
   30  C  2 YZ   -0.000000  -0.000000  -0.000000  -0.008700  -0.082123
   31  C  3  S    0.008506  -0.000920  -0.043060   0.043070  -0.002834
   32  C  3  S   -0.058287   0.120116   0.222622  -0.270005   0.017899
   33  C  3  X    0.025873   0.267074   0.161947  -0.008685  -0.012797
   34  C  3  Y   -0.032513   0.018209  -0.115031  -0.015647  -0.347778
   35  C  3  Z   -0.259969   0.166564   0.585784  -0.244933  -0.000517
   36  C  3  S   -0.347366  -0.126219   0.743489   0.882420  -0.069179
   37  C  3  X   -0.046185  -0.285035  -0.189342   0.040763   0.048262
   38  C  3  Y    0.113695  -0.063961   0.251466   0.056700   1.200904
   39  C  3  Z    0.154852  -0.144065  -0.033387   0.462117   0.041500
   40  C  3 XX   -0.017407  -0.004320   0.059794   0.053968  -0.002466
   41  C  3 YY    0.028427  -0.000209  -0.020382  -0.054288   0.002100
   42  C  3 ZZ   -0.026297   0.030047  -0.013989   0.023185  -0.000680
   43  C  3 XY   -0.008026   0.006880  -0.012143  -0.009863  -0.000358
   44  C  3 XZ   -0.027628  -0.014193  -0.002103   0.000702   0.008850
   45  C  3 YZ    0.006495  -0.014584   0.020503   0.005216   0.120543
   46  C  4  S    0.008506  -0.000920  -0.043060  -0.043070   0.002834
   47  C  4  S   -0.058287   0.120116   0.222622   0.270005  -0.017899
   48  C  4  X    0.025873   0.267074   0.161947   0.008685   0.012797
   49  C  4  Y   -0.032513   0.018209  -0.115031   0.015647   0.347778
   50  C  4  Z    0.259969  -0.166564  -0.585784  -0.244933  -0.000517
   51  C  4  S   -0.347366  -0.126219   0.743489  -0.882420   0.069179
   52  C  4  X   -0.046185  -0.285035  -0.189342  -0.040763  -0.048262
   53  C  4  Y    0.113695  -0.063961   0.251466  -0.056700  -1.200904
   54  C  4  Z   -0.154852   0.144065   0.033387   0.462117   0.041500
   55  C  4 XX   -0.017407  -0.004320   0.059794  -0.053968   0.002466
   56  C  4 YY    0.028427  -0.000209  -0.020382   0.054288  -0.002100
   57  C  4 ZZ   -0.026297   0.030047  -0.013989  -0.023185   0.000680
   58  C  4 XY   -0.008026   0.006880  -0.012143   0.009863   0.000358
   59  C  4 XZ    0.027628   0.014193   0.002103   0.000702   0.008850
   60  C  4 YZ   -0.006495   0.014584  -0.020503   0.005216   0.120543
   61  H  5  S   -0.041183   0.212878   0.001491  -0.000000   0.000000
   62  H  5  S    0.354395   0.037371  -0.548319  -0.000000   0.000000
   63  H  6  S   -0.032198   0.028053   0.018399  -0.000000   0.000000
   64  H  6  S   -0.001613  -0.092096  -0.512512  -0.000000   0.000000
   65  H  7  S   -0.020975  -0.026675  -0.199062   0.072186  -0.438216
   66  H  7  S   -0.099262  -0.082334   0.040685   0.106622  -0.158831
   67  H  8  S   -0.020975  -0.026675  -0.199062  -0.072186   0.438216
   68  H  8  S   -0.099262  -0.082334   0.040685  -0.106622   0.158831
   69  H  9  S    0.159744   0.064990  -0.081095   0.122808   0.438786
   70  H  9  S    0.120006   0.103450   0.106390   0.126938   0.179840
   71  H 10  S    0.159744   0.064990  -0.081095  -0.122808  -0.438786
   72  H 10  S    0.120006   0.103450   0.106390  -0.126938  -0.179840

                     36         37         38         39         40
                    0.9521     1.0319     1.0686     1.1186     1.1472
                     A'         A''        A'         A'         A'' 
    1  C  1  S    0.015795   0.000000   0.054786   0.012189   0.000000
    2  C  1  S    0.217446   0.000000   0.809057  -0.582867   0.000000
    3  C  1  X   -0.311926   0.000000  -0.711461   0.392849   0.000000
    4  C  1  Y    0.105874   0.000000  -0.312660   0.047846   0.000000
    5  C  1  Z   -0.000000   0.600838  -0.000000  -0.000000   0.001562
    6  C  1  S   -0.128608   0.000000  -2.421572   1.822861   0.000000
    7  C  1  X    0.882122   0.000000   2.634011  -1.473083   0.000000
    8  C  1  Y   -0.684267   0.000000   0.709472  -0.387379   0.000000
    9  C  1  Z   -0.000000  -1.884298  -0.000000  -0.000000  -0.003977
   10  C  1 XX    0.079935   0.000000   0.127782  -0.027763   0.000000
   11  C  1 YY   -0.010553   0.000000  -0.008328  -0.011291   0.000000
   12  C  1 ZZ   -0.008034   0.000000   0.020937  -0.062714   0.000000
   13  C  1 XY   -0.064805   0.000000   0.036774   0.038348   0.000000
   14  C  1 XZ   -0.000000   0.062584  -0.000000  -0.000000   0.006330
   15  C  1 YZ   -0.000000  -0.003686  -0.000000  -0.000000   0.060573
   16  C  2  S   -0.048290   0.000000  -0.052863  -0.028045   0.000000
   17  C  2  S    0.310061   0.000000  -0.473234  -0.770449   0.000000
   18  C  2  X   -0.152368   0.000000  -0.469038  -0.848159   0.000000
   19  C  2  Y    0.154712   0.000000  -0.031495  -0.018245   0.000000
   20  C  2  Z   -0.000000  -0.634765  -0.000000  -0.000000   0.000495
   21  C  2  S   -0.496617   0.000000   1.404719   2.564389   0.000000
   22  C  2  X    1.255191   0.000000   1.652842   3.066176   0.000000
   23  C  2  Y   -0.808554   0.000000   0.231470  -0.283817   0.000000
   24  C  2  Z   -0.000000   1.947235  -0.000000  -0.000000  -0.002841
   25  C  2 XX    0.062699   0.000000  -0.098168  -0.090499   0.000000
   26  C  2 YY    0.051758   0.000000   0.016168   0.013435   0.000000
   27  C  2 ZZ   -0.069806   0.000000   0.010047  -0.046604   0.000000
   28  C  2 XY    0.065143   0.000000  -0.013001   0.017489   0.000000
   29  C  2 XZ   -0.000000   0.068472  -0.000000  -0.000000   0.005517
   30  C  2 YZ   -0.000000  -0.004631  -0.000000  -0.000000   0.064135
   31  C  3  S    0.033712   0.001312   0.009823  -0.044048  -0.000067
   32  C  3  S   -0.008879  -0.007656  -0.022540   0.140708  -0.008931
   33  C  3  X    0.339648   0.592665  -0.132675  -0.013328  -0.050791
   34  C  3  Y   -0.412680  -0.038022   0.191152  -0.247357  -0.785824
   35  C  3  Z   -0.134491  -0.008662   0.013051  -0.001972  -0.003872
   36  C  3  S   -0.275141   0.039050   0.409404  -2.093198   0.019949
   37  C  3  X   -0.342824  -1.836194   0.774644   0.196900   0.098728
   38  C  3  Y    1.194276   0.122473  -0.736394   0.660433   1.529747
   39  C  3  Z    0.082289   0.022429   0.347887  -1.513819   0.021065
   40  C  3 XX   -0.047588   0.001873   0.008252  -0.044630  -0.001609
   41  C  3 YY    0.002599  -0.001638  -0.007020   0.069199   0.003025
   42  C  3 ZZ    0.076226   0.001227   0.019703  -0.109509  -0.003414
   43  C  3 XY    0.001221  -0.000509  -0.005568  -0.006999   0.001256
   44  C  3 XZ    0.030735  -0.082298   0.098926   0.028915  -0.008839
   45  C  3 YZ    0.075219   0.005316  -0.036658  -0.008452  -0.129080
   46  C  4  S    0.033712  -0.001312   0.009823  -0.044048   0.000067
   47  C  4  S   -0.008879   0.007656  -0.022540   0.140708   0.008931
   48  C  4  X    0.339648  -0.592665  -0.132675  -0.013328   0.050791
   49  C  4  Y   -0.412680   0.038022   0.191152  -0.247357   0.785824
   50  C  4  Z    0.134491  -0.008662  -0.013051   0.001972  -0.003872
   51  C  4  S   -0.275141  -0.039050   0.409404  -2.093198  -0.019949
   52  C  4  X   -0.342824   1.836194   0.774644   0.196900  -0.098728
   53  C  4  Y    1.194276  -0.122473  -0.736394   0.660433  -1.529747
   54  C  4  Z   -0.082289   0.022429  -0.347887   1.513819   0.021065
   55  C  4 XX   -0.047588  -0.001873   0.008252  -0.044630   0.001609
   56  C  4 YY    0.002599   0.001638  -0.007020   0.069199  -0.003025
   57  C  4 ZZ    0.076226  -0.001227   0.019703  -0.109509   0.003414
   58  C  4 XY    0.001221   0.000509  -0.005568  -0.006999  -0.001256
   59  C  4 XZ   -0.030735  -0.082298  -0.098926  -0.028915  -0.008839
   60  C  4 YZ   -0.075219   0.005316   0.036658   0.008452  -0.129080
   61  H  5  S    0.041296   0.000000   0.335493   0.234566   0.000000
   62  H  5  S   -0.306246   0.000000  -1.383523   0.304943   0.000000
   63  H  6  S    0.078187   0.000000  -0.398828  -0.070312   0.000000
   64  H  6  S    0.783936   0.000000   1.034806   1.349332   0.000000
   65  H  7  S   -0.028212   0.004838   0.096428  -0.175264   0.356764
   66  H  7  S   -0.237491   0.007710   0.273588  -0.532503  -1.161901
   67  H  8  S   -0.028212  -0.004838   0.096428  -0.175264  -0.356764
   68  H  8  S   -0.237491  -0.007710   0.273588  -0.532503   1.161901
   69  H  9  S    0.339671  -0.000251   0.029179  -0.237783  -0.343324
   70  H  9  S    0.231402   0.001764  -0.147229   0.120430   1.144356
   71  H 10  S    0.339671   0.000251   0.029179  -0.237783   0.343324
   72  H 10  S    0.231402  -0.001764  -0.147229   0.120430  -1.144356

                     41         42         43         44         45
                    1.1526     1.1995     1.2036     1.2203     1.2219
                     A'         A'         A'         A'         A'' 
    1  C  1  S   -0.008954   0.007636  -0.019697  -0.017085   0.000000
    2  C  1  S   -0.535385  -0.372073  -1.209750  -0.318983   0.000000
    3  C  1  X   -0.004283  -0.211962  -0.577287   0.162721   0.000000
    4  C  1  Y   -0.028351  -0.063483  -0.308120  -0.017645   0.000000
    5  C  1  Z   -0.000000   0.000000  -0.000000   0.000000   0.048705
    6  C  1  S    1.564098   0.714314   2.869050   0.502980   0.000000
    7  C  1  X    0.221206   0.036577   1.302517  -0.093708   0.000000
    8  C  1  Y    0.516436  -0.032843   0.974414   0.179762   0.000000
    9  C  1  Z   -0.000000   0.000000  -0.000000   0.000000  -0.128738
   10  C  1 XX   -0.070007   0.113487  -0.059536  -0.044983   0.000000
   11  C  1 YY   -0.007164  -0.025534  -0.057334   0.025099   0.000000
   12  C  1 ZZ   -0.023754  -0.163598  -0.128871  -0.049826   0.000000
   13  C  1 XY   -0.084492   0.004281   0.099421  -0.002839   0.000000
   14  C  1 XZ   -0.000000   0.000000  -0.000000   0.000000  -0.028109
   15  C  1 YZ   -0.000000   0.000000  -0.000000   0.000000   0.001476
   16  C  2  S   -0.001543  -0.007092   0.019641  -0.003530   0.000000
   17  C  2  S    0.344740  -1.151550   0.666143   0.106263   0.000000
   18  C  2  X   -0.376105   0.464784   0.010006  -0.254387   0.000000
   19  C  2  Y    0.034149   0.037105  -0.028204  -0.002999   0.000000
   20  C  2  Z   -0.000000   0.000000  -0.000000   0.000000   0.048379
   21  C  2  S   -0.813350   2.723773  -1.984213  -0.605235   0.000000
   22  C  2  X    1.375917  -0.684280   0.046472   0.232988   0.000000
   23  C  2  Y    0.292106  -0.203365   0.324517   0.116205   0.000000
   24  C  2  Z   -0.000000   0.000000  -0.000000   0.000000  -0.125060
   25  C  2 XX    0.028762   0.070022   0.082800  -0.012544   0.000000
   26  C  2 YY    0.024638  -0.072347   0.012891   0.042628   0.000000
   27  C  2 ZZ    0.017740  -0.225000   0.015222  -0.014438   0.000000
   28  C  2 XY    0.069540   0.061086  -0.080849  -0.038826   0.000000
   29  C  2 XZ   -0.000000   0.000000  -0.000000   0.000000   0.025360
   30  C  2 YZ   -0.000000   0.000000  -0.000000   0.000000  -0.001515
   31  C  3  S   -0.009821   0.000761  -0.000729   0.002093   0.027046
   32  C  3  S    0.027193  -0.352979  -0.097911  -0.811975  -0.671504
   33  C  3  X    0.191564  -0.049050   0.110814   0.009186   0.000513
   34  C  3  Y    0.653823   0.095607  -0.069227  -0.025241   0.003951
   35  C  3  Z   -0.001243   0.017994  -0.136023   0.469423   0.471357
   36  C  3  S   -0.493164   0.421999   0.342341   1.751360   1.262439
   37  C  3  X   -0.513218   0.291614  -0.683578  -0.151414  -0.001816
   38  C  3  Y   -1.303127   0.044932  -0.394346  -0.115519  -0.011605
   39  C  3  Z   -0.333215  -0.471857   0.246684  -0.618183  -0.655129
   40  C  3 XX   -0.004778  -0.145755  -0.012736  -0.124604  -0.138606
   41  C  3 YY    0.013153  -0.007196  -0.028671   0.062713   0.074589
   42  C  3 ZZ   -0.029058   0.077445   0.031897  -0.097804  -0.053913
   43  C  3 XY    0.009688  -0.008478   0.005617   0.029833   0.015994
   44  C  3 XZ    0.005231   0.013897  -0.038000  -0.010163  -0.000283
   45  C  3 YZ    0.111873   0.058238  -0.101759  -0.028396   0.004001
   46  C  4  S   -0.009821   0.000761  -0.000729   0.002093  -0.027046
   47  C  4  S    0.027193  -0.352979  -0.097911  -0.811975   0.671504
   48  C  4  X    0.191564  -0.049050   0.110814   0.009186  -0.000513
   49  C  4  Y    0.653823   0.095607  -0.069227  -0.025241  -0.003951
   50  C  4  Z    0.001243  -0.017994   0.136023  -0.469423   0.471357
   51  C  4  S   -0.493164   0.421999   0.342341   1.751360  -1.262439
   52  C  4  X   -0.513218   0.291614  -0.683578  -0.151414   0.001816
   53  C  4  Y   -1.303127   0.044932  -0.394346  -0.115519   0.011605
   54  C  4  Z    0.333215   0.471857  -0.246684   0.618183  -0.655129
   55  C  4 XX   -0.004778  -0.145755  -0.012736  -0.124604   0.138606
   56  C  4 YY    0.013153  -0.007196  -0.028671   0.062713  -0.074589
   57  C  4 ZZ   -0.029058   0.077445   0.031897  -0.097804   0.053913
   58  C  4 XY    0.009688  -0.008478   0.005617   0.029833  -0.015994
   59  C  4 XZ   -0.005231  -0.013897   0.038000   0.010163  -0.000283
   60  C  4 YZ   -0.111873  -0.058238   0.101759   0.028396   0.004001
   61  H  5  S   -0.112482   0.430091   0.273842  -0.217190   0.000000
   62  H  5  S   -0.440563  -0.599279  -1.876662   0.042338   0.000000
   63  H  6  S    0.030320   0.445280   0.181856  -0.213696   0.000000
   64  H  6  S    1.008984  -1.507257   0.330715   0.416784   0.000000
   65  H  7  S   -0.372176  -0.130383   0.156216   0.472987   0.504096
   66  H  7  S    0.945571  -0.231171  -0.046092  -0.934642  -0.865491
   67  H  8  S   -0.372176  -0.130383   0.156216   0.472987  -0.504096
   68  H  8  S    0.945571  -0.231171  -0.046092  -0.934642   0.865491
   69  H  9  S    0.284323   0.195224  -0.312085   0.309945   0.513330
   70  H  9  S   -0.998245  -0.559627   0.171902  -0.860125  -0.896753
   71  H 10  S    0.284323   0.195224  -0.312085   0.309945  -0.513330
   72  H 10  S   -0.998245  -0.559627   0.171902  -0.860125   0.896753

                     46         47         48         49         50
                    1.4206     1.5225     1.6101     1.6158     1.8527
                     A'         A''        A'         A''        A'  
    1  C  1  S    0.016777   0.000000   0.052042  -0.000000   0.039514
    2  C  1  S    0.483270   0.000000   0.801735  -0.000000   0.478751
    3  C  1  X    0.038544   0.000000  -0.008640  -0.000000   0.242676
    4  C  1  Y   -0.089227   0.000000   0.031297  -0.000000  -0.036423
    5  C  1  Z    0.000000   0.105178   0.000000  -0.002127  -0.000000
    6  C  1  S   -0.813562   0.000000  -3.952759  -0.000000  -3.524463
    7  C  1  X    1.795482   0.000000   1.174899  -0.000000   0.589856
    8  C  1  Y    0.809931   0.000000  -0.303914  -0.000000  -0.388852
    9  C  1  Z    0.000000   1.286668   0.000000  -0.069282  -0.000000
   10  C  1 XX    0.027505   0.000000  -0.144749  -0.000000   0.314904
   11  C  1 YY   -0.058811   0.000000  -0.046138  -0.000000  -0.078742
   12  C  1 ZZ    0.116876   0.000000   0.219849  -0.000000  -0.237415
   13  C  1 XY   -0.113723   0.000000   0.164496  -0.000000  -0.268736
   14  C  1 XZ    0.000000  -0.062697   0.000000  -0.041755  -0.000000
   15  C  1 YZ    0.000000  -0.012789   0.000000  -0.435571  -0.000000
   16  C  2  S   -0.029504   0.000000   0.032592  -0.000000   0.048667
   17  C  2  S   -0.664882   0.000000   0.484975  -0.000000   0.614192
   18  C  2  X   -0.132803   0.000000  -0.024216  -0.000000  -0.155903
   19  C  2  Y    0.008811   0.000000  -0.035690  -0.000000   0.070549
   20  C  2  Z    0.000000   0.098086   0.000000  -0.006625  -0.000000
   21  C  2  S    1.298380   0.000000  -3.301066  -0.000000  -3.653711
   22  C  2  X    2.285177   0.000000  -0.280200  -0.000000  -2.185679
   23  C  2  Y    0.410506   0.000000   0.026372  -0.000000  -0.029741
[...]
                   Z  0.03970552  0.00039185 -0.18790851  0.07262573  0.17045519

 TRANS. SAYVETZ    X -0.00000000  0.07586651  0.00340449 -0.01660394  0.00142520
                   Y  0.00000000  0.96743961 -0.03369224 -0.00559588 -0.00256358
                   Z  2.71675438 -0.00000000 -0.00000000 -0.00000000  0.00000000
               TOTAL  2.71675438  0.97040977  0.03386381  0.01752155  0.00293311

   ROT. SAYVETZ    X  0.23049133  0.00000000  0.00000000 -0.00000000 -0.00000000
                   Y-15.33708463  0.00000000 -0.00000000 -0.00000000 -0.00000000
                   Z -0.00000000-11.52077864 -0.03088189  0.00644235 -0.00010038
               TOTAL 15.33881648 11.52077864  0.03088189  0.00644235  0.00010038

                           11          12          13          14          15
       FREQUENCY:       878.07      956.72      998.13     1028.58     1060.04  
        SYMMETRY:         A''         A'          A''         A''         A'  
    REDUCED MASS:      1.28222     2.33329     1.70050     1.82527     1.64690
    IR INTENSITY:      0.00228     0.09427     0.00418     0.00240     0.03980

  1   CARBON       X  0.00000000  0.13617682 -0.00000000 -0.00000000 -0.01923785
                   Y  0.00000000 -0.02026563  0.00000000  0.00000000 -0.07597535
                   Z -0.01415923 -0.00000000  0.08000480  0.10916724  0.00000000
  2   CARBON       X -0.00000000  0.12061642  0.00000000  0.00000000 -0.02099981
                   Y  0.00000000 -0.01785845  0.00000000  0.00000000 -0.08144218
                   Z -0.00148083 -0.00000000  0.08518865 -0.09225976 -0.00000000
  3   CARBON       X  0.00913253 -0.09195993  0.00687244 -0.09890973  0.01610365
                   Y -0.09676088  0.02169060 -0.01771841 -0.01754327  0.10290036
                   Z  0.01366885 -0.00119597 -0.10648184 -0.00810455 -0.01396881
  4   CARBON       X -0.00913253 -0.09195993 -0.00687244  0.09890973  0.01610365
                   Y  0.09676088  0.02169060  0.01771841  0.01754327  0.10290036
                   Z  0.01366885  0.00119597 -0.10648184 -0.00810455  0.01396881
  5   HYDROGEN     X  0.00000000  0.14546865 -0.00000000 -0.00000000 -0.06711343
                   Y -0.00000000 -0.02250253  0.00000000 -0.00000000  0.05816031
                   Z -0.22267821  0.00000000  0.41697560  0.39497828  0.00000000
  6   HYDROGEN     X -0.00000000  0.12821423  0.00000000  0.00000000 -0.02276487
                   Y  0.00000000 -0.02180191 -0.00000000 -0.00000000 -0.05562784
                   Z  0.01652046 -0.00000000  0.55090714 -0.36889698  0.00000000
  7   HYDROGEN     X  0.06627554 -0.28958914 -0.04303562 -0.25972317  0.13194910
                   Y  0.17679055 -0.00432586  0.02753451  0.04580728 -0.14492172
                   Z  0.39260480 -0.05745232 -0.04479248  0.06207898 -0.34601847
  8   HYDROGEN     X -0.06627554 -0.28958914  0.04303562  0.25972317  0.13194910
                   Y -0.17679055 -0.00432586 -0.02753451 -0.04580728 -0.14492172
                   Z  0.39260480  0.05745232 -0.04479248  0.06207898  0.34601847
  9   HYDROGEN     X  0.02623001 -0.28210243  0.08941496 -0.16164457 -0.04149029
                   Y  0.19066043 -0.00530812  0.01761698  0.04125098 -0.14548124
                   Z -0.35841222  0.04866518 -0.15458540 -0.07921809  0.31491667
 10   HYDROGEN     X -0.02623001 -0.28210243 -0.08941496  0.16164457 -0.04149029
                   Y -0.19066043 -0.00530812 -0.01761698 -0.04125098 -0.14548124
                   Z -0.35841222 -0.04866518 -0.15458540 -0.07921809 -0.31491667

 TRANS. SAYVETZ    X -0.00000000 -0.00202511  0.00000000  0.00000000 -0.00461251
                   Y -0.00000000 -0.00098442  0.00000000 -0.00000000 -0.00220024
                   Z  0.00152089  0.00000000  0.00033761  0.00011938 -0.00000000
               TOTAL  0.00152089  0.00225170  0.00033761  0.00011938  0.00511041

   ROT. SAYVETZ    X -0.00203107  0.00000000 -0.00022917 -0.00038781  0.00000000
                   Y -0.00215077  0.00000000 -0.00203090 -0.00189097  0.00000000
                   Z  0.00000000  0.00136168  0.00000000 -0.00000000  0.00088223
               TOTAL  0.00295822  0.00136168  0.00204379  0.00193033  0.00088223

                           16          17          18          19          20
       FREQUENCY:      1116.82     1134.16     1197.64     1307.96     1371.37  
        SYMMETRY:         A'          A''         A'          A''         A'' 
    REDUCED MASS:      4.47860     1.04889     1.15475     1.82551     1.37696
    IR INTENSITY:      0.00185     0.00042     0.00369     0.00209     0.00252

  1   CARBON       X -0.13716632  0.00000000 -0.02299109  0.00000000 -0.00000000
                   Y  0.01798391  0.00000000 -0.08591037 -0.00000000  0.00000000
                   Z -0.00000000 -0.04709745  0.00000000 -0.12206316 -0.03760879
  2   CARBON       X  0.14355793 -0.00000000  0.02156638  0.00000000  0.00000000
                   Y -0.01795643  0.00000000  0.04510576  0.00000000  0.00000000
                   Z  0.00000000  0.00091445 -0.00000000  0.12677540  0.03152360
  3   CARBON       X -0.00166293  0.01345160 -0.00078733  0.06662247 -0.10483236
                   Y  0.00287216 -0.00304990  0.01966014 -0.02074251 -0.00005628
                   Z  0.12330953  0.02193752  0.01399998 -0.00447138  0.00057144
  4   CARBON       X -0.00166293 -0.01345160 -0.00078733 -0.06662247  0.10483236
                   Y  0.00287216  0.00304990  0.01966014  0.02074251  0.00005628
                   Z -0.12330953  0.02193752 -0.01399998 -0.00447138  0.00057144
  5   HYDROGEN     X -0.13959048  0.00000000 -0.07111687  0.00000000 -0.00000000
                   Y -0.01656351 -0.00000000  0.05034280 -0.00000000 -0.00000000
                   Z -0.00000000 -0.00538094 -0.00000000  0.51038024  0.23911958
  6   HYDROGEN     X  0.15861340 -0.00000000  0.02253751  0.00000000  0.00000000
                   Y -0.01515027 -0.00000000  0.03089222  0.00000000  0.00000000
                   Z -0.00000000 -0.04719410  0.00000000 -0.44131502 -0.19708140
  7   HYDROGEN     X  0.04993907 -0.46721124 -0.43397105 -0.04287937  0.40060624
                   Y  0.00443576  0.03154850  0.01564257  0.00745009 -0.02316002
                   Z  0.13614373  0.02496899 -0.03082024  0.02642323  0.01605873
  8   HYDROGEN     X  0.04993907  0.46721124 -0.43397105  0.04287937 -0.40060624
                   Y  0.00443576 -0.03154850  0.01564257 -0.00745009  0.02316002
                   Z -0.13614373  0.02496899  0.03082024  0.02642323  0.01605873
  9   HYDROGEN     X -0.07609532  0.50290521  0.47611452 -0.14752696  0.37552490
                   Y -0.01917470 -0.02768870 -0.04749538  0.01602754 -0.02377945
                   Z  0.16312734  0.01407900  0.06490810 -0.03584991 -0.00704117
 10   HYDROGEN     X -0.07609532 -0.50290521  0.47611452  0.14752696 -0.37552490
                   Y -0.01917470  0.02768870 -0.04749538 -0.01602754  0.02377945
                   Z -0.16312734  0.01407900 -0.06490810 -0.03584991 -0.00704117

 TRANS. SAYVETZ    X  0.00323887 -0.00000000 -0.00000548  0.00000000 -0.00000000
                   Y  0.00759093  0.00000000 -0.00014543 -0.00000000 -0.00000000
                   Z  0.00000000 -0.00197486  0.00000000 -0.00016137  0.00123581
               TOTAL  0.00825303  0.00197486  0.00014553  0.00016137  0.00123581

   ROT. SAYVETZ    X -0.00000000 -0.00141356 -0.00000000 -0.00025708  0.00017962
                   Y  0.00000000 -0.00070602 -0.00000000 -0.00100136  0.00032186
                   Z  0.00116529 -0.00000000 -0.00016261 -0.00000000  0.00000000
               TOTAL  0.00116529  0.00158007  0.00016261  0.00103383  0.00036859

                           21          22          23          24          25
       FREQUENCY:      1435.73     1440.73     1625.54     1640.45     3185.01  
        SYMMETRY:         A'          A''         A''         A'          A'' 
    REDUCED MASS:      1.60442     1.85271     1.10555     1.12021     1.05823
    IR INTENSITY:      0.05761     0.05566     0.00006     0.00108     2.73168

  1   CARBON       X -0.04895684  0.00000000  0.00000000 -0.01020149  0.00000000
                   Y -0.00665559  0.00000000  0.00000000 -0.00057322 -0.00000000
                   Z -0.00000000 -0.11612932  0.00279819  0.00000000 -0.00115579
  2   CARBON       X -0.05171180  0.00000000 -0.00000000  0.01074762 -0.00000000
                   Y  0.00195238 -0.00000000  0.00000000 -0.00024112 -0.00000000
                   Z -0.00000000 -0.13407911  0.00320653  0.00000000 -0.00083426
  3   CARBON       X  0.11976938 -0.00095976  0.00073139 -0.00115380 -0.00053208
                   Y -0.00305796 -0.00939699  0.00124843 -0.00029670 -0.00870332
                   Z  0.00065133  0.07015964 -0.06332123  0.06672493  0.04571211
  4   CARBON       X  0.11976938  0.00095976 -0.00073139 -0.00115380  0.00053208
                   Y -0.00305796  0.00939699 -0.00124843 -0.00029670  0.00870332
                   Z -0.00065133  0.07015964 -0.06332123 -0.06672493  0.04571211
  5   HYDROGEN     X -0.07308624  0.00000000  0.00000000 -0.01902896 -0.00000000
                   Y  0.02853192 -0.00000000 -0.00000000  0.00390603 -0.00000000
                   Z  0.00000000  0.46803631 -0.02035268  0.00000000  0.00714852
  6   HYDROGEN     X -0.06173733  0.00000000 -0.00000000  0.01791689  0.00000000
                   Y  0.00930657 -0.00000000  0.00000000 -0.00822037  0.00000000
                   Z  0.00000000  0.48942722 -0.02170478 -0.00000000  0.00763865
  7   HYDROGEN     X -0.39178915  0.02603091  0.01225860 -0.01164081  0.03060428
                   Y  0.02095736  0.00403669  0.28932378 -0.29064212  0.44952856
                   Z -0.01396718  0.10242509  0.37368636 -0.36967563 -0.30002518
  8   HYDROGEN     X -0.39178915 -0.02603091 -0.01225860 -0.01164081 -0.03060428
                   Y  0.02095736 -0.00403669 -0.28932378 -0.29064212 -0.44952856
                   Z  0.01396718  0.10242509  0.37368636  0.36967563 -0.30002518
  9   HYDROGEN     X -0.36735245 -0.05785771 -0.01894491  0.02266190 -0.02161652
                   Y  0.02454313 -0.00043321 -0.30034628  0.30141612 -0.34538669
                   Z  0.00399310  0.07280793  0.36569696 -0.35883563 -0.23974652
 10   HYDROGEN     X -0.36735245  0.05785771  0.01894491  0.02266190  0.02161652
                   Y  0.02454313  0.00043321  0.30034628  0.30141612  0.34538669
                   Z -0.00399310  0.07280793  0.36569696  0.35883563 -0.23974652

 TRANS. SAYVETZ    X  0.00039921  0.00000000  0.00000000 -0.00004384 -0.00000000
                   Y  0.00001818 -0.00000000  0.00000000  0.00047546 -0.00000000
                   Z -0.00000000 -0.00050574  0.00029849  0.00000000  0.00012221
               TOTAL  0.00039962  0.00050574  0.00029849  0.00047748  0.00012221

   ROT. SAYVETZ    X  0.00000000 -0.00028348 -0.00001228 -0.00000000  0.00003967
                   Y -0.00000000  0.00082703 -0.00051787 -0.00000000 -0.00009990
                   Z  0.00001257  0.00000000 -0.00000000 -0.00041527  0.00000000
               TOTAL  0.00001257  0.00087426  0.00051801  0.00041527  0.00010749

                           26          27          28          29          30
       FREQUENCY:      3189.53     3215.27     3215.81     3367.11     3403.77  
        SYMMETRY:         A'          A''         A'          A'          A'  
    REDUCED MASS:      1.06071     1.10275     1.10521     1.09098     1.09185
    IR INTENSITY:      0.08920     0.04517     2.31368     0.88487     0.59238

  1   CARBON       X  0.00342572  0.00000000  0.00150568 -0.07865364  0.00075067
                   Y  0.00072848  0.00000000  0.00064165 -0.02635896  0.00014293
                   Z  0.00000000 -0.00030240  0.00000000  0.00000000  0.00000000
  2   CARBON       X -0.00254596  0.00000000  0.00095380 -0.00026799 -0.08339713
                   Y  0.00022553  0.00000000  0.00009214  0.00001592 -0.00092785
                   Z  0.00000000  0.00035314 -0.00000000  0.00000000  0.00000000
  3   CARBON       X -0.00082793 -0.00383950 -0.00403721  0.00177297  0.00180453
                   Y -0.01172259 -0.06208394 -0.06251389 -0.00227117 -0.00078133
                   Z  0.04604703 -0.00679696 -0.00904485  0.00423313 -0.00430742
  4   CARBON       X -0.00082793  0.00383950 -0.00403721  0.00177297  0.00180453
                   Y -0.01172259  0.06208394 -0.06251389 -0.00227117 -0.00078133
                   Z -0.04604703 -0.00679696  0.00904485 -0.00423313  0.00430742
  5   HYDROGEN     X -0.04367110 -0.00000000 -0.01535898  0.89390742 -0.00650946
                   Y -0.01269626 -0.00000000 -0.00752814  0.32925998 -0.00160237
                   Z -0.00000000  0.00055257 -0.00000000 -0.00000000 -0.00000000
  6   HYDROGEN     X  0.02892195 -0.00000000 -0.01403489  0.00846259  0.95269195
                   Y -0.00120128 -0.00000000 -0.00128697 -0.00004794  0.01776266
                   Z -0.00000000 -0.00127262  0.00000000 -0.00000000 -0.00000000
  7   HYDROGEN     X  0.03144799  0.02210113  0.02102376  0.00081622 -0.00248217
                   Y  0.46326727  0.32843652  0.30644330  0.02501081 -0.00817638
                   Z -0.31166646 -0.24173648 -0.22452599 -0.01921278  0.00604865
  8   HYDROGEN     X  0.03144799 -0.02210113  0.02102376  0.00081622 -0.00248217
                   Y  0.46326727 -0.32843652  0.30644330  0.02501081 -0.00817638
                   Z  0.31166646 -0.24173648  0.22452599  0.01921278 -0.00604865
  9   HYDROGEN     X -0.01958923  0.02615650  0.02715300 -0.00333449  0.00002337
                   Y -0.32266380  0.42173511  0.43806832 -0.00589559  0.01419899
                   Z -0.22455477  0.32273200  0.33278886 -0.00450980  0.01155099
 10   HYDROGEN     X -0.01958923 -0.02615650  0.02715300 -0.00333449  0.00002337
                   Y -0.32266380 -0.42173511  0.43806832 -0.00589559  0.01419899
                   Z  0.22455477  0.32273200 -0.33278886  0.00450980 -0.01155099

 TRANS. SAYVETZ    X -0.00027472 -0.00000000  0.00010436 -0.00015316  0.00018143
                   Y -0.00049309  0.00000000  0.00026286 -0.00030690  0.00025533
                   Z -0.00000000  0.00001466 -0.00000000  0.00000000 -0.00000000
               TOTAL  0.00056445  0.00001466  0.00028282  0.00034299  0.00031322

   ROT. SAYVETZ    X  0.00000000  0.00082809  0.00000000 -0.00000000  0.00000000
                   Y -0.00000000  0.00000630 -0.00000000  0.00000000 -0.00000000
                   Z -0.00012813 -0.00000000 -0.00009114 -0.00010629 -0.00005709
               TOTAL  0.00012813  0.00082811  0.00009114  0.00010629  0.00005709

 REFERENCE ON SAYVETZ CONDITIONS - A. SAYVETZ, J.CHEM.PHYS., 7, 383-389(1939).

 NOTE - THE MODES J,K ARE ORTHONORMALIZED ACCORDING TO
 SUM ON I   M(I) * (X(I,J)*X(I,K) + Y(I,J)*Y(I,K) + Z(I,J)*Z(I,K)) = DELTA(J,K)

  MODE FREQ(CM**-1)  SYMMETRY  RED. MASS  IR INTENS.
     1     448.213    A'       1.255454    0.688943
     2       6.025    A''      4.826584    0.000002
     3       2.310    A'       5.348473    0.000060
     4       1.216    A'       5.405084    0.000003
     5       9.871    A''      2.539879    0.001430
     6      14.926    A''      3.181331    0.000047
     7      17.002    A'       2.731568    0.001870
     8     189.230    A'       1.620077    0.006512
     9     459.693    A'       1.253677    0.460951
    10     838.044    A'       4.253384    0.001007
    11     878.071    A''      1.282222    0.002282
    12     956.723    A'       2.333286    0.094269
    13     998.132    A''      1.700502    0.004176
    14    1028.583    A''      1.825270    0.002401
    15    1060.037    A'       1.646897    0.039802
    16    1116.823    A'       4.478597    0.001854
    17    1134.156    A''      1.048894    0.000419
    18    1197.635    A'       1.154750    0.003690
    19    1307.959    A''      1.825506    0.002091
    20    1371.374    A''      1.376965    0.002524
    21    1435.732    A'       1.604415    0.057606
    22    1440.730    A''      1.852708    0.055660
    23    1625.543    A''      1.105548    0.000060
    24    1640.454    A'       1.120214    0.001078
    25    3185.007    A''      1.058231    2.731681
    26    3189.534    A'       1.060709    0.089196
    27    3215.275    A''      1.102748    0.045174
    28    3215.810    A'       1.105206    2.313684
    29    3367.110    A'       1.090975    0.884871
    30    3403.772    A'       1.091854    0.592379

     -------------------------------
     THERMOCHEMISTRY AT T=  298.15 K
     -------------------------------

 USING IDEAL GAS, RIGID ROTOR, HARMONIC NORMAL MODE APPROXIMATIONS.
 P=  1.01325E+05 PASCAL.
 ALL FREQUENCIES ARE SCALED BY   1.00000
 THE MOMENTS OF INERTIA ARE (IN AMU*BOHR**2)
    135.08260   161.45115   273.03645
 THE ROTATIONAL SYMMETRY NUMBER IS  1.0
 THE ROTATIONAL CONSTANTS ARE (IN GHZ)
     13.34804    11.16801     6.60384
   1 IMAGINARY FREQUENCY VIBRATION(S) IS(ARE) EXCLUDED
     FROM THE FOLLOWING THERMOCHEMICAL ANALYSIS.
      8 -     30 VIBRATIONAL MODES ARE USED IN THERMOCHEMISTRY.
 THE HARMONIC ZERO POINT ENERGY IS (SCALED BY   1.000)
        0.087152 HARTREE/MOLECULE    19127.712422 CM**-1/MOLECULE 
       54.688929 KCAL/MOL              228.818479 KJ/MOL

               Q               LN Q
 ELEC.     1.00000E+00       0.000000
 TRANS.    1.56175E+07      16.563900
 ROT.      2.76231E+04      10.226407
 VIB.      2.03224E+00       0.709136
 TOT.      8.76711E+11      27.499443

              E         H         G         CV        CP        S
           KJ/MOL    KJ/MOL    KJ/MOL   J/MOL-K   J/MOL-K   J/MOL-K
 ELEC.      0.000     0.000     0.000     0.000     0.000     0.000
 TRANS.     3.718     6.197   -41.061    12.472    20.786   158.505
 ROT.       3.718     3.718   -25.351    12.472    12.472    97.498
 VIB.     231.976   231.976   227.061    29.492    29.492    16.486
 TOTAL    239.413   241.892   160.649    54.435    62.749   272.489
 VIB. THERMAL CORRECTION E(T)-E(0) = H(T)-H(0) =  3157.345 J/MOL

              E         H         G         CV        CP        S
         KCAL/MOL  KCAL/MOL  KCAL/MOL CAL/MOL-K CAL/MOL-K CAL/MOL-K
 ELEC.      0.000     0.000     0.000     0.000     0.000     0.000
 TRANS.     0.889     1.481    -9.814     2.981     4.968    37.884
 ROT.       0.889     0.889    -6.059     2.981     2.981    23.303
 VIB.      55.444    55.444    54.269     7.049     7.049     3.940
 TOTAL     57.221    57.813    38.396    13.010    14.997    65.126
 VIB. THERMAL CORRECTION E(T)-E(0) = H(T)-H(0) =   754.623 CAL/MOL
 ......END OF NORMAL COORDINATE ANALYSIS......
 STEP CPU TIME =     0.00 TOTAL CPU TIME =        8.4 (    0.1 MIN)
 TOTAL WALL CLOCK TIME=        8.4 SECONDS, CPU UTILIZATION IS  99.88%
              1599794  WORDS OF DYNAMIC MEMORY USED
 EXECUTION OF GAMESS TERMINATED NORMALLY Wed Aug  9 22:18:20 2017
 DDI: 263640 bytes (0.3 MB / 0 MWords) used by master data server.

 ----------------------------------------
 CPU timing information for all processes
 ========================================
 0: 8.278 + 0.118 = 8.397
 ----------------------------------------
 ddikick.x: exited gracefully.
unset echo
----- accounting info -----
Files used on the master node compute-0-5.local were:
-rw-rw-r-- 1 sarom sarom  20K Aug  9 22:18 /scratch/gvb-c4h6.F05
-rw-rw-r-- 1 sarom sarom  20M Aug  9 22:18 /scratch/gvb-c4h6.F08
-rw-rw-r-- 1 sarom sarom 4.5M Aug  9 22:18 /scratch/gvb-c4h6.F09
-rw-rw-r-- 1 sarom sarom 2.5M Aug  9 22:18 /scratch/gvb-c4h6.F10
-rw-rw-r-- 1 sarom sarom 608K Aug  9 22:18 /scratch/gvb-c4h6.F15
-rw-rw-r-- 1 sarom sarom 1.2M Aug  9 22:18 /scratch/gvb-c4h6.F18
-rw-rw-r-- 1 sarom sarom 165K Aug  9 22:18 /scratch/gvb-c4h6.F23
rm: No match.
ls: No match.
ls: No match.
ls: No match.
Wed Aug  9 22:18:23 CDT 2017
0.247u 0.167s 0:11.89 3.3%	0+0k 40+392io 0pf+0w
/opt/gridengine/default/spool/compute-0-5/active_jobs/36203.1/pe_hostfile compute-0-5.local
