-catch_rsh /opt/gridengine/default/spool/compute-1-1/active_jobs/36212.1/pe_hostfile
compute-1-1
The primary node assigned by SGE to this run is compute-1-1
Warning: no access to tty (Bad file descriptor).
Thus no job control in this shell.
source /home/sarom/dir.git.branch.saromleang-travis-ci/install.info
setenv GMS_PATH /home/sarom/dir.git.branch.saromleang-travis-ci
setenv GMS_BUILD_DIR /home/sarom/dir.git.branch.saromleang-travis-ci
setenv GMS_TARGET linux64
setenv GMS_FORTRAN gfortran
setenv GMS_GFORTRAN_VERNO 4.4
setenv GMS_MATHLIB mkl-so
setenv GMS_MATHLIB none
setenv GMS_MATHLIB_PATH /share/apps/intel/compilers_and_libraries_2017.1.132/linux/mkl/lib/intel64
setenv GMS_MKL_VERNO 12
setenv GMS_DDI_COMM sockets
setenv GMS_LIBCCHEM false
setenv GMS_EIGEN_PATH
setenv GMS_PHI false
setenv GMS_SHMTYPE sysv
setenv GMS_OPENMP false
unset echo
gvb-ncccco-pp3
/home/sarom/dir.git.branch.saromleang-travis-ci/tests/gvb/parallel
----- GAMESS execution script 'rungms' -----
This job is running on host compute-1-1.local
under operating system Linux at Wed Aug 9 22:19:56 CDT 2017
Available scratch disk space (Kbyte units) at beginning of the job is
Filesystem           1K-blocks      Used Available Use% Mounted on
/dev/sda1             16126920   9109384   6198336  60% /
GAMESS temporary binary files will be written to /scratch
GAMESS supplementary output files will be written to /home/sarom/restart
Copying input file gvb-ncccco-pp3.inp to your run's scratch directory...
cp /home/sarom/dir.git.branch.saromleang-travis-ci/tests/gvb/parallel/gvb-ncccco-pp3.inp /scratch/gvb-ncccco-pp3.F05
unset echo
The generated host list is
compute-1-1.local
/home/sarom/dir.git.branch.saromleang-travis-ci/ddikick.x /home/sarom/dir.git.branch.saromleang-travis-ci/gamess.00.x gvb-ncccco-pp3 -ddi 1 1 compute-1-1.local -scr /scratch

 Distributed Data Interface kickoff program.
 Initiating 1 compute processes on 1 nodes to run the following command:
 /home/sarom/dir.git.branch.saromleang-travis-ci/gamess.00.x gvb-ncccco-pp3 

          ******************************************************
          *         GAMESS VERSION = 20 APR 2017 (R1)          *
          *             FROM IOWA STATE UNIVERSITY             *
          * M.W.SCHMIDT, K.K.BALDRIDGE, J.A.BOATZ, S.T.ELBERT, *
          *   M.S.GORDON, J.H.JENSEN, S.KOSEKI, N.MATSUNAGA,   *
          *          K.A.NGUYEN, S.J.SU, T.L.WINDUS,           *
          *       TOGETHER WITH M.DUPUIS, J.A.MONTGOMERY       *
          *         J.COMPUT.CHEM.  14, 1347-1363(1993)        *
          **************** 64 BIT LINUX VERSION ****************

  SINCE 1993, STUDENTS AND POSTDOCS WORKING AT IOWA STATE UNIVERSITY
  AND ALSO IN THEIR VARIOUS JOBS AFTER LEAVING ISU HAVE MADE IMPORTANT
  CONTRIBUTIONS TO THE CODE:
     IVANA ADAMOVIC, CHRISTINE AIKENS, YURI ALEXEEV, POOJA ARORA,
     ANDREY ASADCHEV, ROB BELL, PRADIPTA BANDYOPADHYAY, JONATHAN BENTZ,
     BRETT BODE, KURT BRORSEN, CALEB CARLIN, GALINA CHABAN, WEI CHEN,
     CHEOL HO CHOI, PAUL DAY, ALBERT DEFUSCO, NUWAN DESILVA, TIM DUDLEY,
     DMITRI FEDOROV, GRAHAM FLETCHER, MARK FREITAG, KURT GLAESEMANN,
     DAN KEMP, GRANT MERRILL, NORIYUKI MINEZAWA, JONATHAN MULLIN,
     TAKESHI NAGATA, SEAN NEDD, HEATHER NETZLOFF, BOSILJKA NJEGIC, RYAN OLSON,
     MIKE PAK, SPENCER PRUITT, LUKE ROSKOP, JIM SHOEMAKER, LYUDMILA SLIPCHENKO,
     TONY SMITH, SAROM SOK LEANG, JIE SONG, TETSUYA TAKETSUGU, SIMON WEBB,
     PENG XU, SOOHAENG YOO, FEDERICO ZAHARIEV

  ADDITIONAL CODE HAS BEEN PROVIDED BY COLLABORATORS IN OTHER GROUPS:
     IOWA STATE UNIVERSITY:
          JOE IVANIC, AARON WEST, LAIMUTIS BYTAUTAS, KLAUS RUEDENBERG
     UNIVERSITY OF TOKYO: KIMIHIKO HIRAO, TAKAHITO NAKAJIMA,
          TAKAO TSUNEDA, MUNEAKI KAMIYA, SUSUMU YANAGISAWA,
          KIYOSHI YAGI, MAHITO CHIBA, SEIKEN TOKURA, NAOAKI KAWAKAMI
     UNIVERSITY OF AARHUS: FRANK JENSEN
     UNIVERSITY OF IOWA: VISVALDAS KAIRYS, HUI LI
     NATIONAL INST. OF STANDARDS AND TECHNOLOGY: WALT STEVENS, DAVID GARMER
     UNIVERSITY OF PISA: BENEDETTA MENNUCCI, JACOPO TOMASI
     UNIVERSITY OF MEMPHIS: HENRY KURTZ, PRAKASHAN KORAMBATH
     UNIVERSITY OF ALBERTA: TOBY ZENG, MARIUSZ KLOBUKOWSKI
     UNIVERSITY OF NEW ENGLAND: MARK SPACKMAN
     MIE UNIVERSITY: HIROAKI UMEDA
     NAT. INST. OF ADVANCED INDUSTRIAL SCIENCE AND TECHNOLOGY: KAZUO KITAURA
     MICHIGAN STATE UNIVERSITY:
          KAROL KOWALSKI, MARTA WLOCH, JEFFREY GOUR, JESSE LUTZ,
          WEI LI, PIOTR PIECUCH
     UNIVERSITY OF SILESIA: MONIKA MUSIAL, STANISLAW KUCHARSKI
     FACULTES UNIVERSITAIRES NOTRE-DAME DE LA PAIX:
          OLIVIER QUINET, BENOIT CHAMPAGNE
     UNIVERSITY OF CALIFORNIA - SANTA BARBARA: BERNARD KIRTMAN
     INSTITUTE FOR MOLECULAR SCIENCE:
          KAZUYA ISHIMURA, MICHIO KATOUDA, AND SHIGERU NAGASE
     UNIVERSITY OF NOTRE DAME: ANNA POMOGAEVA, DAN CHIPMAN
     KYUSHU UNIVERSITY:
          HARUYUKI NAKANO,
          FENG LONG GU, JACEK KORCHOWIEC, MARCIN MAKOWSKI, AND YURIKO AOKI,
          HIROTOSHI MORI AND EISAKU MIYOSHI
     PENNSYLVANIA STATE UNIVERSITY:
          TZVETELIN IORDANOV, CHET SWALINA, JONATHAN SKONE,
          SHARON HAMMES-SCHIFFER
     WASEDA UNIVERSITY:
          MASATO KOBAYASHI, TOMOKO AKAMA, TSUGUKI TOUMA,
          TAKESHI YOSHIKAWA, YASUHIRO IKABATA, JUNJI SEINO,
          YUYA NAKAJIMA, HIROMI NAKAI
     NANJING UNIVERSITY: SHUHUA LI
     UNIVERSITY OF NEBRASKA:
          PEIFENG SU, DEJUN SI, NANDUN THELLAMUREGE, YALI WANG, HUI LI
     UNIVERSITY OF ZURICH: ROBERTO PEVERATI, KIM BALDRIDGE
     N. COPERNICUS UNIVERSITY AND JACKSON STATE UNIVERSITY:
          MARIA BARYSZ
     UNIVERSITY OF COPENHAGEN: Jimmy Kromann, CASPER STEINMANN
     TOKYO INSTITUTE OF TECHNOLOGY: HIROYA NAKATA
     NAGOYA UNIVERSITY: YOSHIO NISHIMOTO, STEPHAN IRLE
     MOSCOW STATE UNIVERSITY: VLADIMIR MIRONOV

 EXECUTION OF GAMESS BEGUN Wed Aug  9 22:19:56 2017

            ECHO OF THE FIRST FEW INPUT CARDS -
 INPUT CARD>!   HN=C-CH=CH-CH=O...PCSEG-2 basis has 285 AOs and 250 MOs...9/2013.           
 INPUT CARD>!   Test of three geminal pairs: system has 3 inequivalent pi orbitals.         
 INPUT CARD>!                                                                               
 INPUT CARD>!   FINAL GVB-PP(3) E= -283.8301622796, 12 iters, RMS grad= 0.008610860         
 INPUT CARD>!   F.NAL PE-MCSCF  E= -283.8301624593,  7 iters, R.S grad= 0.008610446         
 INPUT CARD>!                                                                               
 INPUT CARD>!   This run takes 585 seconds on 2.66 GHz Cloverton (9 Apr 2015)               
 INPUT CARD>!   PE-MCSCF takes 1254 s.conds                                                 
 INPUT CARD>!   results unchanged since test prepared in 2013.                              
 INPUT CARD>!                                                                               
 INPUT CARD>!   ----------------------------------------------------------------------      
 INPUT CARD>!   This run shows that the three formal normalization constraints on           
 INPUT CARD>!   the GVB-PP(3) CI coefs are not quite as low an energy as the freely         
 INPUT CARD>!   varied 8 determinant PE-MCSCF, in spite of the latter's diagonal 1PDM.      
 INPUT CARD>!                                                                               
 INPUT CARD>!   ----> GVB prints                                                            
 INPUT CARD>!      ORBITAL   CI COEFFICIENTS    OCCUPATION NUMBERS   GVB      ENERGY        
 INPUT CARD>! PAIR 1   2     ORB 1     ORB 2      ORB 1     ORB 2    OVERLAP  LOWERING      
 INPUT CARD>!  1  20  21    0.984077 -0.177742   1.93682   0.06318   0.69403  -0.03173      
 INPUT CARD>!  2  22  23    0.981958 -0.189099   1.92848   0.07152   0.67705  -0.02957      
 INPUT CARD>!  3  24  25    0.985244 -0.171154   1.94141   0.05859   0.70399  -0.02269      
 INPUT CARD>!  a few more digits can be found in the .dat file:                             
 INPUT CARD>!              CICOEF( 1)=  0.98407719, -0.17774162                             
 INPUT CARD>!              CICOEF( 3)=  0.98195801, -0.18909907                             
 INPUT CARD>!              CICOEF( 5)=  0.98524424, -0.17115429                             
 INPUT CARD>!                                                                               
 INPUT CARD>!   ----> MCSCF prints the same 8 determinants as                               
 INPUT CARD>!           ALPHA  | BETA   | COEFFICIENT                                       
 INPUT CARD>!          --------|--------|------------                                       
 INPUT CARD>!           101010 | 101010 |   0.9520476                                       
 INPUT CARD>!           100110 | 100110 |  -0.1833831                                       
 INPUT CARD>!           011010 | 011010 |  -0.1719960                                       
 INPUT CARD>!           101001 | 101001 |  -0.1654876                                       
 INPUT CARD>!           010110 | 010110 |   0.0330705                                       
 INPUT CARD>!           100101 | 100101 |   0.0316260                                       
 INPUT CARD>!           011001 | 011001 |   0.0296869                                       
 INPUT CARD>!           010101 | 010101 |  -0.0056634                                       
 INPUT CARD>!    From the double excitation nature of the determinants,                     
 INPUT CARD>!    we must have an exactly diagonal 1PDM, namely                              
 INPUT CARD>!       1.9368207 0.0631793 1.9284894 0.0715106 1.9414006 0.0585994             
 INPUT CARD>!    which differs in the 5th digit from the GVB result.                        
 INPUT CARD>!                                                                               
 INPUT CARD>!       comparing the biggest and smallest elements of the two CI v.ctors,      
 INPUT CARD>!  ( 0.98407719)*( 0.98195801)*( 0.98524424) =  0.9520636 vs.  0.9520476        
 INPUT CARD>!  (-0.17774162)*(-0.18909907)*(-0.17115429) = -0.0057526 vs. -0.0056634        
 INPUT CARD>!       we see they agree to only two significant figures.  There is            
 INPUT CARD>!       more energy in the big ones, of course, so they match better.           
 INPUT CARD>!                                                                               
 INPUT CARD>!    Providing PE or PP(3) orbitals to the other calculation does               
 INPUT CARD>!    not iterate very much, but each starts at its own energy                   
  100000000 WORDS OF MEMORY AVAILABLE

     BASIS OPTIONS
     -------------
     GBASIS=PCSEG-2      IGAUSS=       0      POLAR=NONE    
     NDFUNC=       0     NFFUNC=       0     DIFFSP=       F
     NPFUNC=       0      DIFFS=       F     BASNAM=        


     RUN TITLE
     ---------
 all trans HN=C-CH=CH-CH=O...RHF/PC2 geometry is used (old gen.cont. PC2)        

 THE POINT GROUP OF THE MOLECULE IS CS      
 THE ORDER OF THE PRINCIPAL AXIS IS     0

 ATOM      ATOMIC                      COORDINATES (BOHR)
           CHARGE         X                   Y                   Z
 NITROGEN    7.0    -2.2574679734       -5.1276292240        0.0000000000
 HYDROGEN    1.0    -3.9716231220       -5.9269012001        0.0000000000
 HYDROGEN    1.0    -1.7827102474        2.3321015669        0.0000000000
 CARBON      6.0    -2.3762516650       -2.7709328831        0.0000000000
 CARBON      6.0    -0.0572050923       -1.2420707255        0.0000000000
 CARBON      6.0    -0.0637844166        1.2528358569        0.0000000000
 HYDROGEN    1.0     1.6820843961       -2.2894200035        0.0000000000
 CARBON      6.0     2.3160125513        2.7098914947        0.0000000000
 HYDROGEN    1.0    -4.1394696542       -1.7339844406        0.0000000000
 HYDROGEN    1.0     4.0425512646        1.5754892184        0.0000000000
 OXYGEN      8.0     2.4030490742        4.9421386640        0.0000000000

          INTERNUCLEAR DISTANCES (ANGS.)
          ------------------------------

                1 NITR       2 HYDR       3 HYDR       4 CARB       5 CARB  

   1 NITR    0.0000000    1.0008536 *  3.9555063    1.2486932 *  2.3629244 *
   2 HYDR    1.0008536 *  0.0000000    4.5213688    1.8713242 *  3.2305959  
   3 HYDR    3.9555063    4.5213688    0.0000000    2.7186144 *  2.1002455 *
   4 CARB    1.2486932 *  1.8713242 *  2.7186144 *  0.0000000    1.4698746 *
   5 CARB    2.3629244 *  3.2305959    2.1002455 *  1.4698746 *  0.0000000  
   6 CARB    3.5703814    4.3256745    1.0740500 *  2.4558739 *  1.3202524 *
   7 HYDR    2.5693997 *  3.5575386    3.0565776    2.1626424 *  1.0743821 *
   8 CARB    4.8019287    5.6532516    2.1781448 *  3.8180342    2.4393962 *
   9 HYDR    2.0535047 *  2.2205732 *  2.4869850 *  1.0824488 *  2.1758687 *
  10 HYDR    4.8679141    5.8092203    3.1084889    4.1021449    2.6324452 *
  11 OXYG    5.8717371    6.6678953    2.6103448 *  4.8016293    3.5220034  

                6 CARB       7 HYDR       8 CARB       9 HYDR      10 HYDR  

   1 NITR    3.5703814    2.5693997 *  4.8019287    2.0535047 *  4.8679141  
   2 HYDR    4.3256745    3.5575386    5.6532516    2.2205732 *  5.8092203  
   3 HYDR    1.0740500 *  3.0565776    2.1781448 *  2.4869850 *  3.1084889  
   4 CARB    2.4558739 *  2.1626424 *  3.8180342    1.0824488 *  4.1021449  
   5 CARB    1.3202524 *  1.0743821 *  2.4393962 *  2.1758687 *  2.6324452 *
   6 CARB    0.0000000    2.0897902 *  1.4766269 *  2.6739063 *  2.1796770 *
   7 HYDR    2.0897902 *  0.0000000    2.6667058 *  3.0946239    2.3964969 *
   8 CARB    1.4766269 *  2.6667058 *  0.0000000    4.1472538    1.0932096 *
   9 HYDR    2.6739063 *  3.0946239    4.1472538    0.0000000    4.6705126  
  10 HYDR    2.1796770 *  2.3964969 *  1.0932096 *  4.6705126    0.0000000  
  11 OXYG    2.3485112 *  3.8457474    1.1821520 *  4.9464678    1.9815760 *

               11 OXYG  

   1 NITR    5.8717371  
   2 HYDR    6.6678953  
   3 HYDR    2.6103448 *
   4 CARB    4.8016293  
   5 CARB    3.5220034  
   6 CARB    2.3485112 *
   7 HYDR    3.8457474  
   8 CARB    1.1821520 *
   9 HYDR    4.9464678  
  10 HYDR    1.9815760 *
  11 OXYG    0.0000000  

  * ... LESS THAN  3.000


     ATOMIC BASIS SET
     ----------------
 THE CONTRACTED PRIMITIVE FUNCTIONS HAVE BEEN UNNORMALIZED
 THE CONTRACTED BASIS FUNCTIONS ARE NOW NORMALIZED TO UNITY

  SHELL TYPE  PRIMITIVE        EXPONENT          CONTRACTION COEFFICIENT(S)

 NITROGEN  

      1   S       1         10164.3000000    0.000607939356
      1   S       2          1524.8100000    0.004696849907
      1   S       3           347.1190000    0.024044589797
      1   S       4            98.2389000    0.092312340828
      1   S       5            31.7799000    0.257842891548
      1   S       6            11.2240000    0.445209171281
      1   S       7             4.0661100    0.324665226484

      2   S       8             7.4789800   -0.210405001870
      2   S       9             0.8050400    1.078246895606

      3   S      10             0.3246260    1.000000000000

      4   S      11             0.1281320    1.000000000000

      5   P      12            48.2704000    0.011716859564
      5   P      13            11.0815000    0.084212963943
      5   P      14             3.2664300    0.321879701723
      5   P      15             1.1168000    0.706220356671

      6   P      16             0.3820490    1.000000000000

      7   P      17             0.1212220    1.000000000000

      8   D      18             1.8000000    1.000000000000

      9   D      19             0.5500000    1.000000000000

     10   F      20             1.0200000    1.000000000000

 HYDROGEN  

     11   S      21            75.4732000    0.006633673656
     11   S      22            11.3575000    0.050962967872
     11   S      23             2.6008100    0.247437216649
     11   S      24             0.7355030    0.775286119168

     12   S      25             0.2317610    1.000000000000

     13   S      26             0.0741675    1.000000000000

     14   P      27             1.6000000    1.000000000000

     15   P      28             0.4500000    1.000000000000

     16   D      29             1.2500000    1.000000000000

 HYDROGEN  

     17   S      30            75.4732000    0.006633673656
     17   S      31            11.3575000    0.050962967872
     17   S      32             2.6008100    0.247437216649
     17   S      33             0.7355030    0.775286119168

     18   S      34             0.2317610    1.000000000000

     19   S      35             0.0741675    1.000000000000

     20   P      36             1.6000000    1.000000000000

     21   P      37             0.4500000    1.000000000000

     22   D      38             1.2500000    1.000000000000

 CARBON    

     23   S      39          7319.9900000    0.000619440214
     23   S      40          1098.1800000    0.004784867856
     23   S      41           250.0140000    0.024473522366
     23   S      42            70.7586000    0.093604314836
     23   S      43            22.8595000    0.259458497000
     23   S      44             8.0393600    0.445403961038
     23   S      45             2.8930900    0.322672008766

     24   S      46             5.2164000   -0.206212756540
     24   S      47             0.5561240    1.076442283609

     25   S      48             0.2288130    1.000000000000

     26   S      49             0.0936338    1.000000000000

     27   P      50            33.9855000    0.011651274869
     27   P      51             7.7295700    0.083558402694
     27   P      52             2.2495400    0.316787343052
     27   P      53             0.7676810    0.711836880044

     28   P      54             0.2632830    1.000000000000

     29   P      55             0.0848744    1.000000000000

     30   D      56             1.4000000    1.000000000000

     31   D      57             0.4500000    1.000000000000

     32   F      58             0.9500000    1.000000000000

 CARBON    

     33   S      59          7319.9900000    0.000619440214
     33   S      60          1098.1800000    0.004784867856
     33   S      61           250.0140000    0.024473522366
     33   S      62            70.7586000    0.093604314836
     33   S      63            22.8595000    0.259458497000
     33   S      64             8.0393600    0.445403961038
     33   S      65             2.8930900    0.322672008766

     34   S      66             5.2164000   -0.206212756540
     34   S      67             0.5561240    1.076442283609

     35   S      68             0.2288130    1.000000000000

     36   S      69             0.0936338    1.000000000000

     37   P      70            33.9855000    0.011651274869
     37   P      71             7.7295700    0.083558402694
     37   P      72             2.2495400    0.316787343052
     37   P      73             0.7676810    0.711836880044

     38   P      74             0.2632830    1.000000000000

     39   P      75             0.0848744    1.000000000000

     40   D      76             1.4000000    1.000000000000

     41   D      77             0.4500000    1.000000000000

     42   F      78             0.9500000    1.000000000000

 CARBON    

     43   S      79          7319.9900000    0.000619440214
     43   S      80          1098.1800000    0.004784867856
     43   S      81           250.0140000    0.024473522366
     43   S      82            70.7586000    0.093604314836
     43   S      83            22.8595000    0.259458497000
     43   S      84             8.0393600    0.445403961038
     43   S      85             2.8930900    0.322672008766

     44   S      86             5.2164000   -0.206212756540
     44   S      87             0.5561240    1.076442283609

     45   S      88             0.2288130    1.000000000000

     46   S      89             0.0936338    1.000000000000

     47   P      90            33.9855000    0.011651274869
     47   P      91             7.7295700    0.083558402694
     47   P      92             2.2495400    0.316787343052
     47   P      93             0.7676810    0.711836880044

     48   P      94             0.2632830    1.000000000000

     49   P      95             0.0848744    1.000000000000

     50   D      96             1.4000000    1.000000000000

     51   D      97             0.4500000    1.000000000000

     52   F      98             0.9500000    1.000000000000

 HYDROGEN  

     53   S      99            75.4732000    0.006633673656
     53   S     100            11.3575000    0.050962967872
     53   S     101             2.6008100    0.247437216649
     53   S     102             0.7355030    0.775286119168

     54   S     103             0.2317610    1.000000000000

     55   S     104             0.0741675    1.000000000000

     56   P     105             1.6000000    1.000000000000

     57   P     106             0.4500000    1.000000000000

     58   D     107             1.2500000    1.000000000000

 CARBON    

     59   S     108          7319.9900000    0.000619440214
     59   S     109          1098.1800000    0.004784867856
     59   S     110           250.0140000    0.024473522366
     59   S     111            70.7586000    0.093604314836
     59   S     112            22.8595000    0.259458497000
     59   S     113             8.0393600    0.445403961038
     59   S     114             2.8930900    0.322672008766

     60   S     115             5.2164000   -0.206212756540
     60   S     116             0.5561240    1.076442283609

     61   S     117             0.2288130    1.000000000000

     62   S     118             0.0936338    1.000000000000

     63   P     119            33.9855000    0.011651274869
     63   P     120             7.7295700    0.083558402694
     63   P     121             2.2495400    0.316787343052
     63   P     122             0.7676810    0.711836880044

     64   P     123             0.2632830    1.000000000000

     65   P     124             0.0848744    1.000000000000

     66   D     125             1.4000000    1.000000000000

     67   D     126             0.4500000    1.000000000000

     68   F     127             0.9500000    1.000000000000

 HYDROGEN  

     69   S     128            75.4732000    0.006633673656
     69   S     129            11.3575000    0.050962967872
     69   S     130             2.6008100    0.247437216649
     69   S     131             0.7355030    0.775286119168

     70   S     132             0.2317610    1.000000000000

     71   S     133             0.0741675    1.000000000000

     72   P     134             1.6000000    1.000000000000

     73   P     135             0.4500000    1.000000000000

     74   D     136             1.2500000    1.000000000000

 HYDROGEN  

     75   S     137            75.4732000    0.006633673656
     75   S     138            11.3575000    0.050962967872
     75   S     139             2.6008100    0.247437216649
     75   S     140             0.7355030    0.775286119168

     76   S     141             0.2317610    1.000000000000

     77   S     142             0.0741675    1.000000000000

     78   P     143             1.6000000    1.000000000000

     79   P     144             0.4500000    1.000000000000

     80   D     145             1.2500000    1.000000000000

 OXYGEN    

     81   S     146         13588.7000000    0.000593260945
     81   S     147          2038.4700000    0.004584094623
     81   S     148           464.0410000    0.023487532205
     81   S     149           131.3390000    0.090483410714
     81   S     150            42.5340000    0.254848532066
     81   S     151            15.0429000    0.445731087262
     81   S     152             5.4661600    0.328246178743

     82   S     153            10.0915000   -0.216387438825
     82   S     154             1.1042900    1.081029129655

     83   S     155             0.4480820    1.000000000000

     84   S     156             0.1753250    1.000000000000

     85   P     157            60.8220000    0.012571846281
     85   P     158            14.0332000    0.089401069221
     85   P     159             4.1824400    0.334281969953
     85   P     160             1.4249000    0.692089444296

     86   P     161             0.4787410    1.000000000000

     87   P     162             0.1462570    1.000000000000

     88   D     163             2.2000000    1.000000000000

     89   D     164             0.6500000    1.000000000000

     90   F     165             1.1000000    1.000000000000

 TOTAL NUMBER OF BASIS SET SHELLS             =   90
 NUMBER OF CARTESIAN GAUSSIAN BASIS FUNCTIONS =  285
 NOTE: THIS RUN WILL RESTRICT THE MO VARIATION SPACE TO SPHERICAL HARMONICS.
 THE NUMBER OF ORBITALS KEPT IN THE VARIATIONAL SPACE WILL BE PRINTED LATER.
 NUMBER OF ELECTRONS                          =   44
 CHARGE OF MOLECULE                           =    0
 SPIN MULTIPLICITY                            =    1
 NUMBER OF OCCUPIED ORBITALS (ALPHA)          =   22
 NUMBER OF OCCUPIED ORBITALS (BETA )          =   22
 TOTAL NUMBER OF ATOMS                        =   11
 THE NUCLEAR REPULSION ENERGY IS      196.2953934190

     $CONTRL OPTIONS
     ---------------
 SCFTYP=GVB          RUNTYP=GRADIENT     EXETYP=RUN     
 MPLEVL=       0     CITYP =NONE         CCTYP =NONE         VBTYP =NONE    
 DFTTYP=NONE         TDDFT =NONE    
 MULT  =       1     ICHARG=       0     NZVAR =       0     COORD =UNIQUE  
 PP    =NONE         RELWFN=NONE         LOCAL =NONE         NUMGRD=       F
 ISPHER=       1     NOSYM =       0     MAXIT =      30     UNITS =ANGS    
 PLTORB=       F     MOLPLT=       F     AIMPAC=       F     FRIEND=        
 NPRINT=       7     IREST =       0     GEOM  =INPUT   
 NORMF =       0     NORMP =       0     ITOL  =      20     ICUT  =       9
 INTTYP=BEST         GRDTYP=BEST         QMTTOL= 1.0E-06

     $SYSTEM OPTIONS
     ---------------
  REPLICATED MEMORY=   100000000 WORDS (ON EVERY NODE).
 DISTRIBUTED MEMDDI=           0 MILLION WORDS IN AGGREGATE,
 MEMDDI DISTRIBUTED OVER   1 PROCESSORS IS           0 WORDS/PROCESSOR.
 TOTAL MEMORY REQUESTED ON EACH PROCESSOR=   100000000 WORDS.
 TIMLIM=      525600.00 MINUTES, OR     365.0 DAYS.
 PARALL= F  BALTYP=  DLB     KDIAG=    0  COREFL= F
 MXSEQ2=     300 MXSEQ3=     150  mem10=         0

          ----------------
          PROPERTIES INPUT
          ----------------

     MOMENTS            FIELD           POTENTIAL          DENSITY
 IEMOM =       1   IEFLD =       0   IEPOT =       0   IEDEN =       0
 WHERE =COMASS     WHERE =NUCLEI     WHERE =NUCLEI     WHERE =NUCLEI  
 OUTPUT=BOTH       OUTPUT=BOTH       OUTPUT=BOTH       OUTPUT=BOTH    
 IEMINT=       0   IEFINT=       0                     IEDINT=       0
                                                       MORB  =       0
          EXTRAPOLATION IN EFFECT
          SOSCF IN EFFECT
 ORBITAL PRINTING OPTION: NPREO=     1   285     2     1

          *************************
          ROHF-GVB INPUT PARAMETERS
          *************************

          NORB   =   25          NCO    =   19
          NPAIR  =    3          NSETO  =    0
          PAIR ORBITALS
          PAIR    1 HAS ORBS   20   21
          PAIR    2 HAS ORBS   22   23
          PAIR    3 HAS ORBS   24   25

          ----------------------------
          ROHF-GVB COUPLING PARAMETERS
          ----------------------------

          F VECTOR (OCCUPANCIES)
    1   1.0000000000
    2   0.9529411765
    3   0.0470588235
    4   0.9529411765
    5   0.0470588235
    6   0.9529411765
    7   0.0470588235
          ALPHA COUPLING COEFFICEINTS

             1           2           3           4           5

    1    2.0000000
    2    1.9058824   0.9529412
    3    0.0941176   0.0000000   0.0470588
    4    1.9058824   1.8161938   0.0896886   0.9529412
    5    0.0941176   0.0896886   0.0044291   0.0000000   0.0470588
    6    1.9058824   1.8161938   0.0896886   1.8161938   0.0896886
    7    0.0941176   0.0896886   0.0044291   0.0896886   0.0044291

             6           7

    6    0.9529412
    7    0.0000000   0.0470588
           BETA COUPLING COEFFICIENTS

             1           2           3           4           5

    1   -1.0000000
    2   -0.9529412   0.0000000
    3   -0.0470588  -0.2117647   0.0000000
    4   -0.9529412  -0.9080969  -0.0448443   0.0000000
    5   -0.0470588  -0.0448443  -0.0022145  -0.2117647   0.0000000
    6   -0.9529412  -0.9080969  -0.0448443  -0.9080969  -0.0448443
    7   -0.0470588  -0.0448443  -0.0022145  -0.0448443  -0.0022145

             6           7

    6    0.0000000
    7   -0.2117647   0.0000000

          NATURAL ORBITAL COEFFICIENTS
          N.O.                PAIR CICOEF-S
            1        0.9761870602    -0.2169304578
            2        0.9761870602    -0.2169304578
            3        0.9761870602    -0.2169304578

     -------------------------------
     INTEGRAL TRANSFORMATION OPTIONS
     -------------------------------
     NWORD  =            0
     CUTOFF = 1.0E-09     MPTRAN =       0
     DIRTRF =       F     AOINTS =DUP     

          ----------------------
          INTEGRAL INPUT OPTIONS
          ----------------------
 NOPK  =       1 NORDER=       0 SCHWRZ=       T

     ------------------------------------------
     THE POINT GROUP IS CS , NAXIS= 0, ORDER= 2
     ------------------------------------------

 -- VARIATIONAL SPACE WILL BE RESTRICTED TO PURE SPHERICAL HARMONICS ONLY --
 AFTER EXCLUDING CONTAMINANT COMBINATIONS FROM THE CARTESIAN GAUSSIAN BASIS
 SET, THE NUMBER OF SPHERICAL HARMONICS KEPT IN THE VARIATION SPACE IS  250

     DIMENSIONS OF THE SYMMETRY SUBSPACES ARE
 A'  =  170     A'' =   80

 ..... DONE SETTING UP THE RUN .....
 STEP CPU TIME =     0.14 TOTAL CPU TIME =        0.1 (    0.0 MIN)
 TOTAL WALL CLOCK TIME=        0.1 SECONDS, CPU UTILIZATION IS  93.33%

                    --------------------------------
                    SINGLE POINT ENERGY AND GRADIENT
                    --------------------------------

          ********************
          1 ELECTRON INTEGRALS
          ********************
 ...... END OF ONE-ELECTRON INTEGRALS ......
 STEP CPU TIME =     0.02 TOTAL CPU TIME =        0.2 (    0.0 MIN)
 TOTAL WALL CLOCK TIME=        0.2 SECONDS, CPU UTILIZATION IS  94.12%

          -------------
          GUESS OPTIONS
          -------------
          GUESS =MOREAD            NORB  =      35          NORDER=       1
          MIX   =       F          PRTMO =       F          PUNMO =       F
          TOLZ  = 1.0E-08          TOLE  = 1.0E-05
          SYMDEN=       F          PURIFY=       F

 INITIAL GUESS ORBITALS GENERATED BY MOREAD   ROUTINE.

 STATISTICS FOR GENERATION OF SYMMETRY ORBITAL -Q- MATRIX
 NUMBER OF CARTESIAN ATOMIC ORBITALS=        285
 NUMBER OF SPHERICAL CONTAMINANTS DROPPED=    35
 NUMBER OF LINEARLY DEPENDENT MOS DROPPED=     0
 TOTAL NUMBER OF MOS IN VARIATION SPACE=     250

 SYMMETRIES FOR INITIAL GUESS ORBITALS FOLLOW.   BOTH SET(S).
    25 ORBITALS ARE OCCUPIED (    6 CORE ORBITALS).
     1=A'       2=A'       3=A'       4=A'       5=A'       6=A'       7=A'  
     8=A'       9=A'      10=A'      11=A'      12=A'      13=A'      14=A'  
    15=A'      16=A'      17=A'      18=A'      19=A'      20=A''     21=A'' 
    22=A''     23=A''     24=A''     25=A''     26=A'      27=A'      28=A'  
    29=A'      30=A'      31=A'      32=A'      33=A'      34=A'      35=A'  
    36=A'      37=A'      38=A'      39=A'      40=A'      41=A'      42=A'  
    43=A'      44=A'      45=A'      46=A'      47=A'      48=A'      49=A'  
    50=A'      51=A'      52=A'      53=A'      54=A'      55=A'      56=A'  
    57=A'      58=A'      59=A'      60=A'      61=A'      62=A'      63=A'  
    64=A'      65=A'      66=A'      67=A'      68=A'      69=A'      70=A'  
    71=A'      72=A'      73=A'      74=A'      75=A'      76=A'      77=A'  
    78=A'      79=A'      80=A'      81=A'      82=A'      83=A'      84=A'  
    85=A'      86=A'      87=A'      88=A'      89=A'      90=A'      91=A'  
    92=A'      93=A'      94=A'      95=A'      96=A'      97=A'      98=A'  
    99=A'     100=A'     101=A'     102=A'     103=A'     104=A'     105=A'  
   106=A'     107=A'     108=A'     109=A'     110=A'     111=A'     112=A'  
   113=A'     114=A'     115=A'     116=A'     117=A'     118=A'     119=A'  
   120=A'     121=A'     122=A'     123=A'     124=A'     125=A'     126=A'  
   127=A'     128=A'     129=A'     130=A'     131=A'     132=A'     133=A'  
   134=A'     135=A'     136=A'     137=A'     138=A'     139=A'     140=A'  
   141=A'     142=A'     143=A'     144=A'     145=A'     146=A'     147=A'  
   148=A'     149=A'     150=A'     151=A'     152=A'     153=A'     154=A'  
   155=A'     156=A'     157=A'     158=A'     159=A'     160=A'     161=A'  
   162=A'     163=A'     164=A'     165=A'     166=A'     167=A'     168=A'  
   169=A'     170=A'     171=A'     172=A'     173=A'     174=A'     175=A'  
   176=A'     177=A''    178=A''    179=A''    180=A''    181=A''    182=A'' 
   183=A''    184=A''    185=A''    186=A''    187=A''    188=A''    189=A'' 
   190=A''    191=A''    192=A''    193=A''    194=A''    195=A''    196=A'' 
   197=A''    198=A''    199=A''    200=A''    201=A''    202=A''    203=A'' 
   204=A''    205=A''    206=A''    207=A''    208=A''    209=A''    210=A'' 
   211=A''    212=A''    213=A''    214=A''    215=A''    216=A''    217=A'' 
   218=A''    219=A''    220=A''    221=A''    222=A''    223=A''    224=A'' 
   225=A''    226=A''    227=A''    228=A''    229=A''    230=A''    231=A'' 
   232=A''    233=A''    234=A''    235=A''    236=A''    237=A''    238=A'' 
   239=A''    240=A''    241=A''    242=A''    243=A''    244=A''    245=A'' 
   246=A''    247=A''    248=A''    249=A''    250=A'' 
 ...... END OF INITIAL ORBITAL SELECTION ......
 STEP CPU TIME =     0.12 TOTAL CPU TIME =        0.3 (    0.0 MIN)
 TOTAL WALL CLOCK TIME=        0.3 SECONDS, CPU UTILIZATION IS 100.00%

                    ----------------------
                    AO INTEGRAL TECHNOLOGY
                    ----------------------
     S,P,L SHELL ROTATED AXIS INTEGRALS, REPROGRAMMED BY
        KAZUYA ISHIMURA (IMS) AND JOSE SIERRA (SYNSTAR).
     S,P,D,L SHELL ROTATED AXIS INTEGRALS PROGRAMMED BY
        KAZUYA ISHIMURA (INSTITUTE FOR MOLECULAR SCIENCE).
     S,P,D,F,G SHELL TO TOTAL QUARTET ANGULAR MOMENTUM SUM 5,
        ERIC PROGRAM BY GRAHAM FLETCHER (ELORET AND NASA ADVANCED
        SUPERCOMPUTING DIVISION, AMES RESEARCH CENTER).
     S,P,D,F,G,L SHELL GENERAL RYS QUADRATURE PROGRAMMED BY
        MICHEL DUPUIS (PACIFIC NORTHWEST NATIONAL LABORATORY).

          --------------------
          2 ELECTRON INTEGRALS
          --------------------

 THE -PK- OPTION IS OFF, THE INTEGRALS ARE NOT IN SUPERMATRIX FORM.
 STORING   15000 INTEGRALS/RECORD ON DISK, USING 16 BYTES/INTEGRAL.
 TWO ELECTRON INTEGRAL EVALUATION REQUIRES  103195 WORDS OF MEMORY.
 SCHWARZ INEQUALITY OVERHEAD:     37333 INTEGRALS, T=        0.02
 II,JST,KST,LST =  1  1  1  1 NREC =         1 INTLOC =    1
 II,JST,KST,LST =  2  1  1  1 NREC =         1 INTLOC =    2
 II,JST,KST,LST =  3  1  1  1 NREC =         1 INTLOC =    7
 II,JST,KST,LST =  4  1  1  1 NREC =         1 INTLOC =   22
 II,JST,KST,LST =  5  1  1  1 NREC =         1 INTLOC =   56
 II,JST,KST,LST =  6  1  1  1 NREC =         1 INTLOC =  125
 II,JST,KST,LST =  7  1  1  1 NREC =         1 INTLOC =  329
 II,JST,KST,LST =  8  1  1  1 NREC =         1 INTLOC =  776
 II,JST,KST,LST =  9  1  1  1 NREC =         1 INTLOC = 2864
 II,JST,KST,LST = 10  1  1  1 NREC =         1 INTLOC = 7967
 II,JST,KST,LST = 11  1  1  1 NREC =         2 INTLOC =12194
 II,JST,KST,LST = 12  1  1  1 NREC =         3 INTLOC = 9639
 II,JST,KST,LST = 13  1  1  1 NREC =         4 INTLOC = 8247
 II,JST,KST,LST = 14  1  1  1 NREC =         5 INTLOC = 8096
 II,JST,KST,LST = 15  1  1  1 NREC =         8 INTLOC =12535
 II,JST,KST,LST = 16  1  1  1 NREC =        12 INTLOC =13649
 II,JST,KST,LST = 17  1  1  1 NREC =        23 INTLOC =12025
 II,JST,KST,LST = 18  1  1  1 NREC =        24 INTLOC = 5249
 II,JST,KST,LST = 19  1  1  1 NREC =        26 INTLOC =11181
 II,JST,KST,LST = 20  1  1  1 NREC =        29 INTLOC = 5211
 II,JST,KST,LST = 21  1  1  1 NREC =        31 INTLOC =  763
 II,JST,KST,LST = 22  1  1  1 NREC =        35 INTLOC =12165
 II,JST,KST,LST = 23  1  1  1 NREC =        42 INTLOC = 3428
 II,JST,KST,LST = 24  1  1  1 NREC =        45 INTLOC = 7551
 II,JST,KST,LST = 25  1  1  1 NREC =        49 INTLOC =10160
 II,JST,KST,LST = 26  1  1  1 NREC =        54 INTLOC = 2817
 II,JST,KST,LST = 27  1  1  1 NREC =        58 INTLOC =14645
 II,JST,KST,LST = 28  1  1  1 NREC =        73 INTLOC =  980
 II,JST,KST,LST = 29  1  1  1 NREC =        90 INTLOC =  442
 II,JST,KST,LST = 30  1  1  1 NREC =       109 INTLOC = 6364
 II,JST,KST,LST = 31  1  1  1 NREC =       151 INTLOC =14218
 II,JST,KST,LST = 32  1  1  1 NREC =       209 INTLOC =12561
 II,JST,KST,LST = 33  1  1  1 NREC =       331 INTLOC =  828
 II,JST,KST,LST = 34  1  1  1 NREC =       342 INTLOC =10222
 II,JST,KST,LST = 35  1  1  1 NREC =       359 INTLOC = 1416
 II,JST,KST,LST = 36  1  1  1 NREC =       376 INTLOC = 7890
 II,JST,KST,LST = 37  1  1  1 NREC =       394 INTLOC =10365
 II,JST,KST,LST = 38  1  1  1 NREC =       445 INTLOC =12891
 II,JST,KST,LST = 39  1  1  1 NREC =       505 INTLOC = 4893
 II,JST,KST,LST = 40  1  1  1 NREC =       570 INTLOC = 7928
 II,JST,KST,LST = 41  1  1  1 NREC =       699 INTLOC =13682
 II,JST,KST,LST = 42  1  1  1 NREC =       868 INTLOC =11450
 II,JST,KST,LST = 43  1  1  1 NREC =      1189 INTLOC = 8214
 II,JST,KST,LST = 44  1  1  1 NREC =      1213 INTLOC = 4800
 II,JST,KST,LST = 45  1  1  1 NREC =      1247 INTLOC =12280
 II,JST,KST,LST = 46  1  1  1 NREC =      1289 INTLOC = 9090
 II,JST,KST,LST = 47  1  1  1 NREC =      1333 INTLOC = 8027
 II,JST,KST,LST = 48  1  1  1 NREC =      1433 INTLOC = 3427
 II,JST,KST,LST = 49  1  1  1 NREC =      1567 INTLOC = 7836
 II,JST,KST,LST = 50  1  1  1 NREC =      1715 INTLOC =10865
 II,JST,KST,LST = 51  1  1  1 NREC =      1948 INTLOC =12785
 II,JST,KST,LST = 52  1  1  1 NREC =      2271 INTLOC =11401
 II,JST,KST,LST = 53  1  1  1 NREC =      2809 INTLOC =13585
 II,JST,KST,LST = 54  1  1  1 NREC =      2880 INTLOC = 1503
 II,JST,KST,LST = 55  1  1  1 NREC =      2960 INTLOC = 5634
 II,JST,KST,LST = 56  1  1  1 NREC =      3043 INTLOC = 5412
 II,JST,KST,LST = 57  1  1  1 NREC =      3235 INTLOC = 4360
 II,JST,KST,LST = 58  1  1  1 NREC =      3483 INTLOC = 2449
 II,JST,KST,LST = 59  1  1  1 NREC =      3949 INTLOC =13484
 II,JST,KST,LST = 60  1  1  1 NREC =      3992 INTLOC =10436
 II,JST,KST,LST = 61  1  1  1 NREC =      4061 INTLOC = 1969
 II,JST,KST,LST = 62  1  1  1 NREC =      4151 INTLOC =  541
 II,JST,KST,LST = 63  1  1  1 NREC =      4255 INTLOC =13981
 II,JST,KST,LST = 64  1  1  1 NREC =      4448 INTLOC =12198
 II,JST,KST,LST = 65  1  1  1 NREC =      4723 INTLOC =12677
 II,JST,KST,LST = 66  1  1  1 NREC =      5062 INTLOC = 4676
 II,JST,KST,LST = 67  1  1  1 NREC =      5484 INTLOC = 3910
 II,JST,KST,LST = 68  1  1  1 NREC =      6077 INTLOC = 8768
 II,JST,KST,LST = 69  1  1  1 NREC =      7017 INTLOC = 5931
 II,JST,KST,LST = 70  1  1  1 NREC =      7150 INTLOC = 1408
 II,JST,KST,LST = 71  1  1  1 NREC =      7311 INTLOC = 3244
 II,JST,KST,LST = 72  1  1  1 NREC =      7480 INTLOC =  650
 II,JST,KST,LST = 73  1  1  1 NREC =      7828 INTLOC =14873
 II,JST,KST,LST = 74  1  1  1 NREC =      8293 INTLOC =  740
 II,JST,KST,LST = 75  1  1  1 NREC =      9131 INTLOC = 8711
 II,JST,KST,LST = 76  1  1  1 NREC =      9247 INTLOC = 1458
 II,JST,KST,LST = 77  1  1  1 NREC =      9414 INTLOC = 3967
 II,JST,KST,LST = 78  1  1  1 NREC =      9615 INTLOC = 1688
 II,JST,KST,LST = 79  1  1  1 NREC =      9912 INTLOC = 2964
 II,JST,KST,LST = 80  1  1  1 NREC =     10332 INTLOC = 4164
 II,JST,KST,LST = 81  1  1  1 NREC =     11046 INTLOC =10602
 II,JST,KST,LST = 82  1  1  1 NREC =     11118 INTLOC = 5896
 II,JST,KST,LST = 83  1  1  1 NREC =     11225 INTLOC = 4195
 II,JST,KST,LST = 84  1  1  1 NREC =     11363 INTLOC = 8338
 II,JST,KST,LST = 85  1  1  1 NREC =     11554 INTLOC =13100
 II,JST,KST,LST = 86  1  1  1 NREC =     11852 INTLOC = 1687
 II,JST,KST,LST = 87  1  1  1 NREC =     12272 INTLOC = 1443
 II,JST,KST,LST = 88  1  1  1 NREC =     12905 INTLOC = 2656
 II,JST,KST,LST = 89  1  1  1 NREC =     13563 INTLOC = 7712
 II,JST,KST,LST = 90  1  1  1 NREC =     14493 INTLOC = 4642
 SCHWARZ INEQUALITY TEST SKIPPED     2212842 INTEGRAL BLOCKS.
 TOTAL NUMBER OF NONZERO TWO-ELECTRON INTEGRALS =           240154272
      16011 INTEGRAL RECORDS WERE STORED ON DISK FILE  8.
  ...... END OF TWO-ELECTRON INTEGRALS .....
 STEP CPU TIME =    20.86 TOTAL CPU TIME =       21.1 (    0.4 MIN)
 TOTAL WALL CLOCK TIME=       42.9 SECONDS, CPU UTILIZATION IS  49.31%

          ------------------------
          ROHF-GVB SCF CALCULATION
          ------------------------
 GVB STEP WILL USE   1471343 WORDS OF MEMORY.

     MAXIT=  30   NPUNCH= 2   SQCDF TOL=1.0000E-05
     NUCLEAR ENERGY=      196.2953934190
     EXTRAP=T   DAMP=F   SHIFT=F   RSTRCT=F   DIIS=F  SOSCF=T
     SOSCF WILL OPTIMIZE    5754 ORBITAL ROTATIONS, SOGTOL=   0.250

 ITER EX     TOTAL ENERGY       E CHANGE        SQCDF       ORB. GRAD 
   0  0     -283.787819211  -283.787819211   0.811675437   0.000000000
          ---------------START SECOND ORDER SCF---------------
   1  1     -283.825020271    -0.037201060   0.049377269   0.008887226
   2  2     -283.829655618    -0.004635347   0.003766635   0.003316257
   3  3     -283.830062122    -0.000406504   0.000312240   0.001772814
   4  4     -283.830135687    -0.000073565   0.000134003   0.001016755
   5  5     -283.830156803    -0.000021116   0.000022893   0.000366044
   6  6     -283.830161317    -0.000004514   0.000006132   0.000194550
   7  7     -283.830162139    -0.000000822   0.000000419   0.000043307
   8  8     -283.830162257    -0.000000118   0.000000066   0.000028572
   9  9     -283.830162276    -0.000000019   0.000000012   0.000012527
  10 10     -283.830162279    -0.000000003   0.000000001   0.000004613
  11 11     -283.830162280    -0.000000000   0.000000000   0.000001429
  12 12     -283.830162280    -0.000000000   0.000000000   0.000000344

          -----------------
          DENSITY CONVERGED
          -----------------

 FINAL GVB ENERGY IS     -283.8301622796 AFTER  12 ITERATIONS

          ----------------------------
          SCF STATISTICS PER ITERATION
          ----------------------------
          NUMBER OF INTEGRAL PASSES       1
          FOCK FORMATION TIME        11.235
          GEMINAL OPT TIME            0.001
          MIXORB  OPT TIME            0.001
          OCBSE   OPT TIME            0.008

          ----------------
          PAIR INFORMATION
          ----------------
      ORBITAL   CI COEFFICIENTS    OCCUPATION NUMBERS   GVB      ENERGY
 PAIR 1   2     ORB 1     ORB 2      ORB 1     ORB 2    OVERLAP  LOWERING
  1  20  21    0.984077 -0.177742   1.93682   0.06318   0.69403  -0.03173
  2  22  23    0.981958 -0.189099   1.92848   0.07152   0.67705  -0.02957
  3  24  25    0.985244 -0.171154   1.94141   0.05859   0.70399  -0.02269

     THE MAXIMUM LAGRANGIAN ASYMMETRY IS 6.3595530E-07

          ------------
          EIGENVECTORS
          ------------

                      1          2          3          4          5
                  -20.5613   -15.5563   -11.3137   -11.2774   -11.2456
                     A'         A'         A'         A'         A'  
    1  N  1  S    0.000004   0.996758   0.000011  -0.001070  -0.000057
    2  N  1  S    0.000017   0.008710   0.000029  -0.002531  -0.000556
    3  N  1  S   -0.000155   0.006910  -0.000926   0.013084   0.003096
    4  N  1  S   -0.000647  -0.011072  -0.000609  -0.001668  -0.004664
    5  N  1  X   -0.000000  -0.001332  -0.000020  -0.000109  -0.000147
    6  N  1  Y    0.000005   0.000823  -0.000006  -0.000158  -0.000047
    7  N  1  Z    0.000000   0.000000  -0.000000  -0.000000  -0.000000
    8  N  1  X    0.000036   0.001546   0.000153  -0.000296   0.001217
    9  N  1  Y   -0.000092   0.001759  -0.000661   0.008647   0.000975
   10  N  1  Z    0.000000   0.000000  -0.000000  -0.000000  -0.000000
   11  N  1  X    0.000148  -0.000426  -0.000011  -0.000818  -0.000888
   12  N  1  Y   -0.000050  -0.002165   0.000070  -0.000348  -0.001250
   13  N  1  Z    0.000000   0.000000  -0.000000  -0.000000  -0.000000
   14  N  1 XX   -0.000001  -0.000028  -0.000013   0.000109   0.000061
   15  N  1 YY    0.000002   0.000016   0.000003  -0.000074  -0.000057
   16  N  1 ZZ   -0.000000   0.000013   0.000010  -0.000035  -0.000003
   17  N  1 XY   -0.000001  -0.000246  -0.000021   0.000038  -0.000084
   18  N  1 XZ    0.000000   0.000000  -0.000000  -0.000000  -0.000000
   19  N  1 YZ    0.000000   0.000000  -0.000000  -0.000000  -0.000000
   20  N  1 XX    0.000008  -0.000342   0.000128  -0.002440  -0.000182
   21  N  1 YY   -0.000029   0.000983  -0.000156   0.004324   0.000220
   22  N  1 ZZ    0.000021  -0.000641   0.000028  -0.001884  -0.000038
   23  N  1 XY   -0.000009   0.000420   0.000103  -0.000183   0.000807
   24  N  1 XZ    0.000000   0.000000  -0.000000  -0.000000  -0.000000
   25  N  1 YZ    0.000000   0.000000  -0.000000  -0.000000  -0.000000
   26  N  1 XXX   0.000001  -0.000060  -0.000011   0.000334  -0.000154
   27  N  1 YYY  -0.000005   0.000383  -0.000005   0.001747  -0.000080
   28  N  1 ZZZ   0.000000   0.000000  -0.000000  -0.000000  -0.000000
   29  N  1 XXY   0.000006  -0.000329   0.000023  -0.001336   0.000089
   30  N  1 XXZ   0.000000   0.000000  -0.000000  -0.000000  -0.000000
   31  N  1 YYX   0.000001   0.000020   0.000013  -0.000465   0.000248
   32  N  1 YYZ   0.000000   0.000000  -0.000000  -0.000000  -0.000000
   33  N  1 ZZX  -0.000002   0.000061   0.000002   0.000017  -0.000042
   34  N  1 ZZY   0.000001  -0.000185  -0.000015  -0.001008   0.000018
   35  N  1 XYZ   0.000000   0.000000  -0.000000  -0.000000  -0.000000
   36  H  2  S   -0.000001  -0.000138  -0.000021   0.000163   0.000052
   37  H  2  S    0.000175   0.001691   0.000056  -0.000481   0.000070
   38  H  2  S   -0.000032  -0.000509  -0.000052  -0.000705  -0.000257
   39  H  2  X   -0.000003   0.000064  -0.000009  -0.000169   0.000021
   40  H  2  Y    0.000003   0.000039   0.000005   0.000231   0.000009
   41  H  2  Z    0.000000   0.000000  -0.000000  -0.000000  -0.000000
   42  H  2  X    0.000044   0.000373   0.000008  -0.000247  -0.000120
   43  H  2  Y    0.000008   0.000481  -0.000009   0.000090   0.000079
   44  H  2  Z    0.000000   0.000000  -0.000000  -0.000000  -0.000000
   45  H  2 XX    0.000005   0.000463   0.000006  -0.000354  -0.000011
   46  H  2 YY   -0.000002  -0.000135  -0.000005   0.000257  -0.000006
   47  H  2 ZZ   -0.000002  -0.000327  -0.000000   0.000097   0.000017
   48  H  2 XY    0.000002   0.000484   0.000005   0.000118  -0.000003
   49  H  2 XZ    0.000000   0.000000  -0.000000  -0.000000  -0.000000
   50  H  2 YZ    0.000000   0.000000  -0.000000  -0.000000  -0.000000
   51  H  3  S   -0.000046   0.000065   0.000117   0.000381   0.000122
   52  H  3  S   -0.000324  -0.000145  -0.001018  -0.000289   0.000707
   53  H  3  S   -0.000766  -0.000393   0.000182   0.000384   0.001072
   54  H  3  X   -0.000005  -0.000006   0.000001   0.000084  -0.000083
   55  H  3  Y   -0.000012  -0.000002   0.000029  -0.000119  -0.000038
   56  H  3  Z    0.000000   0.000000  -0.000000  -0.000000  -0.000000
   57  H  3  X   -0.000075   0.000061   0.000037   0.000027  -0.000159
   58  H  3  Y    0.000051  -0.000002   0.000794   0.000306  -0.000664
   59  H  3  Z    0.000000   0.000000  -0.000000  -0.000000  -0.000000
   60  H  3 XX   -0.000002   0.000001   0.000118  -0.000017  -0.000222
   61  H  3 YY    0.000006   0.000001  -0.000197  -0.000049   0.000242
   62  H  3 ZZ   -0.000003  -0.000002   0.000080   0.000066  -0.000021
   63  H  3 XY   -0.000011   0.000009   0.000230   0.000022  -0.000122
   64  H  3 XZ    0.000000   0.000000  -0.000000  -0.000000  -0.000000
   65  H  3 YZ    0.000000   0.000000  -0.000000  -0.000000  -0.000000
   66  C  4  S   -0.000006   0.000090   0.000034   0.997119  -0.012292
   67  C  4  S   -0.000024  -0.000053  -0.000041   0.004438   0.000645
   68  C  4  S    0.000329  -0.003904   0.000380  -0.007254  -0.003846
   69  C  4  S    0.001444   0.013211  -0.000892   0.000431   0.009751
   70  C  4  X   -0.000001  -0.000004  -0.000003   0.000414  -0.000053
   71  C  4  Y    0.000000   0.000352  -0.000029   0.001272   0.000025
   72  C  4  Z    0.000000   0.000000  -0.000000  -0.000000  -0.000000
   73  C  4  X    0.000100  -0.001662  -0.000291   0.001520  -0.001203
   74  C  4  Y   -0.000110   0.001040  -0.001109   0.007457   0.000671
   75  C  4  Z    0.000000   0.000000  -0.000000  -0.000000  -0.000000
   76  C  4  X    0.000407   0.004684   0.000533   0.002234   0.004236
   77  C  4  Y   -0.000469  -0.003685  -0.001128  -0.003335  -0.000640
   78  C  4  Z    0.000000   0.000000  -0.000000  -0.000000  -0.000000
   79  C  4 XX   -0.000001   0.000161   0.000063  -0.000205  -0.000066
   80  C  4 YY    0.000003  -0.000176  -0.000050  -0.000442   0.000133
   81  C  4 ZZ   -0.000002   0.000015  -0.000013   0.000647  -0.000067
   82  C  4 XY    0.000001   0.000011   0.000006   0.000214  -0.000400
   83  C  4 XZ    0.000000   0.000000  -0.000000  -0.000000  -0.000000
   84  C  4 YZ    0.000000   0.000000  -0.000000  -0.000000  -0.000000
   85  C  4 XX   -0.000011  -0.000534  -0.000669   0.000936   0.000368
   86  C  4 YY    0.000038  -0.000094   0.000619  -0.002260  -0.000700
   87  C  4 ZZ   -0.000026   0.000628   0.000050   0.001325   0.000332
   88  C  4 XY    0.000007   0.000229  -0.000039   0.001119   0.001949
   89  C  4 XZ    0.000000   0.000000  -0.000000  -0.000000  -0.000000
   90  C  4 YZ    0.000000   0.000000  -0.000000  -0.000000  -0.000000
   91  C  4 XXX  -0.000003  -0.000061  -0.000034   0.000156   0.000097
   92  C  4 YYY  -0.000008  -0.000363   0.000003   0.000592  -0.000315
   93  C  4 ZZZ   0.000000   0.000000  -0.000000  -0.000000  -0.000000
   94  C  4 XXY   0.000005   0.000293  -0.000044  -0.000604   0.000647
   95  C  4 XXZ   0.000000   0.000000  -0.000000  -0.000000  -0.000000
   96  C  4 YYX   0.000004   0.000012   0.000027   0.000081   0.000079
   97  C  4 YYZ   0.000000   0.000000  -0.000000  -0.000000  -0.000000
   98  C  4 ZZX  -0.000000   0.000070   0.000018  -0.000291  -0.000209
   99  C  4 ZZY   0.000006   0.000195   0.000040  -0.000190  -0.000225
  100  C  4 XYZ   0.000000   0.000000  -0.000000  -0.000000  -0.000000
  101  C  5  S   -0.000016  -0.000102  -0.000002   0.012167   0.988202
  102  C  5  S   -0.000060  -0.000767   0.000066   0.000169   0.004365
  103  C  5  S    0.000819   0.002686   0.002578  -0.001715   0.002734
  104  C  5  S    0.000064  -0.010249  -0.001601  -0.001141  -0.015080
  105  C  5  X    0.000005   0.000048   0.000029   0.000057  -0.000426
  106  C  5  Y   -0.000003   0.000086   0.000058   0.000111  -0.000506
  107  C  5  Z    0.000000   0.000000  -0.000000  -0.000000  -0.000000
  108  C  5  X    0.000173  -0.000926   0.000815   0.001594  -0.002223
  109  C  5  Y    0.000541  -0.001659   0.001025  -0.002074  -0.001422
  110  C  5  Z    0.000000   0.000000  -0.000000  -0.000000  -0.000000
  111  C  5  X    0.001681   0.004361  -0.000283   0.001000   0.001504
  112  C  5  Y    0.001083   0.002097   0.000578   0.001704   0.000423
  113  C  5  Z    0.000000   0.000000  -0.000000  -0.000000  -0.000000
  114  C  5 XX    0.000012   0.000011   0.000133  -0.000110  -0.000175
  115  C  5 YY   -0.000011  -0.000065  -0.000097   0.000101  -0.000352
  116  C  5 ZZ   -0.000001   0.000054  -0.000036   0.000009   0.000527
  117  C  5 XY    0.000004  -0.000098  -0.000146  -0.000464   0.000223
  118  C  5 XZ    0.000000   0.000000  -0.000000  -0.000000  -0.000000
  119  C  5 YZ    0.000000   0.000000  -0.000000  -0.000000  -0.000000
  120  C  5 XX   -0.000084  -0.000055  -0.000402   0.000860  -0.000354
  121  C  5 YY    0.000155   0.000296   0.000421  -0.000655   0.000734
  122  C  5 ZZ   -0.000072  -0.000241  -0.000019  -0.000205  -0.000380
  123  C  5 XY   -0.000057   0.000630   0.001510   0.002152   0.000754
  124  C  5 XZ    0.000000   0.000000  -0.000000  -0.000000  -0.000000
  125  C  5 YZ    0.000000   0.000000  -0.000000  -0.000000  -0.000000
  126  C  5 XXX   0.000005   0.000006  -0.000146  -0.000155  -0.000188
  127  C  5 YYY   0.000027  -0.000086  -0.000113   0.000355   0.000009
  128  C  5 ZZZ   0.000000   0.000000  -0.000000  -0.000000  -0.000000
  129  C  5 XXY  -0.000024   0.000050   0.000127  -0.000741   0.000171
  130  C  5 XXZ   0.000000   0.000000  -0.000000  -0.000000  -0.000000
  131  C  5 YYX  -0.000000  -0.000072   0.000192  -0.000114  -0.000049
  132  C  5 YYZ   0.000000   0.000000  -0.000000  -0.000000  -0.000000
  133  C  5 ZZX  -0.000006   0.000064   0.000004   0.000322   0.000301
  134  C  5 ZZY  -0.000012   0.000066   0.000025   0.000265  -0.000184
  135  C  5 XYZ   0.000000   0.000000  -0.000000  -0.000000  -0.000000
  136  C  6  S   -0.000011  -0.000023   0.004891   0.000120   0.130358
  137  C  6  S   -0.000182  -0.000120   0.000058  -0.000037   0.000312
  138  C  6  S   -0.000055   0.000605  -0.001356   0.002735   0.002406
  139  C  6  S   -0.003046   0.002022  -0.000434  -0.001021   0.006946
  140  C  6  X   -0.000040  -0.000018  -0.000095  -0.000020   0.000031
  141  C  6  Y   -0.000038   0.000033  -0.000137  -0.000032   0.000010
  142  C  6  Z    0.000000   0.000000  -0.000000  -0.000000  -0.000000
  143  C  6  X   -0.000049   0.000035  -0.001360  -0.000906  -0.000161
  144  C  6  Y    0.000693  -0.000420   0.002103  -0.001117  -0.003125
  145  C  6  Z    0.000000   0.000000  -0.000000  -0.000000  -0.000000
  146  C  6  X   -0.002345  -0.002403  -0.000991  -0.000514   0.002708
  147  C  6  Y   -0.000936  -0.002220  -0.002220  -0.001134  -0.001174
  148  C  6  Z    0.000000   0.000000  -0.000000  -0.000000  -0.000000
  149  C  6 XX   -0.000020   0.000010  -0.000162   0.000121   0.000231
  150  C  6 YY   -0.000010  -0.000008   0.000131  -0.000100  -0.000182
  151  C  6 ZZ    0.000031  -0.000002   0.000031  -0.000021  -0.000050
  152  C  6 XY   -0.000014  -0.000016  -0.000490  -0.000161  -0.000021
  153  C  6 XZ    0.000000   0.000000  -0.000000  -0.000000  -0.000000
  154  C  6 YZ    0.000000   0.000000  -0.000000  -0.000000  -0.000000
  155  C  6 XX    0.000172  -0.000074   0.001151  -0.000346  -0.002340
  156  C  6 YY   -0.000136   0.000118  -0.000811   0.000439   0.003176
  157  C  6 ZZ   -0.000036  -0.000044  -0.000341  -0.000093  -0.000836
  158  C  6 XY   -0.000029   0.000181   0.002241   0.001470   0.000019
  159  C  6 XZ    0.000000   0.000000  -0.000000  -0.000000  -0.000000
  160  C  6 YZ    0.000000   0.000000  -0.000000  -0.000000  -0.000000
  161  C  6 XXX   0.000035   0.000009   0.000236   0.000129   0.000055
  162  C  6 YYY   0.000024  -0.000035  -0.000396   0.000080  -0.001301
  163  C  6 ZZZ   0.000000   0.000000  -0.000000  -0.000000  -0.000000
  164  C  6 XXY   0.000005   0.000035   0.000816  -0.000108   0.001007
  165  C  6 XXZ   0.000000   0.000000  -0.000000  -0.000000  -0.000000
  166  C  6 YYX  -0.000018  -0.000015   0.000043  -0.000172  -0.000075
  167  C  6 YYZ   0.000000   0.000000  -0.000000  -0.000000  -0.000000
  168  C  6 ZZX  -0.000029   0.000003  -0.000359  -0.000002   0.000000
  169  C  6 ZZY  -0.000037   0.000012  -0.000285   0.000001   0.000738
  170  C  6 XYZ   0.000000   0.000000  -0.000000  -0.000000  -0.000000
  171  H  7  S    0.000012   0.000048   0.000405   0.000134   0.000783
  172  H  7  S   -0.000327   0.000011  -0.000107  -0.000911   0.003129
  173  H  7  S   -0.000364  -0.001201   0.000407  -0.000145   0.000334
  174  H  7  X    0.000009  -0.000027  -0.000089  -0.000019  -0.000629
  175  H  7  Y    0.000015   0.000050   0.000131  -0.000026   0.000401
  176  H  7  Z    0.000000   0.000000  -0.000000  -0.000000  -0.000000
  177  H  7  X    0.000044   0.000038  -0.000058  -0.000052  -0.001318
  178  H  7  Y   -0.000083   0.000042  -0.000309  -0.000722   0.001144
  179  H  7  Z    0.000000   0.000000  -0.000000  -0.000000  -0.000000
  180  H  7 XX   -0.000010  -0.000010  -0.000019   0.000122   0.000741
  181  H  7 YY    0.000005   0.000009  -0.000052  -0.000180  -0.000117
  182  H  7 ZZ    0.000005   0.000001   0.000071   0.000058  -0.000624
  183  H  7 XY    0.000010  -0.000026   0.000014   0.000228  -0.001128
  184  H  7 XZ    0.000000   0.000000  -0.000000  -0.000000  -0.000000
  185  H  7 YZ    0.000000   0.000000  -0.000000  -0.000000  -0.000000
  186  C  8  S    0.000026  -0.000001   0.997181  -0.000040  -0.000689
  187  C  8  S   -0.000298  -0.000027   0.003616   0.000009   0.000126
  188  C  8  S   -0.001218  -0.000066  -0.006401  -0.000121   0.001192
  189  C  8  S    0.003583   0.001342  -0.001905  -0.000066  -0.004250
  190  C  8  X   -0.000023   0.000005  -0.000502   0.000010  -0.000030
  191  C  8  Y   -0.000274   0.000005  -0.001415   0.000016   0.000007
  192  C  8  Z    0.000000   0.000000  -0.000000  -0.000000  -0.000000
  193  C  8  X   -0.000194   0.000089  -0.001987   0.000263   0.000097
  194  C  8  Y   -0.000855  -0.000017  -0.006573   0.000774  -0.000030
  195  C  8  Z    0.000000   0.000000  -0.000000  -0.000000  -0.000000
  196  C  8  X   -0.001403  -0.000448  -0.001994  -0.000630   0.000543
  197  C  8  Y    0.001102   0.000535   0.001626   0.000636   0.000989
  198  C  8  Z    0.000000   0.000000  -0.000000  -0.000000  -0.000000
  199  C  8 XX    0.000076   0.000004  -0.000096   0.000052   0.000050
  200  C  8 YY   -0.000219  -0.000013  -0.000711  -0.000040  -0.000030
  201  C  8 ZZ    0.000143   0.000009   0.000807  -0.000012  -0.000020
  202  C  8 XY   -0.000015   0.000002   0.000173   0.000001  -0.000147
  203  C  8 XZ    0.000000   0.000000  -0.000000  -0.000000  -0.000000
  204  C  8 YZ    0.000000   0.000000  -0.000000  -0.000000  -0.000000
  205  C  8 XX    0.000264  -0.000060   0.001001  -0.000593  -0.000654
  206  C  8 YY   -0.000573   0.000068  -0.002344   0.000514   0.000736
  207  C  8 ZZ    0.000309  -0.000008   0.001343   0.000079  -0.000082
  208  C  8 XY    0.000008  -0.000041   0.000614   0.000006   0.000915
  209  C  8 XZ    0.000000   0.000000  -0.000000  -0.000000  -0.000000
  210  C  8 YZ    0.000000   0.000000  -0.000000  -0.000000  -0.000000
  211  C  8 XXX   0.000007   0.000008  -0.000081   0.000048   0.000075
  212  C  8 YYY  -0.000074  -0.000010  -0.000758  -0.000001  -0.000023
  213  C  8 ZZZ   0.000000   0.000000  -0.000000  -0.000000  -0.000000
  214  C  8 XXY   0.000026   0.000009   0.000712   0.000039   0.000034
  215  C  8 XXZ   0.000000   0.000000  -0.000000  -0.000000  -0.000000
  216  C  8 YYX  -0.000012  -0.000009  -0.000182  -0.000046  -0.000086
  217  C  8 YYZ   0.000000   0.000000  -0.000000  -0.000000  -0.000000
  218  C  8 ZZX   0.000003  -0.000002   0.000290  -0.000018  -0.000015
  219  C  8 ZZY   0.000073   0.000005   0.000304  -0.000037  -0.000003
  220  C  8 XYZ   0.000000   0.000000  -0.000000  -0.000000  -0.000000
  221  H  9  S    0.000006  -0.000075   0.000060   0.000811   0.000291
  222  H  9  S    0.000020   0.000509   0.000676   0.003613   0.000313
  223  H  9  S    0.000197   0.002017   0.000431   0.002012   0.001677
  224  H  9  X    0.000003  -0.000044  -0.000004   0.000722   0.000003
  225  H  9  Y    0.000003   0.000032  -0.000026  -0.000300   0.000058
  226  H  9  Z    0.000000   0.000000  -0.000000  -0.000000  -0.000000
  227  H  9  X   -0.000011   0.000180   0.000141   0.001789   0.000377
  228  H  9  Y   -0.000008  -0.000185  -0.000134  -0.001452   0.000384
  229  H  9  Z    0.000000   0.000000  -0.000000  -0.000000  -0.000000
  230  H  9 XX   -0.000002   0.000012  -0.000021   0.000990   0.000080
  231  H  9 YY   -0.000002   0.000064   0.000019  -0.000211  -0.000141
  232  H  9 ZZ    0.000004  -0.000075   0.000002  -0.000779   0.000060
  233  H  9 XY   -0.000000   0.000009  -0.000035  -0.001151   0.000221
  234  H  9 XZ    0.000000   0.000000  -0.000000  -0.000000  -0.000000
  235  H  9 YZ    0.000000   0.000000  -0.000000  -0.000000  -0.000000
  236  H 10  S   -0.000087  -0.000009   0.000736   0.000061   0.000302
  237  H 10  S    0.000467  -0.000035   0.003528   0.000574   0.000042
  238  H 10  S    0.000539   0.000199   0.001816   0.000430   0.000231
  239  H 10  X    0.000019  -0.000003  -0.000660   0.000004  -0.000105
  240  H 10  Y   -0.000040  -0.000003   0.000328   0.000019   0.000020
  241  H 10  Z    0.000000   0.000000  -0.000000  -0.000000  -0.000000
  242  H 10  X   -0.000210   0.000033  -0.001767  -0.000136   0.000189
  243  H 10  Y    0.000113   0.000032   0.001525   0.000155   0.000140
  244  H 10  Z    0.000000   0.000000  -0.000000  -0.000000  -0.000000
  245  H 10 XX    0.000060  -0.000005   0.000908  -0.000018  -0.000067
  246  H 10 YY    0.000000   0.000006  -0.000107   0.000022  -0.000004
  247  H 10 ZZ   -0.000061  -0.000001  -0.000802  -0.000003   0.000071
  248  H 10 XY   -0.000019  -0.000006  -0.001255  -0.000029  -0.000008
  249  H 10 XZ    0.000000   0.000000  -0.000000  -0.000000  -0.000000
  250  H 10 YZ    0.000000   0.000000  -0.000000  -0.000000  -0.000000
  251  O 11  S    0.996505  -0.000002  -0.000965   0.000012   0.000013
  252  O 11  S    0.013079  -0.000012  -0.002482   0.000066   0.000068
  253  O 11  S    0.001972   0.000001   0.009682  -0.000625  -0.000665
  254  O 11  S   -0.002152  -0.000145   0.003846  -0.000232   0.000068
  255  O 11  X   -0.000076  -0.000006   0.000007   0.000014   0.000050
  256  O 11  Y   -0.001489   0.000001   0.000011  -0.000003  -0.000013
  257  O 11  Z    0.000000   0.000000  -0.000000  -0.000000  -0.000000
  258  O 11  X   -0.000019   0.000038  -0.000399  -0.000027  -0.000368
  259  O 11  Y   -0.000429   0.000011  -0.007849   0.000374   0.000488
  260  O 11  Z    0.000000   0.000000  -0.000000  -0.000000  -0.000000
  261  O 11  X    0.000148  -0.000158   0.000336  -0.000012   0.000011
  262  O 11  Y   -0.000080  -0.000104  -0.001465  -0.000126  -0.000104
  263  O 11  Z    0.000000   0.000000  -0.000000  -0.000000  -0.000000
  264  O 11 XX    0.000061  -0.000003  -0.000016  -0.000011  -0.000016
  265  O 11 YY    0.000112  -0.000002   0.000074  -0.000003   0.000018
  266  O 11 ZZ   -0.000173   0.000005  -0.000059   0.000014  -0.000002
  267  O 11 XY    0.000007  -0.000003   0.000001  -0.000011  -0.000044
  268  O 11 XZ    0.000000   0.000000  -0.000000  -0.000000  -0.000000
  269  O 11 YZ    0.000000   0.000000  -0.000000  -0.000000  -0.000000
  270  O 11 XX   -0.000144   0.000005  -0.002055   0.000075   0.000127
  271  O 11 YY    0.000474   0.000013   0.003821  -0.000049  -0.000164
  272  O 11 ZZ   -0.000330  -0.000018  -0.001766  -0.000026   0.000037
  273  O 11 XY    0.000021   0.000003   0.000325   0.000022   0.000267
  274  O 11 XZ    0.000000   0.000000  -0.000000  -0.000000  -0.000000
  275  O 11 YZ    0.000000   0.000000  -0.000000  -0.000000  -0.000000
  276  O 11 XXX   0.000015  -0.000003   0.000142  -0.000007   0.000031
  277  O 11 YYY  -0.000251  -0.000005  -0.001690  -0.000007   0.000021
  278  O 11 ZZZ   0.000000   0.000000  -0.000000  -0.000000  -0.000000
  279  O 11 XXY   0.000180   0.000002   0.001219  -0.000014  -0.000038
  280  O 11 XXZ   0.000000   0.000000  -0.000000  -0.000000  -0.000000
  281  O 11 YYX  -0.000028   0.000006  -0.000240   0.000010  -0.000054
  282  O 11 YYZ   0.000000   0.000000  -0.000000  -0.000000  -0.000000
  283  O 11 ZZX   0.000008  -0.000001   0.000049  -0.000000   0.000012
  284  O 11 ZZY   0.000157   0.000004   0.001049   0.000023   0.000010
  285  O 11 XYZ   0.000000   0.000000  -0.000000  -0.000000  -0.000000

                      6          7          8          9         10
                  -11.2385    -1.4227    -1.2406    -1.0971    -0.9244
                     A'         A'         A'         A'         A'  
    1  N  1  S    0.000023  -0.000243  -0.188116   0.057138  -0.067343
    2  N  1  S    0.000172   0.000355   0.268406  -0.082285   0.105631
    3  N  1  S   -0.001469  -0.000270   0.287191  -0.090519   0.075817
    4  N  1  S    0.001061   0.011111   0.090772  -0.027806   0.050942
    5  N  1  X   -0.000014   0.000007  -0.039353   0.025332  -0.059007
    6  N  1  Y    0.000019   0.000135   0.094757  -0.009373  -0.048955
    7  N  1  Z   -0.000000   0.000000   0.000000   0.000000   0.000000
    8  N  1  X    0.000175  -0.000938  -0.020139   0.014180  -0.042010
    9  N  1  Y   -0.001028  -0.000659   0.081730  -0.013843  -0.058206
   10  N  1  Z   -0.000000   0.000000   0.000000   0.000000   0.000000
   11  N  1  X   -0.000214  -0.001791   0.008456  -0.009890   0.008581
   12  N  1  Y    0.000133   0.001464   0.011356  -0.003860  -0.000321
   13  N  1  Z   -0.000000   0.000000   0.000000   0.000000   0.000000
   14  N  1 XX   -0.000020  -0.000029  -0.001426  -0.000608   0.002903
   15  N  1 YY    0.000032   0.000029   0.007497  -0.000907  -0.001627
   16  N  1 ZZ   -0.000012   0.000000  -0.006071   0.001515  -0.001277
   17  N  1 XY   -0.000032   0.000007   0.000566   0.000035   0.000958
   18  N  1 XZ   -0.000000   0.000000   0.000000   0.000000   0.000000
   19  N  1 YZ   -0.000000   0.000000   0.000000   0.000000   0.000000
   20  N  1 XX    0.000169   0.000377  -0.008593   0.001909   0.007380
   21  N  1 YY   -0.000268  -0.000220   0.017424  -0.004871  -0.007363
   22  N  1 ZZ    0.000099  -0.000158  -0.008831   0.002963  -0.000017
   23  N  1 XY    0.000252   0.000067  -0.005919   0.003750  -0.003569
   24  N  1 XZ   -0.000000   0.000000   0.000000   0.000000   0.000000
   25  N  1 YZ   -0.000000   0.000000   0.000000   0.000000   0.000000
   26  N  1 XXX  -0.000008  -0.000013   0.000320  -0.000737   0.001224
   27  N  1 YYY   0.000006   0.000026   0.003523  -0.001124  -0.000193
   28  N  1 ZZZ  -0.000000   0.000000   0.000000   0.000000   0.000000
   29  N  1 XXY  -0.000020  -0.000023  -0.002344   0.000537   0.000487
   30  N  1 XXZ  -0.000000   0.000000   0.000000   0.000000   0.000000
   31  N  1 YYX   0.000019  -0.000033  -0.000583   0.001226  -0.002164
   32  N  1 YYZ  -0.000000   0.000000   0.000000   0.000000   0.000000
   33  N  1 ZZX  -0.000007   0.000051   0.000154  -0.000237   0.000521
   34  N  1 ZZY   0.000011  -0.000012  -0.002383   0.000971  -0.000228
   35  N  1 XYZ  -0.000000   0.000000   0.000000   0.000000   0.000000
   36  H  2  S   -0.000038   0.000066   0.096303  -0.042431   0.087400
   37  H  2  S   -0.000304  -0.003561   0.061883  -0.037101   0.073876
   38  H  2  S   -0.000257  -0.000290  -0.000338  -0.007095   0.004229
   39  H  2  X   -0.000020   0.000012   0.008206  -0.003516   0.006757
   40  H  2  Y    0.000000   0.000019   0.005564  -0.002131   0.003084
   41  H  2  Z   -0.000000   0.000000   0.000000   0.000000   0.000000
   42  H  2  X   -0.000094  -0.000734   0.017524  -0.008632   0.013277
   43  H  2  Y    0.000039  -0.000512   0.009007  -0.003724   0.005154
   44  H  2  Z   -0.000000   0.000000   0.000000   0.000000   0.000000
   45  H  2 XX   -0.000023  -0.000031   0.002121  -0.001062   0.002287
   46  H  2 YY    0.000021  -0.000005  -0.000359   0.000295  -0.000948
   47  H  2 ZZ    0.000002   0.000037  -0.001762   0.000767  -0.001339
   48  H  2 XY    0.000007  -0.000061   0.002931  -0.001433   0.002126
   49  H  2 XZ   -0.000000   0.000000   0.000000   0.000000   0.000000
   50  H  2 YZ   -0.000000   0.000000   0.000000   0.000000   0.000000
   51  H  3  S    0.000729   0.006946   0.006910   0.064150   0.043303
   52  H  3  S    0.003095   0.008611   0.013374   0.053875   0.027830
   53  H  3  S    0.000469   0.014355   0.003600   0.005491  -0.007766
   54  H  3  X    0.000646   0.000894   0.000370   0.003756   0.003672
   55  H  3  Y   -0.000393   0.000043  -0.000451  -0.003277   0.000045
   56  H  3  Z   -0.000000   0.000000   0.000000   0.000000   0.000000
   57  H  3  X    0.001409   0.000638   0.002580   0.009960   0.003405
   58  H  3  Y   -0.001039  -0.002057  -0.001411  -0.005001  -0.002564
   59  H  3  Z   -0.000000   0.000000   0.000000   0.000000   0.000000
   60  H  3 XX    0.000796   0.000059   0.000120   0.000654   0.001223
   61  H  3 YY   -0.000151  -0.000162  -0.000064  -0.000080  -0.000845
   62  H  3 ZZ   -0.000645   0.000102  -0.000055  -0.000574  -0.000377
   63  H  3 XY   -0.001145  -0.000155  -0.000201  -0.000841  -0.000177
   64  H  3 XZ   -0.000000   0.000000   0.000000   0.000000   0.000000
   65  H  3 YZ   -0.000000   0.000000   0.000000   0.000000   0.000000
   66  C  4  S    0.001455  -0.000652  -0.143119  -0.020901   0.092376
   67  C  4  S   -0.000140   0.000717   0.208869   0.024337  -0.139689
   68  C  4  S    0.002959   0.000163   0.110049   0.069484  -0.097787
   69  C  4  S   -0.008089  -0.043212   0.044795  -0.065213  -0.117450
   70  C  4  X    0.000045   0.000364   0.010290   0.038594  -0.061563
   71  C  4  Y   -0.000028   0.000213  -0.111487   0.077580  -0.096364
   72  C  4  Z   -0.000000   0.000000   0.000000   0.000000   0.000000
   73  C  4  X    0.000219  -0.000969  -0.005105   0.049747  -0.042661
   74  C  4  Y   -0.000315  -0.001643  -0.052859   0.052476  -0.102032
   75  C  4  Z   -0.000000   0.000000   0.000000   0.000000   0.000000
   76  C  4  X   -0.001780  -0.014857   0.006518  -0.015739  -0.031058
   77  C  4  Y   -0.001244   0.001261   0.015098  -0.022205  -0.014373
   78  C  4  Z   -0.000000   0.000000   0.000000   0.000000   0.000000
   79  C  4 XX    0.000097   0.000045  -0.004184   0.003173  -0.005575
   80  C  4 YY   -0.000098  -0.000038   0.013104  -0.002489   0.001684
   81  C  4 ZZ    0.000001  -0.000007  -0.008920  -0.000684   0.003891
   82  C  4 XY   -0.000068   0.000120   0.000291   0.001952  -0.000839
   83  C  4 XZ   -0.000000   0.000000   0.000000   0.000000   0.000000
   84  C  4 YZ   -0.000000   0.000000   0.000000   0.000000   0.000000
   85  C  4 XX   -0.000896  -0.000514  -0.009306   0.008623  -0.015021
   86  C  4 YY    0.001103   0.000557   0.014083  -0.003002   0.013657
   87  C  4 ZZ   -0.000207  -0.000043  -0.004777  -0.005622   0.001364
   88  C  4 XY    0.000457  -0.000740  -0.001304   0.013797  -0.014541
   89  C  4 XZ   -0.000000   0.000000   0.000000   0.000000   0.000000
   90  C  4 YZ   -0.000000   0.000000   0.000000   0.000000   0.000000
   91  C  4 XXX  -0.000089  -0.000005  -0.000253   0.000162  -0.000568
   92  C  4 YYY   0.000109   0.000041  -0.006192   0.000319  -0.000098
   93  C  4 ZZZ  -0.000000   0.000000   0.000000   0.000000   0.000000
   94  C  4 XXY  -0.000203  -0.000042   0.005333   0.001458  -0.002593
   95  C  4 XXZ  -0.000000   0.000000   0.000000   0.000000   0.000000
   96  C  4 YYX   0.000053   0.000016   0.000703   0.001362  -0.001126
   97  C  4 YYZ  -0.000000   0.000000   0.000000   0.000000   0.000000
   98  C  4 ZZX   0.000067  -0.000009  -0.000362  -0.001580   0.001888
   99  C  4 ZZY   0.000058  -0.000013   0.002975  -0.001887   0.002724
  100  C  4 XYZ  -0.000000   0.000000   0.000000   0.000000   0.000000
  101  C  5  S   -0.131350  -0.003591  -0.048183  -0.152006   0.093493
  102  C  5  S   -0.000823   0.005247   0.064470   0.221246  -0.139848
  103  C  5  S    0.001492   0.001045   0.074858   0.155320  -0.064800
  104  C  5  S    0.009630   0.001583   0.012887   0.064039  -0.015846
  105  C  5  X    0.000078   0.001081  -0.022385  -0.005765   0.067970
  106  C  5  Y    0.000144   0.003279  -0.015127   0.080440   0.079635
  107  C  5  Z   -0.000000   0.000000   0.000000   0.000000   0.000000
  108  C  5  X    0.000731  -0.004791  -0.035238   0.004783   0.049845
  109  C  5  Y    0.003420   0.001977  -0.021910   0.065391   0.117017
  110  C  5  Z   -0.000000   0.000000   0.000000   0.000000   0.000000
  111  C  5  X   -0.004263  -0.035539  -0.002709  -0.038213  -0.034608
  112  C  5  Y   -0.000528  -0.023962   0.040976  -0.024371  -0.028453
  113  C  5  Z   -0.000000   0.000000   0.000000   0.000000   0.000000
  114  C  5 XX    0.000293  -0.000146   0.000512  -0.000723  -0.004603
  115  C  5 YY   -0.000100   0.000443   0.002019   0.008243   0.000545
  116  C  5 ZZ   -0.000193  -0.000297  -0.002531  -0.007520   0.004058
  117  C  5 XY   -0.000067   0.000152   0.001387   0.000602  -0.001359
  118  C  5 XZ   -0.000000   0.000000   0.000000   0.000000   0.000000
  119  C  5 YZ   -0.000000   0.000000   0.000000   0.000000   0.000000
  120  C  5 XX   -0.002377  -0.000286   0.003903  -0.006714  -0.016167
  121  C  5 YY    0.003103  -0.000413   0.002063   0.011410   0.013824
  122  C  5 ZZ   -0.000726   0.000698  -0.005966  -0.004696   0.002343
  123  C  5 XY   -0.000358   0.002119   0.011634   0.001578  -0.007251
  124  C  5 XZ   -0.000000   0.000000   0.000000   0.000000   0.000000
  125  C  5 YZ   -0.000000   0.000000   0.000000   0.000000   0.000000
  126  C  5 XXX   0.000007  -0.000265  -0.000001  -0.000628   0.000156
  127  C  5 YYY   0.001317  -0.000086   0.000996   0.003673  -0.000628
  128  C  5 ZZZ  -0.000000   0.000000   0.000000   0.000000   0.000000
  129  C  5 XXY  -0.001069   0.000032  -0.002078  -0.003434   0.003004
  130  C  5 XXZ  -0.000000   0.000000   0.000000   0.000000   0.000000
  131  C  5 YYX   0.000065   0.000279  -0.001254   0.000459   0.001947
  132  C  5 YYZ  -0.000000   0.000000   0.000000   0.000000   0.000000
  133  C  5 ZZX  -0.000075   0.000076   0.001256   0.000383  -0.002156
  134  C  5 ZZY  -0.000698   0.000083   0.000741  -0.001494  -0.002162
  135  C  5 XYZ  -0.000000   0.000000   0.000000   0.000000   0.000000
  136  C  6  S    0.988406  -0.018945  -0.018493  -0.161673  -0.083979
  137  C  6  S    0.004716   0.022595   0.026314   0.233524   0.126283
  138  C  6  S    0.001452   0.036725   0.021681   0.162930   0.051888
  139  C  6  S   -0.012878   0.015624  -0.020819   0.080698   0.004366
  140  C  6  X    0.000420   0.011899  -0.002027   0.016938   0.071401
  141  C  6  Y    0.000545   0.011711  -0.014146  -0.071190   0.083086
  142  C  6  Z   -0.000000   0.000000   0.000000   0.000000   0.000000
  143  C  6  X    0.002330   0.023010   0.005316   0.005646   0.051739
  144  C  6  Y    0.001737   0.015170  -0.010016  -0.048435   0.118616
  145  C  6  Z   -0.000000   0.000000   0.000000   0.000000   0.000000
  146  C  6  X   -0.001115   0.021762   0.028796   0.020541  -0.037271
  147  C  6  Y   -0.000277  -0.008944   0.025415  -0.018767  -0.037897
  148  C  6  Z   -0.000000   0.000000   0.000000   0.000000   0.000000
  149  C  6 XX   -0.000258   0.000170  -0.000376  -0.000262   0.004929
  150  C  6 YY   -0.000303   0.000700   0.001488   0.008194  -0.001251
  151  C  6 ZZ    0.000561  -0.000870  -0.001112  -0.007932  -0.003679
  152  C  6 XY    0.000287   0.000709   0.000273   0.000748   0.001506
  153  C  6 XZ   -0.000000   0.000000   0.000000   0.000000   0.000000
  154  C  6 YZ   -0.000000   0.000000   0.000000   0.000000   0.000000
  155  C  6 XX    0.000394   0.001884  -0.000973  -0.004157   0.017608
  156  C  6 YY   -0.000240   0.002258   0.000799   0.009439  -0.016036
  157  C  6 ZZ   -0.000153  -0.004142   0.000174  -0.005282  -0.001572
  158  C  6 XY    0.000551   0.008471   0.002922   0.003657   0.006129
  159  C  6 XZ   -0.000000   0.000000   0.000000   0.000000   0.000000
  160  C  6 YZ   -0.000000   0.000000   0.000000   0.000000   0.000000
  161  C  6 XXX   0.000179   0.000006   0.000352   0.000697   0.000474
  162  C  6 YYY   0.000302  -0.000187  -0.000233  -0.003809  -0.000511
  163  C  6 ZZZ  -0.000000   0.000000   0.000000   0.000000   0.000000
  164  C  6 XXY  -0.000426   0.000904   0.000297   0.003852   0.002873
  165  C  6 XXZ  -0.000000   0.000000   0.000000   0.000000   0.000000
  166  C  6 YYX   0.000070   0.000865  -0.000397  -0.000186   0.001561
  167  C  6 YYZ  -0.000000   0.000000   0.000000   0.000000   0.000000
  168  C  6 ZZX  -0.000309  -0.000872  -0.000075  -0.000749  -0.002197
  169  C  6 ZZY   0.000020  -0.000653   0.000015   0.001259  -0.002187
  170  C  6 XYZ  -0.000000   0.000000   0.000000   0.000000   0.000000
  171  H  7  S   -0.000085   0.001466   0.018873   0.061467  -0.048437
  172  H  7  S   -0.000041   0.008895   0.017658   0.052653  -0.032314
  173  H  7  S    0.001025   0.007180   0.013197   0.000482   0.008399
  174  H  7  X    0.000256  -0.000079  -0.001807  -0.003414   0.003968
  175  H  7  Y   -0.000048   0.000044   0.000224   0.003363  -0.000021
  176  H  7  Z   -0.000000   0.000000   0.000000   0.000000   0.000000
  177  H  7  X    0.000531  -0.001807  -0.002341  -0.010122   0.004620
  178  H  7  Y    0.000389   0.001238   0.002246   0.004776  -0.003727
  179  H  7  Z   -0.000000   0.000000   0.000000   0.000000   0.000000
  180  H  7 XX   -0.000443   0.000099   0.000347   0.000571  -0.001300
  181  H  7 YY    0.000290  -0.000047  -0.000419   0.000001   0.000809
  182  H  7 ZZ    0.000153  -0.000052   0.000072  -0.000572   0.000491
  183  H  7 XY    0.000152  -0.000147  -0.000087  -0.000885   0.000196
  184  H  7 XZ   -0.000000   0.000000   0.000000   0.000000   0.000000
  185  H  7 YZ   -0.000000   0.000000   0.000000   0.000000   0.000000
  186  C  8  S   -0.005071  -0.122747  -0.002593  -0.049637  -0.102019
  187  C  8  S    0.000638   0.179097   0.002917   0.070370   0.156944
  188  C  8  S   -0.003561   0.063512   0.007592   0.088078   0.125691
  189  C  8  S    0.007133   0.000369  -0.039554  -0.015656   0.110512
  190  C  8  X    0.000093   0.001659  -0.003190  -0.045174  -0.053736
  191  C  8  Y   -0.000036   0.137053  -0.005665  -0.070353  -0.094922
  192  C  8  Z   -0.000000   0.000000   0.000000   0.000000   0.000000
  193  C  8  X    0.000627   0.008115  -0.000859  -0.050396  -0.043175
  194  C  8  Y   -0.000306   0.050470  -0.000389  -0.052970  -0.089885
  195  C  8  Z   -0.000000   0.000000   0.000000   0.000000   0.000000
  196  C  8  X   -0.003054   0.000860   0.015442  -0.002565  -0.034076
  197  C  8  Y   -0.000977  -0.018404   0.005618   0.008597  -0.014122
  198  C  8  Z   -0.000000   0.000000   0.000000   0.000000   0.000000
  199  C  8 XX   -0.000141  -0.007418   0.000363   0.003303   0.005762
  200  C  8 YY    0.000179   0.017255  -0.000251  -0.001274  -0.001708
  201  C  8 ZZ   -0.000038  -0.009838  -0.000112  -0.002029  -0.004054
  202  C  8 XY   -0.000295   0.001355   0.000326   0.001787   0.000793
  203  C  8 XZ   -0.000000   0.000000   0.000000   0.000000   0.000000
  204  C  8 YZ   -0.000000   0.000000   0.000000   0.000000   0.000000
  205  C  8 XX    0.000830  -0.012488  -0.000573   0.010107   0.014909
  206  C  8 YY   -0.001090   0.016689   0.001016  -0.004287  -0.012960
  207  C  8 ZZ    0.000260  -0.004201  -0.000443  -0.005820  -0.001949
  208  C  8 XY    0.001468  -0.000665  -0.000374   0.015159   0.013403
  209  C  8 XZ   -0.000000   0.000000   0.000000   0.000000   0.000000
  210  C  8 YZ   -0.000000   0.000000   0.000000   0.000000   0.000000
  211  C  8 XXX  -0.000204  -0.000705   0.000031  -0.000381  -0.001129
  212  C  8 YYY   0.000307   0.008339   0.000002   0.000436   0.000345
  213  C  8 ZZZ  -0.000000   0.000000   0.000000   0.000000   0.000000
  214  C  8 XXY  -0.000640  -0.006782  -0.000086  -0.002319  -0.002857
  215  C  8 XXZ  -0.000000   0.000000   0.000000   0.000000   0.000000
  216  C  8 YYX   0.000034   0.001141  -0.000132  -0.001132  -0.000203
  217  C  8 YYZ  -0.000000   0.000000   0.000000   0.000000   0.000000
  218  C  8 ZZX   0.000241  -0.000195   0.000090   0.001643   0.001718
  219  C  8 ZZY   0.000229  -0.004407   0.000083   0.001734   0.002395
  220  C  8 XYZ  -0.000000   0.000000   0.000000   0.000000   0.000000
  221  H  9  S    0.000241   0.000048   0.041012   0.014627  -0.057161
  222  H  9  S    0.000012   0.000717   0.027051   0.018328  -0.043503
[...]
             35  N  1 XYZ     0.00000     0.00005
             36  H  2  S      0.43156     0.26132
             37  H  2  S      0.38038     0.21023
             38  H  2  S      0.01326     0.06619
             39  H  2  X      0.00866     0.01052
             40  H  2  Y      0.00329     0.00566
             41  H  2  Z      0.00127     0.00225
             42  H  2  X      0.02681     0.06870
             43  H  2  Y      0.01447     0.04078
             44  H  2  Z      0.01251     0.03529
             45  H  2 XX      0.00061     0.11284
             46  H  2 YY      0.00174     0.08053
             47  H  2 ZZ      0.00176     0.06746
             48  H  2 XY      0.00071     0.00854
             49  H  2 XZ      0.00028     0.00437
             50  H  2 YZ      0.00000     0.00157
             51  H  3  S      0.43469     0.26370
             52  H  3  S      0.47123     0.25218
             53  H  3  S      0.04383     0.08606
             54  H  3  X      0.00456     0.00489
             55  H  3  Y      0.00213     0.00275
             56  H  3  Z      0.00090     0.00116
             57  H  3  X      0.01780     0.03412
             58  H  3  Y      0.01008     0.02304
             59  H  3  Z      0.00610     0.02369
             60  H  3 XX      0.00034     0.09799
             61  H  3 YY      0.00077     0.08460
             62  H  3 ZZ      0.00102     0.07330
             63  H  3 XY      0.00034     0.00388
             64  H  3 XZ      0.00022     0.00183
             65  H  3 YZ      0.00000     0.00095
             66  C  4  S      1.99830     1.94137
             67  C  4  S      0.53940     0.20433
             68  C  4  S      0.31945     0.19102
             69  C  4  S      0.19865     0.10898
             70  C  4  X      0.46230     0.28886
             71  C  4  Y      0.50832     0.32321
             72  C  4  Z      0.33347     0.21754
             73  C  4  X      0.43664     0.29255
             74  C  4  Y      0.35091     0.24605
             75  C  4  Z      0.42964     0.26768
             76  C  4  X      0.01978     0.10967
             77  C  4  Y     -0.01382     0.09615
             78  C  4  Z      0.09613     0.12810
             79  C  4 XX      0.00190     0.08034
             80  C  4 YY      0.00607     0.09689
             81  C  4 ZZ      0.00704     0.06732
             82  C  4 XY      0.00035     0.00764
             83  C  4 XZ      0.00244     0.00028
             84  C  4 YZ      0.00000     0.00231
             85  C  4 XX      0.00305     0.11688
             86  C  4 YY      0.02262     0.13772
             87  C  4 ZZ      0.04975     0.06282
             88  C  4 XY      0.00356     0.11347
             89  C  4 XZ      0.02105     0.00954
             90  C  4 YZ      0.00000     0.04216
             91  C  4 XXX     0.00237     0.15198
             92  C  4 YYY     0.00090     0.18718
             93  C  4 ZZZ     0.00060     0.09967
             94  C  4 XXY     0.00101     0.07727
             95  C  4 XXZ     0.00112     0.04480
             96  C  4 YYX     0.00029     0.08501
             97  C  4 YYZ     0.00149     0.07134
             98  C  4 ZZX     0.00000     0.05858
             99  C  4 ZZY     0.00000     0.05920
            100  C  4 XYZ     0.00000     0.00067
            101  C  5  S      1.99787     1.94233
            102  C  5  S      0.53865     0.20461
            103  C  5  S      0.35254     0.19645
            104  C  5  S      0.13868     0.10397
            105  C  5  X      0.46460     0.29160
            106  C  5  Y      0.52333     0.33254
            107  C  5  Z      0.33645     0.22011
            108  C  5  X      0.46393     0.29378
            109  C  5  Y      0.49524     0.27145
            110  C  5  Z      0.45553     0.28783
            111  C  5  X     -0.00738     0.11372
            112  C  5  Y     -0.08891     0.10154
            113  C  5  Z      0.12806     0.15252
            114  C  5 XX      0.00146     0.08142
            115  C  5 YY      0.00392     0.09164
            116  C  5 ZZ      0.00396     0.06847
            117  C  5 XY      0.00030     0.00397
            118  C  5 XZ      0.00153     0.00023
            119  C  5 YZ      0.00000     0.00138
            120  C  5 XX      0.00292     0.11756
            121  C  5 YY      0.02256     0.12708
            122  C  5 ZZ      0.03422     0.06828
            123  C  5 XY      0.00300     0.06345
            124  C  5 XZ      0.01576     0.00850
            125  C  5 YZ      0.00000     0.03094
            126  C  5 XXX     0.00123     0.15529
            127  C  5 YYY     0.00053     0.17906
            128  C  5 ZZZ     0.00066     0.10426
            129  C  5 XXY     0.00085     0.08499
            130  C  5 XXZ     0.00085     0.04726
            131  C  5 YYX     0.00027     0.08251
            132  C  5 YYZ     0.00105     0.06455
            133  C  5 ZZX     0.00000     0.05987
            134  C  5 ZZY     0.00000     0.06597
            135  C  5 XYZ     0.00000     0.00060
            136  C  6  S      1.99790     1.94239
            137  C  6  S      0.53554     0.20490
            138  C  6  S      0.34558     0.19768
            139  C  6  S      0.15145     0.10572
            140  C  6  X      0.46047     0.28958
            141  C  6  Y      0.51899     0.32975
            142  C  6  Z      0.35437     0.23254
            143  C  6  X      0.45978     0.29306
            144  C  6  Y      0.48704     0.27342
            145  C  6  Z      0.48131     0.30316
            146  C  6  X     -0.00487     0.11388
            147  C  6  Y     -0.03989     0.09742
            148  C  6  Z      0.14048     0.15758
            149  C  6 XX      0.00143     0.08157
            150  C  6 YY      0.00386     0.09148
            151  C  6 ZZ      0.00391     0.06872
            152  C  6 XY      0.00023     0.00393
            153  C  6 XZ      0.00133     0.00018
            154  C  6 YZ      0.00000     0.00118
            155  C  6 XX      0.00280     0.11750
            156  C  6 YY      0.02220     0.12687
            157  C  6 ZZ      0.03297     0.06975
            158  C  6 XY      0.00208     0.06402
            159  C  6 XZ      0.01295     0.00653
            160  C  6 YZ      0.00000     0.02553
            161  C  6 XXX     0.00119     0.15491
            162  C  6 YYY     0.00048     0.17843
            163  C  6 ZZZ     0.00068     0.11063
            164  C  6 XXY     0.00084     0.08507
            165  C  6 XXZ     0.00085     0.05019
            166  C  6 YYX     0.00019     0.08224
            167  C  6 YYZ     0.00105     0.06713
            168  C  6 ZZX     0.00000     0.05975
            169  C  6 ZZY     0.00000     0.06564
            170  C  6 XYZ     0.00000     0.00045
            171  H  7  S      0.43469     0.26441
            172  H  7  S      0.46960     0.24993
            173  H  7  S      0.04502     0.08563
            174  H  7  X      0.00466     0.00505
            175  H  7  Y      0.00208     0.00274
            176  H  7  Z      0.00084     0.00109
            177  H  7  X      0.01804     0.03456
            178  H  7  Y      0.01009     0.02327
            179  H  7  Z      0.00574     0.02227
            180  H  7 XX      0.00035     0.09891
            181  H  7 YY      0.00078     0.08406
            182  H  7 ZZ      0.00104     0.07358
            183  H  7 XY      0.00032     0.00397
            184  H  7 XZ      0.00021     0.00175
            185  H  7 YZ      0.00000     0.00090
            186  C  8  S      1.99829     1.94061
            187  C  8  S      0.54451     0.20537
            188  C  8  S      0.32976     0.18938
            189  C  8  S      0.14700     0.10978
            190  C  8  X      0.46803     0.29182
            191  C  8  Y      0.49790     0.31709
            192  C  8  Z      0.29880     0.19326
            193  C  8  X      0.43287     0.29052
            194  C  8  Y      0.28117     0.22851
            195  C  8  Z      0.36676     0.22945
            196  C  8  X     -0.01076     0.10175
            197  C  8  Y      0.00546     0.09505
            198  C  8  Z      0.05175     0.09932
            199  C  8 XX      0.00244     0.08065
            200  C  8 YY      0.00821     0.10335
            201  C  8 ZZ      0.01112     0.06728
            202  C  8 XY      0.00041     0.01259
            203  C  8 XZ      0.00373     0.00033
            204  C  8 YZ      0.00000     0.00376
            205  C  8 XX      0.00332     0.11397
            206  C  8 YY      0.02376     0.15191
            207  C  8 ZZ      0.06795     0.06089
            208  C  8 XY      0.00442     0.16197
            209  C  8 XZ      0.02700     0.01137
            210  C  8 YZ      0.00000     0.05439
            211  C  8 XXX     0.00387     0.14896
            212  C  8 YYY     0.00140     0.19529
            213  C  8 ZZZ     0.00051     0.08556
            214  C  8 XXY     0.00106     0.07104
            215  C  8 XXZ     0.00144     0.03878
            216  C  8 YYX     0.00030     0.09424
            217  C  8 YYZ     0.00234     0.07549
            218  C  8 ZZX     0.00000     0.05867
            219  C  8 ZZY     0.00000     0.05313
            220  C  8 XYZ     0.00000     0.00068
            221  H  9  S      0.43961     0.27012
            222  H  9  S      0.50755     0.26227
            223  H  9  S      0.04609     0.08858
            224  H  9  X      0.00444     0.00504
            225  H  9  Y      0.00188     0.00246
            226  H  9  Z      0.00072     0.00088
            227  H  9  X      0.01944     0.03486
            228  H  9  Y      0.00963     0.02328
            229  H  9  Z      0.00407     0.01889
            230  H  9 XX      0.00038     0.10020
            231  H  9 YY      0.00078     0.08546
            232  H  9 ZZ      0.00107     0.07612
            233  H  9 XY      0.00028     0.00376
            234  H  9 XZ      0.00017     0.00161
            235  H  9 YZ      0.00000     0.00078
            236  H 10  S      0.43929     0.27206
            237  H 10  S      0.51726     0.26635
            238  H 10  S      0.05325     0.09101
            239  H 10  X      0.00421     0.00495
            240  H 10  Y      0.00199     0.00244
            241  H 10  Z      0.00054     0.00060
            242  H 10  X      0.01947     0.03507
            243  H 10  Y      0.00936     0.02093
            244  H 10  Z      0.00249     0.01328
            245  H 10 XX      0.00037     0.09937
            246  H 10 YY      0.00075     0.08695
            247  H 10 ZZ      0.00118     0.07719
            248  H 10 XY      0.00024     0.00368
            249  H 10 XZ      0.00016     0.00117
            250  H 10 YZ      0.00000     0.00070
            251  O 11  S      1.99840     1.95987
            252  O 11  S      0.62354     0.34237
            253  O 11  S      0.86743     0.32836
            254  O 11  S      0.36266     0.20489
            255  O 11  X      0.79762     0.65661
            256  O 11  Y      0.65287     0.51587
            257  O 11  Z      0.50778     0.40610
            258  O 11  X      0.81903     0.45193
            259  O 11  Y      0.66249     0.37669
            260  O 11  Z      0.56168     0.31716
            261  O 11  X      0.24725     0.22371
            262  O 11  Y      0.10904     0.16920
            263  O 11  Z      0.19018     0.19998
            264  O 11 XX      0.00065     0.13481
            265  O 11 YY      0.00209     0.13795
            266  O 11 ZZ      0.00084     0.13383
            267  O 11 XY      0.00000     0.00064
            268  O 11 XZ      0.00131     0.00000
            269  O 11 YZ      0.00000     0.00102
            270  O 11 XX      0.00322     0.11390
            271  O 11 YY      0.01144     0.13092
            272  O 11 ZZ      0.00920     0.11217
            273  O 11 XY      0.00004     0.01524
            274  O 11 XZ      0.01430     0.00005
            275  O 11 YZ      0.00000     0.01309
            276  O 11 XXX     0.00130     0.23420
            277  O 11 YYY     0.00111     0.23452
            278  O 11 ZZZ     0.00005     0.15272
            279  O 11 XXY     0.00046     0.08400
            280  O 11 XXZ     0.00041     0.06826
            281  O 11 YYX     0.00001     0.10972
            282  O 11 YYZ     0.00111     0.08875
            283  O 11 ZZX     0.00000     0.11071
            284  O 11 ZZY     0.00000     0.08702
            285  O 11 XYZ     0.00000     0.00002

          ----- MULLIKEN ATOMIC OVERLAP POPULATIONS -----
          (OFF-DIAGONAL ELEMENTS NEED TO BE MULTIPLIED BY 2)

             1           2           3           4           5

    1    6.4357540
    2    0.3716454   0.5641389
    3    0.0004606  -0.0000849   0.6039761
    4    0.6763782  -0.0339824   0.0027565   4.5263555
    5   -0.1111597   0.0219960  -0.0475198   0.2158545   5.0109165
    6   -0.0021832  -0.0017067   0.4477410  -0.0309115   0.4834662
    7    0.0082656  -0.0006418   0.0017474  -0.0253699   0.4576564
    8   -0.0009051   0.0001009  -0.0225262  -0.0113910  -0.0321999
    9   -0.0476383  -0.0241374   0.0003750   0.4874021  -0.1412215
   10   -0.0001052   0.0000046   0.0035992  -0.0013592   0.0295181
   11    0.0000101  -0.0000027   0.0034926  -0.0009430   0.0063495

             6           7           8           9          10

    6    5.0363556
    7   -0.0685146   0.6091065
    8    0.2971324   0.0025934   4.3076827
    9    0.0132592   0.0055845  -0.0017550   0.7444978
   10   -0.1554370   0.0024353   0.4899875  -0.0002553   0.7469660
   11   -0.0419927   0.0005942   0.5461154   0.0000012  -0.0647681

            11

   11    7.9986292

          TOTAL MULLIKEN AND LOWDIN ATOMIC POPULATIONS
       ATOM         MULL.POP.    CHARGE          LOW.POP.     CHARGE
    1 NITROGEN      7.330522   -0.330522         7.053814   -0.053814
    2 HYDROGEN      0.897330    0.102670         0.976251    0.023749
    3 HYDROGEN      0.994017    0.005983         0.954131    0.045869
    4 CARBON        5.804790    0.195210         5.988574    0.011426
    5 CARBON        5.893656    0.106344         6.019727   -0.019727
    6 CARBON        5.977209    0.022791         6.052793   -0.052793
    7 HYDROGEN      0.993457    0.006543         0.952114    0.047886
    8 CARBON        5.574835    0.425165         5.936197    0.063803
    9 HYDROGEN      1.036112   -0.036112         0.974333    0.025667
   10 HYDROGEN      1.050586   -0.050586         0.975763    0.024237
   11 OXYGEN        8.447486   -0.447486         8.116303   -0.116303

          MULLIKEN SPHERICAL HARMONIC POPULATIONS
       ATOM           S       P       D      F      G      H      I    TOTAL
    1 NITROGEN      3.57    3.71    0.05   0.00   0.00   0.00   0.00    7.33
    2 HYDROGEN      0.83    0.07    0.01   0.00   0.00   0.00   0.00    0.90
    3 HYDROGEN      0.95    0.04    0.00   0.00   0.00   0.00   0.00    0.99
    4 CARBON        3.06    2.62    0.12   0.01   0.00   0.00   0.00    5.80
    5 CARBON        3.03    2.77    0.09   0.01   0.00   0.00   0.00    5.89
    6 CARBON        3.03    2.86    0.08   0.01   0.00   0.00   0.00    5.98
    7 HYDROGEN      0.95    0.04    0.00   0.00   0.00   0.00   0.00    0.99
    8 CARBON        3.02    2.39    0.15   0.01   0.00   0.00   0.00    5.57
    9 HYDROGEN      0.99    0.04    0.00   0.00   0.00   0.00   0.00    1.04
   10 HYDROGEN      1.01    0.04    0.00   0.00   0.00   0.00   0.00    1.05
   11 OXYGEN        3.85    4.55    0.04   0.00   0.00   0.00   0.00    8.45

          ---------------------
          ELECTROSTATIC MOMENTS
          ---------------------

 POINT   1           X           Y           Z (BOHR)    CHARGE
                 0.005402    0.006662    0.000000       -0.00 (A.U.)
         DX          DY          DZ         /D/  (DEBYE)
    -1.970379   -1.553064    0.000000    2.508864
 ...... END OF PROPERTY EVALUATION ......
 STEP CPU TIME =     0.23 TOTAL CPU TIME =      167.9 (    2.8 MIN)
 TOTAL WALL CLOCK TIME=      189.7 SECONDS, CPU UTILIZATION IS  88.52%

 BEGINNING ONE ELECTRON GRADIENT...
 ..... END OF 1-ELECTRON GRADIENT ......
 STEP CPU TIME =     0.17 TOTAL CPU TIME =      168.1 (    2.8 MIN)
 TOTAL WALL CLOCK TIME=      189.8 SECONDS, CPU UTILIZATION IS  88.53%

          ----------------------
          GRADIENT OF THE ENERGY
          ----------------------

 THE MINIMUM MEMORY REQUIRED FOR THIS RUN IS     597656 WORDS.
 USING    2881886 WORDS FOR 2E- DERIVATIVE INTEGRAL CONTRIBUTIONS.
 THE COARSE/FINE SCHWARZ SCREENINGS SKIPPED      1713929/     1840874 BLOCKS.
 THE NUMBER OF GRADIENT INTEGRAL BLOCKS COMPUTED WAS   4322449
 ...... END OF 2-ELECTRON GRADIENT ......
 STEP CPU TIME =   115.12 TOTAL CPU TIME =      283.2 (    4.7 MIN)
 TOTAL WALL CLOCK TIME=      305.0 SECONDS, CPU UTILIZATION IS  92.85%

                         ----------------------
                         GRADIENT OF THE ENERGY
                         ----------------------

 UNITS ARE HARTREE/BOHR    E'X               E'Y               E'Z 
    1 NITROGEN        -0.000234728       0.025256870       0.000000000
    2 HYDROGEN         0.000345494       0.000655557       0.000000000
    3 HYDROGEN         0.000464872      -0.000095573       0.000000000
    4 CARBON           0.006556594      -0.020108241       0.000000000
    5 CARBON          -0.004823639       0.008666732       0.000000000
    6 CARBON           0.004961984      -0.009350140       0.000000000
    7 HYDROGEN        -0.000325010      -0.000037615       0.000000000
    8 CARBON          -0.005825645       0.021443941       0.000000000
    9 HYDROGEN         0.000359055       0.000216389       0.000000000
   10 HYDROGEN        -0.000000224      -0.001095985       0.000000000
   11 OXYGEN          -0.001478753      -0.025551934       0.000000000

                   MAXIMUM GRADIENT =    0.025551934
                       RMS GRADIENT =    0.008610860
  $VIB   
          IVIB=   0 IATOM=   0 ICOORD=   0 E=     -283.8301622796
 -2.347280042E-04 2.525686968E-02 0.000000000E+00 3.454939772E-04 6.555565834E-04
  0.000000000E+00 4.648716910E-04-9.557326333E-05 0.000000000E+00 6.556593930E-03
 -2.010824121E-02 0.000000000E+00-4.823639339E-03 8.666731694E-03 0.000000000E+00
  4.961984252E-03-9.350140492E-03 0.000000000E+00-3.250100880E-04-3.761528448E-05
  0.000000000E+00-5.825644992E-03 2.144394146E-02 0.000000000E+00 3.590553152E-04
  2.163891434E-04 0.000000000E+00-2.239799890E-07-1.095984700E-03 0.000000000E+00
 -1.478752765E-03-2.555193361E-02 0.000000000E+00
 -1.970378739E+00-1.553063857E+00 0.000000000E+00

..... END OF SINGLE POINT GRADIENT .....
 STEP CPU TIME =     0.00 TOTAL CPU TIME =      283.2 (    4.7 MIN)
 TOTAL WALL CLOCK TIME=      305.0 SECONDS, CPU UTILIZATION IS  92.85%
              2881886  WORDS OF DYNAMIC MEMORY USED
 EXECUTION OF GAMESS TERMINATED NORMALLY Wed Aug  9 22:25:01 2017
 DDI: 263640 bytes (0.3 MB / 0 MWords) used by master data server.

 ----------------------------------------
 CPU timing information for all processes
 ========================================
 0: 275.964 + 7.227 = 283.191
 ----------------------------------------
 ddikick.x: exited gracefully.
unset echo
----- accounting info -----
Files used on the master node compute-1-1.local were:
-rw-rw-r-- 1 sarom sarom 163K Aug  9 22:19 /scratch/gvb-ncccco-pp3.F05
-rw-rw-r-- 1 sarom sarom 3.6G Aug  9 22:20 /scratch/gvb-ncccco-pp3.F08
-rw-rw-r-- 1 sarom sarom  11M Aug  9 22:25 /scratch/gvb-ncccco-pp3.F10
-rw-rw-r-- 1 sarom sarom 1.5M Aug  9 22:25 /scratch/gvb-ncccco-pp3.F15
-rw-rw-r-- 1 sarom sarom 6.3M Aug  9 22:23 /scratch/gvb-ncccco-pp3.F23
rm: cannot remove `/scratch/tmp': Is a directory
ls: No match.
ls: No match.
ls: No match.
Wed Aug  9 22:25:05 CDT 2017
0.262u 0.601s 5:08.99 0.2%	0+0k 0+680io 0pf+0w
/opt/gridengine/default/spool/compute-1-1/active_jobs/36212.1/pe_hostfile compute-1-1.local
