-catch_rsh /opt/gridengine/default/spool/compute-1-7/active_jobs/35942.1/pe_hostfile
compute-1-7
The primary node assigned by SGE to this run is compute-1-7
Warning: no access to tty (Bad file descriptor).
Thus no job control in this shell.
source /home/sarom/dir.git.branch.saromleang-travis-ci/install.info
setenv GMS_PATH /home/sarom/dir.git.branch.saromleang-travis-ci
setenv GMS_BUILD_DIR /home/sarom/dir.git.branch.saromleang-travis-ci
setenv GMS_TARGET linux64
setenv GMS_FORTRAN gfortran
setenv GMS_GFORTRAN_VERNO 4.4
setenv GMS_MATHLIB mkl-so
setenv GMS_MATHLIB none
setenv GMS_MATHLIB_PATH /share/apps/intel/compilers_and_libraries_2017.1.132/linux/mkl/lib/intel64
setenv GMS_MKL_VERNO 12
setenv GMS_DDI_COMM sockets
setenv GMS_LIBCCHEM false
setenv GMS_EIGEN_PATH
setenv GMS_PHI false
setenv GMS_SHMTYPE sysv
setenv GMS_OPENMP false
unset echo
mc-psi-lih
/home/sarom/dir.git.branch.saromleang-travis-ci/tests/mcscf/psi/parallel
----- GAMESS execution script 'rungms' -----
This job is running on host compute-1-7.local
under operating system Linux at Wed Aug 9 20:44:11 CDT 2017
Available scratch disk space (Kbyte units) at beginning of the job is
Filesystem           1K-blocks      Used Available Use% Mounted on
/dev/sda1             16126920   8505684   6802036  56% /
GAMESS temporary binary files will be written to /scratch
GAMESS supplementary output files will be written to /home/sarom/restart
Copying input file mc-psi-lih.inp to your run's scratch directory...
cp /home/sarom/dir.git.branch.saromleang-travis-ci/tests/mcscf/psi/parallel/mc-psi-lih.inp /scratch/mc-psi-lih.F05
unset echo
The generated host list is
compute-1-7.local
/home/sarom/dir.git.branch.saromleang-travis-ci/ddikick.x /home/sarom/dir.git.branch.saromleang-travis-ci/gamess.00.x mc-psi-lih -ddi 1 1 compute-1-7.local -scr /scratch

 Distributed Data Interface kickoff program.
 Initiating 1 compute processes on 1 nodes to run the following command:
 /home/sarom/dir.git.branch.saromleang-travis-ci/gamess.00.x mc-psi-lih 

          ******************************************************
          *         GAMESS VERSION = 20 APR 2017 (R1)          *
          *             FROM IOWA STATE UNIVERSITY             *
          * M.W.SCHMIDT, K.K.BALDRIDGE, J.A.BOATZ, S.T.ELBERT, *
          *   M.S.GORDON, J.H.JENSEN, S.KOSEKI, N.MATSUNAGA,   *
          *          K.A.NGUYEN, S.J.SU, T.L.WINDUS,           *
          *       TOGETHER WITH M.DUPUIS, J.A.MONTGOMERY       *
          *         J.COMPUT.CHEM.  14, 1347-1363(1993)        *
          **************** 64 BIT LINUX VERSION ****************

  SINCE 1993, STUDENTS AND POSTDOCS WORKING AT IOWA STATE UNIVERSITY
  AND ALSO IN THEIR VARIOUS JOBS AFTER LEAVING ISU HAVE MADE IMPORTANT
  CONTRIBUTIONS TO THE CODE:
     IVANA ADAMOVIC, CHRISTINE AIKENS, YURI ALEXEEV, POOJA ARORA,
     ANDREY ASADCHEV, ROB BELL, PRADIPTA BANDYOPADHYAY, JONATHAN BENTZ,
     BRETT BODE, KURT BRORSEN, CALEB CARLIN, GALINA CHABAN, WEI CHEN,
     CHEOL HO CHOI, PAUL DAY, ALBERT DEFUSCO, NUWAN DESILVA, TIM DUDLEY,
     DMITRI FEDOROV, GRAHAM FLETCHER, MARK FREITAG, KURT GLAESEMANN,
     DAN KEMP, GRANT MERRILL, NORIYUKI MINEZAWA, JONATHAN MULLIN,
     TAKESHI NAGATA, SEAN NEDD, HEATHER NETZLOFF, BOSILJKA NJEGIC, RYAN OLSON,
     MIKE PAK, SPENCER PRUITT, LUKE ROSKOP, JIM SHOEMAKER, LYUDMILA SLIPCHENKO,
     TONY SMITH, SAROM SOK LEANG, JIE SONG, TETSUYA TAKETSUGU, SIMON WEBB,
     PENG XU, SOOHAENG YOO, FEDERICO ZAHARIEV

  ADDITIONAL CODE HAS BEEN PROVIDED BY COLLABORATORS IN OTHER GROUPS:
     IOWA STATE UNIVERSITY:
          JOE IVANIC, AARON WEST, LAIMUTIS BYTAUTAS, KLAUS RUEDENBERG
     UNIVERSITY OF TOKYO: KIMIHIKO HIRAO, TAKAHITO NAKAJIMA,
          TAKAO TSUNEDA, MUNEAKI KAMIYA, SUSUMU YANAGISAWA,
          KIYOSHI YAGI, MAHITO CHIBA, SEIKEN TOKURA, NAOAKI KAWAKAMI
     UNIVERSITY OF AARHUS: FRANK JENSEN
     UNIVERSITY OF IOWA: VISVALDAS KAIRYS, HUI LI
     NATIONAL INST. OF STANDARDS AND TECHNOLOGY: WALT STEVENS, DAVID GARMER
     UNIVERSITY OF PISA: BENEDETTA MENNUCCI, JACOPO TOMASI
     UNIVERSITY OF MEMPHIS: HENRY KURTZ, PRAKASHAN KORAMBATH
     UNIVERSITY OF ALBERTA: TOBY ZENG, MARIUSZ KLOBUKOWSKI
     UNIVERSITY OF NEW ENGLAND: MARK SPACKMAN
     MIE UNIVERSITY: HIROAKI UMEDA
     NAT. INST. OF ADVANCED INDUSTRIAL SCIENCE AND TECHNOLOGY: KAZUO KITAURA
     MICHIGAN STATE UNIVERSITY:
          KAROL KOWALSKI, MARTA WLOCH, JEFFREY GOUR, JESSE LUTZ,
          WEI LI, PIOTR PIECUCH
     UNIVERSITY OF SILESIA: MONIKA MUSIAL, STANISLAW KUCHARSKI
     FACULTES UNIVERSITAIRES NOTRE-DAME DE LA PAIX:
          OLIVIER QUINET, BENOIT CHAMPAGNE
     UNIVERSITY OF CALIFORNIA - SANTA BARBARA: BERNARD KIRTMAN
     INSTITUTE FOR MOLECULAR SCIENCE:
          KAZUYA ISHIMURA, MICHIO KATOUDA, AND SHIGERU NAGASE
     UNIVERSITY OF NOTRE DAME: ANNA POMOGAEVA, DAN CHIPMAN
     KYUSHU UNIVERSITY:
          HARUYUKI NAKANO,
          FENG LONG GU, JACEK KORCHOWIEC, MARCIN MAKOWSKI, AND YURIKO AOKI,
          HIROTOSHI MORI AND EISAKU MIYOSHI
     PENNSYLVANIA STATE UNIVERSITY:
          TZVETELIN IORDANOV, CHET SWALINA, JONATHAN SKONE,
          SHARON HAMMES-SCHIFFER
     WASEDA UNIVERSITY:
          MASATO KOBAYASHI, TOMOKO AKAMA, TSUGUKI TOUMA,
          TAKESHI YOSHIKAWA, YASUHIRO IKABATA, JUNJI SEINO,
          YUYA NAKAJIMA, HIROMI NAKAI
     NANJING UNIVERSITY: SHUHUA LI
     UNIVERSITY OF NEBRASKA:
          PEIFENG SU, DEJUN SI, NANDUN THELLAMUREGE, YALI WANG, HUI LI
     UNIVERSITY OF ZURICH: ROBERTO PEVERATI, KIM BALDRIDGE
     N. COPERNICUS UNIVERSITY AND JACKSON STATE UNIVERSITY:
          MARIA BARYSZ
     UNIVERSITY OF COPENHAGEN: Jimmy Kromann, CASPER STEINMANN
     TOKYO INSTITUTE OF TECHNOLOGY: HIROYA NAKATA
     NAGOYA UNIVERSITY: YOSHIO NISHIMOTO, STEPHAN IRLE
     MOSCOW STATE UNIVERSITY: VLADIMIR MIRONOV

 EXECUTION OF GAMESS BEGUN Wed Aug  9 20:44:11 2017

            ECHO OF THE FIRST FEW INPUT CARDS -
 INPUT CARD>!  LiH...simultaneous optimization of X and A 1-sigma-plus states.              
 INPUT CARD>!                                                                               
 INPUT CARD>!  This job duplicates the results for R=3.0 in Table I of                      
 INPUT CARD>!  H.-J.Werner, W.Meyer, J.Chem.Phys. 74, 5794-5801 (1981).                     
 INPUT CARD>!  2 electrons in 4 sigma orbitals CAS-SCF type wavefunction                    
 INPUT CARD>!                                                                               
 INPUT CARD>!  WSTATE=1.0,0.0 has E(1)= -8.008954503,  E(2)= -7.646815156                   
 INPUT CARD>!      the paper says E(1)= -8.008949                                           
 INPUT CARD>!  WSTATE=0.5,0.5 has E(1)= -8.0077821194, E(2)= -7.8870458297  <---this run    
 INPUT CARD>!      the paper says E(1)= -8.007776      E(2)= -7.887040                      
 INPUT CARD>!      there is a triplet state between these two, at -7.900769049              
 INPUT CARD>!                                                                               
 INPUT CARD>!  This run takes 0 seconds on any computer (19 Aug 2005)                       
 INPUT CARD>!                                                                               
 INPUT CARD> $CONTRL SCFTYP=MCSCF  RUNTYP=ENERGY  UNITS=BOHR $END                           
 INPUT CARD> $system mwords=1 memddi=0 $end                                                 
 INPUT CARD> $GUESS  GUESS=MOREAD NORB=5 $END                                               
 INPUT CARD>!     need to solve for an extra triplet state in between the singlets...       
 INPUT CARD> $mcscf  cistep=aldet fullnr=.true. $end                                        
 INPUT CARD> $det    ncore=1 nact=4 nels=2 nstate=3 wstate(1)=0.5,0.5 $end                  
 INPUT CARD> $DATA                                                                          
 INPUT CARD>MCSCF for LiH...modified Huzinaga basis set                                     
 INPUT CARD>CNV      4                                                                      
 INPUT CARD>                                                                                
 INPUT CARD>LITHIUM     3.0        0.0                 0.0                 1.5              
 INPUT CARD> S    5                                                                         
 INPUT CARD>    1 0.31941032E4  0.29071792E-3                                               
 INPUT CARD>    2 0.47903846E3  0.22503107E-2                                               
 INPUT CARD>    3 0.10855641E3  0.11773246E-1                                               
 INPUT CARD>    4 0.30271673E2  0.47953942E-1                                               
 INPUT CARD>    5 0.96608306E1  0.14835609E0                                                
 INPUT CARD> S    1                                                                         
 INPUT CARD>    1 0.33927245D+01  1.0D+00                                                   
 INPUT CARD> S    1                                                                         
 INPUT CARD>    1 0.12752425D+01  1.0D+00                                                   
 INPUT CARD> S    1                                                                         
 INPUT CARD>    1 0.49758786D+00  1.0D+00                                                   
 INPUT CARD> S    1                                                                         
 INPUT CARD>    1 0.96955450D-01  1.0D+00                                                   
 INPUT CARD> S    1                                                                         
 INPUT CARD>    1 0.49762500D-01  1.0D+00                                                   
 INPUT CARD> S    1                                                                         
 INPUT CARD>    1 0.22853970D-01  1.0D+00                                                   
 INPUT CARD> P    2                                                                         
 INPUT CARD>    1 1.0             0.02857                                                   
 INPUT CARD>    2 0.33            0.078488                                                  
 INPUT CARD> P    1                                                                         
 INPUT CARD>    1 0.11            1.0                                                       
 INPUT CARD> P    1                                                                         
 INPUT CARD>    1 0.045           1.0                                                       
    1000000 WORDS OF MEMORY AVAILABLE


     RUN TITLE
     ---------
 MCSCF for LiH...modified Huzinaga basis set                                     

 THE POINT GROUP OF THE MOLECULE IS CNV     
 THE ORDER OF THE PRINCIPAL AXIS IS     4
 *** WARNING! ATOM   1 SHELL    1 TYPE S HAS NORMALIZATION   5.11593349
 *** WARNING! ATOM   1 SHELL    8 TYPE P HAS NORMALIZATION   9.95672132
 *** WARNING! ATOM   2 SHELL   12 TYPE S HAS NORMALIZATION   9.27589257

 ATOM      ATOMIC                      COORDINATES (BOHR)
           CHARGE         X                   Y                   Z
 LITHIUM     3.0     0.0000000000        0.0000000000        1.5000000000
 HYDROGEN    1.0     0.0000000000        0.0000000000       -1.5000000000

          INTERNUCLEAR DISTANCES (ANGS.)
          ------------------------------

                1 LITH       2 HYDR  

   1 LITH    0.0000000    1.5875317 *
   2 HYDR    1.5875317 *  0.0000000  

  * ... LESS THAN  3.000


     ATOMIC BASIS SET
     ----------------
 THE CONTRACTED PRIMITIVE FUNCTIONS HAVE BEEN UNNORMALIZED
 THE CONTRACTED BASIS FUNCTIONS ARE NOW NORMALIZED TO UNITY

  SHELL TYPE  PRIMITIVE        EXPONENT          CONTRACTION COEFFICIENT(S)

 LITHIUM   

      1   S       1          3194.1032000    0.001487293543
      1   S       2           479.0384600    0.011512439870
      1   S       3           108.5564100    0.060231143480
      1   S       4            30.2716730    0.245329177784
      1   S       5             9.6608306    0.758979889056

      2   S       6             3.3927245    1.000000000000

      3   S       7             1.2752425    1.000000000000

      4   S       8             0.4975879    1.000000000000

      5   S       9             0.0969555    1.000000000000

      6   S      10             0.0497625    1.000000000000

      7   S      11             0.0228540    1.000000000000

      8   P      12             1.0000000    0.284463528063
      8   P      13             0.3300000    0.781483142827

      9   P      14             0.1100000    1.000000000000

     10   P      15             0.0450000    1.000000000000

     11   P      16             0.0180000    1.000000000000

 HYDROGEN  

     12   S      17            68.1600000    0.023653526053
     12   S      18            10.2465000    0.179766798007
     12   S      19             2.3464800    0.860802830496

     13   S      20             0.6733200    1.000000000000

     14   S      21             0.2246600    1.000000000000

     15   S      22             0.0822170    1.000000000000

     16   S      23             0.0300000    1.000000000000

     17   P      24             0.8000000    1.000000000000

     18   P      25             0.2000000    1.000000000000

 TOTAL NUMBER OF BASIS SET SHELLS             =   18
 NUMBER OF CARTESIAN GAUSSIAN BASIS FUNCTIONS =   30
 NUMBER OF ELECTRONS                          =    4
 CHARGE OF MOLECULE                           =    0
 SPIN MULTIPLICITY                            =    1
 NUMBER OF OCCUPIED ORBITALS (ALPHA)          =    2
 NUMBER OF OCCUPIED ORBITALS (BETA )          =    2
 TOTAL NUMBER OF ATOMS                        =    2
 THE NUCLEAR REPULSION ENERGY IS        1.0000000000

 THIS MOLECULE IS RECOGNIZED AS BEING LINEAR,
 ORBITAL LZ DEGENERACY TOLERANCE ETOLLZ= 1.00E-06

     $CONTRL OPTIONS
     ---------------
 SCFTYP=MCSCF        RUNTYP=ENERGY       EXETYP=RUN     
 MPLEVL=       0     CITYP =NONE         CCTYP =NONE         VBTYP =NONE    
 DFTTYP=NONE         TDDFT =NONE    
 MULT  =       1     ICHARG=       0     NZVAR =       0     COORD =UNIQUE  
 PP    =NONE         RELWFN=NONE         LOCAL =NONE         NUMGRD=       F
 ISPHER=      -1     NOSYM =       0     MAXIT =      30     UNITS =BOHR    
 PLTORB=       F     MOLPLT=       F     AIMPAC=       F     FRIEND=        
 NPRINT=       7     IREST =       0     GEOM  =INPUT   
 NORMF =       0     NORMP =       0     ITOL  =      20     ICUT  =       9
 INTTYP=BEST         GRDTYP=BEST         QMTTOL= 1.0E-06

     $SYSTEM OPTIONS
     ---------------
  REPLICATED MEMORY=     1000000 WORDS (ON EVERY NODE).
 DISTRIBUTED MEMDDI=           0 MILLION WORDS IN AGGREGATE,
 MEMDDI DISTRIBUTED OVER   1 PROCESSORS IS           0 WORDS/PROCESSOR.
 TOTAL MEMORY REQUESTED ON EACH PROCESSOR=     1000000 WORDS.
 TIMLIM=      525600.00 MINUTES, OR     365.0 DAYS.
 PARALL= F  BALTYP=  DLB     KDIAG=    0  COREFL= F
 MXSEQ2=     300 MXSEQ3=     150  mem10=         0

          ----------------
          PROPERTIES INPUT
          ----------------

     MOMENTS            FIELD           POTENTIAL          DENSITY
 IEMOM =       1   IEFLD =       0   IEPOT =       0   IEDEN =       0
 WHERE =COMASS     WHERE =NUCLEI     WHERE =NUCLEI     WHERE =NUCLEI  
 OUTPUT=BOTH       OUTPUT=BOTH       OUTPUT=BOTH       OUTPUT=BOTH    
 IEMINT=       0   IEFINT=       0                     IEDINT=       0
                                                       MORB  =       0

     -------------------------------
     INTEGRAL TRANSFORMATION OPTIONS
     -------------------------------
     NWORD  =            0
     CUTOFF = 1.0E-09     MPTRAN =       0
     DIRTRF =       F     AOINTS =DUP     

          ----------------------
          MCSCF INPUT PARAMETERS
          ----------------------
 CONVERGER SELECTION: FOCAS = F  SOSCF = F  FULLNR = T  QUD = F  JACOBI = F
 SECULAR EQUATION METHOD CISTEP = ALDET   
 --- GENERAL INPUT OPTIONS:
 MAXIT =      30  MICIT =       1  ACURCY= 1.000E-05
 DAMP  =   0.000  CANONC=       T  ENGTOL= 1.000E-10
 EKT   =       F  NPUNCH=       2  NWORD =         0
 REGENERATE CI AFTER CONVERGENCE = NONE    
 DIABATIZATION AFTER CONVERGENCE =        F
 --- INPUT FOR FULLNR CONVERGER:
 METHOD=DM2       FORS  =       F  DROPC =       T
 LINSER=       F  FCORE =       F  NORB  =      30

          ----------------------
          INTEGRAL INPUT OPTIONS
          ----------------------
 NOPK  =       1 NORDER=       0 SCHWRZ=       F

     ------------------------------------------
     THE POINT GROUP IS CNV, NAXIS= 4, ORDER= 8
     ------------------------------------------

     DIMENSIONS OF THE SYMMETRY SUBSPACES ARE
 A1  =   18     A2  =    0     B1  =    0     B2  =    0     E   =    6

 ..... DONE SETTING UP THE RUN .....
 STEP CPU TIME =     0.02 TOTAL CPU TIME =        0.0 (    0.0 MIN)
 TOTAL WALL CLOCK TIME=        0.0 SECONDS, CPU UTILIZATION IS 100.00%

          ********************
          1 ELECTRON INTEGRALS
          ********************
 TIME TO DO   DIPOLE INTEGRALS=      0.00
 ...... END OF ONE-ELECTRON INTEGRALS ......
 STEP CPU TIME =     0.00 TOTAL CPU TIME =        0.0 (    0.0 MIN)
 TOTAL WALL CLOCK TIME=        0.0 SECONDS, CPU UTILIZATION IS 100.00%

          -------------
          GUESS OPTIONS
          -------------
          GUESS =MOREAD            NORB  =       5          NORDER=       0
          MIX   =       F          PRTMO =       F          PUNMO =       F
          TOLZ  = 1.0E-08          TOLE  = 1.0E-05
          SYMDEN=       F          PURIFY=       F

 INITIAL GUESS ORBITALS GENERATED BY MOREAD   ROUTINE.

 SYMMETRIES FOR INITIAL GUESS ORBITALS FOLLOW.   BOTH SET(S).
     2 ORBITALS ARE OCCUPIED (    1 CORE ORBITALS).
     1=A1       2=A1       3=A1       4=A1       5=A1       6=A1       7=A1  
     8=A1       9=A1      10=A1      11=A1      12=A1      13=A1      14=A1  
    15=A1      16=A1      17=A1      18=A1      19=E       20=E       21=E   
    22=E       23=E       24=E       25=E       26=E       27=E       28=E   
    29=E       30=E   
 ...... END OF INITIAL ORBITAL SELECTION ......
 STEP CPU TIME =     0.00 TOTAL CPU TIME =        0.0 (    0.0 MIN)
 TOTAL WALL CLOCK TIME=        0.0 SECONDS, CPU UTILIZATION IS  66.67%

                    ----------------------
                    AO INTEGRAL TECHNOLOGY
                    ----------------------
     S,P,L SHELL ROTATED AXIS INTEGRALS, REPROGRAMMED BY
        KAZUYA ISHIMURA (IMS) AND JOSE SIERRA (SYNSTAR).
     S,P,D,L SHELL ROTATED AXIS INTEGRALS PROGRAMMED BY
        KAZUYA ISHIMURA (INSTITUTE FOR MOLECULAR SCIENCE).
     S,P,D,F,G SHELL TO TOTAL QUARTET ANGULAR MOMENTUM SUM 5,
        ERIC PROGRAM BY GRAHAM FLETCHER (ELORET AND NASA ADVANCED
        SUPERCOMPUTING DIVISION, AMES RESEARCH CENTER).
     S,P,D,F,G,L SHELL GENERAL RYS QUADRATURE PROGRAMMED BY
        MICHEL DUPUIS (PACIFIC NORTHWEST NATIONAL LABORATORY).

          --------------------
          2 ELECTRON INTEGRALS
          --------------------

 THE -PK- OPTION IS OFF, THE INTEGRALS ARE NOT IN SUPERMATRIX FORM.
 STORING   15000 INTEGRALS/RECORD ON DISK, USING 12 BYTES/INTEGRAL.
 TWO ELECTRON INTEGRAL EVALUATION REQUIRES   89527 WORDS OF MEMORY.
 II,JST,KST,LST =  1  1  1  1 NREC =         1 INTLOC =    1
 II,JST,KST,LST =  2  1  1  1 NREC =         1 INTLOC =    2
 II,JST,KST,LST =  3  1  1  1 NREC =         1 INTLOC =    7
 II,JST,KST,LST =  4  1  1  1 NREC =         1 INTLOC =   22
 II,JST,KST,LST =  5  1  1  1 NREC =         1 INTLOC =   56
 II,JST,KST,LST =  6  1  1  1 NREC =         1 INTLOC =  121
 II,JST,KST,LST =  7  1  1  1 NREC =         1 INTLOC =  232
 II,JST,KST,LST =  8  1  1  1 NREC =         1 INTLOC =  407
 II,JST,KST,LST =  9  1  1  1 NREC =         1 INTLOC =  584
 II,JST,KST,LST = 10  1  1  1 NREC =         1 INTLOC = 1049
 II,JST,KST,LST = 11  1  1  1 NREC =         1 INTLOC = 1910
 II,JST,KST,LST = 12  1  1  1 NREC =         1 INTLOC = 3338
 II,JST,KST,LST = 13  1  1  1 NREC =         1 INTLOC = 4786
 II,JST,KST,LST = 14  1  1  1 NREC =         1 INTLOC = 6551
 II,JST,KST,LST = 15  1  1  1 NREC =         1 INTLOC = 8645
 II,JST,KST,LST = 16  1  1  1 NREC =         1 INTLOC =11108
 II,JST,KST,LST = 17  1  1  1 NREC =         1 INTLOC =13982
 II,JST,KST,LST = 18  1  1  1 NREC =         2 INTLOC = 6797
 TOTAL NUMBER OF NONZERO TWO-ELECTRON INTEGRALS =               32331
          3 INTEGRAL RECORDS WERE STORED ON DISK FILE  8.
  ...... END OF TWO-ELECTRON INTEGRALS .....
 STEP CPU TIME =     0.02 TOTAL CPU TIME =        0.0 (    0.0 MIN)
 TOTAL WALL CLOCK TIME=        0.0 SECONDS, CPU UTILIZATION IS  80.00%

          -----------------
          MCSCF CALCULATION
          -----------------

 ----- NUCLEAR ENERGY ----- =         1.0000000000

     --------------------------------------------------
          AMES LABORATORY DETERMINANTAL FULL CI
     PROGRAM WRITTEN BY JOE IVANIC AND KLAUS RUEDENBERG
     --------------------------------------------------

 THE POINT GROUP                  =   C1      
 THE STATE SYMMETRY               =   A       
 NUMBER OF CORE ORBITALS          =    1
 NUMBER OF ACTIVE ORBITALS        =    4
 NUMBER OF ALPHA ELECTRONS        =    2 (   1 ACTIVE)
 NUMBER OF BETA ELECTRONS         =    2 (   1 ACTIVE)
 NUMBER OF OCCUPIED ORBITALS      =    5
 NUMBER OF CI STATES REQUESTED    =    3
 NUMBER OF CI STARTING VECTORS    =    3
 MAX. NO. OF CI EXPANSION VECTORS =   10
 SIZE OF INITIAL CI GUESS MATRIX  =  300
 MAX. NO. OF CI ITERS/STATE       =  100
 CI DIAGONALIZATION CRITERION     = 1.00E-05
 PURE SPIN STATE AVERAGED 1E- AND 2E- DENSITY MATRIX OPTION=.T.
 STATE=   1 DM2 WEIGHT=   0.50000     STATE=   2 DM2 WEIGHT=   0.50000
 STATE-AVERAGED MCSCF USING IROOT=  0 AS ITS STATE-SPECIFIC E

 CORRELATION ENERGY ANALYSIS      =    F

 SYMMETRIES FOR THE   1 CORE,   4 ACTIVE ARE

     CORE= A   

   ACTIVE= A     A     A     A   

     --------------------------------------------
     PARTIAL TWO ELECTRON INTEGRAL TRANSFORMATION
     --------------------------------------------

 NUMBER OF CORE MOLECULAR ORBITALS     =    1
 NUMBER OF OCCUPIED MOLECULAR ORBITALS =    5
 TOTAL NUMBER OF MOLECULAR ORBITALS    =   30
 TOTAL NUMBER OF ATOMIC ORBITALS       =   30
 THRESHOLD FOR KEEPING TRANSFORMED 2E- INTEGRALS = 1.000E-09
 AO INTEGRALS WILL BE READ IN FROM DISK...

 PLAN A: REQUIREMENTS FOR FULLY IN-MEMORY TRANSFORMATION:
 # OF WORDS AVAILABLE =              1000000
 # OF WORDS NEEDED    =               134312

 CHOOSING IN MEMORY PARTIAL TRANSFORMATION...
 TOTAL NUMBER OF TRANSFORMED 2E- INTEGRALS KEPT =         6147
 ----- FROZEN CORE ENERGY =        -7.9008990990
 ... END OF INTEGRAL TRANSFORMATION ...
 STEP CPU TIME =     0.01 TOTAL CPU TIME =        0.0 (    0.0 MIN)
 TOTAL WALL CLOCK TIME=        0.1 SECONDS, CPU UTILIZATION IS  83.33%

     --------------------------------------------------
          AMES LABORATORY DETERMINANTAL FULL CI
     PROGRAM WRITTEN BY JOE IVANIC AND KLAUS RUEDENBERG
     --------------------------------------------------

 THE NUMBER OF DETERMINANTS HAVING SPACE SYMMETRY A  
 IN POINT GROUP C1   WITH SZ=  0.0 IS             16
 WHICH INCLUDES             10 CSFS WITH S=  0.0
 WHICH INCLUDES              6 CSFS WITH S=  1.0
 THE DETERMINANT FULL CI REQUIRES          170924 WORDS
 SMALL CI MATRIX, JUST USING INCORE DIAGONALIZATION...

 CI EIGENVECTORS WILL BE LABELED IN GROUP=C1      
 PRINTING ALL NON-ZERO CI COEFFICIENTS

 STATE   1  ENERGY=        -8.0089545030  S=  0.00  SZ=  0.00  SPACE SYM=A   

ALPHA |BETA  | CI COEFFICIENT
------|------|---------------
 1000 | 1000 |                                                                                                       0.9884101972
 0100 | 0100 |                                                                                                      -0.1353998914
 0010 | 0010 |                                                                                                      -0.0672090632
 0001 | 0001 |                                                                                                      -0.0139675778
 0010 | 1000 |                                                                                                      -0.0000000041
 1000 | 0010 |                                                                                                      -0.0000000041
 0100 | 1000 |                                                                                                      -0.0000000040
 1000 | 0100 |                                                                                                      -0.0000000040
 0001 | 1000 |                                                                                                      -0.0000000020
 1000 | 0001 |                                                                                                      -0.0000000020
 0100 | 0001 |                                                                                                      -0.0000000008
 0001 | 0100 |                                                                                                      -0.0000000008
 0010 | 0100 |                                                                                                      -0.0000000003
 0100 | 0010 |                                                                                                      -0.0000000003
 0010 | 0001 |                                                                                                       0.0000000001
 0001 | 0010 |                                                                                                       0.0000000001

 STATE   2  ENERGY=        -7.7838597663  S=  1.00  SZ=  0.00  SPACE SYM=A   

ALPHA |BETA  | CI COEFFICIENT
------|------|---------------
 0100 | 1000 |                                                                                                       0.6858364470
 1000 | 0100 |                                                                                                      -0.6858364470
 0001 | 1000 |                                                                                                       0.1676242017
 1000 | 0001 |                                                                                                      -0.1676242017
 0001 | 0100 |                                                                                                       0.0352410219
 0100 | 0001 |                                                                                                      -0.0352410219
 0010 | 1000 |                                                                                                       0.0139195063
 1000 | 0010 |                                                                                                      -0.0139195063
 0100 | 0010 |                                                                                                       0.0082293760
 0010 | 0100 |                                                                                                      -0.0082293760
 0010 | 0001 |                                                                                                      -0.0052048055
 0001 | 0010 |                                                                                                       0.0052048055
 0100 | 0100 |                                                                                                       0.0000000000
 0010 | 0010 |                                                                                                      -0.0000000000
 1000 | 1000 |                                                                                                       0.0000000000
 0001 | 0001 |                                                                                                      -0.0000000000

 STATE   3  ENERGY=        -7.6468151586  S=  0.00  SZ=  0.00  SPACE SYM=A   

ALPHA |BETA  | CI COEFFICIENT
------|------|---------------
 1000 | 0100 |                                                                                                       0.6297957874
 0100 | 1000 |                                                                                                       0.6297957874
 0100 | 0100 |                                                                                                       0.2665769543
 1000 | 0001 |                                                                                                       0.2321222600
 0001 | 1000 |                                                                                                       0.2321222600
 0100 | 0001 |                                                                                                       0.1034101695
 0001 | 0100 |                                                                                                       0.1034101695
 0010 | 0010 |                                                                                                      -0.0469002550
 1000 | 1000 |                                                                                                       0.0332843118
 0010 | 0100 |                                                                                                       0.0284341377
 0100 | 0010 |                                                                                                       0.0284341377
 0010 | 1000 |                                                                                                       0.0265013614
 1000 | 0010 |                                                                                                       0.0265013614
 0010 | 0001 |                                                                                                       0.0090409932
 0001 | 0010 |                                                                                                       0.0090409932
 0001 | 0001 |                                                                                                      -0.0031373853
 ..... DONE WITH DETERMINANT CI COMPUTATION .....
 STEP CPU TIME =     0.00 TOTAL CPU TIME =        0.0 (    0.0 MIN)
 TOTAL WALL CLOCK TIME=        0.1 SECONDS, CPU UTILIZATION IS  83.33%

     --------------------------------------------------
      ONE AND TWO PARTICLE DENSITY MATRIX COMPUTATION
     PROGRAM WRITTEN BY JOE IVANIC AND KLAUS RUEDENBERG
     --------------------------------------------------

      30445 WORDS WILL BE USED TO FORM THE DENSITIES
 THE DENSITIES ARE STATE AVERAGED OVER   2 ROOT(S)
 STATE=   1   ENERGY=       -8.0089545030   WEIGHT= 0.50000   S=  0.00
 STATE=   3   ENERGY=       -7.6468151586   WEIGHT= 0.50000   S=  0.00
 SIEVING THE A    SYMMETRY NONZERO DENSITY ELEMENTS IN GROUP C1      
         55 NONZERO DM2 ELEMENTS WRITTEN IN       1 RECORDS TO FILE 15
 ..... DONE WITH 1 AND 2 PARTICLE DENSITY MATRIX .....
 STEP CPU TIME =     0.00 TOTAL CPU TIME =        0.0 (    0.0 MIN)
 TOTAL WALL CLOCK TIME=        0.1 SECONDS, CPU UTILIZATION IS  83.33%

     --------------------------------     -----------------------------
     MCHF NEWTON-RAPHSON OPTIMIZATION     CODE WRITTEN BY MICHEL DUPUIS
     --------------------------------     -----------------------------
 FORMING FOCK OPERATOR OVER ACTIVE ORBITAL DENSITY, MEMORY=     35665
 STEP CPU TIME =     0.00 TOTAL CPU TIME =        0.0 (    0.0 MIN)
 TOTAL WALL CLOCK TIME=        0.1 SECONDS, CPU UTILIZATION IS  83.33%
 MEMORY DEMAND FOR 2 ELECTRON NTN-RPH CONTRIBUTIONS
      METHOD=DM2     NEEDS     41650 WORDS
      METHOD=TEI     NEEDS     33885 WORDS
 TOTAL AVAILABLE MEMORY IS   1000000 WORDS
 CHOOSING DM2 DRIVEN METHOD...
 FORMING -LGR- + -COU- + -EXC- FROM (IJ//KL) INTEGRALS
 STEP CPU TIME =     0.00 TOTAL CPU TIME =        0.0 (    0.0 MIN)
 TOTAL WALL CLOCK TIME=        0.1 SECONDS, CPU UTILIZATION IS  83.33%
 FORMING -LGR- + -COU- + -EXC- FROM (AJ//KL) INTEGRALS
 STEP CPU TIME =     0.00 TOTAL CPU TIME =        0.0 (    0.0 MIN)
 TOTAL WALL CLOCK TIME=        0.1 SECONDS, CPU UTILIZATION IS  83.33%
 FORMING         -COU-         FROM (AB//KL) INTEGRALS
 STEP CPU TIME =     0.00 TOTAL CPU TIME =        0.0 (    0.0 MIN)
 TOTAL WALL CLOCK TIME=        0.1 SECONDS, CPU UTILIZATION IS  83.33%
 FORMING                 -EXC- FROM (AJ//BL) INTEGRALS
 ..... DONE WITH 2 ELECTRON CONTRIBUTIONS .....
 STEP CPU TIME =     0.00 TOTAL CPU TIME =        0.0 (    0.0 MIN)
 TOTAL WALL CLOCK TIME=        0.1 SECONDS, CPU UTILIZATION IS  83.33%
 ..... DONE WITH 1 ELECTRON CONTRIBUTIONS .....
 STEP CPU TIME =     0.00 TOTAL CPU TIME =        0.0 (    0.0 MIN)
 TOTAL WALL CLOCK TIME=        0.1 SECONDS, CPU UTILIZATION IS  83.33%
 NUMBER OF INDEPENDENT ORBITAL ROTATION PARAMETERS =    69
 ..... DONE SOLVING NEWTON-RAPHSON EQUATIONS .....
 STEP CPU TIME =     0.00 TOTAL CPU TIME =        0.0 (    0.0 MIN)
 TOTAL WALL CLOCK TIME=        0.1 SECONDS, CPU UTILIZATION IS  83.33%
 ..... DONE WITH NTN-RPH ORBITAL ROTATIONS ..... 
 STEP CPU TIME =     0.00 TOTAL CPU TIME =        0.0 (    0.0 MIN)
 TOTAL WALL CLOCK TIME=        0.1 SECONDS, CPU UTILIZATION IS  83.33%
 MAXIMUM MEMORY USED BY NTN-RPH CODE WAS     41650 WORDS.

 ITER     TOTAL ENERGY      DEL(E)  LAGRANGIAN ASYMMETRY   SQCDF  MICIT   DAMP
   1       -7.827884831 -0.827884831  0.142087   13    3 5.000E-01  1   0.0000
   2       -7.895356851 -0.067472021  0.093122   13    3 1.076E-01  1   0.0000
   3       -7.933887409 -0.038530557  0.024998   13    3 2.390E-01  1   0.0177
   4       -7.943260095 -0.009372686  0.008254   13    5 8.609E-02  1   0.0011
   5       -7.946926503 -0.003666409  0.004306   17    2 7.294E-03  1   0.0000
   6       -7.947335181 -0.000408678  0.002717   17    2 8.408E-04  1   0.0000
   7       -7.947397455 -0.000062274  0.001172   17    2 1.399E-04  1   0.0000
   8       -7.947410058 -0.000012603  0.000514   17    3 2.693E-05  1   0.0000
   9       -7.947412983 -0.000002925  0.000274   17    3 5.742E-06  1   0.0000
  10       -7.947413715 -0.000000732  0.000145   17    3 1.282E-06  1   0.0000
  11       -7.947413906 -0.000000190  0.000076   17    3 3.273E-07  1   0.0000
  12       -7.947413956 -0.000000051  0.000040   17    3 7.825E-08  1   0.0000
  13       -7.947413970 -0.000000013  0.000021   17    3 2.563E-08  1   0.0000
  14       -7.947413974 -0.000000004  0.000011   17    3 6.049E-09  1   0.0000
  15       -7.947413975 -0.000000001  0.000005   17    3 1.230E-09  1   0.0000

          --------------------
          LAGRANGIAN CONVERGED
          --------------------

 FINAL MCSCF ENERGY IS       -7.9474139746 AFTER  15 ITERATIONS

 -MCCI- BASED ON OPTIMIZED ORBITALS
 ----------------------------------

 PLEASE NOTE: IF THE ACTIVE ORBITALS ARE CANONICALIZED BELOW,
 THE FOLLOWING CI EXPANSION COEFFICIENTS AND THE DENSITY DO NOT
 CORRESPOND TO THE PRINTED ORBITALS.  THE PRINTED EXPANSIONS MATCH
 THE ORBITALS USED DURING THE LAST ITERATION.  IF YOU WISH TO SEE
 CI EXPANSIONS BASED ON THE CANONICAL (OR NATURAL) ORBITALS, YOU
 MUST RUN A CI CALCULATION WITH THAT ORBITAL CHOICE READ IN $VEC.

 CI EIGENVECTORS WILL BE LABELED IN GROUP=C1      
 PRINTING ALL NON-ZERO CI COEFFICIENTS

 STATE   1  ENERGY=        -8.0077821194  S=  0.00  SZ=  0.00  SPACE SYM=A   

ALPHA |BETA  | CI COEFFICIENT
------|------|---------------
 1000 | 1000 |                                                                                                       0.9857685516
 0100 | 0100 |                                                                                                      -0.1142573490
 0010 | 0010 |                                                                                                      -0.0669149088
 0100 | 0001 |                                                                                                       0.0522555642
 0001 | 0100 |                                                                                                       0.0522555642
 1000 | 0001 |                                                                                                       0.0463458705
 0001 | 1000 |                                                                                                       0.0463458705
 0001 | 0001 |                                                                                                      -0.0285714966
 0100 | 1000 |                                                                                                      -0.0085675196
 1000 | 0100 |                                                                                                      -0.0085675196
 0010 | 0100 |                                                                                                       0.0013031364
 0100 | 0010 |                                                                                                       0.0013031364
 0001 | 0010 |                                                                                                       0.0012773817
 0010 | 0001 |                                                                                                       0.0012773817
 0010 | 1000 |                                                                                                      -0.0007257830
 1000 | 0010 |                                                                                                      -0.0007257830

 STATE   2  ENERGY=        -7.9007690493  S=  1.00  SZ=  0.00  SPACE SYM=A   

ALPHA |BETA  | CI COEFFICIENT
------|------|---------------
 1000 | 0100 |                                                                                                       0.6140742358
 0100 | 1000 |                                                                                                      -0.6140742358
 1000 | 0001 |                                                                                                       0.3227768770
 0001 | 1000 |                                                                                                      -0.3227768770
 0100 | 0001 |                                                                                                       0.1341282960
 0001 | 0100 |                                                                                                      -0.1341282960
 1000 | 0010 |                                                                                                      -0.0242361870
 0010 | 1000 |                                                                                                       0.0242361870
 0010 | 0100 |                                                                                                       0.0105918800
 0100 | 0010 |                                                                                                      -0.0105918800
 0010 | 0001 |                                                                                                       0.0061595545
 0001 | 0010 |                                                                                                      -0.0061595545
 0100 | 0100 |                                                                                                       0.0000000000
 0001 | 0001 |                                                                                                      -0.0000000000
 1000 | 1000 |                                                                                                      -0.0000000000
 0010 | 0010 |                                                                                                      -0.0000000000

 STATE   3  ENERGY=        -7.8870458297  S=  0.00  SZ=  0.00  SPACE SYM=A   

ALPHA |BETA  | CI COEFFICIENT
------|------|---------------
 0100 | 1000 |                                                                                                       0.5099388534
 1000 | 0100 |                                                                                                       0.5099388534
 0001 | 1000 |                                                                                                       0.4282918418
 1000 | 0001 |                                                                                                       0.4282918418
 0100 | 0100 |                                                                                                       0.2924857103
 0001 | 0100 |                                                                                                       0.1038540428
 0100 | 0001 |                                                                                                       0.1038540428
 0001 | 0001 |                                                                                                      -0.0639351568
 0010 | 0010 |                                                                                                      -0.0277542171
 0010 | 1000 |                                                                                                      -0.0199583163
 1000 | 0010 |                                                                                                      -0.0199583163
 1000 | 1000 |                                                                                                      -0.0123087500
 0001 | 0010 |                                                                                                       0.0079796102
 0010 | 0001 |                                                                                                       0.0079796102
 0100 | 0010 |                                                                                                       0.0014473509
 0010 | 0100 |                                                                                                       0.0014473509

 DENSITY MATRIX OVER ACTIVE MO-S

             1           2           3           4

    1    1.4179829
    2    0.1822783   0.3722338
    3    0.0043364  -0.0091288   0.0057159
    4    0.0640588   0.2342911  -0.0092168   0.2040675

 FORMING THE "STANDARD FOCK OPERATOR" USING INTEGRALS FROM DISK...
     1 FILLED,    4 ACTIVE, AND   25 VIRTUAL ORBITALS  WILL BE CANONICALIZED

          ----------------------
          MCSCF NATURAL ORBITALS
          ----------------------

                      1          2          3          4          5
                   -2.4700     1.4575     0.5000     0.0372     0.0052
                     A1         A1         A1         A1         A1  
    1  LI 1  S    0.195342  -0.018530  -0.023813   0.011977  -0.028905
    2  LI 1  S    0.320217  -0.031777  -0.044220   0.024568  -0.032974
    3  LI 1  S    0.418724  -0.062441  -0.071716   0.035138  -0.160500
    4  LI 1  S    0.207607  -0.042998  -0.097499   0.082462   0.034731
    5  LI 1  S    0.008798   0.052272   0.187048  -0.323513   0.104804
    6  LI 1  S   -0.004674   0.030623   0.458620  -0.146866  -0.125316
    7  LI 1  S    0.000565  -0.031640   0.458655   0.222943   0.086136
    8  LI 1  X    0.000000   0.000000   0.000000  -0.000000  -0.000000
    9  LI 1  Y    0.000000   0.000000   0.000000  -0.000000  -0.000000
   10  LI 1  Z    0.002266  -0.071764   0.066251   0.116006  -0.209905
   11  LI 1  X    0.000000   0.000000   0.000000  -0.000000  -0.000000
   12  LI 1  Y    0.000000   0.000000   0.000000  -0.000000  -0.000000
   13  LI 1  Z   -0.000375  -0.060088   0.174457   0.382759   0.019792
   14  LI 1  X    0.000000   0.000000   0.000000  -0.000000  -0.000000
   15  LI 1  Y    0.000000   0.000000   0.000000  -0.000000  -0.000000
   16  LI 1  Z    0.000786  -0.054596   0.222825   0.206471  -0.029835
   17  LI 1  X    0.000000   0.000000   0.000000  -0.000000  -0.000000
   18  LI 1  Y    0.000000   0.000000   0.000000  -0.000000  -0.000000
   19  LI 1  Z    0.000079  -0.009097   0.073994   0.046045  -0.007741
   20  H  2  S    0.000600   0.092640  -0.004758   0.125043  -0.015933
   21  H  2  S    0.001643   0.236079  -0.006863   0.514340  -0.022488
   22  H  2  S    0.001373   0.401062  -0.020647   0.660732   0.080432
   23  H  2  S    0.000256   0.252209  -0.096658  -0.475486  -0.180114
   24  H  2  S    0.000977   0.042361  -0.148188  -0.274627  -0.136644
   25  H  2  X    0.000000   0.000000   0.000000  -0.000000  -0.000000
   26  H  2  Y    0.000000   0.000000   0.000000  -0.000000  -0.000000
   27  H  2  Z    0.000968   0.012457  -0.000138   0.034760   0.308155
   28  H  2  X    0.000000   0.000000   0.000000  -0.000000  -0.000000
   29  H  2  Y    0.000000   0.000000   0.000000  -0.000000  -0.000000
   30  H  2  Z    0.000690   0.040158  -0.008419   0.062090   0.669925

 LZ VALUE ANALYSIS FOR THE MOS
 ----------------------------------------
 MO     1 (    1) HAS LZ(WEIGHT)= 0.00(100.0%) 
 MO     2 (    2) HAS LZ(WEIGHT)= 0.00(100.0%) 
 MO     3 (    3) HAS LZ(WEIGHT)= 0.00(100.0%) 
 MO     4 (    4) HAS LZ(WEIGHT)= 0.00(100.0%) 
 MO     5 (    5) HAS LZ(WEIGHT)= 0.00(100.0%) 
 MO     6 (    6) HAS LZ(WEIGHT)=-1.00( 50.0%)  1.00( 50.0%) 
 MO     7 (    6) HAS LZ(WEIGHT)=-1.00( 50.0%)  1.00( 50.0%) 
 MO     8 (    7) HAS LZ(WEIGHT)= 0.00(100.0%) 
 MO     9 (    8) HAS LZ(WEIGHT)= 0.00(100.0%) 
 MO    10 (    9) HAS LZ(WEIGHT)=-1.00( 50.0%)  1.00( 50.0%) 
 MO    11 (    9) HAS LZ(WEIGHT)=-1.00( 50.0%)  1.00( 50.0%) 
 MO    12 (   10) HAS LZ(WEIGHT)= 0.00(100.0%) 
 MO    13 (   11) HAS LZ(WEIGHT)=-1.00( 50.0%)  1.00( 50.0%) 
 MO    14 (   11) HAS LZ(WEIGHT)=-1.00( 50.0%)  1.00( 50.0%) 
 MO    15 (   12) HAS LZ(WEIGHT)= 0.00(100.0%) 
 MO    16 (   13) HAS LZ(WEIGHT)= 0.00(100.0%) 
 MO    17 (   14) HAS LZ(WEIGHT)=-1.00( 50.0%)  1.00( 50.0%) 
 MO    18 (   14) HAS LZ(WEIGHT)=-1.00( 50.0%)  1.00( 50.0%) 
 MO    19 (   15) HAS LZ(WEIGHT)= 0.00(100.0%) 
 MO    20 (   16) HAS LZ(WEIGHT)=-1.00( 50.0%)  1.00( 50.0%) 
 MO    21 (   16) HAS LZ(WEIGHT)=-1.00( 50.0%)  1.00( 50.0%) 
 MO    22 (   17) HAS LZ(WEIGHT)= 0.00(100.0%) 
 MO    23 (   18) HAS LZ(WEIGHT)= 0.00(100.0%) 
 MO    24 (   19) HAS LZ(WEIGHT)= 0.00(100.0%) 
 MO    25 (   20) HAS LZ(WEIGHT)=-1.00( 50.0%)  1.00( 50.0%) 
 MO    26 (   20) HAS LZ(WEIGHT)=-1.00( 50.0%)  1.00( 50.0%) 
 MO    27 (   21) HAS LZ(WEIGHT)= 0.00(100.0%) 
 MO    28 (   22) HAS LZ(WEIGHT)= 0.00(100.0%) 
 MO    29 (   23) HAS LZ(WEIGHT)= 0.00(100.0%) 
 MO    30 (   24) HAS LZ(WEIGHT)= 0.00(100.0%) 

          ------------------------
          MCSCF OPTIMIZED ORBITALS
          ------------------------

                      1          2          3          4          5
                   -2.4700    -0.3048    -0.0152     0.3700     0.5542
                     A1         A1         A1         A1         A1  
    1  LI 1  S    0.195342  -0.020142  -0.022994   0.006248  -0.030264
    2  LI 1  S    0.320217  -0.034970  -0.042830   0.017181  -0.036104
    3  LI 1  S    0.418724  -0.066785  -0.069139   0.006323  -0.163575
    4  LI 1  S    0.207607  -0.051537  -0.096398   0.083182   0.022207
    5  LI 1  S    0.008798   0.071995   0.191858  -0.296932   0.152324
    6  LI 1  S   -0.004674   0.064599   0.458645  -0.151800  -0.104749
    7  LI 1  S    0.000565  -0.008623   0.454372   0.244525   0.046558
    8  LI 1  X    0.000000   0.000000  -0.000000   0.000000   0.000000
    9  LI 1  Y    0.000000   0.000000  -0.000000   0.000000   0.000000
   10  LI 1  Z    0.002266  -0.069068   0.066828   0.081818  -0.226111
   11  LI 1  X    0.000000   0.000000  -0.000000   0.000000   0.000000
   12  LI 1  Y    0.000000   0.000000  -0.000000   0.000000   0.000000
   13  LI 1  Z   -0.000375  -0.058999   0.168365   0.383918  -0.041486
   14  LI 1  X    0.000000   0.000000  -0.000000   0.000000   0.000000
   15  LI 1  Y    0.000000   0.000000  -0.000000   0.000000   0.000000
   16  LI 1  Z    0.000786  -0.045453   0.220472   0.203572  -0.063535
   17  LI 1  X    0.000000   0.000000  -0.000000   0.000000   0.000000
   18  LI 1  Y    0.000000   0.000000  -0.000000   0.000000   0.000000
   19  LI 1  Z    0.000079  -0.005502   0.073207   0.045937  -0.015439
   20  H  2  S    0.000600   0.088912  -0.013966   0.123205  -0.034854
   21  H  2  S    0.001643   0.221634  -0.035187   0.510099  -0.101342
   22  H  2  S    0.001373   0.380813  -0.062820   0.674442  -0.021826
   23  H  2  S    0.000256   0.259110  -0.101593  -0.493449  -0.102615
   24  H  2  S    0.000977   0.040890  -0.144284  -0.295085  -0.090998
   25  H  2  X    0.000000   0.000000  -0.000000   0.000000   0.000000
   26  H  2  Y    0.000000   0.000000  -0.000000   0.000000   0.000000
   27  H  2  Z    0.000968   0.009531  -0.000381   0.082476   0.299048
   28  H  2  X    0.000000   0.000000  -0.000000   0.000000   0.000000
   29  H  2  Y    0.000000   0.000000  -0.000000   0.000000   0.000000
   30  H  2  Z    0.000690   0.033603  -0.009433   0.166118   0.652323

                      6          7          8          9         10
                    0.0295     0.0295     0.0638     0.0789     0.1038
                     E          E          A1         A1         E   
    1  LI 1  S   -0.000000  -0.000000  -0.000146   0.012396  -0.000000
    2  LI 1  S   -0.000000  -0.000000   0.001466   0.010184  -0.000000
    3  LI 1  S   -0.000000  -0.000000  -0.006051   0.076805  -0.000000
    4  LI 1  S   -0.000000  -0.000000   0.014627  -0.052962  -0.000000
    5  LI 1  S   -0.000000  -0.000000  -0.130686   0.968703  -0.000000
    6  LI 1  S   -0.000000  -0.000000   0.916161  -3.054610  -0.000000
    7  LI 1  S   -0.000000  -0.000000  -4.511047   3.796430  -0.000000
    8  LI 1  X    0.015027  -0.000000   0.000000  -0.000000   0.107573
    9  LI 1  Y   -0.000000   0.015027   0.000000  -0.000000  -0.000000
   10  LI 1  Z   -0.000000  -0.000000  -0.013970  -0.055721  -0.000000
   11  LI 1  X    0.171352  -0.000000   0.000000  -0.000000  -0.139444
   12  LI 1  Y   -0.000000   0.171352   0.000000  -0.000000  -0.000000
   13  LI 1  Z   -0.000000  -0.000000  -0.078007   0.073830  -0.000000
   14  LI 1  X   -0.273863  -0.000000   0.000000  -0.000000   1.684516
   15  LI 1  Y   -0.000000  -0.273863   0.000000  -0.000000  -0.000000
   16  LI 1  Z   -0.000000  -0.000000  -0.563311  -0.937603  -0.000000
   17  LI 1  X    1.134964  -0.000000   0.000000  -0.000000  -1.226987
   18  LI 1  Y   -0.000000   1.134964   0.000000  -0.000000  -0.000000
   19  LI 1  Z   -0.000000  -0.000000   2.737947   0.196213  -0.000000
   20  H  2  S   -0.000000  -0.000000  -0.004273   0.001907  -0.000000
   21  H  2  S   -0.000000  -0.000000  -0.067766  -0.003379  -0.000000
   22  H  2  S   -0.000000  -0.000000   0.109109   0.041642  -0.000000
   23  H  2  S   -0.000000  -0.000000  -1.254891   0.008187  -0.000000
   24  H  2  S   -0.000000  -0.000000   5.077024  -1.657584  -0.000000
   25  H  2  X    0.003329  -0.000000   0.000000  -0.000000   0.009839
   26  H  2  Y   -0.000000   0.003329   0.000000  -0.000000  -0.000000
   27  H  2  Z   -0.000000  -0.000000   0.000428   0.000763  -0.000000
   28  H  2  X    0.003987  -0.000000   0.000000  -0.000000   0.004738
   29  H  2  Y   -0.000000   0.003987   0.000000  -0.000000  -0.000000
   30  H  2  Z   -0.000000  -0.000000  -0.034922   0.024762  -0.000000

                     11         12         13         14         15
                    0.1038     0.1409     0.3082     0.3082     0.3206
                     E          A1         E          E          A1  
    1  LI 1  S   -0.000000  -0.001136   0.000000   0.000000   0.021193
    2  LI 1  S   -0.000000  -0.015755   0.000000   0.000000   0.061853
    3  LI 1  S   -0.000000   0.035996   0.000000   0.000000  -0.000551
    4  LI 1  S   -0.000000  -0.124571   0.000000   0.000000   0.274942
    5  LI 1  S   -0.000000   1.436065   0.000000   0.000000  -2.286900
    6  LI 1  S   -0.000000  -2.924380   0.000000   0.000000   1.694998
    7  LI 1  S   -0.000000  -3.408589   0.000000   0.000000   0.542063
    8  LI 1  X   -0.000000  -0.000000  -0.073701   0.000000  -0.000000
    9  LI 1  Y    0.107573  -0.000000   0.000000  -0.073701  -0.000000
   10  LI 1  Z   -0.000000   0.005176   0.000000   0.000000  -0.051833
   11  LI 1  X   -0.000000  -0.000000  -1.768683   0.000000  -0.000000
   12  LI 1  Y   -0.139444  -0.000000   0.000000  -1.768683  -0.000000
   13  LI 1  Z   -0.000000  -0.754794   0.000000   0.000000  -1.196843
   14  LI 1  X   -0.000000  -0.000000   2.172105   0.000000  -0.000000
   15  LI 1  Y    1.684516  -0.000000   0.000000   2.172105  -0.000000
   16  LI 1  Z   -0.000000   2.347635   0.000000   0.000000   2.362177
   17  LI 1  X   -0.000000  -0.000000  -0.850074   0.000000  -0.000000
   18  LI 1  Y   -1.226987  -0.000000   0.000000  -0.850074  -0.000000
   19  LI 1  Z   -0.000000   0.773785   0.000000   0.000000  -1.196158
   20  H  2  S   -0.000000   0.005321   0.000000   0.000000  -0.035247
   21  H  2  S   -0.000000  -0.025914   0.000000   0.000000   0.091380
   22  H  2  S   -0.000000   0.141203   0.000000   0.000000  -1.242579
   23  H  2  S   -0.000000  -0.751915   0.000000   0.000000   3.061046
   24  H  2  S   -0.000000   6.378631   0.000000   0.000000  -2.316093
   25  H  2  X   -0.000000  -0.000000   0.000271   0.000000  -0.000000
   26  H  2  Y    0.009839  -0.000000   0.000000   0.000271  -0.000000
   27  H  2  Z   -0.000000   0.013438   0.000000   0.000000  -0.006611
   28  H  2  X   -0.000000  -0.000000  -0.066463   0.000000  -0.000000
   29  H  2  Y    0.004738  -0.000000   0.000000  -0.066463  -0.000000
   30  H  2  Z   -0.000000   0.032262   0.000000   0.000000  -0.026846

                     16         17         18         19         20
                    0.3506     0.4684     0.4684     0.5450     1.0274
                     A1         E          E          A1         E   
    1  LI 1  S    0.022424   0.000000   0.000000  -0.007035   0.000000
    2  LI 1  S    0.074366   0.000000   0.000000  -0.043569   0.000000
    3  LI 1  S   -0.028204   0.000000   0.000000   0.080349   0.000000
    4  LI 1  S    0.424005   0.000000   0.000000  -0.376581   0.000000
    5  LI 1  S   -2.886415   0.000000   0.000000   4.668946   0.000000
    6  LI 1  S    6.115052   0.000000   0.000000  -2.026557   0.000000
    7  LI 1  S   -4.792442   0.000000   0.000000  -1.288021   0.000000
    8  LI 1  X   -0.000000   0.011053   0.000000   0.000000  -1.434984
    9  LI 1  Y   -0.000000   0.000000   0.011053   0.000000   0.000000
   10  LI 1  Z    0.006736   0.000000   0.000000   0.102433   0.000000
   11  LI 1  X   -0.000000  -0.632659   0.000000   0.000000   1.825687
   12  LI 1  Y   -0.000000   0.000000  -0.632659   0.000000   0.000000
   13  LI 1  Z   -0.572112   0.000000   0.000000  -3.173422   0.000000
   14  LI 1  X   -0.000000   0.065415   0.000000   0.000000  -1.281505
   15  LI 1  Y   -0.000000   0.000000   0.065415   0.000000   0.000000
   16  LI 1  Z   -0.941499   0.000000   0.000000   1.428083   0.000000
   17  LI 1  X   -0.000000  -0.022549   0.000000   0.000000   0.432393
   18  LI 1  Y   -0.000000   0.000000  -0.022549   0.000000   0.000000
   19  LI 1  Z    1.210215   0.000000   0.000000   0.235650   0.000000
   20  H  2  S    0.045108   0.000000   0.000000   0.001121   0.000000
   21  H  2  S   -0.092149   0.000000   0.000000   0.051896   0.000000
   22  H  2  S    1.543287   0.000000   0.000000  -0.324884   0.000000
   23  H  2  S   -5.230918   0.000000   0.000000  -3.800065   0.000000
   24  H  2  S    4.718465   0.000000   0.000000   2.963529   0.000000
   25  H  2  X   -0.000000  -0.080357   0.000000   0.000000  -0.008648
   26  H  2  Y   -0.000000   0.000000  -0.080357   0.000000   0.000000
   27  H  2  Z    0.023793   0.000000   0.000000   0.052290   0.000000
   28  H  2  X   -0.000000   1.183483   0.000000   0.000000  -0.023623
   29  H  2  Y   -0.000000   0.000000   1.183483   0.000000   0.000000
   30  H  2  Z   -0.145164   0.000000   0.000000  -1.808619   0.000000

                     21         22         23         24         25
                    1.0274     1.0635     1.4774     1.5600     2.1772
                     E          A1         A1         A1         E   
    1  LI 1  S    0.000000  -0.004636  -0.013016  -0.131903  -0.000000
    2  LI 1  S    0.000000  -0.005690  -0.014025   0.093791  -0.000000
    3  LI 1  S    0.000000  -0.020856  -0.106206  -1.823636  -0.000000
    4  LI 1  S    0.000000  -0.004535   0.215699   3.042846  -0.000000
    5  LI 1  S    0.000000  -1.338057  -1.306955  -2.699963  -0.000000
    6  LI 1  S    0.000000   0.327404   1.849858   2.944294  -0.000000
    7  LI 1  S    0.000000  -0.348861  -1.810123  -0.859416  -0.000000
    8  LI 1  X    0.000000  -0.000000   0.000000   0.000000  -0.000000
    9  LI 1  Y   -1.434984  -0.000000   0.000000   0.000000   0.008127
   10  LI 1  Z    0.000000   1.423303   0.419499   0.012882  -0.000000
   11  LI 1  X    0.000000  -0.000000   0.000000   0.000000  -0.000000
   12  LI 1  Y    1.825687  -0.000000   0.000000   0.000000   0.063505
   13  LI 1  Z    0.000000  -1.054103   0.358827  -0.386570  -0.000000
   14  LI 1  X    0.000000  -0.000000   0.000000   0.000000  -0.000000
   15  LI 1  Y   -1.281505  -0.000000   0.000000   0.000000   0.138613
   16  LI 1  Z    0.000000   1.121788  -0.562098   0.042023  -0.000000
   17  LI 1  X    0.000000  -0.000000   0.000000   0.000000  -0.000000
   18  LI 1  Y    0.432393  -0.000000   0.000000   0.000000  -0.044365
   19  LI 1  Z    0.000000  -0.267275   0.657230  -0.041104  -0.000000
   20  H  2  S    0.000000   0.020018   0.000378  -0.020957  -0.000000
   21  H  2  S    0.000000   0.217502  -2.163080   0.240143  -0.000000
   22  H  2  S    0.000000  -0.568247   4.538742  -0.263296  -0.000000
   23  H  2  S    0.000000   1.492895  -3.853681  -0.469540  -0.000000
   24  H  2  S    0.000000   0.126329   2.423613  -0.009972  -0.000000
   25  H  2  X    0.000000  -0.000000   0.000000   0.000000  -0.000000
   26  H  2  Y   -0.008648  -0.000000   0.000000   0.000000   1.238345
   27  H  2  Z    0.000000  -0.155761  -0.092730   0.270850  -0.000000
   28  H  2  X    0.000000  -0.000000   0.000000   0.000000  -0.000000
   29  H  2  Y   -0.023623  -0.000000   0.000000   0.000000  -0.732239
   30  H  2  Z    0.000000   1.065220   0.439578  -0.617357  -0.000000

                     26         27         28         29         30
                    2.1772     2.2781     6.3029     6.5032    28.1810
                     E          A1         A1         A1         A1  
    1  LI 1  S   -0.000000   0.041463  -0.072592  -0.085666  -1.832221
    2  LI 1  S   -0.000000   0.030692  -1.405915  -1.690442   3.132728
    3  LI 1  S   -0.000000   0.405442   2.546422   3.125592  -2.693971
    4  LI 1  S   -0.000000  -0.565749  -1.623748  -1.989683   1.319648
    5  LI 1  S   -0.000000   1.716505   0.778092   1.453549  -0.772917
    6  LI 1  S   -0.000000  -0.287635  -0.368474  -1.529960   0.690398
    7  LI 1  S   -0.000000  -0.412242  -0.355593   0.791231  -0.191122
    8  LI 1  X    0.008127   0.000000  -0.000000   0.000000  -0.000000
    9  LI 1  Y   -0.000000   0.000000  -0.000000   0.000000  -0.000000
   10  LI 1  Z   -0.000000   0.292635   0.051881  -0.017008  -0.007785
   11  LI 1  X    0.063505   0.000000  -0.000000   0.000000  -0.000000
   12  LI 1  Y   -0.000000   0.000000  -0.000000   0.000000  -0.000000
   13  LI 1  Z   -0.000000  -1.042131   0.103581  -0.150752   0.017448
   14  LI 1  X    0.138613   0.000000  -0.000000   0.000000  -0.000000
   15  LI 1  Y   -0.000000   0.000000  -0.000000   0.000000  -0.000000
   16  LI 1  Z   -0.000000   0.181908  -0.228609   0.251159  -0.022850
   17  LI 1  X   -0.044365   0.000000  -0.000000   0.000000  -0.000000
   18  LI 1  Y   -0.000000   0.000000  -0.000000   0.000000  -0.000000
   19  LI 1  Z   -0.000000   0.114739   0.242252  -0.192364  -0.002530
   20  H  2  S   -0.000000  -0.007730   1.287467  -1.105574   0.017158
   21  H  2  S   -0.000000  -0.154205  -1.963674   1.696039  -0.027850
   22  H  2  S   -0.000000   0.239830   1.821420  -1.644345   0.051740
   23  H  2  S   -0.000000  -1.705655  -1.343844   1.197365  -0.043485
   24  H  2  S   -0.000000   0.850188   0.876148  -0.672320  -0.015840
   25  H  2  X    1.238345   0.000000  -0.000000   0.000000  -0.000000
   26  H  2  Y   -0.000000   0.000000  -0.000000   0.000000  -0.000000
   27  H  2  Z   -0.000000   1.270566   0.060400   0.070181  -0.032463
   28  H  2  X   -0.732239   0.000000  -0.000000   0.000000  -0.000000
   29  H  2  Y   -0.000000   0.000000  -0.000000   0.000000  -0.000000
   30  H  2  Z   -0.000000  -1.492600   0.047150  -0.090047   0.008984
 .....DONE WITH MCSCF ITERATIONS.....
 STEP CPU TIME =     0.14 TOTAL CPU TIME =        0.2 (    0.0 MIN)
 TOTAL WALL CLOCK TIME=        0.2 SECONDS, CPU UTILIZATION IS 100.00%

     ----------------------------------------------------------------
     PROPERTY VALUES FOR THE MCSCF SELF-CONSISTENT FIELD WAVEFUNCTION
     ----------------------------------------------------------------

 THIS MCSCF AVERAGED   2 ROOTS OF DIFFERENT ENERGY.
 SINCE NO STATE-SPECIFIC DENSITY MATRIX IS AVAILABLE,
 PROPERTIES WILL NOT BE COMPUTED.

               580000  WORDS OF DYNAMIC MEMORY USED
 EXECUTION OF GAMESS TERMINATED NORMALLY Wed Aug  9 20:44:11 2017
 DDI: 263640 bytes (0.3 MB / 0 MWords) used by master data server.

 ----------------------------------------
 CPU timing information for all processes
 ========================================
 0: 0.170 + 0.23 = 0.194
 ----------------------------------------
 ddikick.x: exited gracefully.
unset echo
----- accounting info -----
Files used on the master node compute-1-7.local were:
-rw-rw-r-- 1 sarom sarom 4.6K Aug  9 20:44 /scratch/mc-psi-lih.F05
-rw-rw-r-- 1 sarom sarom 528K Aug  9 20:44 /scratch/mc-psi-lih.F08
-rw-rw-r-- 1 sarom sarom 180K Aug  9 20:44 /scratch/mc-psi-lih.F09
-rw-rw-r-- 1 sarom sarom 1.7M Aug  9 20:44 /scratch/mc-psi-lih.F10
-rw-rw-r-- 1 sarom sarom  432 Aug  9 20:44 /scratch/mc-psi-lih.F12
-rw-rw-r-- 1 sarom sarom 176K Aug  9 20:44 /scratch/mc-psi-lih.F15
-rw-rw-r-- 1 sarom sarom  23K Aug  9 20:44 /scratch/mc-psi-lih.F16
rm: cannot remove `/scratch/tmp': Is a directory
ls: No match.
ls: No match.
ls: No match.
Wed Aug  9 20:44:14 CDT 2017
0.262u 0.155s 0:03.67 11.1%	0+0k 16+368io 0pf+0w
/opt/gridengine/default/spool/compute-1-7/active_jobs/35942.1/pe_hostfile compute-1-7.local
