-catch_rsh /opt/gridengine/default/spool/compute-0-7/active_jobs/35936.1/pe_hostfile
compute-0-7
The primary node assigned by SGE to this run is compute-0-7
Warning: no access to tty (Bad file descriptor).
Thus no job control in this shell.
source /home/sarom/dir.git.branch.saromleang-travis-ci/install.info
setenv GMS_PATH /home/sarom/dir.git.branch.saromleang-travis-ci
setenv GMS_BUILD_DIR /home/sarom/dir.git.branch.saromleang-travis-ci
setenv GMS_TARGET linux64
setenv GMS_FORTRAN gfortran
setenv GMS_GFORTRAN_VERNO 4.4
setenv GMS_MATHLIB mkl-so
setenv GMS_MATHLIB none
setenv GMS_MATHLIB_PATH /share/apps/intel/compilers_and_libraries_2017.1.132/linux/mkl/lib/intel64
setenv GMS_MKL_VERNO 12
setenv GMS_DDI_COMM sockets
setenv GMS_LIBCCHEM false
setenv GMS_EIGEN_PATH
setenv GMS_PHI false
setenv GMS_SHMTYPE sysv
setenv GMS_OPENMP false
unset echo
mc-psi-etheth
/home/sarom/dir.git.branch.saromleang-travis-ci/tests/mcscf/psi/parallel
----- GAMESS execution script 'rungms' -----
This job is running on host compute-0-7.local
under operating system Linux at Wed Aug 9 20:42:26 CDT 2017
Available scratch disk space (Kbyte units) at beginning of the job is
Filesystem           1K-blocks      Used Available Use% Mounted on
/dev/sda1             16126920   3962060  11345660  26% /
GAMESS temporary binary files will be written to /scratch
GAMESS supplementary output files will be written to /home/sarom/restart
Copying input file mc-psi-etheth.inp to your run's scratch directory...
cp /home/sarom/dir.git.branch.saromleang-travis-ci/tests/mcscf/psi/parallel/mc-psi-etheth.inp /scratch/mc-psi-etheth.F05
unset echo
The generated host list is
compute-0-7.local
/home/sarom/dir.git.branch.saromleang-travis-ci/ddikick.x /home/sarom/dir.git.branch.saromleang-travis-ci/gamess.00.x mc-psi-etheth -ddi 1 1 compute-0-7.local -scr /scratch

 Distributed Data Interface kickoff program.
 Initiating 1 compute processes on 1 nodes to run the following command:
 /home/sarom/dir.git.branch.saromleang-travis-ci/gamess.00.x mc-psi-etheth 

          ******************************************************
          *         GAMESS VERSION = 20 APR 2017 (R1)          *
          *             FROM IOWA STATE UNIVERSITY             *
          * M.W.SCHMIDT, K.K.BALDRIDGE, J.A.BOATZ, S.T.ELBERT, *
          *   M.S.GORDON, J.H.JENSEN, S.KOSEKI, N.MATSUNAGA,   *
          *          K.A.NGUYEN, S.J.SU, T.L.WINDUS,           *
          *       TOGETHER WITH M.DUPUIS, J.A.MONTGOMERY       *
          *         J.COMPUT.CHEM.  14, 1347-1363(1993)        *
          **************** 64 BIT LINUX VERSION ****************

  SINCE 1993, STUDENTS AND POSTDOCS WORKING AT IOWA STATE UNIVERSITY
  AND ALSO IN THEIR VARIOUS JOBS AFTER LEAVING ISU HAVE MADE IMPORTANT
  CONTRIBUTIONS TO THE CODE:
     IVANA ADAMOVIC, CHRISTINE AIKENS, YURI ALEXEEV, POOJA ARORA,
     ANDREY ASADCHEV, ROB BELL, PRADIPTA BANDYOPADHYAY, JONATHAN BENTZ,
     BRETT BODE, KURT BRORSEN, CALEB CARLIN, GALINA CHABAN, WEI CHEN,
     CHEOL HO CHOI, PAUL DAY, ALBERT DEFUSCO, NUWAN DESILVA, TIM DUDLEY,
     DMITRI FEDOROV, GRAHAM FLETCHER, MARK FREITAG, KURT GLAESEMANN,
     DAN KEMP, GRANT MERRILL, NORIYUKI MINEZAWA, JONATHAN MULLIN,
     TAKESHI NAGATA, SEAN NEDD, HEATHER NETZLOFF, BOSILJKA NJEGIC, RYAN OLSON,
     MIKE PAK, SPENCER PRUITT, LUKE ROSKOP, JIM SHOEMAKER, LYUDMILA SLIPCHENKO,
     TONY SMITH, SAROM SOK LEANG, JIE SONG, TETSUYA TAKETSUGU, SIMON WEBB,
     PENG XU, SOOHAENG YOO, FEDERICO ZAHARIEV

  ADDITIONAL CODE HAS BEEN PROVIDED BY COLLABORATORS IN OTHER GROUPS:
     IOWA STATE UNIVERSITY:
          JOE IVANIC, AARON WEST, LAIMUTIS BYTAUTAS, KLAUS RUEDENBERG
     UNIVERSITY OF TOKYO: KIMIHIKO HIRAO, TAKAHITO NAKAJIMA,
          TAKAO TSUNEDA, MUNEAKI KAMIYA, SUSUMU YANAGISAWA,
          KIYOSHI YAGI, MAHITO CHIBA, SEIKEN TOKURA, NAOAKI KAWAKAMI
     UNIVERSITY OF AARHUS: FRANK JENSEN
     UNIVERSITY OF IOWA: VISVALDAS KAIRYS, HUI LI
     NATIONAL INST. OF STANDARDS AND TECHNOLOGY: WALT STEVENS, DAVID GARMER
     UNIVERSITY OF PISA: BENEDETTA MENNUCCI, JACOPO TOMASI
     UNIVERSITY OF MEMPHIS: HENRY KURTZ, PRAKASHAN KORAMBATH
     UNIVERSITY OF ALBERTA: TOBY ZENG, MARIUSZ KLOBUKOWSKI
     UNIVERSITY OF NEW ENGLAND: MARK SPACKMAN
     MIE UNIVERSITY: HIROAKI UMEDA
     NAT. INST. OF ADVANCED INDUSTRIAL SCIENCE AND TECHNOLOGY: KAZUO KITAURA
     MICHIGAN STATE UNIVERSITY:
          KAROL KOWALSKI, MARTA WLOCH, JEFFREY GOUR, JESSE LUTZ,
          WEI LI, PIOTR PIECUCH
     UNIVERSITY OF SILESIA: MONIKA MUSIAL, STANISLAW KUCHARSKI
     FACULTES UNIVERSITAIRES NOTRE-DAME DE LA PAIX:
          OLIVIER QUINET, BENOIT CHAMPAGNE
     UNIVERSITY OF CALIFORNIA - SANTA BARBARA: BERNARD KIRTMAN
     INSTITUTE FOR MOLECULAR SCIENCE:
          KAZUYA ISHIMURA, MICHIO KATOUDA, AND SHIGERU NAGASE
     UNIVERSITY OF NOTRE DAME: ANNA POMOGAEVA, DAN CHIPMAN
     KYUSHU UNIVERSITY:
          HARUYUKI NAKANO,
          FENG LONG GU, JACEK KORCHOWIEC, MARCIN MAKOWSKI, AND YURIKO AOKI,
          HIROTOSHI MORI AND EISAKU MIYOSHI
     PENNSYLVANIA STATE UNIVERSITY:
          TZVETELIN IORDANOV, CHET SWALINA, JONATHAN SKONE,
          SHARON HAMMES-SCHIFFER
     WASEDA UNIVERSITY:
          MASATO KOBAYASHI, TOMOKO AKAMA, TSUGUKI TOUMA,
          TAKESHI YOSHIKAWA, YASUHIRO IKABATA, JUNJI SEINO,
          YUYA NAKAJIMA, HIROMI NAKAI
     NANJING UNIVERSITY: SHUHUA LI
     UNIVERSITY OF NEBRASKA:
          PEIFENG SU, DEJUN SI, NANDUN THELLAMUREGE, YALI WANG, HUI LI
     UNIVERSITY OF ZURICH: ROBERTO PEVERATI, KIM BALDRIDGE
     N. COPERNICUS UNIVERSITY AND JACKSON STATE UNIVERSITY:
          MARIA BARYSZ
     UNIVERSITY OF COPENHAGEN: Jimmy Kromann, CASPER STEINMANN
     TOKYO INSTITUTE OF TECHNOLOGY: HIROYA NAKATA
     NAGOYA UNIVERSITY: YOSHIO NISHIMOTO, STEPHAN IRLE
     MOSCOW STATE UNIVERSITY: VLADIMIR MIRONOV

 EXECUTION OF GAMESS BEGUN Wed Aug  9 20:42:26 2017

            ECHO OF THE FIRST FEW INPUT CARDS -
 INPUT CARD>!   This job reproduces the MCSCF localized orbital analysis of                 
 INPUT CARD>!        D.F.Feller, M.W.Schmidt, K.Ruedenberg                                  
 INPUT CARD>!        J.Am.Chem.Soc. 104, 960-967(1982)                                      
 INPUT CARD>!   The coordinates come from Table I, laboriously hand optimized!              
 INPUT CARD>!   Basis B, which is C(10s5p)/[3s2p] and H(4s)/[2s], has 56 AOs.               
 INPUT CARD>!   Literature values are E(RHF)= -157.0813 and E(FORS)= -157.1524              
 INPUT CARD>!                                                                               
 INPUT CARD>!   In the old days we had to approximate the FORS calculation by               
 INPUT CARD>!   optimizing the orbitals using the 8 most important CSFs in                  
 INPUT CARD>!   a MCSCF, followed by a CI with all 42 Ag CSFs.  Today it is                 
 INPUT CARD>!   trivial to fully optimize this active space directly, so the                
 INPUT CARD>!   FINAL MCSCF E= -157.1528851147 is a bit lower than the paper.               
 INPUT CARD>!   The present program uses 104 determinants of Ag symmetry.                   
 INPUT CARD>!                                                                               
 INPUT CARD>!   The results of the oriented localized orbital analysis are                  
 INPUT CARD>!                         present  Table IV                                     
 INPUT CARD>!        C(populations)     1.011   1.0006                                      
 INPUT CARD>!        H(populations)     0.979   0.9987                                      
 INPUT CARD>!        CH(neighbor)       0.68    0.6798                                      
 INPUT CARD>!        CC(neighbor)       0.51    0.5122                                      
 INPUT CARD>!        CH(next)            --     0.0006                                      
 INPUT CARD>!        CC(next)            --    -0.0018                                      
 INPUT CARD>!        CH(third)         -0.38   -0.3778                                      
 INPUT CARD>!        CC(third)         -0.11   -0.1128                                      
 INPUT CARD>!   Note that no orienting is actually done in this example,                    
 INPUT CARD>!   since there is but one localized active orbital on each atom.               
 INPUT CARD>!   Phase changes in a localized orbital can lead to phase changes in           
 INPUT CARD>!   printed bond orders, values above are after correct phase choices.          
 INPUT CARD>!                                                                               
 INPUT CARD>!   answers have not changed since at least May 2005                            
 INPUT CARD>!   This run takes 1 seconds on a 2.66 GHz Cloverton (18 Mar 2010)              
 INPUT CARD>!                                                                               
 INPUT CARD> $contrl scftyp=mcscf runtyp=energy local=ruednbrg units=bohr $end              
 INPUT CARD> $system mwords=2 memddi=0 $end                                                 
 INPUT CARD>!   We need to raise an occupied Ag orbital up into the active space.           
 INPUT CARD>!   In the MVOQ=4 RHF virtuals, we bring a B2u down to be active.               
 INPUT CARD> $guess  guess=moread norb=56 norder=1                                          
 INPUT CARD>         iorder(11)=12,13,14,15,  11,16,17,18,19,26,  20,21,22,23,24,25 $end    
 INPUT CARD> $mcscf  cistep=aldet soscf=.true. $end                                         
 INPUT CARD> $det    ncore=14 nact=6 nels=6 $end                                            
 INPUT CARD> $local  orient=.true. $end                                                     
 INPUT CARD> $data                                                                          
 INPUT CARD>concerted dihydrogen exchange between ethane and ethylene                       
 INPUT CARD>Dnh 2                                                                           
 INPUT CARD>                                                                                
 INPUT CARD>Carbon   6.0  2.555  1.341  0.0                                                 
 INPUT CARD>  S 10  ! alpha=0.049887 beta=3.11117                                           
 INPUT CARD>   1     .1552069378 1.41007939E-03                                             
 INPUT CARD>   2     .4828751686 -4.07038651E-03                                            
 INPUT CARD>   3    1.5023067384 9.55265735E-02                                             
    2000000 WORDS OF MEMORY AVAILABLE


     RUN TITLE
     ---------
 concerted dihydrogen exchange between ethane and ethylene                       

 THE POINT GROUP OF THE MOLECULE IS DNH     
 THE ORDER OF THE PRINCIPAL AXIS IS     2

 ATOM      ATOMIC                      COORDINATES (BOHR)
           CHARGE         X                   Y                   Z
 CARBON      6.0    -2.5550000000       -1.3410000000        0.0000000000
 CARBON      6.0     2.5550000000       -1.3410000000        0.0000000000
 CARBON      6.0    -2.5550000000        1.3410000000        0.0000000000
 CARBON      6.0     2.5550000000        1.3410000000        0.0000000000
 HYDROGEN    1.0    -0.0000000000       -1.8780000000        0.0000000000
 HYDROGEN    1.0     0.0000000000        1.8780000000        0.0000000000
 HYDROGEN    1.0    -3.0950000000       -2.3150000000        1.7290000000
 HYDROGEN    1.0     3.0950000000        2.3150000000       -1.7290000000
 HYDROGEN    1.0    -3.0950000000       -2.3150000000       -1.7290000000
 HYDROGEN    1.0     3.0950000000       -2.3150000000       -1.7290000000
 HYDROGEN    1.0    -3.0950000000        2.3150000000       -1.7290000000
 HYDROGEN    1.0     3.0950000000       -2.3150000000        1.7290000000
 HYDROGEN    1.0    -3.0950000000        2.3150000000        1.7290000000
 HYDROGEN    1.0     3.0950000000        2.3150000000        1.7290000000

          INTERNUCLEAR DISTANCES (ANGS.)
          ------------------------------

                1 CARB       2 CARB       3 CARB       4 CARB       5 HYDR  

   1 CARB    0.0000000    2.7040957 *  1.4192534 *  3.0539178    1.3815879 *
   2 CARB    2.7040957 *  0.0000000    3.0539178    1.4192534 *  1.3815879 *
   3 CARB    1.4192534 *  3.0539178    0.0000000    2.7040957 *  2.1747824 *
   4 CARB    3.0539178    1.4192534 *  2.7040957 *  0.0000000    2.1747824 *
   5 HYDR    1.3815879 *  1.3815879 *  2.1747824 *  2.1747824 *  0.0000000  
   6 HYDR    2.1747824 *  2.1747824 *  1.3815879 *  1.3815879 *  1.9875897 *
   7 HYDR    1.0883205 *  3.1689110    2.1591065 *  3.6768596    1.8902397 *
   8 HYDR    3.6768596    2.1591065 *  3.1689110    1.0883205 *  2.9056465 *
   9 HYDR    1.0883205 *  3.1689110    2.1591065 *  3.6768596    1.8902397 *
  10 HYDR    3.1689110    1.0883205 *  3.6768596    2.1591065 *  1.8902397 *
  11 HYDR    2.1591065 *  3.6768596    1.0883205 *  3.1689110    2.9056465 *
  12 HYDR    3.1689110    1.0883205 *  3.6768596    2.1591065 *  1.8902397 *
  13 HYDR    2.1591065 *  3.6768596    1.0883205 *  3.1689110    2.9056465 *
  14 HYDR    3.6768596    2.1591065 *  3.1689110    1.0883205 *  2.9056465 *

                6 HYDR       7 HYDR       8 HYDR       9 HYDR      10 HYDR  

   1 CARB    2.1747824 *  1.0883205 *  3.6768596    1.0883205 *  3.1689110  
   2 CARB    2.1747824 *  3.1689110    2.1591065 *  3.1689110    1.0883205 *
   3 CARB    1.3815879 *  2.1591065 *  3.1689110    2.1591065 *  3.6768596  
   4 CARB    1.3815879 *  3.6768596    1.0883205 *  3.6768596    2.1591065 *
   5 HYDR    1.9875897 *  1.8902397 *  2.9056465 *  1.8902397 *  1.8902397 *
   6 HYDR    0.0000000    2.9056465 *  1.8902397 *  2.9056465 *  2.9056465 *
   7 HYDR    2.9056465 *  0.0000000    4.4811898    1.8298949 *  3.7520818  
   8 HYDR    1.8902397 *  4.4811898    0.0000000    4.0905436    2.4500907 *
   9 HYDR    2.9056465 *  1.8298949 *  4.0905436    0.0000000    3.2756072  
  10 HYDR    2.9056465 *  3.7520818    2.4500907 *  3.2756072    0.0000000  
  11 HYDR    1.8902397 *  3.0580156    3.2756072    2.4500907 *  4.0905436  
  12 HYDR    2.9056465 *  3.2756072    3.0580156    3.7520818    1.8298949 *
  13 HYDR    1.8902397 *  2.4500907 *  3.7520818    3.0580156    4.4811898  
  14 HYDR    1.8902397 *  4.0905436    1.8298949 *  4.4811898    3.0580156  

               11 HYDR      12 HYDR      13 HYDR      14 HYDR  

   1 CARB    2.1591065 *  3.1689110    2.1591065 *  3.6768596  
   2 CARB    3.6768596    1.0883205 *  3.6768596    2.1591065 *
   3 CARB    1.0883205 *  3.6768596    1.0883205 *  3.1689110  
   4 CARB    3.1689110    2.1591065 *  3.1689110    1.0883205 *
   5 HYDR    2.9056465 *  1.8902397 *  2.9056465 *  2.9056465 *
   6 HYDR    1.8902397 *  2.9056465 *  1.8902397 *  1.8902397 *
   7 HYDR    3.0580156    3.2756072    2.4500907 *  4.0905436  
   8 HYDR    3.2756072    3.0580156    3.7520818    1.8298949 *
   9 HYDR    2.4500907 *  3.7520818    3.0580156    4.4811898  
  10 HYDR    4.0905436    1.8298949 *  4.4811898    3.0580156  
  11 HYDR    0.0000000    4.4811898    1.8298949 *  3.7520818  
  12 HYDR    4.4811898    0.0000000    4.0905436    2.4500907 *
  13 HYDR    1.8298949 *  4.0905436    0.0000000    3.2756072  
  14 HYDR    3.7520818    2.4500907 *  3.2756072    0.0000000  

  * ... LESS THAN  3.000


     ATOMIC BASIS SET
     ----------------
 THE CONTRACTED PRIMITIVE FUNCTIONS HAVE BEEN UNNORMALIZED
 THE CONTRACTED BASIS FUNCTIONS ARE NOW NORMALIZED TO UNITY

  SHELL TYPE  PRIMITIVE        EXPONENT          CONTRACTION COEFFICIENT(S)

 CARBON    

     16   S       1             0.1552069    0.001410079391
     16   S       2             0.4828752   -0.004070386513
     16   S       3             1.5023067    0.095526573563
     16   S       4             4.6739317    0.481163776316
     16   S       5            14.5413959    0.385761545253
     16   S       6            45.2407548    0.141664966093
     16   S       7           140.7516792    0.040533146527
     16   S       8           437.9024018    0.010500918307
     16   S       9          1362.3888155    0.002178173351
     16   S      10          4238.6232110    0.000935623680

     17   S      11             0.1552069    0.542649757886
     17   S      12             0.4828752    0.567864721880
     17   S      13             1.5023067   -0.017886127896
     17   S      14             4.6739317   -0.197655574958
     17   S      15            14.5413959   -0.097503243979
     17   S      16            45.2407548   -0.032776032193
     17   S      17           140.7516792   -0.008676489168
     17   S      18           437.9024018   -0.002298054120
     17   S      19          1362.3888155   -0.000454517785
     17   S      20          4238.6232110   -0.000201729068

     18   S      21             0.1552069    1.000000000000

     19   P      22             0.1274975    0.377118854935
     19   P      23             0.4271498    0.519723960911
     19   P      24             1.4310627    0.259865693955
     19   P      25             4.7944323    0.062796873489
     19   P      26            16.0625946    0.014544118498

     20   P      27             0.1274975    1.000000000000

 HYDROGEN  

     23   S      28             0.1348043    0.580858883894
     23   S      29             0.5492117    0.434032866921
     23   S      30             2.2375654    0.095027478283
     23   S      31             9.1161547    0.024698075296

     24   S      32             0.1348043    1.000000000000

 HYDROGEN  

     39   S      33             0.1348043    0.580858883894
     39   S      34             0.5492117    0.434032866921
     39   S      35             2.2375654    0.095027478283
     39   S      36             9.1161547    0.024698075296

     40   S      37             0.1348043    1.000000000000

 TOTAL NUMBER OF BASIS SET SHELLS             =   40
 NUMBER OF CARTESIAN GAUSSIAN BASIS FUNCTIONS =   56
 NUMBER OF ELECTRONS                          =   34
 CHARGE OF MOLECULE                           =    0
 SPIN MULTIPLICITY                            =    1
 NUMBER OF OCCUPIED ORBITALS (ALPHA)          =   17
 NUMBER OF OCCUPIED ORBITALS (BETA )          =   17
 TOTAL NUMBER OF ATOMS                        =   14
 THE NUCLEAR REPULSION ENERGY IS      127.3470907323

     $CONTRL OPTIONS
     ---------------
 SCFTYP=MCSCF        RUNTYP=ENERGY       EXETYP=RUN     
 MPLEVL=       0     CITYP =NONE         CCTYP =NONE         VBTYP =NONE    
 DFTTYP=NONE         TDDFT =NONE    
 MULT  =       1     ICHARG=       0     NZVAR =       0     COORD =UNIQUE  
 PP    =NONE         RELWFN=NONE         LOCAL =RUEDNBRG     NUMGRD=       F
 ISPHER=      -1     NOSYM =       0     MAXIT =      30     UNITS =BOHR    
 PLTORB=       F     MOLPLT=       F     AIMPAC=       F     FRIEND=        
 NPRINT=       7     IREST =       0     GEOM  =INPUT   
 NORMF =       0     NORMP =       0     ITOL  =      20     ICUT  =       9
 INTTYP=BEST         GRDTYP=BEST         QMTTOL= 1.0E-06

     $SYSTEM OPTIONS
     ---------------
  REPLICATED MEMORY=     2000000 WORDS (ON EVERY NODE).
 DISTRIBUTED MEMDDI=           0 MILLION WORDS IN AGGREGATE,
 MEMDDI DISTRIBUTED OVER   1 PROCESSORS IS           0 WORDS/PROCESSOR.
 TOTAL MEMORY REQUESTED ON EACH PROCESSOR=     2000000 WORDS.
 TIMLIM=      525600.00 MINUTES, OR     365.0 DAYS.
 PARALL= F  BALTYP=  DLB     KDIAG=    0  COREFL= F
 MXSEQ2=     300 MXSEQ3=     150  mem10=         0

          ----------------
          PROPERTIES INPUT
          ----------------

     MOMENTS            FIELD           POTENTIAL          DENSITY
 IEMOM =       1   IEFLD =       0   IEPOT =       0   IEDEN =       0
 WHERE =COMASS     WHERE =NUCLEI     WHERE =NUCLEI     WHERE =NUCLEI  
 OUTPUT=BOTH       OUTPUT=BOTH       OUTPUT=BOTH       OUTPUT=BOTH    
 IEMINT=       0   IEFINT=       0                     IEDINT=       0
                                                       MORB  =       0

     -------------------------------
     INTEGRAL TRANSFORMATION OPTIONS
     -------------------------------
     NWORD  =            0
     CUTOFF = 1.0E-09     MPTRAN =       0
     DIRTRF =       F     AOINTS =DUP     

          ----------------------
          MCSCF INPUT PARAMETERS
          ----------------------
 CONVERGER SELECTION: FOCAS = F  SOSCF = T  FULLNR = F  QUD = F  JACOBI = F
 SECULAR EQUATION METHOD CISTEP = ALDET   
 --- GENERAL INPUT OPTIONS:
 MAXIT =      60  MICIT =       5  ACURCY= 1.000E-05
 DAMP  =   0.000  CANONC=       T  ENGTOL= 1.000E-10
 EKT   =       F  NPUNCH=       2  NWORD =         0
 REGENERATE CI AFTER CONVERGENCE = NONE    
 DIABATIZATION AFTER CONVERGENCE =        F
 --- INPUT FOR SOSCF CONVERGER:
 FORS  =       T  NOFO  =       1

          -----------------------------
          LOCALIZATION INPUT PARAMETERS
          -----------------------------
           LOCAL=RUEDNBRG      NOUTA=       4
          PRTLOC=       F      NOUTB=       0
          MAXLOC=     250     CVGLOC=1.00E-06
           FCORE=       T     SYMLOC=       F
          MOIDON=       F     EDCOMP=       F
          DIPDCM=       F      NPROT=       0
          QADDCM=       F     DEPRNT=       F
          POLNUM=       F     ORIENT=       T
          POLDYN=       F      VMTOL=1.50E-01
          NPRDTL=       2
          MOOUTA =      1    2    3    4

          ----------------------
          INTEGRAL INPUT OPTIONS
          ----------------------
 NOPK  =       1 NORDER=       0 SCHWRZ=       T

     ------------------------------------------
     THE POINT GROUP IS DNH, NAXIS= 2, ORDER= 8
     ------------------------------------------

     DIMENSIONS OF THE SYMMETRY SUBSPACES ARE
 AG  =   11     AU  =    4     B3U =    9     B3G =    4     B1G =    9
 B1U =    4     B2U =   11     B2G =    4

 ..... DONE SETTING UP THE RUN .....
 STEP CPU TIME =     0.05 TOTAL CPU TIME =        0.0 (    0.0 MIN)
 TOTAL WALL CLOCK TIME=        0.1 SECONDS, CPU UTILIZATION IS  83.33%

          ********************
          1 ELECTRON INTEGRALS
          ********************
 TIME TO DO   DIPOLE INTEGRALS=      0.02
 ...... END OF ONE-ELECTRON INTEGRALS ......
 STEP CPU TIME =     0.02 TOTAL CPU TIME =        0.1 (    0.0 MIN)
 TOTAL WALL CLOCK TIME=        0.1 SECONDS, CPU UTILIZATION IS 100.00%

          -------------
          GUESS OPTIONS
          -------------
          GUESS =MOREAD            NORB  =      56          NORDER=       1
          MIX   =       F          PRTMO =       F          PUNMO =       F
          TOLZ  = 1.0E-08          TOLE  = 1.0E-05
          SYMDEN=       F          PURIFY=       F

 INITIAL GUESS ORBITALS GENERATED BY MOREAD   ROUTINE.

 SYMMETRIES FOR INITIAL GUESS ORBITALS FOLLOW.   BOTH SET(S).
    17 ORBITALS ARE OCCUPIED (    4 CORE ORBITALS).
     1=B3U      2=AG       3=B2U      4=B1G      5=AG       6=B3U      7=B2U 
     8=B1G      9=B1U     10=B2G     11=AG      12=B3U     13=B3G     14=AU  
    15=AG      16=B2U     17=B3U     18=B1G     19=AG      20=B2U     21=AG  
    22=B2U     23=B1U     24=B2G     25=B3U     26=B1G     27=B1U     28=B2U 
    29=AG      30=B3G     31=B1G     32=AU      33=AG      34=B3G     35=B3U 
    36=B3U     37=B2U     38=B2G     39=B2U     40=B1G     41=AG      42=B1G 
    43=AU      44=B2U     45=B1U     46=B2G     47=B3U     48=AG      49=B3G 
    50=B2U     51=B1G     52=B3U     53=AU      54=AG      55=B1G     56=B2U 
 ...... END OF INITIAL ORBITAL SELECTION ......
 STEP CPU TIME =     0.00 TOTAL CPU TIME =        0.1 (    0.0 MIN)
 TOTAL WALL CLOCK TIME=        0.1 SECONDS, CPU UTILIZATION IS  87.50%

                    ----------------------
                    AO INTEGRAL TECHNOLOGY
                    ----------------------
     S,P,L SHELL ROTATED AXIS INTEGRALS, REPROGRAMMED BY
        KAZUYA ISHIMURA (IMS) AND JOSE SIERRA (SYNSTAR).
     S,P,D,L SHELL ROTATED AXIS INTEGRALS PROGRAMMED BY
        KAZUYA ISHIMURA (INSTITUTE FOR MOLECULAR SCIENCE).
     S,P,D,F,G SHELL TO TOTAL QUARTET ANGULAR MOMENTUM SUM 5,
        ERIC PROGRAM BY GRAHAM FLETCHER (ELORET AND NASA ADVANCED
        SUPERCOMPUTING DIVISION, AMES RESEARCH CENTER).
     S,P,D,F,G,L SHELL GENERAL RYS QUADRATURE PROGRAMMED BY
        MICHEL DUPUIS (PACIFIC NORTHWEST NATIONAL LABORATORY).

          --------------------
          2 ELECTRON INTEGRALS
          --------------------

 THE -PK- OPTION IS OFF, THE INTEGRALS ARE NOT IN SUPERMATRIX FORM.
 STORING   15000 INTEGRALS/RECORD ON DISK, USING 12 BYTES/INTEGRAL.
 TWO ELECTRON INTEGRAL EVALUATION REQUIRES   90176 WORDS OF MEMORY.
 SCHWARZ INEQUALITY OVERHEAD:      1596 INTEGRALS, T=        0.00
 II,JST,KST,LST =  1  1  1  1 NREC =         1 INTLOC =    1
 II,JST,KST,LST =  2  1  1  1 NREC =         1 INTLOC =    1
 II,JST,KST,LST =  3  1  1  1 NREC =         1 INTLOC =    1
 II,JST,KST,LST =  4  1  1  1 NREC =         1 INTLOC =    1
 II,JST,KST,LST =  5  1  1  1 NREC =         1 INTLOC =    1
 II,JST,KST,LST =  6  1  1  1 NREC =         1 INTLOC =    1
 II,JST,KST,LST =  7  1  1  1 NREC =         1 INTLOC =    1
 II,JST,KST,LST =  8  1  1  1 NREC =         1 INTLOC =    1
 II,JST,KST,LST =  9  1  1  1 NREC =         1 INTLOC =    1
 II,JST,KST,LST = 10  1  1  1 NREC =         1 INTLOC =    1
 II,JST,KST,LST = 11  1  1  1 NREC =         1 INTLOC =    1
 II,JST,KST,LST = 12  1  1  1 NREC =         1 INTLOC =    1
 II,JST,KST,LST = 13  1  1  1 NREC =         1 INTLOC =    1
 II,JST,KST,LST = 14  1  1  1 NREC =         1 INTLOC =    1
 II,JST,KST,LST = 15  1  1  1 NREC =         1 INTLOC =    1
 II,JST,KST,LST = 16  1  1  1 NREC =         1 INTLOC =    1
 II,JST,KST,LST = 17  1  1  1 NREC =         1 INTLOC =   14
 II,JST,KST,LST = 18  1  1  1 NREC =         1 INTLOC =  178
 II,JST,KST,LST = 19  1  1  1 NREC =         1 INTLOC =  805
 II,JST,KST,LST = 20  1  1  1 NREC =         1 INTLOC = 6462
 II,JST,KST,LST = 21  1  1  1 NREC =         2 INTLOC =13104
 II,JST,KST,LST = 22  1  1  1 NREC =         2 INTLOC =13104
 II,JST,KST,LST = 23  1  1  1 NREC =         2 INTLOC =13104
 II,JST,KST,LST = 24  1  1  1 NREC =         3 INTLOC = 6070
 II,JST,KST,LST = 25  1  1  1 NREC =         4 INTLOC =  571
 II,JST,KST,LST = 26  1  1  1 NREC =         4 INTLOC =  571
 II,JST,KST,LST = 27  1  1  1 NREC =         4 INTLOC =  571
 II,JST,KST,LST = 28  1  1  1 NREC =         4 INTLOC =  571
 II,JST,KST,LST = 29  1  1  1 NREC =         4 INTLOC =  571
 II,JST,KST,LST = 30  1  1  1 NREC =         4 INTLOC =  571
 II,JST,KST,LST = 31  1  1  1 NREC =         4 INTLOC =  571
 II,JST,KST,LST = 32  1  1  1 NREC =         4 INTLOC =  571
 II,JST,KST,LST = 33  1  1  1 NREC =         4 INTLOC =  571
 II,JST,KST,LST = 34  1  1  1 NREC =         4 INTLOC =  571
 II,JST,KST,LST = 35  1  1  1 NREC =         4 INTLOC =  571
 II,JST,KST,LST = 36  1  1  1 NREC =         4 INTLOC =  571
 II,JST,KST,LST = 37  1  1  1 NREC =         4 INTLOC =  571
 II,JST,KST,LST = 38  1  1  1 NREC =         4 INTLOC =  571
 II,JST,KST,LST = 39  1  1  1 NREC =         4 INTLOC =  571
 II,JST,KST,LST = 40  1  1  1 NREC =         7 INTLOC =  608
 SCHWARZ INEQUALITY TEST SKIPPED           5 INTEGRAL BLOCKS.
 TOTAL NUMBER OF NONZERO TWO-ELECTRON INTEGRALS =              163657
         11 INTEGRAL RECORDS WERE STORED ON DISK FILE  8.
  ...... END OF TWO-ELECTRON INTEGRALS .....
 STEP CPU TIME =     0.25 TOTAL CPU TIME =        0.3 (    0.0 MIN)
 TOTAL WALL CLOCK TIME=        0.3 SECONDS, CPU UTILIZATION IS  96.97%

          -----------------
          MCSCF CALCULATION
          -----------------

 ----- NUCLEAR ENERGY ----- =       127.3470907323

     --------------------------------------------------
          AMES LABORATORY DETERMINANTAL FULL CI
     PROGRAM WRITTEN BY JOE IVANIC AND KLAUS RUEDENBERG
     --------------------------------------------------

 THE POINT GROUP                  =   D2H     
 THE STATE SYMMETRY               =   AG      
 NUMBER OF CORE ORBITALS          =   14
 NUMBER OF ACTIVE ORBITALS        =    6
 NUMBER OF ALPHA ELECTRONS        =   17 (   3 ACTIVE)
 NUMBER OF BETA ELECTRONS         =   17 (   3 ACTIVE)
 NUMBER OF OCCUPIED ORBITALS      =   20
 NUMBER OF CI STATES REQUESTED    =    1
 NUMBER OF CI STARTING VECTORS    =    1
 MAX. NO. OF CI EXPANSION VECTORS =   10
 SIZE OF INITIAL CI GUESS MATRIX  =  300
 MAX. NO. OF CI ITERS/STATE       =  100
 CI DIAGONALIZATION CRITERION     = 1.00E-05
 PURE SPIN STATE AVERAGED 1E- AND 2E- DENSITY MATRIX OPTION=.T.
 STATE=   1 DM2 WEIGHT=   1.00000

 CORRELATION ENERGY ANALYSIS      =    F

 SYMMETRIES FOR THE  14 CORE,   6 ACTIVE ARE

     CORE= B3U   AG    B2U   B1G   AG    B3U   B2U   B1G   B1U   B2G 
           AG    B3U   B3G   AU  

   ACTIVE= AG    B2U   B3U   B1G   AG    B2U 
 OPENING FILE DAFL30 WITH      81 LOGICAL RECORDS OF    3136 WORDS
 WITH A MAXIMUM OF         162 PHYSICAL RECORDS OF    2048 WORDS

          ------------------------------
          CASSCF INTEGRAL TRANSFORMATION
          ------------------------------
 AO INTEGRALS WILL BE READ IN FROM DISK...

 NUMBER OF CORE MOLECULAR ORBITALS     =    14
 NUMBER OF OCCUPIED MOLECULAR ORBITALS =    20
 TOTAL NUMBER OF MOLECULAR ORBITALS    =    56
 TOTAL NUMBER OF ATOMIC ORBITALS       =    56

 ----- CHOOSING THREE STEPS TRANSFORMATION -----
 NUMBER OF WORDS USED      =     637753
 NUMBER OF WORDS AVAILABLE =    2000000
 NUMBER OF PASSES          =          1

 ----- NUCLEAR REPULSION ENERGY =    127.34709073
 ----- FROZEN CORE ENERGY       =   -277.52985357

 ... SYMMETRY ...           CPU =    0.00
 ... (PQ|RS) -> (PQ|KL) ... CPU =    0.01
 ... (PQ|KL) -> (IJ|KL) ... CPU =    0.00

 NUMBER OF (PQ|KL) INTEGRALS WRITTEN      33516
 NUMBER OF (IJ|KL) INTEGRALS WRITTEN         71
 ..... END OF CAS INTEGRAL TRANSFORMATION .....
 STEP CPU TIME =     0.01 TOTAL CPU TIME =        0.3 (    0.0 MIN)
 TOTAL WALL CLOCK TIME=        0.3 SECONDS, CPU UTILIZATION IS  97.06%

     --------------------------------------------------
          AMES LABORATORY DETERMINANTAL FULL CI
     PROGRAM WRITTEN BY JOE IVANIC AND KLAUS RUEDENBERG
     --------------------------------------------------

 THE NUMBER OF DETERMINANTS HAVING SPACE SYMMETRY AG 
 IN POINT GROUP D2H  WITH SZ=  0.0 IS            104
 THE DETERMINANT FULL CI REQUIRES          176502 WORDS
 SMALL CI MATRIX, JUST USING INCORE DIAGONALIZATION...

 CI EIGENVECTORS WILL BE LABELED IN GROUP=D2H     
 PRINTING CI COEFFICIENTS LARGER THAN 5.000E-02

 STATE   1  ENERGY=      -157.1347620888  S=  0.00  SZ=  0.00  SPACE SYM=AG  

 ALPHA  | BETA   | CI COEFFICIENT
--------|--------|---------------
 111000 | 111000 |   0.9667063846
 110100 | 110100 |  -0.1690763798
 101100 | 110010 |   0.0690593772
 110010 | 101100 |   0.0690593772
 100110 | 111000 |  -0.0621190758
 111000 | 100110 |  -0.0621190758
 101100 | 101100 |  -0.0598688354
 101010 | 101010 |  -0.0504040192
 ..... DONE WITH DETERMINANT CI COMPUTATION .....
 STEP CPU TIME =     0.00 TOTAL CPU TIME =        0.3 (    0.0 MIN)
 TOTAL WALL CLOCK TIME=        0.3 SECONDS, CPU UTILIZATION IS  97.06%

     --------------------------------------------------
      ONE AND TWO PARTICLE DENSITY MATRIX COMPUTATION
     PROGRAM WRITTEN BY JOE IVANIC AND KLAUS RUEDENBERG
     --------------------------------------------------

      31690 WORDS WILL BE USED TO FORM THE DENSITIES
 THE DENSITIES ARE STATE AVERAGED OVER   1 ROOT(S)
 STATE=   1   ENERGY=     -157.1347620888   WEIGHT= 1.00000   S=  0.00
 SIEVING THE AG   SYMMETRY NONZERO DENSITY ELEMENTS IN GROUP D2H     
         71 NONZERO DM2 ELEMENTS WRITTEN IN       1 RECORDS TO FILE 15
 ..... DONE WITH 1 AND 2 PARTICLE DENSITY MATRIX .....
 STEP CPU TIME =     0.00 TOTAL CPU TIME =        0.3 (    0.0 MIN)
 TOTAL WALL CLOCK TIME=        0.3 SECONDS, CPU UTILIZATION IS  97.06%

          --------------------------------------
          APPROXIMATE SECOND-ORDER MCSCF PROGRAM
          --------------------------------------
          PROGRAM WRITTEN BY G.CHABAN, A.MARQUEZ, AND M.DUPUIS

  NUMBER OF WORDS NEEDED     =      84574
  NUMBER AVAILABLE           =    2000000

 ----- GAMMA(IJKL)*(PQ|KL) PRODUCTS ----- CPU TIME =      0.000
 ----- ORBITAL SYMMETRY             ----- CPU TIME =      0.000
 ----- FOCK OPERATORS CONSTRUCTION  ----- CPU TIME =      0.010
 ----- WARNING : CORE-ACTIVE GAP    =    0.16344
     MICIT =   1 ASYMM =    0.014857 ROTMAX =    0.059571
 ----- EFFECTIVE FOCK + ROTATE ORBS ----- CPU TIME =      0.000
 ..... DONE WITH CASSCF ORBITAL UPDATE .....
 STEP CPU TIME =     0.01 TOTAL CPU TIME =        0.3 (    0.0 MIN)
 TOTAL WALL CLOCK TIME=        0.3 SECONDS, CPU UTILIZATION IS  97.14%

 ITER     TOTAL ENERGY      DEL(E)  LAGRANGIAN ASYMMETRY   SQCDF  MICIT   DAMP
   1     -157.134762089 -0.134762089  0.014857   15   11 5.957E-02  1   0.0000
       ----------START APPROXIMATE SECOND ORDER MCSCF----------
   2     -157.138463630 -0.003701541  0.010659   26   18 2.522E-01  1   0.0000
   3     -157.150575073 -0.012111443  0.007970   18    8 1.334E-01  1   0.0000
   4     -157.151941236 -0.001366163  0.005643   18    8 2.585E-02  1   0.0000
   5     -157.152810972 -0.000869736  0.002648   18    8 7.964E-04  1   0.0000
   6     -157.152871429 -0.000060457  0.000909   18    8 3.059E-04  1   0.0000
   7     -157.152883801 -0.000012371  0.000303   44   16 2.468E-05  1   0.0000
   8     -157.152884898 -0.000001098  0.000133   18    8 3.067E-06  1   0.0000
   9     -157.152885095 -0.000000197  0.000033   33    5 2.316E-07  1   0.0000
  10     -157.152885113 -0.000000018  0.000019   41   15 2.668E-08  1   0.0000
  11     -157.152885115 -0.000000002  0.000005   41   11 1.065E-09  1   0.0000

          --------------------
          LAGRANGIAN CONVERGED
          --------------------

 FINAL MCSCF ENERGY IS     -157.1528851147 AFTER  11 ITERATIONS

 -MCCI- BASED ON OPTIMIZED ORBITALS
 ----------------------------------

 PLEASE NOTE: IF THE ACTIVE ORBITALS ARE CANONICALIZED BELOW,
 THE FOLLOWING CI EXPANSION COEFFICIENTS AND THE DENSITY DO NOT
 CORRESPOND TO THE PRINTED ORBITALS.  THE PRINTED EXPANSIONS MATCH
 THE ORBITALS USED DURING THE LAST ITERATION.  IF YOU WISH TO SEE
 CI EXPANSIONS BASED ON THE CANONICAL (OR NATURAL) ORBITALS, YOU
 MUST RUN A CI CALCULATION WITH THAT ORBITAL CHOICE READ IN $VEC.

 CI EIGENVECTORS WILL BE LABELED IN GROUP=D2H     
 PRINTING CI COEFFICIENTS LARGER THAN 5.000E-02

 STATE   1  ENERGY=      -157.1528851147  S=  0.00  SZ=  0.00  SPACE SYM=AG  

 ALPHA  | BETA   | CI COEFFICIENT
--------|--------|---------------
 111000 | 111000 |   0.9570711163
 110100 | 110100 |  -0.1929866328
 110010 | 101100 |   0.0755864049
 101100 | 110010 |   0.0755864049
 101010 | 101010 |  -0.0609361256
 111000 | 100110 |  -0.0605289769
 100110 | 111000 |  -0.0605289769
 101100 | 101100 |  -0.0545972528
 110001 | 011100 |  -0.0502145999
 011100 | 110001 |  -0.0502145999

 DENSITY MATRIX OVER ACTIVE MO-S

             1           2           3           4           5

    1    1.9791717
    2    0.0000000   1.9562273
    3    0.0000000   0.0000000   1.8934421
    4    0.0000000   0.0000000   0.0000000   0.1115841
    5    0.0061101   0.0000000   0.0000000   0.0000000   0.0396523
    6    0.0000000  -0.0142540   0.0000000   0.0000000   0.0000000

             6

    6    0.0199225

 FORMING THE "STANDARD FOCK OPERATOR" USING INTEGRALS FROM DISK...
    14 FILLED,    6 ACTIVE, AND   36 VIRTUAL ORBITALS  WILL BE CANONICALIZED

          ----------------------
          MCSCF NATURAL ORBITALS
          ----------------------

                      1          2          3          4          5
                  -11.2179   -11.2179   -11.2169   -11.2169    -1.0139
                     AG         B3U        B2U        B1G        AG  
    1  C  1  S    0.500323   0.500307   0.500303   0.500278  -0.010859
    2  C  1  S    0.002834   0.002607   0.002215   0.002109   0.420747
    3  C  1  S   -0.002135  -0.001993  -0.001996  -0.001654  -0.076804
    4  C  1  X   -0.000279  -0.000663   0.000149   0.000058  -0.071928
    5  C  1  Y    0.000517   0.000577  -0.000211  -0.000205   0.112210
    6  C  1  Z   -0.000000   0.000000   0.000000  -0.000000  -0.000000
    7  C  1  X   -0.000093  -0.000174  -0.000275  -0.000106   0.012543
    8  C  1  Y   -0.000201  -0.000237   0.000066  -0.000046  -0.039753
    9  C  1  Z   -0.000000   0.000000   0.000000  -0.000000  -0.000000
   10  C  2  S    0.500323  -0.500307   0.500303  -0.500278  -0.010859
   11  C  2  S    0.002834  -0.002607   0.002215  -0.002109   0.420747
   12  C  2  S   -0.002135   0.001993  -0.001996   0.001654  -0.076804
   13  C  2  X    0.000279  -0.000663  -0.000149   0.000058   0.071928
   14  C  2  Y    0.000517  -0.000577  -0.000211   0.000205   0.112210
   15  C  2  Z   -0.000000   0.000000   0.000000  -0.000000  -0.000000
   16  C  2  X    0.000093  -0.000174   0.000275  -0.000106  -0.012543
   17  C  2  Y   -0.000201   0.000237   0.000066   0.000046  -0.039753
   18  C  2  Z   -0.000000   0.000000   0.000000  -0.000000  -0.000000
   19  C  3  S    0.500323   0.500307  -0.500303  -0.500278  -0.010859
   20  C  3  S    0.002834   0.002607  -0.002215  -0.002109   0.420747
   21  C  3  S   -0.002135  -0.001993   0.001996   0.001654  -0.076804
   22  C  3  X   -0.000279  -0.000663  -0.000149  -0.000058  -0.071928
   23  C  3  Y   -0.000517  -0.000577  -0.000211  -0.000205  -0.112210
   24  C  3  Z   -0.000000   0.000000   0.000000  -0.000000  -0.000000
   25  C  3  X   -0.000093  -0.000174   0.000275   0.000106   0.012543
   26  C  3  Y    0.000201   0.000237   0.000066  -0.000046   0.039753
   27  C  3  Z   -0.000000   0.000000   0.000000  -0.000000  -0.000000
   28  C  4  S    0.500323  -0.500307  -0.500303   0.500278  -0.010859
   29  C  4  S    0.002834  -0.002607  -0.002215   0.002109   0.420747
   30  C  4  S   -0.002135   0.001993   0.001996  -0.001654  -0.076804
   31  C  4  X    0.000279  -0.000663   0.000149  -0.000058   0.071928
   32  C  4  Y   -0.000517   0.000577  -0.000211   0.000205  -0.112210
   33  C  4  Z   -0.000000   0.000000   0.000000  -0.000000  -0.000000
   34  C  4  X    0.000093  -0.000174  -0.000275   0.000106  -0.012543
   35  C  4  Y    0.000201  -0.000237   0.000066   0.000046   0.039753
   36  C  4  Z   -0.000000   0.000000   0.000000  -0.000000  -0.000000
   37  H  5  S    0.000012   0.000000   0.000648  -0.000000   0.037025
   38  H  5  S    0.000229   0.000000   0.000228  -0.000000  -0.061769
   39  H  6  S    0.000012   0.000000  -0.000648  -0.000000   0.037025
   40  H  6  S    0.000229   0.000000  -0.000228  -0.000000  -0.061769
   41  H  7  S    0.000569   0.000507   0.000606   0.000599   0.137271
   42  H  7  S   -0.000369  -0.000357  -0.000423  -0.000433  -0.071821
   43  H  8  S    0.000569  -0.000507  -0.000606   0.000599   0.137271
   44  H  8  S   -0.000369   0.000357   0.000423  -0.000433  -0.071821
   45  H  9  S    0.000569   0.000507   0.000606   0.000599   0.137271
   46  H  9  S   -0.000369  -0.000357  -0.000423  -0.000433  -0.071821
   47  H 10  S    0.000569  -0.000507   0.000606  -0.000599   0.137271
   48  H 10  S   -0.000369   0.000357  -0.000423   0.000433  -0.071821
   49  H 11  S    0.000569   0.000507  -0.000606  -0.000599   0.137271
   50  H 11  S   -0.000369  -0.000357   0.000423   0.000433  -0.071821
   51  H 12  S    0.000569  -0.000507   0.000606  -0.000599   0.137271
   52  H 12  S   -0.000369   0.000357  -0.000423   0.000433  -0.071821
   53  H 13  S    0.000569   0.000507  -0.000606  -0.000599   0.137271
   54  H 13  S   -0.000369  -0.000357   0.000423   0.000433  -0.071821
   55  H 14  S    0.000569  -0.000507  -0.000606   0.000599   0.137271
   56  H 14  S   -0.000369   0.000357   0.000423  -0.000433  -0.071821

                      6          7          8          9         10
                   -0.9932    -0.8082    -0.7830    -0.6300    -0.6149
                     B3U        B2U        B1G        B1U        B2G 
    1  C  1  S   -0.011316  -0.005747  -0.008567   0.000000   0.000000
    2  C  1  S    0.422554   0.349315   0.352170   0.000000   0.000000
    3  C  1  S   -0.082608  -0.031819   0.007526   0.000000   0.000000
    4  C  1  X   -0.072808  -0.066017  -0.046263   0.000000   0.000000
    5  C  1  Y    0.108390  -0.150638  -0.154509   0.000000   0.000000
    6  C  1  Z    0.000000   0.000000  -0.000000   0.328668   0.334815
    7  C  1  X    0.003850  -0.001474   0.014438   0.000000   0.000000
    8  C  1  Y   -0.038515   0.037726   0.042072   0.000000   0.000000
    9  C  1  Z    0.000000   0.000000  -0.000000  -0.051905  -0.051529
   10  C  2  S    0.011316  -0.005747   0.008567   0.000000   0.000000
   11  C  2  S   -0.422554   0.349315  -0.352170   0.000000   0.000000
   12  C  2  S    0.082608  -0.031819  -0.007526   0.000000   0.000000
   13  C  2  X   -0.072808   0.066017  -0.046263   0.000000   0.000000
   14  C  2  Y   -0.108390  -0.150638   0.154509   0.000000   0.000000
   15  C  2  Z    0.000000   0.000000  -0.000000   0.328668  -0.334815
   16  C  2  X    0.003850   0.001474   0.014438   0.000000   0.000000
   17  C  2  Y    0.038515   0.037726  -0.042072   0.000000   0.000000
   18  C  2  Z    0.000000   0.000000  -0.000000  -0.051905   0.051529
   19  C  3  S   -0.011316   0.005747   0.008567   0.000000   0.000000
   20  C  3  S    0.422554  -0.349315  -0.352170   0.000000   0.000000
   21  C  3  S   -0.082608   0.031819  -0.007526   0.000000   0.000000
   22  C  3  X   -0.072808   0.066017   0.046263   0.000000   0.000000
   23  C  3  Y   -0.108390  -0.150638  -0.154509   0.000000   0.000000
   24  C  3  Z    0.000000   0.000000  -0.000000   0.328668   0.334815
   25  C  3  X    0.003850   0.001474  -0.014438   0.000000   0.000000
   26  C  3  Y    0.038515   0.037726   0.042072   0.000000   0.000000
   27  C  3  Z    0.000000   0.000000  -0.000000  -0.051905  -0.051529
   28  C  4  S    0.011316   0.005747  -0.008567   0.000000   0.000000
   29  C  4  S   -0.422554  -0.349315   0.352170   0.000000   0.000000
   30  C  4  S    0.082608   0.031819   0.007526   0.000000   0.000000
   31  C  4  X   -0.072808  -0.066017   0.046263   0.000000   0.000000
   32  C  4  Y    0.108390  -0.150638   0.154509   0.000000   0.000000
   33  C  4  Z    0.000000   0.000000  -0.000000   0.328668  -0.334815
   34  C  4  X    0.003850  -0.001474  -0.014438   0.000000   0.000000
   35  C  4  Y   -0.038515   0.037726  -0.042072   0.000000   0.000000
   36  C  4  Z    0.000000   0.000000  -0.000000  -0.051905   0.051529
   37  H  5  S    0.000000   0.068005  -0.000000   0.000000   0.000000
   38  H  5  S    0.000000  -0.057126  -0.000000   0.000000   0.000000
   39  H  6  S    0.000000  -0.068005  -0.000000   0.000000   0.000000
   40  H  6  S    0.000000   0.057126  -0.000000   0.000000   0.000000
   41  H  7  S    0.138926   0.233024   0.230205   0.245814   0.253734
   42  H  7  S   -0.077098  -0.100107  -0.105277  -0.093277  -0.095514
   43  H  8  S   -0.138926  -0.233024   0.230205  -0.245814   0.253734
   44  H  8  S    0.077098   0.100107  -0.105277   0.093277  -0.095514
   45  H  9  S    0.138926   0.233024   0.230205  -0.245814  -0.253734
   46  H  9  S   -0.077098  -0.100107  -0.105277   0.093277   0.095514
   47  H 10  S   -0.138926   0.233024  -0.230205  -0.245814   0.253734
   48  H 10  S    0.077098  -0.100107   0.105277   0.093277  -0.095514
   49  H 11  S    0.138926  -0.233024  -0.230205  -0.245814  -0.253734
   50  H 11  S   -0.077098   0.100107   0.105277   0.093277   0.095514
   51  H 12  S   -0.138926   0.233024  -0.230205   0.245814  -0.253734
   52  H 12  S    0.077098  -0.100107   0.105277  -0.093277   0.095514
   53  H 13  S    0.138926  -0.233024  -0.230205   0.245814   0.253734
   54  H 13  S   -0.077098   0.100107   0.105277  -0.093277  -0.095514
   55  H 14  S   -0.138926  -0.233024   0.230205   0.245814  -0.253734
   56  H 14  S    0.077098   0.100107  -0.105277  -0.093277   0.095514

                     11         12         13         14         15
                   -0.5658    -0.5508    -0.5017    -0.4897     1.9792
                     AG         B3U        B3G        AU         AG  
    1  C  1  S   -0.000106   0.002709   0.000000  -0.000000  -0.003108
    2  C  1  S    0.035722   0.053141   0.000000  -0.000000   0.033294
    3  C  1  S   -0.016099  -0.033198   0.000000  -0.000000  -0.015865
    4  C  1  X    0.071565   0.066908   0.000000  -0.000000   0.299529
    5  C  1  Y    0.411442   0.425030   0.000000  -0.000000  -0.085562
    6  C  1  Z    0.000000  -0.000000   0.322132   0.327601   0.000000
    7  C  1  X   -0.012044  -0.020174   0.000000  -0.000000  -0.045773
    8  C  1  Y   -0.073601  -0.079843   0.000000  -0.000000   0.013543
    9  C  1  Z    0.000000  -0.000000   0.007868   0.003001   0.000000
   10  C  2  S   -0.000106  -0.002709   0.000000  -0.000000  -0.003108
   11  C  2  S    0.035722  -0.053141   0.000000  -0.000000   0.033294
   12  C  2  S   -0.016099   0.033198   0.000000  -0.000000  -0.015865
   13  C  2  X   -0.071565   0.066908   0.000000  -0.000000  -0.299529
   14  C  2  Y    0.411442  -0.425030   0.000000  -0.000000  -0.085562
   15  C  2  Z    0.000000  -0.000000   0.322132  -0.327601   0.000000
   16  C  2  X    0.012044  -0.020174   0.000000  -0.000000   0.045773
   17  C  2  Y   -0.073601   0.079843   0.000000  -0.000000   0.013543
   18  C  2  Z    0.000000  -0.000000   0.007868  -0.003001   0.000000
   19  C  3  S   -0.000106   0.002709   0.000000  -0.000000  -0.003108
   20  C  3  S    0.035722   0.053141   0.000000  -0.000000   0.033294
   21  C  3  S   -0.016099  -0.033198   0.000000  -0.000000  -0.015865
   22  C  3  X    0.071565   0.066908   0.000000  -0.000000   0.299529
   23  C  3  Y   -0.411442  -0.425030   0.000000  -0.000000   0.085562
   24  C  3  Z    0.000000  -0.000000  -0.322132  -0.327601   0.000000
   25  C  3  X   -0.012044  -0.020174   0.000000  -0.000000  -0.045773
   26  C  3  Y    0.073601   0.079843   0.000000  -0.000000  -0.013543
   27  C  3  Z    0.000000  -0.000000  -0.007868  -0.003001   0.000000
   28  C  4  S   -0.000106  -0.002709   0.000000  -0.000000  -0.003108
   29  C  4  S    0.035722  -0.053141   0.000000  -0.000000   0.033294
   30  C  4  S   -0.016099   0.033198   0.000000  -0.000000  -0.015865
   31  C  4  X   -0.071565   0.066908   0.000000  -0.000000  -0.299529
   32  C  4  Y   -0.411442   0.425030   0.000000  -0.000000   0.085562
   33  C  4  Z    0.000000  -0.000000  -0.322132   0.327601   0.000000
   34  C  4  X    0.012044  -0.020174   0.000000  -0.000000   0.045773
   35  C  4  Y    0.073601  -0.079843   0.000000  -0.000000  -0.013543
   36  C  4  Z    0.000000  -0.000000  -0.007868   0.003001   0.000000
   37  H  5  S   -0.015476  -0.000000   0.000000  -0.000000   0.438410
   38  H  5  S   -0.011419  -0.000000   0.000000  -0.000000  -0.119240
   39  H  6  S   -0.015476  -0.000000   0.000000  -0.000000   0.438410
   40  H  6  S   -0.011419  -0.000000   0.000000  -0.000000  -0.119240
   41  H  7  S   -0.191243  -0.194629   0.306123   0.313712  -0.031348
   42  H  7  S    0.056336   0.056267  -0.107449  -0.104874   0.000533
   43  H  8  S   -0.191243   0.194629   0.306123  -0.313712  -0.031348
   44  H  8  S    0.056336  -0.056267  -0.107449   0.104874   0.000533
   45  H  9  S   -0.191243  -0.194629  -0.306123  -0.313712  -0.031348
   46  H  9  S    0.056336   0.056267   0.107449   0.104874   0.000533
   47  H 10  S   -0.191243   0.194629  -0.306123   0.313712  -0.031348
   48  H 10  S    0.056336  -0.056267   0.107449  -0.104874   0.000533
   49  H 11  S   -0.191243  -0.194629   0.306123   0.313712  -0.031348
   50  H 11  S    0.056336   0.056267  -0.107449  -0.104874   0.000533
   51  H 12  S   -0.191243   0.194629   0.306123  -0.313712  -0.031348
   52  H 12  S    0.056336  -0.056267  -0.107449   0.104874   0.000533
   53  H 13  S   -0.191243  -0.194629  -0.306123  -0.313712  -0.031348
   54  H 13  S    0.056336   0.056267   0.107449   0.104874   0.000533
   55  H 14  S   -0.191243   0.194629  -0.306123   0.313712  -0.031348
   56  H 14  S    0.056336  -0.056267   0.107449  -0.104874   0.000533

                     16         17         18         19         20
                    1.9563     1.8934     0.1116     0.0396     0.0198
                     B2U        B3U        B1G        AG         B2U 
    1  C  1  S   -0.003018  -0.005596   0.003018  -0.019917  -0.030733
    2  C  1  S    0.050264   0.125272   0.171018  -0.252957  -0.303114
    3  C  1  S    0.026685   0.082570   0.143914  -0.083807   0.020718
    4  C  1  X    0.294297   0.447889   0.600682  -0.476422  -0.605968
    5  C  1  Y    0.007024  -0.089439  -0.053913   0.081512   0.112965
    6  C  1  Z    0.000000   0.000000   0.000000   0.000000   0.000000
    7  C  1  X   -0.012073   0.039182   0.016485  -0.016041  -0.004432
    8  C  1  Y    0.036579  -0.020668   0.030422   0.017035   0.038641
    9  C  1  Z    0.000000   0.000000   0.000000   0.000000   0.000000
   10  C  2  S   -0.003018   0.005596  -0.003018  -0.019917  -0.030733
   11  C  2  S    0.050264  -0.125272  -0.171018  -0.252957  -0.303114
   12  C  2  S    0.026685  -0.082570  -0.143914  -0.083807   0.020718
   13  C  2  X   -0.294297   0.447889   0.600682   0.476422   0.605968
   14  C  2  Y    0.007024   0.089439   0.053913   0.081512   0.112965
   15  C  2  Z    0.000000   0.000000   0.000000   0.000000   0.000000
   16  C  2  X    0.012073   0.039182   0.016485   0.016041   0.004432
   17  C  2  Y    0.036579   0.020668  -0.030422   0.017035   0.038641
   18  C  2  Z    0.000000   0.000000   0.000000   0.000000   0.000000
   19  C  3  S    0.003018  -0.005596  -0.003018  -0.019917   0.030733
   20  C  3  S   -0.050264   0.125272  -0.171018  -0.252957   0.303114
   21  C  3  S   -0.026685   0.082570  -0.143914  -0.083807  -0.020718
   22  C  3  X   -0.294297   0.447889  -0.600682  -0.476422   0.605968
   23  C  3  Y    0.007024   0.089439  -0.053913  -0.081512   0.112965
   24  C  3  Z    0.000000   0.000000   0.000000   0.000000   0.000000
   25  C  3  X    0.012073   0.039182  -0.016485  -0.016041   0.004432
   26  C  3  Y    0.036579   0.020668   0.030422  -0.017035   0.038641
   27  C  3  Z    0.000000   0.000000   0.000000   0.000000   0.000000
   28  C  4  S    0.003018   0.005596   0.003018  -0.019917   0.030733
   29  C  4  S   -0.050264  -0.125272   0.171018  -0.252957   0.303114
   30  C  4  S   -0.026685  -0.082570   0.143914  -0.083807  -0.020718
   31  C  4  X    0.294297   0.447889  -0.600682   0.476422  -0.605968
   32  C  4  Y    0.007024  -0.089439   0.053913  -0.081512   0.112965
   33  C  4  Z    0.000000   0.000000   0.000000   0.000000   0.000000
   34  C  4  X   -0.012073   0.039182  -0.016485   0.016041  -0.004432
   35  C  4  Y    0.036579  -0.020668  -0.030422  -0.017035   0.038641
   36  C  4  Z    0.000000   0.000000   0.000000   0.000000   0.000000
   37  H  5  S    0.563974   0.000000   0.000000   1.133879   1.210637
   38  H  5  S   -0.055089   0.000000   0.000000  -0.015647  -0.198211
   39  H  6  S   -0.563974   0.000000   0.000000   1.133879  -1.210637
   40  H  6  S    0.055089   0.000000   0.000000  -0.015647   0.198211
   41  H  7  S   -0.103999  -0.003713  -0.102225  -0.057497  -0.002175
   42  H  7  S    0.015078  -0.008293   0.025510  -0.013452  -0.001270
   43  H  8  S    0.103999   0.003713  -0.102225  -0.057497   0.002175
   44  H  8  S   -0.015078   0.008293   0.025510  -0.013452   0.001270
   45  H  9  S   -0.103999  -0.003713  -0.102225  -0.057497  -0.002175
   46  H  9  S    0.015078  -0.008293   0.025510  -0.013452  -0.001270
   47  H 10  S   -0.103999   0.003713   0.102225  -0.057497  -0.002175
   48  H 10  S    0.015078   0.008293  -0.025510  -0.013452  -0.001270
   49  H 11  S    0.103999  -0.003713   0.102225  -0.057497   0.002175
   50  H 11  S   -0.015078  -0.008293  -0.025510  -0.013452   0.001270
   51  H 12  S   -0.103999   0.003713   0.102225  -0.057497  -0.002175
   52  H 12  S    0.015078   0.008293  -0.025510  -0.013452  -0.001270
   53  H 13  S    0.103999  -0.003713   0.102225  -0.057497   0.002175
   54  H 13  S   -0.015078  -0.008293  -0.025510  -0.013452   0.001270
   55  H 14  S    0.103999   0.003713  -0.102225  -0.057497   0.002175
   56  H 14  S   -0.015078   0.008293   0.025510  -0.013452   0.001270

          ------------------------
          MCSCF OPTIMIZED ORBITALS
          ------------------------

                      1          2          3          4          5
                  -11.2179   -11.2179   -11.2169   -11.2169    -1.0139
                     AG         B3U        B2U        B1G        AG  
    1  C  1  S    0.500323   0.500307   0.500303   0.500278  -0.010859
    2  C  1  S    0.002834   0.002607   0.002215   0.002109   0.420747
    3  C  1  S   -0.002135  -0.001993  -0.001996  -0.001654  -0.076804
    4  C  1  X   -0.000279  -0.000663   0.000149   0.000058  -0.071928
    5  C  1  Y    0.000517   0.000577  -0.000211  -0.000205   0.112210
    6  C  1  Z   -0.000000   0.000000   0.000000  -0.000000  -0.000000
    7  C  1  X   -0.000093  -0.000174  -0.000275  -0.000106   0.012543
    8  C  1  Y   -0.000201  -0.000237   0.000066  -0.000046  -0.039753
    9  C  1  Z   -0.000000   0.000000   0.000000  -0.000000  -0.000000
   10  C  2  S    0.500323  -0.500307   0.500303  -0.500278  -0.010859
   11  C  2  S    0.002834  -0.002607   0.002215  -0.002109   0.420747
   12  C  2  S   -0.002135   0.001993  -0.001996   0.001654  -0.076804
   13  C  2  X    0.000279  -0.000663  -0.000149   0.000058   0.071928
   14  C  2  Y    0.000517  -0.000577  -0.000211   0.000205   0.112210
   15  C  2  Z   -0.000000   0.000000   0.000000  -0.000000  -0.000000
   16  C  2  X    0.000093  -0.000174   0.000275  -0.000106  -0.012543
   17  C  2  Y   -0.000201   0.000237   0.000066   0.000046  -0.039753
   18  C  2  Z   -0.000000   0.000000   0.000000  -0.000000  -0.000000
   19  C  3  S    0.500323   0.500307  -0.500303  -0.500278  -0.010859
   20  C  3  S    0.002834   0.002607  -0.002215  -0.002109   0.420747
   21  C  3  S   -0.002135  -0.001993   0.001996   0.001654  -0.076804
   22  C  3  X   -0.000279  -0.000663  -0.000149  -0.000058  -0.071928
   23  C  3  Y   -0.000517  -0.000577  -0.000211  -0.000205  -0.112210
   24  C  3  Z   -0.000000   0.000000   0.000000  -0.000000  -0.000000
   25  C  3  X   -0.000093  -0.000174   0.000275   0.000106   0.012543
   26  C  3  Y    0.000201   0.000237   0.000066  -0.000046   0.039753
   27  C  3  Z   -0.000000   0.000000   0.000000  -0.000000  -0.000000
   28  C  4  S    0.500323  -0.500307  -0.500303   0.500278  -0.010859
   29  C  4  S    0.002834  -0.002607  -0.002215   0.002109   0.420747
   30  C  4  S   -0.002135   0.001993   0.001996  -0.001654  -0.076804
   31  C  4  X    0.000279  -0.000663   0.000149  -0.000058   0.071928
   32  C  4  Y   -0.000517   0.000577  -0.000211   0.000205  -0.112210
   33  C  4  Z   -0.000000   0.000000   0.000000  -0.000000  -0.000000
   34  C  4  X    0.000093  -0.000174  -0.000275   0.000106  -0.012543
   35  C  4  Y    0.000201  -0.000237   0.000066   0.000046   0.039753
   36  C  4  Z   -0.000000   0.000000   0.000000  -0.000000  -0.000000
   37  H  5  S    0.000012   0.000000   0.000648  -0.000000   0.037025
   38  H  5  S    0.000229   0.000000   0.000228  -0.000000  -0.061769
   39  H  6  S    0.000012   0.000000  -0.000648  -0.000000   0.037025
   40  H  6  S    0.000229   0.000000  -0.000228  -0.000000  -0.061769
   41  H  7  S    0.000569   0.000507   0.000606   0.000599   0.137271
   42  H  7  S   -0.000369  -0.000357  -0.000423  -0.000433  -0.071821
   43  H  8  S    0.000569  -0.000507  -0.000606   0.000599   0.137271
   44  H  8  S   -0.000369   0.000357   0.000423  -0.000433  -0.071821
   45  H  9  S    0.000569   0.000507   0.000606   0.000599   0.137271
   46  H  9  S   -0.000369  -0.000357  -0.000423  -0.000433  -0.071821
   47  H 10  S    0.000569  -0.000507   0.000606  -0.000599   0.137271
   48  H 10  S   -0.000369   0.000357  -0.000423   0.000433  -0.071821
   49  H 11  S    0.000569   0.000507  -0.000606  -0.000599   0.137271
   50  H 11  S   -0.000369  -0.000357   0.000423   0.000433  -0.071821
   51  H 12  S    0.000569  -0.000507   0.000606  -0.000599   0.137271
   52  H 12  S   -0.000369   0.000357  -0.000423   0.000433  -0.071821
   53  H 13  S    0.000569   0.000507  -0.000606  -0.000599   0.137271
   54  H 13  S   -0.000369  -0.000357   0.000423   0.000433  -0.071821
   55  H 14  S    0.000569  -0.000507  -0.000606   0.000599   0.137271
   56  H 14  S   -0.000369   0.000357   0.000423  -0.000433  -0.071821

                      6          7          8          9         10
                   -0.9932    -0.8082    -0.7830    -0.6300    -0.6149
                     B3U        B2U        B1G        B1U        B2G 
    1  C  1  S   -0.011316  -0.005747  -0.008567   0.000000   0.000000
    2  C  1  S    0.422554   0.349315   0.352170   0.000000   0.000000
    3  C  1  S   -0.082608  -0.031819   0.007526   0.000000   0.000000
    4  C  1  X   -0.072808  -0.066017  -0.046263   0.000000   0.000000
    5  C  1  Y    0.108390  -0.150638  -0.154509   0.000000   0.000000
    6  C  1  Z    0.000000   0.000000  -0.000000   0.328668   0.334815
    7  C  1  X    0.003850  -0.001474   0.014438   0.000000   0.000000
    8  C  1  Y   -0.038515   0.037726   0.042072   0.000000   0.000000
    9  C  1  Z    0.000000   0.000000  -0.000000  -0.051905  -0.051529
   10  C  2  S    0.011316  -0.005747   0.008567   0.000000   0.000000
   11  C  2  S   -0.422554   0.349315  -0.352170   0.000000   0.000000
   12  C  2  S    0.082608  -0.031819  -0.007526   0.000000   0.000000
   13  C  2  X   -0.072808   0.066017  -0.046263   0.000000   0.000000
   14  C  2  Y   -0.108390  -0.150638   0.154509   0.000000   0.000000
   15  C  2  Z    0.000000   0.000000  -0.000000   0.328668  -0.334815
   16  C  2  X    0.003850   0.001474   0.014438   0.000000   0.000000
   17  C  2  Y    0.038515   0.037726  -0.042072   0.000000   0.000000
   18  C  2  Z    0.000000   0.000000  -0.000000  -0.051905   0.051529
   19  C  3  S   -0.011316   0.005747   0.008567   0.000000   0.000000
   20  C  3  S    0.422554  -0.349315  -0.352170   0.000000   0.000000
   21  C  3  S   -0.082608   0.031819  -0.007526   0.000000   0.000000
   22  C  3  X   -0.072808   0.066017   0.046263   0.000000   0.000000
   23  C  3  Y   -0.108390  -0.150638  -0.154509   0.000000   0.000000
   24  C  3  Z    0.000000   0.000000  -0.000000   0.328668   0.334815
   25  C  3  X    0.003850   0.001474  -0.014438   0.000000   0.000000
   26  C  3  Y    0.038515   0.037726   0.042072   0.000000   0.000000
   27  C  3  Z    0.000000   0.000000  -0.000000  -0.051905  -0.051529
   28  C  4  S    0.011316   0.005747  -0.008567   0.000000   0.000000
   29  C  4  S   -0.422554  -0.349315   0.352170   0.000000   0.000000
   30  C  4  S    0.082608   0.031819   0.007526   0.000000   0.000000
   31  C  4  X   -0.072808  -0.066017   0.046263   0.000000   0.000000
   32  C  4  Y    0.108390  -0.150638   0.154509   0.000000   0.000000
   33  C  4  Z    0.000000   0.000000  -0.000000   0.328668  -0.334815
   34  C  4  X    0.003850  -0.001474  -0.014438   0.000000   0.000000
   35  C  4  Y   -0.038515   0.037726  -0.042072   0.000000   0.000000
   36  C  4  Z    0.000000   0.000000  -0.000000  -0.051905   0.051529
   37  H  5  S    0.000000   0.068005  -0.000000   0.000000   0.000000
   38  H  5  S    0.000000  -0.057126  -0.000000   0.000000   0.000000
   39  H  6  S    0.000000  -0.068005  -0.000000   0.000000   0.000000
   40  H  6  S    0.000000   0.057126  -0.000000   0.000000   0.000000
   41  H  7  S    0.138926   0.233024   0.230205   0.245814   0.253734
   42  H  7  S   -0.077098  -0.100107  -0.105277  -0.093277  -0.095514
   43  H  8  S   -0.138926  -0.233024   0.230205  -0.245814   0.253734
   44  H  8  S    0.077098   0.100107  -0.105277   0.093277  -0.095514
   45  H  9  S    0.138926   0.233024   0.230205  -0.245814  -0.253734
   46  H  9  S   -0.077098  -0.100107  -0.105277   0.093277   0.095514
   47  H 10  S   -0.138926   0.233024  -0.230205  -0.245814   0.253734
   48  H 10  S    0.077098  -0.100107   0.105277   0.093277  -0.095514
   49  H 11  S    0.138926  -0.233024  -0.230205  -0.245814  -0.253734
   50  H 11  S   -0.077098   0.100107   0.105277   0.093277   0.095514
   51  H 12  S   -0.138926   0.233024  -0.230205   0.245814  -0.253734
   52  H 12  S    0.077098  -0.100107   0.105277  -0.093277   0.095514
   53  H 13  S    0.138926  -0.233024  -0.230205   0.245814   0.253734
   54  H 13  S   -0.077098   0.100107   0.105277  -0.093277  -0.095514
   55  H 14  S   -0.138926  -0.233024   0.230205   0.245814  -0.253734
   56  H 14  S    0.077098   0.100107  -0.105277  -0.093277   0.095514

                     11         12         13         14         15
                   -0.5658    -0.5508    -0.5017    -0.4897    -0.6320
                     AG         B3U        B3G        AU         AG  
    1  C  1  S   -0.000106   0.002709   0.000000  -0.000000  -0.003061
    2  C  1  S    0.035722   0.053141   0.000000  -0.000000   0.033880
    3  C  1  S   -0.016099  -0.033198   0.000000  -0.000000  -0.015670
    4  C  1  X    0.071565   0.066908   0.000000  -0.000000   0.300632
    5  C  1  Y    0.411442   0.425030   0.000000  -0.000000  -0.085751
    6  C  1  Z    0.000000  -0.000000   0.322132   0.327601  -0.000000
    7  C  1  X   -0.012044  -0.020174   0.000000  -0.000000  -0.045736
    8  C  1  Y   -0.073601  -0.079843   0.000000  -0.000000   0.013503
    9  C  1  Z    0.000000  -0.000000   0.007868   0.003001  -0.000000
   10  C  2  S   -0.000106  -0.002709   0.000000  -0.000000  -0.003061
   11  C  2  S    0.035722  -0.053141   0.000000  -0.000000   0.033880
   12  C  2  S   -0.016099   0.033198   0.000000  -0.000000  -0.015670
   13  C  2  X   -0.071565   0.066908   0.000000  -0.000000  -0.300632
   14  C  2  Y    0.411442  -0.425030   0.000000  -0.000000  -0.085751
   15  C  2  Z    0.000000  -0.000000   0.322132  -0.327601  -0.000000
   16  C  2  X    0.012044  -0.020174   0.000000  -0.000000   0.045736
   17  C  2  Y   -0.073601   0.079843   0.000000  -0.000000   0.013503
   18  C  2  Z    0.000000  -0.000000   0.007868  -0.003001  -0.000000
   19  C  3  S   -0.000106   0.002709   0.000000  -0.000000  -0.003061
   20  C  3  S    0.035722   0.053141   0.000000  -0.000000   0.033880
   21  C  3  S   -0.016099  -0.033198   0.000000  -0.000000  -0.015670
   22  C  3  X    0.071565   0.066908   0.000000  -0.000000   0.300632
   23  C  3  Y   -0.411442  -0.425030   0.000000  -0.000000   0.085751
   24  C  3  Z    0.000000  -0.000000  -0.322132  -0.327601  -0.000000
   25  C  3  X   -0.012044  -0.020174   0.000000  -0.000000  -0.045736
   26  C  3  Y    0.073601   0.079843   0.000000  -0.000000  -0.013503
   27  C  3  Z    0.000000  -0.000000  -0.007868  -0.003001  -0.000000
   28  C  4  S   -0.000106  -0.002709   0.000000  -0.000000  -0.003061
   29  C  4  S    0.035722  -0.053141   0.000000  -0.000000   0.033880
   30  C  4  S   -0.016099   0.033198   0.000000  -0.000000  -0.015670
   31  C  4  X   -0.071565   0.066908   0.000000  -0.000000  -0.300632
   32  C  4  Y   -0.411442   0.425030   0.000000  -0.000000   0.085751
   33  C  4  Z    0.000000  -0.000000  -0.322132   0.327601  -0.000000
   34  C  4  X    0.012044  -0.020174   0.000000  -0.000000   0.045736
   35  C  4  Y    0.073601  -0.079843   0.000000  -0.000000  -0.013503
   36  C  4  Z    0.000000  -0.000000  -0.007868   0.003001  -0.000000
   37  H  5  S   -0.015476  -0.000000   0.000000  -0.000000   0.435782
   38  H  5  S   -0.011419  -0.000000   0.000000  -0.000000  -0.119203
   39  H  6  S   -0.015476  -0.000000   0.000000  -0.000000   0.435782
   40  H  6  S   -0.011419  -0.000000   0.000000  -0.000000  -0.119203
   41  H  7  S   -0.191243  -0.194629   0.306123   0.313712  -0.031215
   42  H  7  S    0.056336   0.056267  -0.107449  -0.104874   0.000564
   43  H  8  S   -0.191243   0.194629   0.306123  -0.313712  -0.031215
   44  H  8  S    0.056336  -0.056267  -0.107449   0.104874   0.000564
   45  H  9  S   -0.191243  -0.194629  -0.306123  -0.313712  -0.031215
   46  H  9  S    0.056336   0.056267   0.107449   0.104874   0.000564
   47  H 10  S   -0.191243   0.194629  -0.306123   0.313712  -0.031215
   48  H 10  S    0.056336  -0.056267   0.107449  -0.104874   0.000564
   49  H 11  S   -0.191243  -0.194629   0.306123   0.313712  -0.031215
   50  H 11  S    0.056336   0.056267  -0.107449  -0.104874   0.000564
   51  H 12  S   -0.191243   0.194629   0.306123  -0.313712  -0.031215
   52  H 12  S    0.056336  -0.056267  -0.107449   0.104874   0.000564
   53  H 13  S   -0.191243  -0.194629  -0.306123  -0.313712  -0.031215
   54  H 13  S    0.056336   0.056267   0.107449   0.104874   0.000564
   55  H 14  S   -0.191243   0.194629  -0.306123   0.313712  -0.031215
   56  H 14  S    0.056336  -0.056267   0.107449  -0.104874   0.000564

                     16         17         18         19         20
                   -0.4336    -0.3012     0.1565     0.4976     0.7401
                     B2U        B3U        B1G        AG         B2U 
    1  C  1  S   -0.003102  -0.005596   0.003018  -0.019924  -0.030724
    2  C  1  S    0.049437   0.125272   0.171018  -0.252879  -0.303250
    3  C  1  S    0.026741   0.082570   0.143914  -0.083844   0.020645
    4  C  1  X    0.292642   0.447889   0.600682  -0.475727  -0.606769
    5  C  1  Y    0.007332  -0.089439  -0.053913   0.081313   0.112945
    6  C  1  Z    0.000000   0.000000  -0.000000   0.000000   0.000000
    7  C  1  X   -0.012085   0.039182   0.016485  -0.016147  -0.004399
    8  C  1  Y    0.036684  -0.020668   0.030422   0.017066   0.038541
    9  C  1  Z    0.000000   0.000000  -0.000000   0.000000   0.000000
   10  C  2  S   -0.003102   0.005596  -0.003018  -0.019924  -0.030724
   11  C  2  S    0.049437  -0.125272  -0.171018  -0.252879  -0.303250
   12  C  2  S    0.026741  -0.082570  -0.143914  -0.083844   0.020645
   13  C  2  X   -0.292642   0.447889   0.600682   0.475727   0.606769
   14  C  2  Y    0.007332   0.089439   0.053913   0.081313   0.112945
   15  C  2  Z    0.000000   0.000000  -0.000000   0.000000   0.000000
   16  C  2  X    0.012085   0.039182   0.016485   0.016147   0.004399
   17  C  2  Y    0.036684   0.020668  -0.030422   0.017066   0.038541
   18  C  2  Z    0.000000   0.000000  -0.000000   0.000000   0.000000
   19  C  3  S    0.003102  -0.005596  -0.003018  -0.019924   0.030724
   20  C  3  S   -0.049437   0.125272  -0.171018  -0.252879   0.303250
   21  C  3  S   -0.026741   0.082570  -0.143914  -0.083844  -0.020645
   22  C  3  X   -0.292642   0.447889  -0.600682  -0.475727   0.606769
   23  C  3  Y    0.007332   0.089439  -0.053913  -0.081313   0.112945
   24  C  3  Z    0.000000   0.000000  -0.000000   0.000000   0.000000
   25  C  3  X    0.012085   0.039182  -0.016485  -0.016147   0.004399
   26  C  3  Y    0.036684   0.020668   0.030422  -0.017066   0.038541
   27  C  3  Z    0.000000   0.000000  -0.000000   0.000000   0.000000
   28  C  4  S    0.003102   0.005596   0.003018  -0.019924   0.030724
   29  C  4  S   -0.049437  -0.125272   0.171018  -0.252879   0.303250
   30  C  4  S   -0.026741  -0.082570   0.143914  -0.083844  -0.020645
   31  C  4  X    0.292642   0.447889  -0.600682   0.475727  -0.606769
   32  C  4  Y    0.007332  -0.089439   0.053913  -0.081313   0.112945
   33  C  4  Z    0.000000   0.000000  -0.000000   0.000000   0.000000
   34  C  4  X   -0.012085   0.039182  -0.016485   0.016147  -0.004399
   35  C  4  Y    0.036684  -0.020668  -0.030422  -0.017066   0.038541
   36  C  4  Z    0.000000   0.000000  -0.000000   0.000000   0.000000
   37  H  5  S    0.567276   0.000000  -0.000000   1.134892   1.209093
   38  H  5  S   -0.055629   0.000000  -0.000000  -0.015923  -0.198060
   39  H  6  S   -0.567276   0.000000  -0.000000   1.134892  -1.209093
   40  H  6  S    0.055629   0.000000  -0.000000  -0.015923   0.198060
   41  H  7  S   -0.104005  -0.003713  -0.102225  -0.057570  -0.001891
   42  H  7  S    0.015075  -0.008293   0.025510  -0.013451  -0.001311
   43  H  8  S    0.104005   0.003713  -0.102225  -0.057570   0.001891
   44  H  8  S   -0.015075   0.008293   0.025510  -0.013451   0.001311
   45  H  9  S   -0.104005  -0.003713  -0.102225  -0.057570  -0.001891
   46  H  9  S    0.015075  -0.008293   0.025510  -0.013451  -0.001311
   47  H 10  S   -0.104005   0.003713   0.102225  -0.057570  -0.001891
   48  H 10  S    0.015075   0.008293  -0.025510  -0.013451  -0.001311
   49  H 11  S    0.104005  -0.003713   0.102225  -0.057570   0.001891
   50  H 11  S   -0.015075  -0.008293  -0.025510  -0.013451   0.001311
   51  H 12  S   -0.104005   0.003713   0.102225  -0.057570  -0.001891
   52  H 12  S    0.015075   0.008293  -0.025510  -0.013451  -0.001311
   53  H 13  S    0.104005  -0.003713   0.102225  -0.057570   0.001891
   54  H 13  S   -0.015075  -0.008293  -0.025510  -0.013451   0.001311
   55  H 14  S    0.104005   0.003713  -0.102225  -0.057570   0.001891
   56  H 14  S   -0.015075   0.008293   0.025510  -0.013451   0.001311

                     21         22         23         24         25
                    0.2001     0.2381     0.2457     0.2479     0.2749
                     AG         B2U        B3U        B1U        B2G 
    1  C  1  S   -0.044107  -0.060253  -0.035514   0.000000  -0.000000
    2  C  1  S    0.051182   0.053050   0.066719   0.000000  -0.000000
    3  C  1  S    1.142071   1.667716   1.084269   0.000000  -0.000000
    4  C  1  X   -0.045262  -0.058672  -0.117681   0.000000  -0.000000
    5  C  1  Y   -0.120533  -0.025893  -0.138340   0.000000  -0.000000
    6  C  1  Z   -0.000000   0.000000   0.000000  -0.232016  -0.269191
    7  C  1  X   -0.055764  -0.173106  -0.150221   0.000000  -0.000000
    8  C  1  Y   -0.388850   0.369259  -0.418450   0.000000  -0.000000
    9  C  1  Z   -0.000000   0.000000   0.000000  -0.576474  -0.641315
   10  C  2  S   -0.044107  -0.060253   0.035514   0.000000  -0.000000
   11  C  2  S    0.051182   0.053050  -0.066719   0.000000  -0.000000
   12  C  2  S    1.142071   1.667716  -1.084269   0.000000  -0.000000
   13  C  2  X    0.045262   0.058672  -0.117681   0.000000  -0.000000
   14  C  2  Y   -0.120533  -0.025893   0.138340   0.000000  -0.000000
   15  C  2  Z   -0.000000   0.000000   0.000000  -0.232016   0.269191
   16  C  2  X    0.055764   0.173106  -0.150221   0.000000  -0.000000
   17  C  2  Y   -0.388850   0.369259   0.418450   0.000000  -0.000000
   18  C  2  Z   -0.000000   0.000000   0.000000  -0.576474   0.641315
   19  C  3  S   -0.044107   0.060253  -0.035514   0.000000  -0.000000
   20  C  3  S    0.051182  -0.053050   0.066719   0.000000  -0.000000
   21  C  3  S    1.142071  -1.667716   1.084269   0.000000  -0.000000
   22  C  3  X   -0.045262   0.058672  -0.117681   0.000000  -0.000000
   23  C  3  Y    0.120533  -0.025893   0.138340   0.000000  -0.000000
   24  C  3  Z   -0.000000   0.000000   0.000000  -0.232016  -0.269191
   25  C  3  X   -0.055764   0.173106  -0.150221   0.000000  -0.000000
   26  C  3  Y    0.388850   0.369259   0.418450   0.000000  -0.000000
   27  C  3  Z   -0.000000   0.000000   0.000000  -0.576474  -0.641315
   28  C  4  S   -0.044107   0.060253   0.035514   0.000000  -0.000000
   29  C  4  S    0.051182  -0.053050  -0.066719   0.000000  -0.000000
   30  C  4  S    1.142071  -1.667716  -1.084269   0.000000  -0.000000
   31  C  4  X    0.045262  -0.058672  -0.117681   0.000000  -0.000000
   32  C  4  Y    0.120533  -0.025893  -0.138340   0.000000  -0.000000
   33  C  4  Z   -0.000000   0.000000   0.000000  -0.232016   0.269191
   34  C  4  X    0.055764  -0.173106  -0.150221   0.000000  -0.000000
   35  C  4  Y    0.388850   0.369259  -0.418450   0.000000  -0.000000
   36  C  4  Z   -0.000000   0.000000   0.000000  -0.576474   0.641315
   37  H  5  S    0.035434   0.056027   0.000000   0.000000  -0.000000
   38  H  5  S   -0.283174  -0.166954   0.000000   0.000000  -0.000000
   39  H  6  S    0.035434  -0.056027   0.000000   0.000000  -0.000000
   40  H  6  S   -0.283174   0.166954   0.000000   0.000000  -0.000000
   41  H  7  S   -0.011837  -0.002744  -0.027273   0.073666   0.047078
   42  H  7  S   -0.678652  -0.569258  -0.750913   0.887515   0.985192
   43  H  8  S   -0.011837   0.002744   0.027273  -0.073666   0.047078
   44  H  8  S   -0.678652   0.569258   0.750913  -0.887515   0.985192
   45  H  9  S   -0.011837  -0.002744  -0.027273  -0.073666  -0.047078
   46  H  9  S   -0.678652  -0.569258  -0.750913  -0.887515  -0.985192
   47  H 10  S   -0.011837  -0.002744   0.027273  -0.073666   0.047078
   48  H 10  S   -0.678652  -0.569258   0.750913  -0.887515   0.985192
   49  H 11  S   -0.011837   0.002744  -0.027273  -0.073666  -0.047078
   50  H 11  S   -0.678652   0.569258  -0.750913  -0.887515  -0.985192
   51  H 12  S   -0.011837  -0.002744   0.027273   0.073666  -0.047078
   52  H 12  S   -0.678652  -0.569258   0.750913   0.887515  -0.985192
   53  H 13  S   -0.011837   0.002744  -0.027273   0.073666   0.047078
   54  H 13  S   -0.678652   0.569258  -0.750913   0.887515   0.985192
   55  H 14  S   -0.011837   0.002744   0.027273   0.073666  -0.047078
   56  H 14  S   -0.678652   0.569258   0.750913   0.887515  -0.985192

                     26         27         28         29         30
                    0.2953     0.3434     0.3451     0.3565     0.4184
                     B1G        B3G        AU         B2U        B1G 
    1  C  1  S   -0.053049  -0.000000  -0.000000  -0.020405  -0.039582
    2  C  1  S    0.075952  -0.000000  -0.000000  -0.034916  -0.047884
    3  C  1  S    1.574664  -0.000000  -0.000000   0.799286   1.416112
    4  C  1  X   -0.147040  -0.000000  -0.000000   0.058282   0.002343
    5  C  1  Y   -0.039622  -0.000000  -0.000000   0.166784   0.177978
    6  C  1  Z   -0.000000  -0.268174   0.237298   0.000000  -0.000000
    7  C  1  X   -0.230002  -0.000000  -0.000000   0.182574   0.444633
    8  C  1  Y    0.201936  -0.000000  -0.000000   1.859665   2.182727
    9  C  1  Z   -0.000000  -1.454868   2.001352   0.000000  -0.000000
   10  C  2  S    0.053049  -0.000000  -0.000000  -0.020405   0.039582
   11  C  2  S   -0.075952  -0.000000  -0.000000  -0.034916   0.047884
   12  C  2  S   -1.574664  -0.000000  -0.000000   0.799286  -1.416112
   13  C  2  X   -0.147040  -0.000000  -0.000000  -0.058282   0.002343
   14  C  2  Y    0.039622  -0.000000  -0.000000   0.166784  -0.177978
   15  C  2  Z   -0.000000  -0.268174  -0.237298   0.000000  -0.000000
   16  C  2  X   -0.230002  -0.000000  -0.000000  -0.182574   0.444633
   17  C  2  Y   -0.201936  -0.000000  -0.000000   1.859665  -2.182727
   18  C  2  Z   -0.000000  -1.454868  -2.001352   0.000000  -0.000000
   19  C  3  S    0.053049  -0.000000  -0.000000   0.020405   0.039582
   20  C  3  S   -0.075952  -0.000000  -0.000000   0.034916   0.047884
   21  C  3  S   -1.574664  -0.000000  -0.000000  -0.799286  -1.416112
   22  C  3  X    0.147040  -0.000000  -0.000000  -0.058282  -0.002343
   23  C  3  Y   -0.039622  -0.000000  -0.000000   0.166784   0.177978
   24  C  3  Z   -0.000000   0.268174  -0.237298   0.000000  -0.000000
   25  C  3  X    0.230002  -0.000000  -0.000000  -0.182574  -0.444633
   26  C  3  Y    0.201936  -0.000000  -0.000000   1.859665   2.182727
   27  C  3  Z   -0.000000   1.454868  -2.001352   0.000000  -0.000000
   28  C  4  S   -0.053049  -0.000000  -0.000000   0.020405  -0.039582
   29  C  4  S    0.075952  -0.000000  -0.000000   0.034916  -0.047884
   30  C  4  S    1.574664  -0.000000  -0.000000  -0.799286   1.416112
   31  C  4  X    0.147040  -0.000000  -0.000000   0.058282  -0.002343
   32  C  4  Y    0.039622  -0.000000  -0.000000   0.166784  -0.177978
   33  C  4  Z   -0.000000   0.268174   0.237298   0.000000  -0.000000
   34  C  4  X    0.230002  -0.000000  -0.000000   0.182574  -0.444633
   35  C  4  Y   -0.201936  -0.000000  -0.000000   1.859665  -2.182727
   36  C  4  Z   -0.000000   1.454868   2.001352   0.000000  -0.000000
   37  H  5  S   -0.000000  -0.000000  -0.000000   0.058576  -0.000000
   38  H  5  S   -0.000000  -0.000000  -0.000000   0.349162  -0.000000
   39  H  6  S   -0.000000  -0.000000  -0.000000  -0.058576  -0.000000
   40  H  6  S   -0.000000  -0.000000  -0.000000  -0.349162  -0.000000
   41  H  7  S   -0.011413  -0.069076   0.045915   0.062371   0.100006
   42  H  7  S   -0.737575   1.464040  -1.711034   0.894919   0.877108
   43  H  8  S   -0.011413  -0.069076  -0.045915  -0.062371   0.100006
   44  H  8  S   -0.737575   1.464040   1.711034  -0.894919   0.877108
   45  H  9  S   -0.011413   0.069076  -0.045915   0.062371   0.100006
   46  H  9  S   -0.737575  -1.464040   1.711034   0.894919   0.877108
   47  H 10  S    0.011413   0.069076   0.045915   0.062371  -0.100006
   48  H 10  S    0.737575  -1.464040  -1.711034   0.894919  -0.877108
   49  H 11  S    0.011413  -0.069076   0.045915  -0.062371  -0.100006
   50  H 11  S    0.737575   1.464040  -1.711034  -0.894919  -0.877108
   51  H 12  S    0.011413  -0.069076  -0.045915   0.062371  -0.100006
   52  H 12  S    0.737575   1.464040   1.711034   0.894919  -0.877108
   53  H 13  S    0.011413   0.069076  -0.045915  -0.062371  -0.100006
   54  H 13  S    0.737575  -1.464040   1.711034  -0.894919  -0.877108
   55  H 14  S   -0.011413   0.069076   0.045915  -0.062371   0.100006
   56  H 14  S   -0.737575  -1.464040  -1.711034  -0.894919   0.877108

                     31         32         33         34         35
                    0.4421     0.4791     0.5226     0.5298     0.5576
                     AG         B1U        AG         B3U        B2U 
    1  C  1  S   -0.030285   0.000000   0.052322  -0.012019   0.048119
    2  C  1  S   -0.121612   0.000000   0.192715  -0.024508   0.191698
    3  C  1  S   -0.157175   0.000000  -0.674503  -0.471504  -0.776409
    4  C  1  X    0.011141   0.000000   0.490129  -0.205205   0.434568
    5  C  1  Y   -0.447277   0.000000  -0.045425  -0.393026   0.040409
    6  C  1  Z    0.000000  -0.387918  -0.000000   0.000000  -0.000000
    7  C  1  X   -0.005022   0.000000  -1.127602   0.451278  -2.137084
    8  C  1  Y    0.841687   0.000000   0.121871   1.030559   0.271368
    9  C  1  Z    0.000000   0.725891  -0.000000   0.000000  -0.000000
   10  C  2  S   -0.030285   0.000000   0.052322   0.012019   0.048119
   11  C  2  S   -0.121612   0.000000   0.192715   0.024508   0.191698
   12  C  2  S   -0.157175   0.000000  -0.674503   0.471504  -0.776409
   13  C  2  X   -0.011141   0.000000  -0.490129  -0.205205  -0.434568
   14  C  2  Y   -0.447277   0.000000  -0.045425   0.393026   0.040409
   15  C  2  Z    0.000000  -0.387918  -0.000000   0.000000  -0.000000
   16  C  2  X    0.005022   0.000000   1.127602   0.451278   2.137084
   17  C  2  Y    0.841687   0.000000   0.121871  -1.030559   0.271368
   18  C  2  Z    0.000000   0.725891  -0.000000   0.000000  -0.000000
   19  C  3  S   -0.030285   0.000000   0.052322  -0.012019  -0.048119
   20  C  3  S   -0.121612   0.000000   0.192715  -0.024508  -0.191698
   21  C  3  S   -0.157175   0.000000  -0.674503  -0.471504   0.776409
   22  C  3  X    0.011141   0.000000   0.490129  -0.205205  -0.434568
   23  C  3  Y    0.447277   0.000000   0.045425   0.393026   0.040409
   24  C  3  Z    0.000000  -0.387918  -0.000000   0.000000  -0.000000
   25  C  3  X   -0.005022   0.000000  -1.127602   0.451278   2.137084
   26  C  3  Y   -0.841687   0.000000  -0.121871  -1.030559   0.271368
   27  C  3  Z    0.000000   0.725891  -0.000000   0.000000  -0.000000
   28  C  4  S   -0.030285   0.000000   0.052322   0.012019  -0.048119
   29  C  4  S   -0.121612   0.000000   0.192715   0.024508  -0.191698
   30  C  4  S   -0.157175   0.000000  -0.674503   0.471504   0.776409
   31  C  4  X   -0.011141   0.000000  -0.490129  -0.205205   0.434568
[...]
------|---------------|----------------------------|------------------------
 3 CA |  1.01   0.99  |  1.00   0.93   93.2   2/1  | 0.71  0.70  1.93  0.07
------|---------------|----------------------------|------------------------
 4 CA |  1.01   0.99  |  1.00   0.93   93.2   2/1  | 0.71  0.70  1.93  0.07
------|---------------|----------------------------|------------------------
 5 HY |  0.98   1.02  |  1.00   0.97   96.9   2/0  | 0.71  0.70  1.97  0.03
------|---------------|----------------------------|------------------------
 6 HY |  0.98   1.02  |  1.00   0.97   96.9   2/0  | 0.71  0.70  1.97  0.03
------|---------------|----------------------------|------------------------
 7 BD | 

 1 2.00   0.00  |  1.00   0.00    0.0   0/0  | 1.00  0.00  1.00  1.00
------|---------------|----------------------------|------------------------
 8 BD | 

 1 2.00   0.00  |  1.00   0.00    0.0   0/0  | 1.00  0.00  1.00  1.00
------|---------------|----------------------------|------------------------
 9 BD | 

 1 2.00   0.00  |  1.00   0.00    0.0   0/0  | 1.00  0.00  1.00  1.00
------|---------------|----------------------------|------------------------
10 BD | 

 1 2.00   0.00  |  1.00   0.00    0.0   0/0  | 1.00  0.00  1.00  1.00
------|---------------|----------------------------|------------------------
11 BD | 

 1 2.00   0.00  |  1.00   0.00    0.0   0/0  | 1.00  0.00  1.00  1.00
------|---------------|----------------------------|------------------------
12 BD | 

 1 2.00   0.00  |  1.00   0.00    0.0   0/0  | 1.00  0.00  1.00  1.00
------|---------------|----------------------------|------------------------
13 BD | 

 1 2.00   0.00  |  1.00   0.00    0.0   0/0  | 1.00  0.00  1.00  1.00
------|---------------|----------------------------|------------------------
14 BD | 

 1 2.00   0.00  |  1.00   0.00    0.0   0/0  | 1.00  0.00  1.00  1.00
------|---------------|----------------------------|------------------------
15 BD | 

 1 2.00   0.00  |  1.00   0.00    0.0   0/0  | 1.00  0.00  1.00  1.00
------|---------------|----------------------------|------------------------
16 BD | 

 1 2.00   0.00  |  1.00   0.00    0.0   0/0  | 1.00  0.00  1.00  1.00
------|---------------|----------------------------|------------------------

          ORIENTED LOCALIZED ORBITALS

                      1          2          3          4          5

    1  C  1  S    0.500323   0.500307   0.500303   0.500278   0.014460
    2  C  1  S    0.002834   0.002607   0.002215   0.002109   0.372852
    3  C  1  S   -0.002135  -0.001993  -0.001996  -0.001654   0.135737
    4  C  1  X   -0.000279  -0.000663   0.000149   0.000058   1.116975
    5  C  1  Y    0.000517   0.000577  -0.000211  -0.000205  -0.170400
    6  C  1  Z   -0.000000   0.000000   0.000000  -0.000000   0.000000
    7  C  1  X   -0.000093  -0.000174  -0.000275  -0.000106   0.013328
    8  C  1  Y   -0.000201  -0.000237   0.000066  -0.000046   0.002279
    9  C  1  Z   -0.000000   0.000000   0.000000  -0.000000   0.000000
   10  C  2  S    0.500323  -0.500307   0.500303  -0.500278   0.017038
   11  C  2  S    0.002834  -0.002607   0.002215  -0.002109   0.076562
   12  C  2  S   -0.002135   0.001993  -0.001996   0.001654  -0.090747
   13  C  2  X    0.000279  -0.000663  -0.000149   0.000058  -0.068404
   14  C  2  Y    0.000517  -0.000577  -0.000211   0.000205  -0.027049
   15  C  2  Z   -0.000000   0.000000   0.000000  -0.000000   0.000000
   16  C  2  X    0.000093  -0.000174   0.000275  -0.000106   0.042338
   17  C  2  Y   -0.000201   0.000237   0.000066   0.000046  -0.007474
   18  C  2  Z   -0.000000   0.000000   0.000000  -0.000000   0.000000
   19  C  3  S    0.500323   0.500307  -0.500303  -0.500278  -0.009428
   20  C  3  S    0.002834   0.002607  -0.002215  -0.002109  -0.057425
   21  C  3  S   -0.002135  -0.001993   0.001996   0.001654  -0.010561
   22  C  3  X   -0.000279  -0.000663  -0.000149  -0.000058  -0.131367
   23  C  3  Y   -0.000517  -0.000577  -0.000211  -0.000205   0.037058
   24  C  3  Z   -0.000000   0.000000   0.000000  -0.000000   0.000000
   25  C  3  X   -0.000093  -0.000174   0.000275   0.000106   0.001602
   26  C  3  Y    0.000201   0.000237   0.000066  -0.000046   0.023784
   27  C  3  Z   -0.000000   0.000000   0.000000  -0.000000   0.000000
   28  C  4  S    0.500323  -0.500307  -0.500303   0.500278  -0.000814
   29  C  4  S    0.002834  -0.002607  -0.002215   0.002109  -0.011679
   30  C  4  S   -0.002135   0.001993   0.001996  -0.001654   0.050783
   31  C  4  X    0.000279  -0.000663   0.000149  -0.000058  -0.021426
   32  C  4  Y   -0.000517   0.000577  -0.000211   0.000205   0.001532
   33  C  4  Z   -0.000000   0.000000   0.000000  -0.000000   0.000000
   34  C  4  X    0.000093  -0.000174  -0.000275   0.000106   0.021095
   35  C  4  Y    0.000201  -0.000237   0.000066   0.000046  -0.027306
   36  C  4  Z   -0.000000   0.000000   0.000000  -0.000000   0.000000
   37  H  5  S    0.000012   0.000000   0.000648  -0.000000  -0.465904
   38  H  5  S    0.000229   0.000000   0.000228  -0.000000   0.015304
   39  H  6  S    0.000012   0.000000  -0.000648  -0.000000   0.059140
   40  H  6  S    0.000229   0.000000  -0.000228  -0.000000  -0.095521
   41  H  7  S    0.000569   0.000507   0.000606   0.000599  -0.080011
   42  H  7  S   -0.000369  -0.000357  -0.000423  -0.000433   0.018700
   43  H  8  S    0.000569  -0.000507  -0.000606   0.000599  -0.008501
   44  H  8  S   -0.000369   0.000357   0.000423  -0.000433   0.015983
   45  H  9  S    0.000569   0.000507   0.000606   0.000599  -0.080011
   46  H  9  S   -0.000369  -0.000357  -0.000423  -0.000433   0.018700
   47  H 10  S    0.000569  -0.000507   0.000606  -0.000599   0.025927
   48  H 10  S   -0.000369   0.000357  -0.000423   0.000433   0.001484
   49  H 11  S    0.000569   0.000507  -0.000606  -0.000599   0.090011
   50  H 11  S   -0.000369  -0.000357   0.000423   0.000433  -0.017820
   51  H 12  S    0.000569  -0.000507   0.000606  -0.000599   0.025927
   52  H 12  S   -0.000369   0.000357  -0.000423   0.000433   0.001484
   53  H 13  S    0.000569   0.000507  -0.000606  -0.000599   0.090011
   54  H 13  S   -0.000369  -0.000357   0.000423   0.000433  -0.017820
   55  H 14  S    0.000569  -0.000507  -0.000606   0.000599  -0.008501
   56  H 14  S   -0.000369   0.000357   0.000423  -0.000433   0.015983

                      6          7          8          9         10

    1  C  1  S    0.017038  -0.009428  -0.000814  -0.028206  -0.003982
    2  C  1  S    0.076562  -0.057425  -0.011679  -0.236880   0.003688
    3  C  1  S   -0.090747  -0.010561   0.050783  -0.028421   0.076079
    4  C  1  X    0.068404  -0.131367   0.021426  -0.248418  -0.013669
    5  C  1  Y   -0.027049  -0.037058  -0.001532   0.061278   0.052752
    6  C  1  Z    0.000000   0.000000   0.000000   0.000000   0.000000
    7  C  1  X   -0.042338   0.001602  -0.021095  -0.038150   0.021252
    8  C  1  Y   -0.007474  -0.023784   0.027306   0.052875   0.022121
    9  C  1  Z    0.000000   0.000000   0.000000   0.000000   0.000000
   10  C  2  S    0.014460  -0.000814  -0.009428  -0.028206  -0.003982
   11  C  2  S    0.372852  -0.011679  -0.057425  -0.236880   0.003688
   12  C  2  S    0.135737   0.050783  -0.010560  -0.028421   0.076079
   13  C  2  X   -1.116975  -0.021426   0.131366   0.248418   0.013669
   14  C  2  Y   -0.170400  -0.001532  -0.037058   0.061278   0.052752
   15  C  2  Z    0.000000   0.000000   0.000000   0.000000   0.000000
   16  C  2  X   -0.013328   0.021095  -0.001602   0.038150  -0.021252
   17  C  2  Y    0.002279   0.027306  -0.023784   0.052875   0.022121
   18  C  2  Z    0.000000   0.000000   0.000000   0.000000   0.000000
   19  C  3  S   -0.000814   0.014460   0.017038   0.003982   0.028206
   20  C  3  S   -0.011679   0.372852   0.076562  -0.003688   0.236880
   21  C  3  S    0.050783   0.135737  -0.090747  -0.076079   0.028421
   22  C  3  X    0.021426   1.116975   0.068404   0.013669   0.248418
   23  C  3  Y    0.001532   0.170400   0.027049   0.052752   0.061278
   24  C  3  Z    0.000000   0.000000   0.000000   0.000000   0.000000
   25  C  3  X   -0.021095   0.013328  -0.042338  -0.021252   0.038150
   26  C  3  Y   -0.027306  -0.002279   0.007474   0.022121   0.052875
   27  C  3  Z    0.000000   0.000000   0.000000   0.000000   0.000000
   28  C  4  S   -0.009428   0.017038   0.014460   0.003982   0.028206
   29  C  4  S   -0.057425   0.076562   0.372852  -0.003688   0.236880
   30  C  4  S   -0.010561  -0.090747   0.135737  -0.076079   0.028421
   31  C  4  X    0.131368  -0.068404  -1.116975  -0.013669  -0.248419
   32  C  4  Y    0.037058   0.027049   0.170400   0.052752   0.061278
   33  C  4  Z    0.000000   0.000000   0.000000   0.000000   0.000000
   34  C  4  X   -0.001602   0.042338  -0.013328   0.021252  -0.038150
   35  C  4  Y    0.023784   0.007474  -0.002279   0.022121   0.052875
   36  C  4  Z    0.000000   0.000000   0.000000   0.000000   0.000000
   37  H  5  S   -0.465905   0.059140   0.059139   1.678413   0.058272
   38  H  5  S    0.015304  -0.095521  -0.095521  -0.185914  -0.059200
   39  H  6  S    0.059140  -0.465905  -0.465904  -0.058272  -1.678413
   40  H  6  S   -0.095521   0.015304   0.015304   0.059200   0.185914
   41  H  7  S    0.025927   0.090011  -0.008501  -0.101066  -0.010506
   42  H  7  S    0.001484  -0.017820   0.015983   0.000373   0.014307
   43  H  8  S    0.090011   0.025927  -0.080011   0.010506   0.101066
   44  H  8  S   -0.017820   0.001484   0.018700  -0.014307  -0.000373
   45  H  9  S    0.025927   0.090011  -0.008501  -0.101066  -0.010506
   46  H  9  S    0.001484  -0.017820   0.015983   0.000373   0.014307
   47  H 10  S   -0.080011  -0.008501   0.090011  -0.101066  -0.010506
   48  H 10  S    0.018700   0.015983  -0.017820   0.000373   0.014307
   49  H 11  S   -0.008501  -0.080011   0.025927   0.010506   0.101066
   50  H 11  S    0.015983   0.018700   0.001484  -0.014307  -0.000373
   51  H 12  S   -0.080011  -0.008501   0.090011  -0.101066  -0.010506
   52  H 12  S    0.018700   0.015983  -0.017820   0.000373   0.014307
   53  H 13  S   -0.008501  -0.080011   0.025927   0.010506   0.101066
   54  H 13  S    0.015983   0.018700   0.001484  -0.014307  -0.000373
   55  H 14  S    0.090011   0.025927  -0.080011   0.010506   0.101066
   56  H 14  S   -0.017820   0.001484   0.018700  -0.014307  -0.000373

                     11         12         13         14         15

    1  C  1  S   -0.009584  -0.011326   0.011326  -0.001281   0.001835
    2  C  1  S    0.460244   0.440221  -0.440221  -0.007390   0.001417
    3  C  1  S   -0.103524  -0.036954   0.036954   0.011192  -0.016330
    4  C  1  X   -0.000958  -0.110522   0.110522   0.001934  -0.007904
    5  C  1  Y    0.533267  -0.257740   0.257740  -0.006845   0.004057
    6  C  1  Z   -0.000000   0.464292   0.464292   0.000000   0.004107
    7  C  1  X   -0.008284   0.016648  -0.016648   0.008554  -0.005395
    8  C  1  Y   -0.116443   0.046103  -0.046103   0.002778  -0.003032
    9  C  1  Z    0.000000  -0.032727  -0.032727   0.000000  -0.001588
   10  C  2  S   -0.001281   0.001835  -0.001835  -0.009583  -0.011326
   11  C  2  S   -0.007389   0.001417  -0.001417   0.460244   0.440221
   12  C  2  S    0.011192  -0.016330   0.016330  -0.103524  -0.036954
   13  C  2  X   -0.001934   0.007904  -0.007904   0.000958   0.110522
   14  C  2  Y   -0.006845   0.004057  -0.004058   0.533268  -0.257740
   15  C  2  Z    0.000000  -0.004107  -0.004107  -0.000000  -0.464292
   16  C  2  X   -0.008554   0.005395  -0.005395   0.008284  -0.016648
   17  C  2  Y    0.002778  -0.003032   0.003032  -0.116443   0.046103
   18  C  2  Z   -0.000000   0.001588   0.001588   0.000000   0.032727
   19  C  3  S   -0.009584  -0.001205   0.001205  -0.001281  -0.000159
   20  C  3  S    0.460244  -0.055804   0.055804  -0.007389   0.003436
   21  C  3  S   -0.103524  -0.019777   0.019777   0.011192   0.011491
   22  C  3  X   -0.000958  -0.031128   0.031128   0.001934   0.006064
   23  C  3  Y   -0.533267   0.041968  -0.041968   0.006845  -0.001320
   24  C  3  Z   -0.000000   0.004861   0.004861  -0.000000   0.000240
   25  C  3  X   -0.008284   0.007481  -0.007481   0.008554   0.005857
   26  C  3  Y    0.116443   0.010323  -0.010323  -0.002778  -0.000041
   27  C  3  Z    0.000000  -0.040412  -0.040412  -0.000000   0.001854
   28  C  4  S   -0.001281  -0.000159   0.000159  -0.009583  -0.001205
   29  C  4  S   -0.007389   0.003436  -0.003436   0.460244  -0.055804
   30  C  4  S    0.011192   0.011491  -0.011491  -0.103524  -0.019777
   31  C  4  X   -0.001934  -0.006064   0.006064   0.000958   0.031128
   32  C  4  Y    0.006845  -0.001320   0.001320  -0.533268   0.041968
   33  C  4  Z    0.000000  -0.000240  -0.000239  -0.000001  -0.004862
   34  C  4  X   -0.008554  -0.005857   0.005857   0.008284  -0.007481
   35  C  4  Y   -0.002778  -0.000041   0.000041   0.116443   0.010323
   36  C  4  Z   -0.000000  -0.001854  -0.001854   0.000000   0.040412
   37  H  5  S    0.010529   0.037219  -0.037218   0.010529   0.037218
   38  H  5  S   -0.036357  -0.032955   0.032955  -0.036357  -0.032955
   39  H  6  S    0.010529  -0.010868   0.010868   0.010529  -0.010868
   40  H  6  S   -0.036357   0.007439  -0.007439  -0.036357   0.007439
   41  H  7  S   -0.059954   0.724606   0.066917   0.002916   0.005409
   42  H  7  S   -0.016121  -0.279950  -0.003681   0.001834   0.003319
   43  H  8  S    0.002916  -0.001950   0.002184  -0.059953  -0.041235
   44  H  8  S    0.001834  -0.002157  -0.001245  -0.016122   0.015414
   45  H  9  S   -0.059953  -0.066917  -0.724606   0.002916  -0.005557
   46  H  9  S   -0.016122   0.003682   0.279950   0.001834   0.003079
   47  H 10  S    0.002916   0.005409   0.005558  -0.059954   0.724606
   48  H 10  S    0.001834   0.003319  -0.003080  -0.016121  -0.279950
   49  H 11  S   -0.059953   0.043820   0.041235   0.002916  -0.002184
   50  H 11  S   -0.016122  -0.001225  -0.015414   0.001834   0.001245
   51  H 12  S    0.002916  -0.005557  -0.005409  -0.059954  -0.066917
   52  H 12  S    0.001834   0.003080  -0.003319  -0.016121   0.003681
   53  H 13  S   -0.059954  -0.041235  -0.043820   0.002916  -0.001950
   54  H 13  S   -0.016121   0.015414   0.001225   0.001834  -0.002158
   55  H 14  S    0.002916  -0.002185   0.001950  -0.059954   0.043820
   56  H 14  S    0.001834   0.001245   0.002157  -0.016121  -0.001225

                     16         17         18         19         20

    1  C  1  S    0.001835  -0.001205   0.001205  -0.000159   0.000159
    2  C  1  S    0.001417  -0.055804   0.055804   0.003436  -0.003436
    3  C  1  S   -0.016330  -0.019777   0.019776   0.011491  -0.011491
    4  C  1  X   -0.007904  -0.031128   0.031128   0.006064  -0.006064
    5  C  1  Y    0.004057  -0.041968   0.041969   0.001320  -0.001320
    6  C  1  Z   -0.004107   0.004861   0.004861  -0.000239  -0.000239
    7  C  1  X   -0.005395   0.007481  -0.007481   0.005857  -0.005857
    8  C  1  Y   -0.003032  -0.010323   0.010323   0.000041  -0.000041
    9  C  1  Z    0.001588  -0.040412  -0.040412  -0.001854  -0.001854
   10  C  2  S   -0.011326  -0.000159   0.000159  -0.001205   0.001205
   11  C  2  S    0.440221   0.003436  -0.003435  -0.055803   0.055804
   12  C  2  S   -0.036954   0.011491  -0.011491  -0.019777   0.019777
   13  C  2  X    0.110522  -0.006064   0.006064   0.031128  -0.031128
   14  C  2  Y   -0.257740   0.001320  -0.001320  -0.041968   0.041968
   15  C  2  Z    0.464292  -0.000239  -0.000239   0.004861   0.004861
   16  C  2  X   -0.016648  -0.005857   0.005857  -0.007481   0.007481
   17  C  2  Y    0.046103   0.000041  -0.000041  -0.010323   0.010323
   18  C  2  Z   -0.032727  -0.001854  -0.001854  -0.040412  -0.040412
   19  C  3  S   -0.000159  -0.011326   0.011326   0.001835  -0.001835
   20  C  3  S    0.003436   0.440221  -0.440221   0.001417  -0.001417
   21  C  3  S    0.011491  -0.036954   0.036954  -0.016330   0.016330
   22  C  3  X    0.006064  -0.110522   0.110522  -0.007904   0.007904
   23  C  3  Y   -0.001320   0.257740  -0.257740  -0.004057   0.004057
   24  C  3  Z   -0.000240   0.464292   0.464292  -0.004107  -0.004107
   25  C  3  X    0.005857   0.016648  -0.016648  -0.005395   0.005395
   26  C  3  Y   -0.000041  -0.046103   0.046103   0.003032  -0.003032
   27  C  3  Z   -0.001854  -0.032727  -0.032727   0.001588   0.001588
   28  C  4  S   -0.001205   0.001835  -0.001835  -0.011326   0.011326
   29  C  4  S   -0.055803   0.001417  -0.001417   0.440222  -0.440221
   30  C  4  S   -0.019777  -0.016330   0.016330  -0.036954   0.036954
   31  C  4  X    0.031128   0.007904  -0.007904   0.110522  -0.110522
   32  C  4  Y    0.041968  -0.004058   0.004057   0.257739  -0.257740
   33  C  4  Z    0.004861  -0.004107  -0.004107   0.464292   0.464292
   34  C  4  X   -0.007481   0.005395  -0.005395  -0.016648   0.016648
   35  C  4  Y    0.010323   0.003032  -0.003032  -0.046103   0.046103
   36  C  4  Z   -0.040412   0.001588   0.001588  -0.032727  -0.032727
   37  H  5  S    0.037218  -0.010868   0.010868  -0.010868   0.010868
   38  H  5  S   -0.032955   0.007439  -0.007440   0.007439  -0.007439
   39  H  6  S   -0.010868   0.037218  -0.037218   0.037218  -0.037218
   40  H  6  S    0.007439  -0.032955   0.032955  -0.032955   0.032955
   41  H  7  S   -0.005557  -0.041235  -0.043820  -0.002184   0.001950
   42  H  7  S    0.003080   0.015414   0.001225   0.001245   0.002157
   43  H  8  S    0.043820   0.005409   0.005557  -0.066917  -0.724606
   44  H  8  S   -0.001225   0.003319  -0.003080   0.003681   0.279950
   45  H  9  S    0.005409   0.043820   0.041235  -0.001950   0.002184
   46  H  9  S    0.003319  -0.001225  -0.015414  -0.002157  -0.001245
   47  H 10  S   -0.066917  -0.001951   0.002185   0.043820   0.041235
   48  H 10  S    0.003681  -0.002157  -0.001245  -0.001225  -0.015414
   49  H 11  S   -0.001950  -0.066917  -0.724606   0.005409   0.005557
   50  H 11  S   -0.002157   0.003682   0.279950   0.003319  -0.003080
   51  H 12  S    0.724606  -0.002184   0.001950  -0.041235  -0.043820
   52  H 12  S   -0.279950   0.001245   0.002157   0.015414   0.001225
   53  H 13  S   -0.002184   0.724606   0.066917  -0.005557  -0.005409
   54  H 13  S    0.001245  -0.279950  -0.003681   0.003080  -0.003319
   55  H 14  S   -0.041235  -0.005557  -0.005409   0.724606   0.066917
   56  H 14  S    0.015414   0.003080  -0.003319  -0.279950  -0.003681
 ... DONE WITH ORIENTATION ...
 STEP CPU TIME =     0.00 TOTAL CPU TIME =        0.5 (    0.0 MIN)
 TOTAL WALL CLOCK TIME=        0.6 SECONDS, CPU UTILIZATION IS  98.21%
              1512500  WORDS OF DYNAMIC MEMORY USED
 EXECUTION OF GAMESS TERMINATED NORMALLY Wed Aug  9 20:42:27 2017
 DDI: 263640 bytes (0.3 MB / 0 MWords) used by master data server.

 ----------------------------------------
 CPU timing information for all processes
 ========================================
 0: 0.539 + 0.27 = 0.567
 ----------------------------------------
 ddikick.x: exited gracefully.
unset echo
----- accounting info -----
Files used on the master node compute-0-7.local were:
-rw-rw-r-- 1 sarom sarom  54K Aug  9 20:42 /scratch/mc-psi-etheth.F05
-rw-rw-r-- 1 sarom sarom 1.9M Aug  9 20:42 /scratch/mc-psi-etheth.F08
-rw-rw-r-- 1 sarom sarom 177K Aug  9 20:42 /scratch/mc-psi-etheth.F09
-rw-rw-r-- 1 sarom sarom 2.0M Aug  9 20:42 /scratch/mc-psi-etheth.F10
-rw-rw-r-- 1 sarom sarom  864 Aug  9 20:42 /scratch/mc-psi-etheth.F12
-rw-rw-r-- 1 sarom sarom 328K Aug  9 20:42 /scratch/mc-psi-etheth.F13
-rw-rw-r-- 1 sarom sarom 178K Aug  9 20:42 /scratch/mc-psi-etheth.F15
-rw-rw-r-- 1 sarom sarom 170K Aug  9 20:42 /scratch/mc-psi-etheth.F23
rm: No match.
ls: No match.
ls: No match.
ls: No match.
Wed Aug  9 20:42:30 CDT 2017
0.251u 0.162s 0:04.05 10.1%	0+0k 112+472io 0pf+0w
/opt/gridengine/default/spool/compute-0-7/active_jobs/35936.1/pe_hostfile compute-0-7.local
