-catch_rsh /opt/gridengine/default/spool/compute-0-1/active_jobs/23644.1/pe_hostfile
compute-0-1
The primary node assigned by SGE to this run is compute-0-1
Warning: no access to tty (Bad file descriptor).
Thus no job control in this shell.
source /home/sarom/gamess.github.2017-05-31.14.06/install.info
setenv GMS_PATH /home/sarom/gamess.github.2017-05-31.14.06
setenv GMS_BUILD_DIR /home/sarom/gamess.github.2017-05-31.14.06
setenv GMS_TARGET linux64
setenv GMS_FORTRAN gfortran
setenv GMS_GFORTRAN_VERNO 4.4
setenv GMS_MATHLIB mkl-so
setenv GMS_MATHLIB_PATH /share/apps/intel/compilers_and_libraries_2017.1.132/linux/mkl/lib/intel64
setenv GMS_MKL_VERNO 12
setenv GMS_DDI_COMM sockets
setenv GMS_LIBCCHEM false
setenv GMS_EIGEN_PATH
setenv GMS_PHI false
setenv GMS_SHMTYPE sysv
setenv GMS_OPENMP false
unset echo
e1-cc-numgrd
tests/numdiff
----- GAMESS execution script 'rungms' -----
This job is running on host compute-0-1.local
under operating system Linux at Fri Jun 2 01:56:57 CDT 2017
Available scratch disk space (Kbyte units) at beginning of the job is
Filesystem           1K-blocks      Used Available Use% Mounted on
/dev/sda1             16126920   3867344  11440376  26% /
GAMESS temporary binary files will be written to /scratch
GAMESS supplementary output files will be written to /home/sarom/restart
Copying input file e1-cc-numgrd.inp to your run's scratch directory...
cp tests/numdiff/e1-cc-numgrd.inp /scratch/e1-cc-numgrd.F05
unset echo
The generated host list is
compute-0-1.local
/home/sarom/gamess.github.2017-05-31.14.06/ddikick.x /home/sarom/gamess.github.2017-05-31.14.06/gamess.00.x e1-cc-numgrd -ddi 1 1 compute-0-1.local -scr /scratch

 Distributed Data Interface kickoff program.
 Initiating 1 compute processes on 1 nodes to run the following command:
 /home/sarom/gamess.github.2017-05-31.14.06/gamess.00.x e1-cc-numgrd 

          ******************************************************
          *         GAMESS VERSION = 20 APR 2017 (R1)          *
          *             FROM IOWA STATE UNIVERSITY             *
          * M.W.SCHMIDT, K.K.BALDRIDGE, J.A.BOATZ, S.T.ELBERT, *
          *   M.S.GORDON, J.H.JENSEN, S.KOSEKI, N.MATSUNAGA,   *
          *          K.A.NGUYEN, S.J.SU, T.L.WINDUS,           *
          *       TOGETHER WITH M.DUPUIS, J.A.MONTGOMERY       *
          *         J.COMPUT.CHEM.  14, 1347-1363(1993)        *
          **************** 64 BIT LINUX VERSION ****************

  SINCE 1993, STUDENTS AND POSTDOCS WORKING AT IOWA STATE UNIVERSITY
  AND ALSO IN THEIR VARIOUS JOBS AFTER LEAVING ISU HAVE MADE IMPORTANT
  CONTRIBUTIONS TO THE CODE:
     IVANA ADAMOVIC, CHRISTINE AIKENS, YURI ALEXEEV, POOJA ARORA,
     ANDREY ASADCHEV, ROB BELL, PRADIPTA BANDYOPADHYAY, JONATHAN BENTZ,
     BRETT BODE, KURT BRORSEN, CALEB CARLIN, GALINA CHABAN, WEI CHEN,
     CHEOL HO CHOI, PAUL DAY, ALBERT DEFUSCO, NUWAN DESILVA, TIM DUDLEY,
     DMITRI FEDOROV, GRAHAM FLETCHER, MARK FREITAG, KURT GLAESEMANN,
     DAN KEMP, GRANT MERRILL, NORIYUKI MINEZAWA, JONATHAN MULLIN,
     TAKESHI NAGATA, SEAN NEDD, HEATHER NETZLOFF, BOSILJKA NJEGIC, RYAN OLSON,
     MIKE PAK, SPENCER PRUITT, LUKE ROSKOP, JIM SHOEMAKER, LYUDMILA SLIPCHENKO,
     TONY SMITH, SAROM SOK LEANG, JIE SONG, TETSUYA TAKETSUGU, SIMON WEBB,
     PENG XU, SOOHAENG YOO, FEDERICO ZAHARIEV

  ADDITIONAL CODE HAS BEEN PROVIDED BY COLLABORATORS IN OTHER GROUPS:
     IOWA STATE UNIVERSITY:
          JOE IVANIC, AARON WEST, LAIMUTIS BYTAUTAS, KLAUS RUEDENBERG
     UNIVERSITY OF TOKYO: KIMIHIKO HIRAO, TAKAHITO NAKAJIMA,
          TAKAO TSUNEDA, MUNEAKI KAMIYA, SUSUMU YANAGISAWA,
          KIYOSHI YAGI, MAHITO CHIBA, SEIKEN TOKURA, NAOAKI KAWAKAMI
     UNIVERSITY OF AARHUS: FRANK JENSEN
     UNIVERSITY OF IOWA: VISVALDAS KAIRYS, HUI LI
     NATIONAL INST. OF STANDARDS AND TECHNOLOGY: WALT STEVENS, DAVID GARMER
     UNIVERSITY OF PISA: BENEDETTA MENNUCCI, JACOPO TOMASI
     UNIVERSITY OF MEMPHIS: HENRY KURTZ, PRAKASHAN KORAMBATH
     UNIVERSITY OF ALBERTA: TOBY ZENG, MARIUSZ KLOBUKOWSKI
     UNIVERSITY OF NEW ENGLAND: MARK SPACKMAN
     MIE UNIVERSITY: HIROAKI UMEDA
     NAT. INST. OF ADVANCED INDUSTRIAL SCIENCE AND TECHNOLOGY: KAZUO KITAURA
     MICHIGAN STATE UNIVERSITY:
          KAROL KOWALSKI, MARTA WLOCH, JEFFREY GOUR, JESSE LUTZ,
          WEI LI, PIOTR PIECUCH
     UNIVERSITY OF SILESIA: MONIKA MUSIAL, STANISLAW KUCHARSKI
     FACULTES UNIVERSITAIRES NOTRE-DAME DE LA PAIX:
          OLIVIER QUINET, BENOIT CHAMPAGNE
     UNIVERSITY OF CALIFORNIA - SANTA BARBARA: BERNARD KIRTMAN
     INSTITUTE FOR MOLECULAR SCIENCE:
          KAZUYA ISHIMURA, MICHIO KATOUDA, AND SHIGERU NAGASE
     UNIVERSITY OF NOTRE DAME: ANNA POMOGAEVA, DAN CHIPMAN
     KYUSHU UNIVERSITY:
          HARUYUKI NAKANO,
          FENG LONG GU, JACEK KORCHOWIEC, MARCIN MAKOWSKI, AND YURIKO AOKI,
          HIROTOSHI MORI AND EISAKU MIYOSHI
     PENNSYLVANIA STATE UNIVERSITY:
          TZVETELIN IORDANOV, CHET SWALINA, JONATHAN SKONE,
          SHARON HAMMES-SCHIFFER
     WASEDA UNIVERSITY:
          MASATO KOBAYASHI, TOMOKO AKAMA, TSUGUKI TOUMA,
          TAKESHI YOSHIKAWA, YASUHIRO IKABATA, JUNJI SEINO,
          YUYA NAKAJIMA, HIROMI NAKAI
     NANJING UNIVERSITY: SHUHUA LI
     UNIVERSITY OF NEBRASKA:
          PEIFENG SU, DEJUN SI, NANDUN THELLAMUREGE, YALI WANG, HUI LI
     UNIVERSITY OF ZURICH: ROBERTO PEVERATI, KIM BALDRIDGE
     N. COPERNICUS UNIVERSITY AND JACKSON STATE UNIVERSITY:
          MARIA BARYSZ
     UNIVERSITY OF COPENHAGEN: Jimmy Kromann, CASPER STEINMANN
     TOKYO INSTITUTE OF TECHNOLOGY: HIROYA NAKATA
     NAGOYA UNIVERSITY: YOSHIO NISHIMOTO, STEPHAN IRLE
     MOSCOW STATE UNIVERSITY: VLADIMIR MIRONOV

 EXECUTION OF GAMESS BEGUN Fri Jun  2 01:56:57 2017

            ECHO OF THE FIRST FEW INPUT CARDS -
 INPUT CARD>!  CH2: CCSD(T)/STO-2G optimization by numerical gradients                      
 INPUT CARD>!                                                                               
 INPUT CARD>!  results with parallel CCSD(T) will differ slightly from the below:           
 INPUT CARD>!     NSERCH:   0  E= -37.2886608474  R.M.S.=  0.0381351                        
 INPUT CARD>!     NSERCH:   1  E= -37.2983730585  R.M.S.=  0.0112912                        
 INPUT CARD>!     NSERCH:   2  E= -37.2993164775  R.M.S.=  0.0018124                        
 INPUT CARD>!     NSERCH:   3  E= -37.2993732038  R.M.S.=  0.0015240                        
 INPUT CARD>!     NSERCH:   4  E= -37.2993959396  R.M.S.=  0.0000701                        
 INPUT CARD>!     NSERCH:   5  E= -37.2993959742  R.M.S.=  0.0000029                        
 INPUT CARD>!                                                                               
 INPUT CARD>!  This test takes 0 seconds on 2.66 GHz Cloverton (14 Apr 2015)                
 INPUT CARD>!                                                                               
 INPUT CARD> $CONTRL SCFTYP=RHF cctyp=ccsd(t) RUNTYP=optimize numgrd=.t. COORD=ZMT $END     
 INPUT CARD> $SYSTEM TIMLIM=1 mwords=5 memddi=5 $END                                        
 INPUT CARD> $BASIS  GBASIS=STO NGAUSS=2 $END                                               
 INPUT CARD> $GUESS  GUESS=HUCKEL $END                                                      
 INPUT CARD> $DATA                                                                          
 INPUT CARD>Methylene...1-A-1 state...RHF/STO-2G                                            
 INPUT CARD>Cnv  2                                                                          
 INPUT CARD>                                                                                
 INPUT CARD>C                                                                               
 INPUT CARD>H  1 rCH                                                                        
 INPUT CARD>H  1 rCH  2 aHCH                                                                
 INPUT CARD>                                                                                
 INPUT CARD>rCH=1.09                                                                        
 INPUT CARD>aHCH=110.0                                                                      
 INPUT CARD> $END                                                                           
    5000000 WORDS OF MEMORY AVAILABLE

     BASIS OPTIONS
     -------------
     GBASIS=STO          IGAUSS=       2      POLAR=NONE    
     NDFUNC=       0     NFFUNC=       0     DIFFSP=       F
     NPFUNC=       0      DIFFS=       F     BASNAM=        


     RUN TITLE
     ---------
 Methylene...1-A-1 state...RHF/STO-2G                                            

 THE POINT GROUP OF THE MOLECULE IS CNV     
 THE ORDER OF THE PRINCIPAL AXIS IS     2

 YOUR FULLY SUBSTITUTED Z-MATRIX IS
 C   
 H      1   1.0900000
 H      1   1.0900000  2  110.0000

 THE MOMENTS OF INERTIA ARE (AMU-ANGSTROM**2)
 IXX=     0.675   IYY=     1.607   IZZ=     2.281

 ATOM      ATOMIC                      COORDINATES (BOHR)
           CHARGE         X                   Y                   Z
 C           6.0     0.0000000000        0.0000000000       -0.1699098334
 H           1.0    -1.6872904675        0.0000000000        1.0115436711
 H           1.0     1.6872904675        0.0000000000        1.0115436711

          INTERNUCLEAR DISTANCES (ANGS.)
          ------------------------------

                1 C          2 H          3 H     

   1 C       0.0000000    1.0900000 *  1.0900000 *
   2 H       1.0900000 *  0.0000000    1.7857515 *
   3 H       1.0900000 *  1.7857515 *  0.0000000  

  * ... LESS THAN  3.000


     ATOMIC BASIS SET
     ----------------
 THE CONTRACTED PRIMITIVE FUNCTIONS HAVE BEEN UNNORMALIZED
 THE CONTRACTED BASIS FUNCTIONS ARE NOW NORMALIZED TO UNITY

  SHELL TYPE  PRIMITIVE        EXPONENT          CONTRACTION COEFFICIENT(S)

 C         

      1   S       1            27.3850330    0.430128498301
      1   S       2             4.8745221    0.678913530502

      2   L       3             1.1367482    0.049471769201    0.511540707616
      2   L       4             0.2883094    0.963782408119    0.612819896119

 H         

      4   S       5             1.3097564    0.430128498301
      4   S       6             0.2331360    0.678913530502

 TOTAL NUMBER OF BASIS SET SHELLS             =    4
 NUMBER OF CARTESIAN GAUSSIAN BASIS FUNCTIONS =    7
 NUMBER OF ELECTRONS                          =    8
 CHARGE OF MOLECULE                           =    0
 SPIN MULTIPLICITY                            =    1
 NUMBER OF OCCUPIED ORBITALS (ALPHA)          =    4
 NUMBER OF OCCUPIED ORBITALS (BETA )          =    4
 TOTAL NUMBER OF ATOMS                        =    3
 THE NUCLEAR REPULSION ENERGY IS        6.1221376700

     $CONTRL OPTIONS
     ---------------
 SCFTYP=RHF          RUNTYP=OPTIMIZE     EXETYP=RUN     
 MPLEVL=       0     CITYP =NONE         CCTYP =CCSD(T)      VBTYP =NONE    
 DFTTYP=NONE         TDDFT =NONE    
 MULT  =       1     ICHARG=       0     NZVAR =       0     COORD =ZMT     
 PP    =NONE         RELWFN=NONE         LOCAL =NONE         NUMGRD=       T
 ISPHER=      -1     NOSYM =       0     MAXIT =      30     UNITS =ANGS    
 PLTORB=       F     MOLPLT=       F     AIMPAC=       F     FRIEND=        
 NPRINT=       7     IREST =       0     GEOM  =INPUT   
 NORMF =       0     NORMP =       0     ITOL  =      20     ICUT  =       9
 INTTYP=BEST         GRDTYP=BEST         QMTTOL= 1.0E-06

     $SYSTEM OPTIONS
     ---------------
  REPLICATED MEMORY=     5000000 WORDS (ON EVERY NODE).
 DISTRIBUTED MEMDDI=           5 MILLION WORDS IN AGGREGATE,
 MEMDDI DISTRIBUTED OVER   1 PROCESSORS IS     5000000 WORDS/PROCESSOR.
 TOTAL MEMORY REQUESTED ON EACH PROCESSOR=    10000000 WORDS.
 TIMLIM=           1.00 MINUTES, OR       0.0 DAYS.
 PARALL= F  BALTYP=  DLB     KDIAG=    0  COREFL= F
 MXSEQ2=     300 MXSEQ3=     150  mem10=         0

          ----------------
          PROPERTIES INPUT
          ----------------

     MOMENTS            FIELD           POTENTIAL          DENSITY
 IEMOM =       1   IEFLD =       0   IEPOT =       0   IEDEN =       0
 WHERE =COMASS     WHERE =NUCLEI     WHERE =NUCLEI     WHERE =NUCLEI  
 OUTPUT=BOTH       OUTPUT=BOTH       OUTPUT=BOTH       OUTPUT=BOTH    
 IEMINT=       0   IEFINT=       0                     IEDINT=       0
                                                       MORB  =       0
          EXTRAPOLATION IN EFFECT
 ORBITAL PRINTING OPTION: NPREO=     1     7     2     1

     -------------------------------
     INTEGRAL TRANSFORMATION OPTIONS
     -------------------------------
     NWORD  =            0
     CUTOFF = 1.0E-09     MPTRAN =       0
     DIRTRF =       F     AOINTS =DUP     

          ----------------------
          INTEGRAL INPUT OPTIONS
          ----------------------
 NOPK  =       1 NORDER=       0 SCHWRZ=       F

   --- ENCODED Z MATRIX ---
 COORD  TYPE   I   J   K   L   M   N
    1      1    3   1
    2      1    2   1
    3      2    2   1   3

 THE DETERMINANT OF THE G MATRIX IS 10**(    -1)

     ------------------------------------------
     THE POINT GROUP IS CNV, NAXIS= 2, ORDER= 4
     ------------------------------------------

     DIMENSIONS OF THE SYMMETRY SUBSPACES ARE
 A1  =    4     A2  =    0     B1  =    2     B2  =    1

 ..... DONE SETTING UP THE RUN .....
 STEP CPU TIME =     0.02 TOTAL CPU TIME =        0.0 (    0.0 MIN)
 TOTAL WALL CLOCK TIME=        0.0 SECONDS, CPU UTILIZATION IS  66.67%


          -----------------------------
          STATIONARY POINT LOCATION RUN
          -----------------------------

 OBTAINING INITIAL HESSIAN, HESS=GUESS   
 CARTESIAN COORDINATE OPTIMIZATION USING BADGER'S RULE FORCE CONSTANT GUESS

          PARAMETERS CONTROLLING GEOMETRY SEARCH ARE
          METHOD =QA                  UPHESS =BFGS    
          NNEG   =         0          NFRZ   =         0
          NSTEP  =        50          IFOLOW =         1
          HESS   =GUESS               RESTAR =         F
          IHREP  =         0          HSSEND =         F
          NPRT   =         0          NPUN   =         0
          OPTTOL = 1.000E-04          RMIN   = 1.500E-03
          RMAX   = 1.000E-01          RLIM   = 7.000E-02
          DXMAX  = 3.000E-01          PURIFY =         F
          MOVIE  =         F          TRUPD  =         T
          TRMAX  = 5.000E-01          TRMIN  = 5.000E-02
          ITBMAT =         5          STPT   =         F
          STSTEP = 1.000E-02          PROJCT=          T

 BEGINNING GEOMETRY SEARCH POINT NSERCH=   0 ...

 COORDINATES OF SYMMETRY UNIQUE ATOMS (ANGS)
   ATOM   CHARGE       X              Y              Z
 ------------------------------------------------------------
 C           6.0   0.0000000000   0.0000000000  -0.0899124183
 H           1.0   0.8928757283   0.0000000000   0.5352858974
 COORDINATES OF ALL ATOMS ARE (ANGS)
   ATOM   CHARGE       X              Y              Z
 ------------------------------------------------------------
 C           6.0   0.0000000000   0.0000000000  -0.0899124183
 H           1.0  -0.8928757283   0.0000000000   0.5352858974
 H           1.0   0.8928757283   0.0000000000   0.5352858974

 THE CURRENT FULLY SUBSTITUTED Z-MATRIX IS
 C   
 H      1   1.0900000
 H      1   1.0900000  2   110.0000000

          ********************
          1 ELECTRON INTEGRALS
          ********************
 ...... END OF ONE-ELECTRON INTEGRALS ......
 STEP CPU TIME =     0.00 TOTAL CPU TIME =        0.0 (    0.0 MIN)
 TOTAL WALL CLOCK TIME=        0.0 SECONDS, CPU UTILIZATION IS  66.67%

          -------------
          GUESS OPTIONS
          -------------
          GUESS =HUCKEL            NORB  =       0          NORDER=       0
          MIX   =       F          PRTMO =       F          PUNMO =       F
          TOLZ  = 1.0E-08          TOLE  = 1.0E-05
          SYMDEN=       F          PURIFY=       F

 INITIAL GUESS ORBITALS GENERATED BY HUCKEL   ROUTINE.
 HUCKEL GUESS REQUIRES      2620 WORDS.

 SYMMETRIES FOR INITIAL GUESS ORBITALS FOLLOW.   BOTH SET(S).
     4 ORBITALS ARE OCCUPIED (    1 CORE ORBITALS).
     2=A1       3=B1       4=A1       5=B2       6=B1       7=A1  
 ...... END OF INITIAL ORBITAL SELECTION ......
 STEP CPU TIME =     0.00 TOTAL CPU TIME =        0.0 (    0.0 MIN)
 TOTAL WALL CLOCK TIME=        0.0 SECONDS, CPU UTILIZATION IS  66.67%

                    ----------------------
                    AO INTEGRAL TECHNOLOGY
                    ----------------------
     S,P,L SHELL ROTATED AXIS INTEGRALS, REPROGRAMMED BY
        KAZUYA ISHIMURA (IMS) AND JOSE SIERRA (SYNSTAR).
     S,P,D,L SHELL ROTATED AXIS INTEGRALS PROGRAMMED BY
        KAZUYA ISHIMURA (INSTITUTE FOR MOLECULAR SCIENCE).
     S,P,D,F,G SHELL TO TOTAL QUARTET ANGULAR MOMENTUM SUM 5,
        ERIC PROGRAM BY GRAHAM FLETCHER (ELORET AND NASA ADVANCED
        SUPERCOMPUTING DIVISION, AMES RESEARCH CENTER).
     S,P,D,F,G,L SHELL GENERAL RYS QUADRATURE PROGRAMMED BY
        MICHEL DUPUIS (PACIFIC NORTHWEST NATIONAL LABORATORY).

          --------------------
          2 ELECTRON INTEGRALS
          --------------------

 THE -PK- OPTION IS OFF, THE INTEGRALS ARE NOT IN SUPERMATRIX FORM.
 STORING   15000 INTEGRALS/RECORD ON DISK, USING 12 BYTES/INTEGRAL.
 TWO ELECTRON INTEGRAL EVALUATION REQUIRES   89366 WORDS OF MEMORY.
 II,JST,KST,LST =  1  1  1  1 NREC =         1 INTLOC =    1
 II,JST,KST,LST =  2  1  1  1 NREC =         1 INTLOC =    2
 II,JST,KST,LST =  3  1  1  1 NREC =         1 INTLOC =   34
 II,JST,KST,LST =  4  1  1  1 NREC =         1 INTLOC =   34
 TOTAL NUMBER OF NONZERO TWO-ELECTRON INTEGRALS =                 141
          1 INTEGRAL RECORDS WERE STORED ON DISK FILE  8.
  ...... END OF TWO-ELECTRON INTEGRALS .....
 STEP CPU TIME =     0.01 TOTAL CPU TIME =        0.0 (    0.0 MIN)
 TOTAL WALL CLOCK TIME=        0.0 SECONDS, CPU UTILIZATION IS  75.00%

          --------------------------
                 RHF SCF CALCULATION
          --------------------------

     NUCLEAR ENERGY =         6.1221376700
     MAXIT =   30     NPUNCH=    2
     EXTRAP=T  DAMP=F  SHIFT=F  RSTRCT=F  DIIS=F  DEM=F  SOSCF=F
     DENSITY MATRIX CONV=  1.00E-06
     MEMORY REQUIRED FOR RHF ITERS=     30441 WORDS.

 ITER EX DEM     TOTAL ENERGY        E CHANGE  DENSITY CHANGE    DIIS ERROR
   1  0  0      -37.1725772831   -37.1725772831   0.380764105   0.000000000
   2  1  0      -37.2279756203    -0.0553983372   0.131481807   0.000000000
   3  2  0      -37.2317322477    -0.0037566275   0.046548651   0.000000000
   4  3  0      -37.2321932103    -0.0004609626   0.016847695   0.000000000
   5  0  0      -37.2322568537    -0.0000636433   0.010114675   0.000000000
   6  1  0      -37.2322678008    -0.0000109472   0.000054437   0.000000000
   7  2  0      -37.2322678015    -0.0000000006   0.000017898   0.000000000
   8  3  0      -37.2322678015    -0.0000000001   0.000006281   0.000000000
   9  4  0      -37.2322678015    -0.0000000000   0.000002282   0.000000000
  10  5  0      -37.2322678015    -0.0000000000   0.000000850   0.000000000
  11  6  0      -37.2322678015    -0.0000000000   0.000000322   0.000000000

 RHF HAS CONVERGED, NOW COMPUTING EXACT TOTAL FOCK MATRIX
 FOR USE DURING THE COUPLED CLUSTER CALCULATION THAT FOLLOWS.

          -----------------
          DENSITY CONVERGED
          -----------------
     TIME TO FORM FOCK OPERATORS=       0.0 SECONDS (       0.0 SEC/ITER)
     TIME TO SOLVE SCF EQUATIONS=       0.0 SECONDS (       0.0 SEC/ITER)

 FINAL RHF ENERGY IS      -37.2322678015 AFTER  11 ITERATIONS

          ------------
          EIGENVECTORS
          ------------

                      1          2          3          4          5
                  -10.6188    -0.8205    -0.5149    -0.2795     0.2459
                     A1         A1         B1         A1         B2  
    1  C  1  S    0.983734  -0.243675   0.000000   0.165844   0.000000
    2  C  1  S    0.063273   0.641661   0.000000  -0.643099   0.000000
    3  C  1  X   -0.000000   0.000000   0.520733  -0.000000   0.000000
    4  C  1  Y   -0.000000   0.000000   0.000000  -0.000000   1.000000
    5  C  1  Z    0.011358   0.170910   0.000000   0.766042   0.000000
    6  H  2  S   -0.016439   0.285809  -0.462541   0.227437   0.000000
    7  H  3  S   -0.016439   0.285809   0.462541   0.227437   0.000000

                      6          7
                    0.7165     0.7715
                     A1         B1  
    1  C  1  S   -0.217216   0.000000
    2  C  1  S    1.114002   0.000000
    3  C  1  X   -0.000000   1.125147
    4  C  1  Y   -0.000000   0.000000
    5  C  1  Z    0.811131   0.000000
    6  H  2  S   -0.904459   0.836937
    7  H  3  S   -0.904459  -0.836937
 ...... END OF RHF CALCULATION ......
 STEP CPU TIME =     0.00 TOTAL CPU TIME =        0.0 (    0.0 MIN)
 TOTAL WALL CLOCK TIME=        0.0 SECONDS, CPU UTILIZATION IS  75.00%

     ----------------------------------------------------------------
     PROPERTY VALUES FOR THE RHF   SELF-CONSISTENT FIELD WAVEFUNCTION
     ----------------------------------------------------------------

          ---------------------------------------
          MULLIKEN AND LOWDIN POPULATION ANALYSES
          ---------------------------------------

               ----- POPULATIONS IN EACH AO -----
                             MULLIKEN      LOWDIN
              1  C  1  S      1.98927     1.98637
              2  C  1  S      1.62082     1.50433
              3  C  1  X      0.91152     0.95700
              4  C  1  Y      0.00000     0.00000
              5  C  1  Z      1.47154     1.50761
              6  H  2  S      1.00342     1.02234
              7  H  3  S      1.00342     1.02234

          ----- MULLIKEN ATOMIC OVERLAP POPULATIONS -----
          (OFF-DIAGONAL ELEMENTS NEED TO BE MULTIPLIED BY 2)

             1           2           3

    1    5.3256159
    2    0.3337686   0.6952575
    3    0.3337686  -0.0256026   0.6952575

          TOTAL MULLIKEN AND LOWDIN ATOMIC POPULATIONS
       ATOM         MULL.POP.    CHARGE          LOW.POP.     CHARGE
    1 C             5.993153    0.006847         5.955315    0.044685
    2 H             1.003423   -0.003423         1.022342   -0.022342
    3 H             1.003423   -0.003423         1.022342   -0.022342

          -------------------------------
          BOND ORDER AND VALENCE ANALYSIS     BOND ORDER THRESHOLD=0.050
          -------------------------------

                   BOND                       BOND                       BOND
  ATOM PAIR DIST  ORDER      ATOM PAIR DIST  ORDER      ATOM PAIR DIST  ORDER
    1   2  1.090  0.993        1   3  1.090  0.993

                       TOTAL       BONDED        FREE
      ATOM            VALENCE     VALENCE     VALENCE
    1 C                 1.986       1.986       0.000
    2 H                 1.000       1.000       0.000
    3 H                 1.000       1.000       0.000

          ---------------------
          ELECTROSTATIC MOMENTS
          ---------------------

 POINT   1           X           Y           Z (BOHR)    CHARGE
                 0.000000    0.000000    0.000000        0.00 (A.U.)
         DX          DY          DZ         /D/  (DEBYE)
    -0.000000   -0.000000    1.515764    1.515764
 ...... END OF PROPERTY EVALUATION ......
 STEP CPU TIME =     0.00 TOTAL CPU TIME =        0.0 (    0.0 MIN)
 TOTAL WALL CLOCK TIME=        0.0 SECONDS, CPU UTILIZATION IS  60.00%

     ---------------------------
     COUPLED CLUSTER CALCULATION
     ---------------------------
 CCTYP                        =CCSD(T) 
 TOTAL NUMBER OF MOS          =     7
 NUMBER OF OCCUPIED MOS       =     4
 NUMBER OF FROZEN CORE MOS    =     1
 NUMBER OF FROZEN VIRTUAL MOS =     0
 MAXIMUM CC ITERATIONS        =    30
 MAXIMUM DIIS ITERATIONS      =     5
 CONVERGENCE CRITERION FOR CC =     7
 AMPLITUDE ACCURACY THRESHOLD = 0.0E+00

     --------------------------------------------
     PARTIAL TWO ELECTRON INTEGRAL TRANSFORMATION
     --------------------------------------------

 NUMBER OF CORE MOLECULAR ORBITALS     =    1
 NUMBER OF OCCUPIED MOLECULAR ORBITALS =    7
 TOTAL NUMBER OF MOLECULAR ORBITALS    =    7
 TOTAL NUMBER OF ATOMIC ORBITALS       =    7
 THRESHOLD FOR KEEPING TRANSFORMED 2E- INTEGRALS = 1.000E-09
 AO INTEGRALS WILL BE READ IN FROM DISK...
 EVALUATING THE FROZEN CORE ENERGY...
 ----- FROZEN CORE ENERGY =       -32.9756302253

 PLAN A: REQUIREMENTS FOR FULLY IN-MEMORY TRANSFORMATION:
 # OF WORDS AVAILABLE =              4999964
 # OF WORDS NEEDED    =                61437

 CHOOSING IN MEMORY PARTIAL TRANSFORMATION...
 TOTAL NUMBER OF TRANSFORMED 2E- INTEGRALS KEPT =           85
 ... END OF INTEGRAL TRANSFORMATION ...
 STEP CPU TIME =     0.00 TOTAL CPU TIME =        0.0 (    0.0 MIN)
 TOTAL WALL CLOCK TIME=        0.0 SECONDS, CPU UTILIZATION IS  60.00%

   -----------------------
   COUPLED-CLUSTER PROGRAM
   -----------------------

   -------------------------------------------------------
   P.PIECUCH, S.A.KUCHARSKI, M.WLOCH, K.KOWALSKI, M.MUSIAL
   -------------------------------------------------------

 *****************************************************************
 THE FOLLOWING PAPERS SHOULD BE CITED WHEN USING COUPLED-CLUSTER
 OPTIONS:

 CCTYP = LCCD, CCD, CCSD, CCSD(T)
 P. PIECUCH, S.A. KUCHARSKI, K. KOWALSKI, AND M. MUSIAL,
 COMP. PHYS. COMMUN. 149, 71-96 (2002).

 CCTYP = R-CC, CR-CC, CCSD(TQ), CR-CC(Q)
 P. PIECUCH, S.A. KUCHARSKI, K. KOWALSKI, AND M. MUSIAL,
 COMP. PHYS. COMMUN. 149, 71-96 (2002);
 K. KOWALSKI AND P. PIECUCH, J. CHEM. PHYS. 113, 18-35 (2000);
 K. KOWALSKI AND P. PIECUCH, J. CHEM. PHYS. 113, 5644-5652 (2000).

 CCTYP = EOM-CCSD, CR-EOM
 P. PIECUCH, S.A. KUCHARSKI, K. KOWALSKI, AND M. MUSIAL,
 COMP. PHYS. COMMUN. 149, 71-96 (2002);
 K. KOWALSKI AND P. PIECUCH, J. CHEM. PHYS. 120, 1715-1738 (2004);
 M. WLOCH, J.R. GOUR, K. KOWALSKI, AND P. PIECUCH,
 J. CHEM. PHYS. 122, 214107-1 - 214107-15 (2005).

 CCTYP = CR-CCL
 P. PIECUCH, S.A. KUCHARSKI, K. KOWALSKI, AND M. MUSIAL,
 COMP. PHYS. COMMUN. 149, 71-96 (2002);
 P. PIECUCH AND M. WLOCH, J. CHEM. PHYS. 123,
 224105-1 - 224105-10 (2005).

 CCTYP = CR-EOML
 P. PIECUCH, S.A. KUCHARSKI, K. KOWALSKI, AND M. MUSIAL,
 COMP. PHYS. COMMUN. 149, 71-96 (2002);
 P. PIECUCH, J. R. GOUR, AND M. WLOCH,
 INT. J. QUANTUM CHEM. 109, 3268-3304 (2009);
 K. KOWALSKI AND P. PIECUCH,
 J. CHEM. PHYS. 120, 1715-1738 (2004).

 IN ADDITION, THE USE OF CCPRP=.TRUE. IN $CCINP AND/OR THE USE
 OF CCPRPE=.TRUE. IN $EOMINP SHOULD REFERENCE

 M. WLOCH, J.R. GOUR, K. KOWALSKI, AND P. PIECUCH,
 J. CHEM. PHYS. 122, 214107-1 - 214107-15 (2005).
 *****************************************************************


 THE FOLLOWING CALCULATIONS WILL BE PERFORMED:
                                                     CCSD   
                                                     CCSD[T]
                                                     CCSD(T)

 THE FOLLOWING ENERGY WILL BE CONSIDERED THE HIGHEST LEVEL:    CCSD(T)
 THE AVAILABLE REPLICATED MEMORY IS     4999964 WORDS.
 CONVERGENCE THRESHOLD:   1.0E-07
 MAXIMUM NUMBER OF ITERATIONS:   30

 MEMORY TO BE USED IN CC INTEGRAL SORTING IS       30378 WORDS.
 THE MINIMUM MEMORY TO ACCOMPLISH SORTING IS       30378 WORDS.
           85 NON-ZERO TRANSFORMED 2E- INTEGRALS WERE SORTED INTO FILE 72:
           13 [IJ|KL] TYPE,          18 [AJ|KL] TYPE,
           14 [AB|IJ] TYPE,          16 [IA|BJ] TYPE,
           15 [AB|CI] TYPE,           9 [AB|CD] TYPE.
 TRANSFORMED INTEGRAL FILE  9 WAS READ    3 TIMES.
 ....... DONE WITH CC INTEGRAL PREPARATION .......
 STEP CPU TIME =     0.00 TOTAL CPU TIME =        0.0 (    0.0 MIN)
 TOTAL WALL CLOCK TIME=        0.0 SECONDS, CPU UTILIZATION IS  60.00%

 MEMORY REQUIRED FOR THE CCSD ITERATIONS IS         639 WORDS.
 ITER:  1   CCSD    CORR. ENERGY:  -0.0445566303   CONV.: -3.6872E-02
 ITER:  2   CCSD    CORR. ENERGY:  -0.0493281984   CONV.: -2.7339E-02
 ITER:  3   CCSD    CORR. ENERGY:  -0.0536481073   CONV.: -1.4968E-02
 ITER:  4   CCSD    CORR. ENERGY:  -0.0551913202   CONV.: -9.8899E-03
 ITER:  5   CCSD    CORR. ENERGY:  -0.0552778913   CONV.: -8.3877E-03
 ITER:  6   CCSD    CORR. ENERGY:  -0.0562156610   CONV.:  1.9129E-03
 ITER:  7   CCSD    CORR. ENERGY:  -0.0561791099   CONV.:  6.0594E-04
 ITER:  8   CCSD    CORR. ENERGY:  -0.0561694632   CONV.:  1.7155E-04
 ITER:  9   CCSD    CORR. ENERGY:  -0.0561760710   CONV.:  1.1359E-05
 ITER: 10   CCSD    CORR. ENERGY:  -0.0561756817   CONV.:  5.1475E-06
 ITER: 11   CCSD    CORR. ENERGY:  -0.0561745090   CONV.:  2.0958E-06
 ITER: 12   CCSD    CORR. ENERGY:  -0.0561743818   CONV.:  1.2480E-06
 ITER: 13   CCSD    CORR. ENERGY:  -0.0561742770   CONV.:  3.9747E-07
 ITER: 14   CCSD    CORR. ENERGY:  -0.0561742163   CONV.: -2.5512E-08
 ITER: 15   CCSD    CORR. ENERGY:  -0.0561742120   CONV.: -2.5512E-08

     THE    CCSD     ITERATIONS HAVE CONVERGED

    MBPT(2) CORRELATION ENERGY:  -0.0329309248
    CCSD    CORRELATION ENERGY:  -0.0561742120

 T1 DIAGNOSTIC        =     0.00707547
 NORM OF THE T1 VECTOR=     0.01733130
 NORM OF THE T2 VECTOR=     0.27534499

 THE FIVE LARGEST T1 AMPLITUDES ARE:
 T1 AMPLITUDE IS -0.016219 FOR I=   4 -> A=   6
 T1 AMPLITUDE IS -0.006005 FOR I=   2 -> A=   6
 T1 AMPLITUDE IS  0.001118 FOR I=   3 -> A=   7

 THE FIVE LARGEST SPIN-UNIQUE T2 AMPLITUDES ARE:
 T2 AMPLITUDE IS -0.217098 FOR I,J=   4   4 -> A,B=   5   5
 T2 AMPLITUDE IS -0.064507 FOR I,J=   3   3 -> A,B=   7   7
 T2 AMPLITUDE IS -0.055801 FOR I,J=   2   2 -> A,B=   5   5
 T2 AMPLITUDE IS -0.054196 FOR I,J=   2   4 -> A,B=   5   5
 T2 AMPLITUDE IS -0.044803 FOR I,J=   3   3 -> A,B=   6   6
 PRINTED T2(I-ALPHA,J-BETA -> A-ALPHA,B-BETA) VALUES
 EQUAL   T2(J-ALPHA,I-BETA -> B-ALPHA,A-BETA) AMPLITUDES.

 ....... DONE WITH CC AMPLITUDE ITERATIONS .......
 STEP CPU TIME =     0.01 TOTAL CPU TIME =        0.0 (    0.0 MIN)
 TOTAL WALL CLOCK TIME=        0.0 SECONDS, CPU UTILIZATION IS  80.00%

 MEMORY REQUIRED FOR NONITERATIVE TRIPLES (T3WT2  ) IS          396 WORDS.

                      SUMMARY OF RESULTS

      REFERENCE ENERGY:      -37.2322678015
        MBPT(2) ENERGY:      -37.2651987263   CORR.E=  -0.0329309248
        CCSD    ENERGY:      -37.2884420135   CORR.E=  -0.0561742120
        CCSD[T] ENERGY:      -37.2886536925   CORR.E=  -0.0563858910
        CCSD(T) ENERGY:      -37.2886608474   CORR.E=  -0.0563930459

 THE FOLLOWING METHOD AND ENERGY WILL BE CONSIDERED THE HIGHEST LEVEL RESULT:
 COUPLED-CLUSTER ENERGY E(   CCSD(T)) =      -37.2886608474

 ..... DONE WITH CC NON-ITERATIVE TRIPLES CORRECTIONS .....
 STEP CPU TIME =     0.00 TOTAL CPU TIME =        0.0 (    0.0 MIN)
 TOTAL WALL CLOCK TIME=        0.0 SECONDS, CPU UTILIZATION IS  80.00%
 DDI: Creating Array [0] - 2 x 4 = 8 words.

 COMPUTING THE NUCLEAR GRADIENT BY NUMERIC DIFFERENTIATION
 PROJECTION FINDS   2 TOTALLY SYMMETRIC MODES OUT OF 3N=     9
 SO     4 SINGLE POINT ENERGIES MUST BE COMPUTED TO GET A GRADIENT.

 -------------------------------
 WORKING ON IMODE=   1 IVIB=1...
 -------------------------------

 COORDINATES OF ALL ATOMS ARE (ANGS)
   ATOM   CHARGE       X              Y              Z
 ------------------------------------------------------------
 C           6.0   0.0000000000   0.0000000000  -0.0942331324
 H           1.0  -0.8928757283   0.0000000000   0.5374462544
 H           1.0   0.8928757283   0.0000000000   0.5374462544
 ...... END OF ONE-ELECTRON INTEGRALS ......
 STEP CPU TIME =     0.00 TOTAL CPU TIME =        0.0 (    0.0 MIN)
 TOTAL WALL CLOCK TIME=        0.0 SECONDS, CPU UTILIZATION IS  80.00%
 TOTAL NUMBER OF NONZERO TWO-ELECTRON INTEGRALS =                 141
          1 INTEGRAL RECORDS WERE STORED ON DISK FILE  8.
  ...... END OF TWO-ELECTRON INTEGRALS .....
 STEP CPU TIME =     0.00 TOTAL CPU TIME =        0.0 (    0.0 MIN)
 TOTAL WALL CLOCK TIME=        0.0 SECONDS, CPU UTILIZATION IS  80.00%

          --------------------------
                 RHF SCF CALCULATION
          --------------------------
     DENSITY MATRIX CONV=  1.00E-06

 ITER EX DEM     TOTAL ENERGY        E CHANGE  DENSITY CHANGE    DIIS ERROR
   1  0  0      -37.2330101385   -37.2330101385   0.004559210   0.000000000
   2  1  0      -37.2330157071    -0.0000055686   0.001742525   0.000000000
   3  2  0      -37.2330164246    -0.0000007175   0.000652296   0.000000000
   4  3  0      -37.2330165312    -0.0000001065   0.000247334   0.000000000
   5  4  0      -37.2330165473    -0.0000000161   0.000094811   0.000000000
   6  5  0      -37.2330165497    -0.0000000025   0.000036614   0.000000000
   7  6  0      -37.2330165501    -0.0000000004   0.000014208   0.000000000
   8  7  0      -37.2330165502    -0.0000000001   0.000005530   0.000000000
   9  8  0      -37.2330165502    -0.0000000000   0.000002157   0.000000000
  10  9  0      -37.2330165502    -0.0000000000   0.000000842   0.000000000
  11 10  0      -37.2330165502    -0.0000000000   0.000000329   0.000000000

 RHF HAS CONVERGED, NOW COMPUTING EXACT TOTAL FOCK MATRIX
 FOR USE DURING THE COUPLED CLUSTER CALCULATION THAT FOLLOWS.

          -----------------
          DENSITY CONVERGED
          -----------------
     TIME TO FORM FOCK OPERATORS=       0.0 SECONDS (       0.0 SEC/ITER)
     TIME TO SOLVE SCF EQUATIONS=       0.0 SECONDS (       0.0 SEC/ITER)

 FINAL RHF ENERGY IS      -37.2330165502 AFTER  11 ITERATIONS
 ...... END OF RHF CALCULATION ......
 STEP CPU TIME =     0.00 TOTAL CPU TIME =        0.0 (    0.0 MIN)
 TOTAL WALL CLOCK TIME=        0.0 SECONDS, CPU UTILIZATION IS  80.00%

     ---------------------------
     COUPLED CLUSTER CALCULATION
     ---------------------------
 CCTYP                        =CCSD(T) 
 TOTAL NUMBER OF MOS          =     7
 NUMBER OF OCCUPIED MOS       =     4
 NUMBER OF FROZEN CORE MOS    =     1
 NUMBER OF FROZEN VIRTUAL MOS =     0
 MAXIMUM CC ITERATIONS        =    30
 MAXIMUM DIIS ITERATIONS      =     5
 CONVERGENCE CRITERION FOR CC =     7
 AMPLITUDE ACCURACY THRESHOLD = 0.0E+00

     --------------------------------------------
     PARTIAL TWO ELECTRON INTEGRAL TRANSFORMATION
     --------------------------------------------

 NUMBER OF CORE MOLECULAR ORBITALS     =    1
 NUMBER OF OCCUPIED MOLECULAR ORBITALS =    7
 TOTAL NUMBER OF MOLECULAR ORBITALS    =    7
 TOTAL NUMBER OF ATOMIC ORBITALS       =    7
 THRESHOLD FOR KEEPING TRANSFORMED 2E- INTEGRALS = 1.000E-09
 AO INTEGRALS WILL BE READ IN FROM DISK...
 EVALUATING THE FROZEN CORE ENERGY...
 ----- FROZEN CORE ENERGY =       -32.9689894137

 PLAN A: REQUIREMENTS FOR FULLY IN-MEMORY TRANSFORMATION:
 # OF WORDS AVAILABLE =              4993683
 # OF WORDS NEEDED    =                61437

 CHOOSING IN MEMORY PARTIAL TRANSFORMATION...
 TOTAL NUMBER OF TRANSFORMED 2E- INTEGRALS KEPT =           85
 ... END OF INTEGRAL TRANSFORMATION ...
 STEP CPU TIME =     0.01 TOTAL CPU TIME =        0.0 (    0.0 MIN)
 TOTAL WALL CLOCK TIME=        0.0 SECONDS, CPU UTILIZATION IS 100.00%

   -----------------------
   COUPLED-CLUSTER PROGRAM
   -----------------------

   -------------------------------------------------------
   P.PIECUCH, S.A.KUCHARSKI, M.WLOCH, K.KOWALSKI, M.MUSIAL
   -------------------------------------------------------

 THE FOLLOWING CALCULATIONS WILL BE PERFORMED:
                                                     CCSD   
                                                     CCSD[T]
                                                     CCSD(T)

 THE FOLLOWING ENERGY WILL BE CONSIDERED THE HIGHEST LEVEL:    CCSD(T)
 THE AVAILABLE REPLICATED MEMORY IS     4993683 WORDS.
 CONVERGENCE THRESHOLD:   1.0E-07
 MAXIMUM NUMBER OF ITERATIONS:   30

 MEMORY TO BE USED IN CC INTEGRAL SORTING IS       30378 WORDS.
 THE MINIMUM MEMORY TO ACCOMPLISH SORTING IS       30378 WORDS.
           85 NON-ZERO TRANSFORMED 2E- INTEGRALS WERE SORTED INTO FILE 72:
           13 [IJ|KL] TYPE,          18 [AJ|KL] TYPE,
           14 [AB|IJ] TYPE,          16 [IA|BJ] TYPE,
           15 [AB|CI] TYPE,           9 [AB|CD] TYPE.
 TRANSFORMED INTEGRAL FILE  9 WAS READ    3 TIMES.
 ....... DONE WITH CC INTEGRAL PREPARATION .......
 STEP CPU TIME =     0.00 TOTAL CPU TIME =        0.0 (    0.0 MIN)
 TOTAL WALL CLOCK TIME=        0.0 SECONDS, CPU UTILIZATION IS 100.00%

 MEMORY REQUIRED FOR THE CCSD ITERATIONS IS         639 WORDS.
 RESTARTING USING PREVIOUS AMPLITUDES READ FROM A DISK FILE.
 ITER:  4   CCSD    CORR. ENERGY:  -0.0564584098   CONV.: -4.7850E-04
 ITER:  5   CCSD    CORR. ENERGY:  -0.0565029627   CONV.:  3.3934E-04
 ITER:  6   CCSD    CORR. ENERGY:  -0.0565168908   CONV.:  2.5829E-04
 ITER:  7   CCSD    CORR. ENERGY:  -0.0565075513   CONV.:  1.2116E-04
 ITER:  8   CCSD    CORR. ENERGY:  -0.0564910051   CONV.:  2.3874E-05
 ITER:  9   CCSD    CORR. ENERGY:  -0.0564860395   CONV.:  3.1585E-06
 ITER: 10   CCSD    CORR. ENERGY:  -0.0564856243   CONV.:  8.8095E-07
 ITER: 11   CCSD    CORR. ENERGY:  -0.0564855635   CONV.:  1.6279E-07
 ITER: 12   CCSD    CORR. ENERGY:  -0.0564855487   CONV.: -2.4223E-08
 ITER: 13   CCSD    CORR. ENERGY:  -0.0564855486   CONV.: -2.4223E-08

     THE    CCSD     ITERATIONS HAVE CONVERGED

    MBPT(2) CORRELATION ENERGY:  -0.0331641022
    CCSD    CORRELATION ENERGY:  -0.0564855486

 T1 DIAGNOSTIC        =     0.00708774
 NORM OF THE T1 VECTOR=     0.01736135
 NORM OF THE T2 VECTOR=     0.27447887

 THE FIVE LARGEST T1 AMPLITUDES ARE:
 T1 AMPLITUDE IS -0.016218 FOR I=   4 -> A=   6
 T1 AMPLITUDE IS -0.006079 FOR I=   2 -> A=   6
 T1 AMPLITUDE IS  0.001197 FOR I=   3 -> A=   7

 THE FIVE LARGEST SPIN-UNIQUE T2 AMPLITUDES ARE:
 T2 AMPLITUDE IS -0.214960 FOR I,J=   4   4 -> A,B=   5   5
 T2 AMPLITUDE IS -0.065177 FOR I,J=   3   3 -> A,B=   7   7
 T2 AMPLITUDE IS -0.056058 FOR I,J=   2   2 -> A,B=   5   5
 T2 AMPLITUDE IS -0.054714 FOR I,J=   2   4 -> A,B=   5   5
 T2 AMPLITUDE IS -0.044897 FOR I,J=   3   3 -> A,B=   6   6
 PRINTED T2(I-ALPHA,J-BETA -> A-ALPHA,B-BETA) VALUES
 EQUAL   T2(J-ALPHA,I-BETA -> B-ALPHA,A-BETA) AMPLITUDES.

 ....... DONE WITH CC AMPLITUDE ITERATIONS .......
 STEP CPU TIME =     0.00 TOTAL CPU TIME =        0.0 (    0.0 MIN)
 TOTAL WALL CLOCK TIME=        0.0 SECONDS, CPU UTILIZATION IS 100.00%

 MEMORY REQUIRED FOR NONITERATIVE TRIPLES (T3WT2  ) IS          396 WORDS.

                      SUMMARY OF RESULTS

      REFERENCE ENERGY:      -37.2330165502
        MBPT(2) ENERGY:      -37.2661806524   CORR.E=  -0.0331641022
        CCSD    ENERGY:      -37.2895020988   CORR.E=  -0.0564855486
        CCSD[T] ENERGY:      -37.2897114927   CORR.E=  -0.0566949425
        CCSD(T) ENERGY:      -37.2897186602   CORR.E=  -0.0567021100

 THE FOLLOWING METHOD AND ENERGY WILL BE CONSIDERED THE HIGHEST LEVEL RESULT:
 COUPLED-CLUSTER ENERGY E(   CCSD(T)) =      -37.2897186602

 ..... DONE WITH CC NON-ITERATIVE TRIPLES CORRECTIONS .....
 STEP CPU TIME =     0.00 TOTAL CPU TIME =        0.0 (    0.0 MIN)
 TOTAL WALL CLOCK TIME=        0.0 SECONDS, CPU UTILIZATION IS 100.00%
 IMODE=    1 IVIB= 1 E=       -37.2897186602

 -------------------------------
 WORKING ON IMODE=   1 IVIB=2...
 -------------------------------

 COORDINATES OF ALL ATOMS ARE (ANGS)
   ATOM   CHARGE       X              Y              Z
 ------------------------------------------------------------
 C           6.0   0.0000000000   0.0000000000  -0.0855917041
 H           1.0  -0.8928757283   0.0000000000   0.5331255403
 H           1.0   0.8928757283   0.0000000000   0.5331255403
 ...... END OF ONE-ELECTRON INTEGRALS ......
 STEP CPU TIME =     0.00 TOTAL CPU TIME =        0.0 (    0.0 MIN)
 TOTAL WALL CLOCK TIME=        0.0 SECONDS, CPU UTILIZATION IS 100.00%
 TOTAL NUMBER OF NONZERO TWO-ELECTRON INTEGRALS =                 141
          1 INTEGRAL RECORDS WERE STORED ON DISK FILE  8.
  ...... END OF TWO-ELECTRON INTEGRALS .....
 STEP CPU TIME =     0.00 TOTAL CPU TIME =        0.0 (    0.0 MIN)
 TOTAL WALL CLOCK TIME=        0.0 SECONDS, CPU UTILIZATION IS 100.00%

          --------------------------
                 RHF SCF CALCULATION
          --------------------------
     DENSITY MATRIX CONV=  1.00E-06

 ITER EX DEM     TOTAL ENERGY        E CHANGE  DENSITY CHANGE    DIIS ERROR
   1  0  0      -37.2314486883   -37.2314486883   0.004656653   0.000000000
   2  1  0      -37.2314543645    -0.0000056762   0.001780493   0.000000000
   3  2  0      -37.2314550996    -0.0000007351   0.000667022   0.000000000
   4  3  0      -37.2314552087    -0.0000001091   0.000253003   0.000000000
   5  4  0      -37.2314552252    -0.0000000165   0.000096981   0.000000000
   6  5  0      -37.2314552277    -0.0000000025   0.000037437   0.000000000
   7  6  0      -37.2314552280    -0.0000000004   0.000014517   0.000000000
   8  7  0      -37.2314552281    -0.0000000001   0.000005646   0.000000000
   9  8  0      -37.2314552281    -0.0000000000   0.000002199   0.000000000
  10  9  0      -37.2314552281    -0.0000000000   0.000000858   0.000000000
  11 10  0      -37.2314552281    -0.0000000000   0.000000335   0.000000000

 RHF HAS CONVERGED, NOW COMPUTING EXACT TOTAL FOCK MATRIX
 FOR USE DURING THE COUPLED CLUSTER CALCULATION THAT FOLLOWS.

          -----------------
          DENSITY CONVERGED
          -----------------
     TIME TO FORM FOCK OPERATORS=       0.0 SECONDS (       0.0 SEC/ITER)
     TIME TO SOLVE SCF EQUATIONS=       0.0 SECONDS (       0.0 SEC/ITER)

 FINAL RHF ENERGY IS      -37.2314552281 AFTER  11 ITERATIONS
 ...... END OF RHF CALCULATION ......
 STEP CPU TIME =     0.00 TOTAL CPU TIME =        0.0 (    0.0 MIN)
 TOTAL WALL CLOCK TIME=        0.1 SECONDS, CPU UTILIZATION IS  83.33%

     ---------------------------
     COUPLED CLUSTER CALCULATION
     ---------------------------
 CCTYP                        =CCSD(T) 
 TOTAL NUMBER OF MOS          =     7
 NUMBER OF OCCUPIED MOS       =     4
 NUMBER OF FROZEN CORE MOS    =     1
 NUMBER OF FROZEN VIRTUAL MOS =     0
 MAXIMUM CC ITERATIONS        =    30
 MAXIMUM DIIS ITERATIONS      =     5
 CONVERGENCE CRITERION FOR CC =     7
 AMPLITUDE ACCURACY THRESHOLD = 0.0E+00

     --------------------------------------------
     PARTIAL TWO ELECTRON INTEGRAL TRANSFORMATION
     --------------------------------------------

 NUMBER OF CORE MOLECULAR ORBITALS     =    1
 NUMBER OF OCCUPIED MOLECULAR ORBITALS =    7
 TOTAL NUMBER OF MOLECULAR ORBITALS    =    7
 TOTAL NUMBER OF ATOMIC ORBITALS       =    7
 THRESHOLD FOR KEEPING TRANSFORMED 2E- INTEGRALS = 1.000E-09
 AO INTEGRALS WILL BE READ IN FROM DISK...
 EVALUATING THE FROZEN CORE ENERGY...
 ----- FROZEN CORE ENERGY =       -32.9822690874

 PLAN A: REQUIREMENTS FOR FULLY IN-MEMORY TRANSFORMATION:
 # OF WORDS AVAILABLE =              4993683
 # OF WORDS NEEDED    =                61437

 CHOOSING IN MEMORY PARTIAL TRANSFORMATION...
 TOTAL NUMBER OF TRANSFORMED 2E- INTEGRALS KEPT =           85
 ... END OF INTEGRAL TRANSFORMATION ...
 STEP CPU TIME =     0.00 TOTAL CPU TIME =        0.0 (    0.0 MIN)
 TOTAL WALL CLOCK TIME=        0.1 SECONDS, CPU UTILIZATION IS  83.33%

   -----------------------
   COUPLED-CLUSTER PROGRAM
   -----------------------

   -------------------------------------------------------
   P.PIECUCH, S.A.KUCHARSKI, M.WLOCH, K.KOWALSKI, M.MUSIAL
   -------------------------------------------------------

 THE FOLLOWING CALCULATIONS WILL BE PERFORMED:
                                                     CCSD   
                                                     CCSD[T]
                                                     CCSD(T)

 THE FOLLOWING ENERGY WILL BE CONSIDERED THE HIGHEST LEVEL:    CCSD(T)
 THE AVAILABLE REPLICATED MEMORY IS     4993683 WORDS.
 CONVERGENCE THRESHOLD:   1.0E-07
 MAXIMUM NUMBER OF ITERATIONS:   30

 MEMORY TO BE USED IN CC INTEGRAL SORTING IS       30378 WORDS.
 THE MINIMUM MEMORY TO ACCOMPLISH SORTING IS       30378 WORDS.
           85 NON-ZERO TRANSFORMED 2E- INTEGRALS WERE SORTED INTO FILE 72:
           13 [IJ|KL] TYPE,          18 [AJ|KL] TYPE,
           14 [AB|IJ] TYPE,          16 [IA|BJ] TYPE,
           15 [AB|CI] TYPE,           9 [AB|CD] TYPE.
 TRANSFORMED INTEGRAL FILE  9 WAS READ    3 TIMES.
 ....... DONE WITH CC INTEGRAL PREPARATION .......
 STEP CPU TIME =     0.00 TOTAL CPU TIME =        0.0 (    0.0 MIN)
 TOTAL WALL CLOCK TIME=        0.1 SECONDS, CPU UTILIZATION IS  83.33%

 MEMORY REQUIRED FOR THE CCSD ITERATIONS IS         639 WORDS.
 RESTARTING USING PREVIOUS AMPLITUDES READ FROM A DISK FILE.
 ITER:  4   CCSD    CORR. ENERGY:  -0.0559180645   CONV.:  9.5290E-04
 ITER:  5   CCSD    CORR. ENERGY:  -0.0558306706   CONV.: -6.7390E-04
 ITER:  6   CCSD    CORR. ENERGY:  -0.0558038709   CONV.: -5.1775E-04
 ITER:  7   CCSD    CORR. ENERGY:  -0.0558234763   CONV.: -2.4753E-04
 ITER:  8   CCSD    CORR. ENERGY:  -0.0558576775   CONV.: -4.9969E-05
 ITER:  9   CCSD    CORR. ENERGY:  -0.0558680732   CONV.: -6.5904E-06
 ITER: 10   CCSD    CORR. ENERGY:  -0.0558689353   CONV.: -1.8467E-06
 ITER: 11   CCSD    CORR. ENERGY:  -0.0558690630   CONV.: -3.3501E-07
 ITER: 12   CCSD    CORR. ENERGY:  -0.0558690936   CONV.:  4.9385E-08
 ITER: 13   CCSD    CORR. ENERGY:  -0.0558690938   CONV.:  4.9385E-08

     THE    CCSD     ITERATIONS HAVE CONVERGED

    MBPT(2) CORRELATION ENERGY:  -0.0327009059
    CCSD    CORRELATION ENERGY:  -0.0558690938

 T1 DIAGNOSTIC        =     0.00706460
 NORM OF THE T1 VECTOR=     0.01730468
 NORM OF THE T2 VECTOR=     0.27627233

 THE FIVE LARGEST T1 AMPLITUDES ARE:
 T1 AMPLITUDE IS -0.016223 FOR I=   4 -> A=   6
 T1 AMPLITUDE IS -0.005933 FOR I=   2 -> A=   6
 T1 AMPLITUDE IS  0.001039 FOR I=   3 -> A=   7

 THE FIVE LARGEST SPIN-UNIQUE T2 AMPLITUDES ARE:
 T2 AMPLITUDE IS -0.219281 FOR I,J=   4   4 -> A,B=   5   5
 T2 AMPLITUDE IS -0.063846 FOR I,J=   3   3 -> A,B=   7   7
 T2 AMPLITUDE IS -0.055544 FOR I,J=   2   2 -> A,B=   5   5
 T2 AMPLITUDE IS -0.053669 FOR I,J=   2   4 -> A,B=   5   5
 T2 AMPLITUDE IS -0.044715 FOR I,J=   3   3 -> A,B=   6   6
 PRINTED T2(I-ALPHA,J-BETA -> A-ALPHA,B-BETA) VALUES
 EQUAL   T2(J-ALPHA,I-BETA -> B-ALPHA,A-BETA) AMPLITUDES.

 ....... DONE WITH CC AMPLITUDE ITERATIONS .......
 STEP CPU TIME =     0.00 TOTAL CPU TIME =        0.0 (    0.0 MIN)
 TOTAL WALL CLOCK TIME=        0.1 SECONDS, CPU UTILIZATION IS  83.33%

 MEMORY REQUIRED FOR NONITERATIVE TRIPLES (T3WT2  ) IS          396 WORDS.

                      SUMMARY OF RESULTS

      REFERENCE ENERGY:      -37.2314552281
        MBPT(2) ENERGY:      -37.2641561340   CORR.E=  -0.0327009059
        CCSD    ENERGY:      -37.2873243219   CORR.E=  -0.0558690938
        CCSD[T] ENERGY:      -37.2875383394   CORR.E=  -0.0560831113
        CCSD(T) ENERGY:      -37.2875454814   CORR.E=  -0.0560902532

 THE FOLLOWING METHOD AND ENERGY WILL BE CONSIDERED THE HIGHEST LEVEL RESULT:
 COUPLED-CLUSTER ENERGY E(   CCSD(T)) =      -37.2875454814

 ..... DONE WITH CC NON-ITERATIVE TRIPLES CORRECTIONS .....
 STEP CPU TIME =     0.00 TOTAL CPU TIME =        0.0 (    0.0 MIN)
 TOTAL WALL CLOCK TIME=        0.1 SECONDS, CPU UTILIZATION IS  83.33%
 IMODE=    2 IVIB= 1 E=       -37.2875454814

 -------------------------------
 WORKING ON IMODE=   2 IVIB=1...
 -------------------------------

 COORDINATES OF ALL ATOMS ARE (ANGS)
   ATOM   CHARGE       X              Y              Z
 ------------------------------------------------------------
 C           6.0   0.0000000000   0.0000000000  -0.0899124183
 H           1.0  -0.8966175765   0.0000000000   0.5352858974
 H           1.0   0.8966175765   0.0000000000   0.5352858974
 ...... END OF ONE-ELECTRON INTEGRALS ......
 STEP CPU TIME =     0.00 TOTAL CPU TIME =        0.0 (    0.0 MIN)
 TOTAL WALL CLOCK TIME=        0.1 SECONDS, CPU UTILIZATION IS  83.33%
 TOTAL NUMBER OF NONZERO TWO-ELECTRON INTEGRALS =                 141
          1 INTEGRAL RECORDS WERE STORED ON DISK FILE  8.
  ...... END OF TWO-ELECTRON INTEGRALS .....
 STEP CPU TIME =     0.00 TOTAL CPU TIME =        0.0 (    0.0 MIN)
 TOTAL WALL CLOCK TIME=        0.1 SECONDS, CPU UTILIZATION IS  83.33%

          --------------------------
                 RHF SCF CALCULATION
          --------------------------
     DENSITY MATRIX CONV=  1.00E-06

 ITER EX DEM     TOTAL ENERGY        E CHANGE  DENSITY CHANGE    DIIS ERROR
   1  0  0      -37.2323866168   -37.2323866168   0.000289163   0.000000000
   2  1  0      -37.2323869332    -0.0000003164   0.000079290   0.000000000
   3  2  0      -37.2323869362    -0.0000000030   0.000025582   0.000000000
   4  3  0      -37.2323869363    -0.0000000002   0.000008309   0.000000000
   5  4  0      -37.2323869363    -0.0000000000   0.000002817   0.000000000
   6  5  0      -37.2323869363    -0.0000000000   0.000000996   0.000000000
   7  6  0      -37.2323869363    -0.0000000000   0.000000364   0.000000000

 RHF HAS CONVERGED, NOW COMPUTING EXACT TOTAL FOCK MATRIX
 FOR USE DURING THE COUPLED CLUSTER CALCULATION THAT FOLLOWS.

          -----------------
          DENSITY CONVERGED
          -----------------
     TIME TO FORM FOCK OPERATORS=       0.0 SECONDS (       0.0 SEC/ITER)
     TIME TO SOLVE SCF EQUATIONS=       0.0 SECONDS (       0.0 SEC/ITER)

 FINAL RHF ENERGY IS      -37.2323869363 AFTER   7 ITERATIONS
 ...... END OF RHF CALCULATION ......
 STEP CPU TIME =     0.00 TOTAL CPU TIME =        0.0 (    0.0 MIN)
 TOTAL WALL CLOCK TIME=        0.1 SECONDS, CPU UTILIZATION IS  83.33%

     ---------------------------
     COUPLED CLUSTER CALCULATION
     ---------------------------
 CCTYP                        =CCSD(T) 
 TOTAL NUMBER OF MOS          =     7
 NUMBER OF OCCUPIED MOS       =     4
 NUMBER OF FROZEN CORE MOS    =     1
 NUMBER OF FROZEN VIRTUAL MOS =     0
 MAXIMUM CC ITERATIONS        =    30
 MAXIMUM DIIS ITERATIONS      =     5
 CONVERGENCE CRITERION FOR CC =     7
 AMPLITUDE ACCURACY THRESHOLD = 0.0E+00

     --------------------------------------------
     PARTIAL TWO ELECTRON INTEGRAL TRANSFORMATION
     --------------------------------------------

 NUMBER OF CORE MOLECULAR ORBITALS     =    1
 NUMBER OF OCCUPIED MOLECULAR ORBITALS =    7
 TOTAL NUMBER OF MOLECULAR ORBITALS    =    7
 TOTAL NUMBER OF ATOMIC ORBITALS       =    7
 THRESHOLD FOR KEEPING TRANSFORMED 2E- INTEGRALS = 1.000E-09
 AO INTEGRALS WILL BE READ IN FROM DISK...
 EVALUATING THE FROZEN CORE ENERGY...
 ----- FROZEN CORE ENERGY =       -32.9701488991

 PLAN A: REQUIREMENTS FOR FULLY IN-MEMORY TRANSFORMATION:
 # OF WORDS AVAILABLE =              4993683
 # OF WORDS NEEDED    =                61437

 CHOOSING IN MEMORY PARTIAL TRANSFORMATION...
 TOTAL NUMBER OF TRANSFORMED 2E- INTEGRALS KEPT =           85
 ... END OF INTEGRAL TRANSFORMATION ...
 STEP CPU TIME =     0.00 TOTAL CPU TIME =        0.0 (    0.0 MIN)
 TOTAL WALL CLOCK TIME=        0.1 SECONDS, CPU UTILIZATION IS  83.33%

   -----------------------
   COUPLED-CLUSTER PROGRAM
   -----------------------

   -------------------------------------------------------
   P.PIECUCH, S.A.KUCHARSKI, M.WLOCH, K.KOWALSKI, M.MUSIAL
   -------------------------------------------------------

 THE FOLLOWING CALCULATIONS WILL BE PERFORMED:
                                                     CCSD   
                                                     CCSD[T]
                                                     CCSD(T)

 THE FOLLOWING ENERGY WILL BE CONSIDERED THE HIGHEST LEVEL:    CCSD(T)
 THE AVAILABLE REPLICATED MEMORY IS     4993683 WORDS.
 CONVERGENCE THRESHOLD:   1.0E-07
 MAXIMUM NUMBER OF ITERATIONS:   30

 MEMORY TO BE USED IN CC INTEGRAL SORTING IS       30378 WORDS.
 THE MINIMUM MEMORY TO ACCOMPLISH SORTING IS       30378 WORDS.
           85 NON-ZERO TRANSFORMED 2E- INTEGRALS WERE SORTED INTO FILE 72:
           13 [IJ|KL] TYPE,          18 [AJ|KL] TYPE,
           14 [AB|IJ] TYPE,          16 [IA|BJ] TYPE,
           15 [AB|CI] TYPE,           9 [AB|CD] TYPE.
 TRANSFORMED INTEGRAL FILE  9 WAS READ    3 TIMES.
 ....... DONE WITH CC INTEGRAL PREPARATION .......
 STEP CPU TIME =     0.00 TOTAL CPU TIME =        0.0 (    0.0 MIN)
 TOTAL WALL CLOCK TIME=        0.1 SECONDS, CPU UTILIZATION IS  83.33%

 MEMORY REQUIRED FOR THE CCSD ITERATIONS IS         639 WORDS.
 RESTARTING USING PREVIOUS AMPLITUDES READ FROM A DISK FILE.
 ITER:  4   CCSD    CORR. ENERGY:  -0.0563072813   CONV.: -5.9845E-04
 ITER:  5   CCSD    CORR. ENERGY:  -0.0563936201   CONV.:  3.7891E-04
 ITER:  6   CCSD    CORR. ENERGY:  -0.0564280022   CONV.:  2.9695E-04
 ITER:  7   CCSD    CORR. ENERGY:  -0.0564223548   CONV.:  1.6926E-04
 ITER:  8   CCSD    CORR. ENERGY:  -0.0564025181   CONV.:  4.2455E-05
 ITER:  9   CCSD    CORR. ENERGY:  -0.0563946561   CONV.:  4.8359E-06
 ITER: 10   CCSD    CORR. ENERGY:  -0.0563938746   CONV.:  1.3836E-06
 ITER: 11   CCSD    CORR. ENERGY:  -0.0563937403   CONV.:  2.5862E-07
 ITER: 12   CCSD    CORR. ENERGY:  -0.0563937138   CONV.: -3.2609E-08
 ITER: 13   CCSD    CORR. ENERGY:  -0.0563937158   CONV.: -3.2609E-08

     THE    CCSD     ITERATIONS HAVE CONVERGED

    MBPT(2) CORRELATION ENERGY:  -0.0330655463
    CCSD    CORRELATION ENERGY:  -0.0563937158

 T1 DIAGNOSTIC        =     0.00713224
 NORM OF THE T1 VECTOR=     0.01747034
 NORM OF THE T2 VECTOR=     0.27563245

 THE FIVE LARGEST T1 AMPLITUDES ARE:
 T1 AMPLITUDE IS -0.016349 FOR I=   4 -> A=   6
 T1 AMPLITUDE IS -0.006052 FOR I=   2 -> A=   6
 T1 AMPLITUDE IS  0.001137 FOR I=   3 -> A=   7

 THE FIVE LARGEST SPIN-UNIQUE T2 AMPLITUDES ARE:
 T2 AMPLITUDE IS -0.216832 FOR I,J=   4   4 -> A,B=   5   5
 T2 AMPLITUDE IS -0.064681 FOR I,J=   3   3 -> A,B=   7   7
 T2 AMPLITUDE IS -0.055967 FOR I,J=   2   2 -> A,B=   5   5
 T2 AMPLITUDE IS -0.054336 FOR I,J=   2   4 -> A,B=   5   5
 T2 AMPLITUDE IS -0.045176 FOR I,J=   3   3 -> A,B=   6   6
 PRINTED T2(I-ALPHA,J-BETA -> A-ALPHA,B-BETA) VALUES
 EQUAL   T2(J-ALPHA,I-BETA -> B-ALPHA,A-BETA) AMPLITUDES.

 ....... DONE WITH CC AMPLITUDE ITERATIONS .......
 STEP CPU TIME =     0.00 TOTAL CPU TIME =        0.0 (    0.0 MIN)
 TOTAL WALL CLOCK TIME=        0.1 SECONDS, CPU UTILIZATION IS  83.33%

 MEMORY REQUIRED FOR NONITERATIVE TRIPLES (T3WT2  ) IS          396 WORDS.

                      SUMMARY OF RESULTS

      REFERENCE ENERGY:      -37.2323869363
        MBPT(2) ENERGY:      -37.2654524827   CORR.E=  -0.0330655463
        CCSD    ENERGY:      -37.2887806521   CORR.E=  -0.0563937158
        CCSD[T] ENERGY:      -37.2889933534   CORR.E=  -0.0566064171
        CCSD(T) ENERGY:      -37.2890006110   CORR.E=  -0.0566136747

 THE FOLLOWING METHOD AND ENERGY WILL BE CONSIDERED THE HIGHEST LEVEL RESULT:
 COUPLED-CLUSTER ENERGY E(   CCSD(T)) =      -37.2890006110

 ..... DONE WITH CC NON-ITERATIVE TRIPLES CORRECTIONS .....
 STEP CPU TIME =     0.00 TOTAL CPU TIME =        0.0 (    0.0 MIN)
 TOTAL WALL CLOCK TIME=        0.1 SECONDS, CPU UTILIZATION IS  83.33%
 IMODE=    1 IVIB= 2 E=       -37.2890006110

 -------------------------------
 WORKING ON IMODE=   2 IVIB=2...
 -------------------------------

 COORDINATES OF ALL ATOMS ARE (ANGS)
   ATOM   CHARGE       X              Y              Z
 ------------------------------------------------------------
 C           6.0   0.0000000000   0.0000000000  -0.0899124183
 H           1.0  -0.8891338801   0.0000000000   0.5352858974
 H           1.0   0.8891338801   0.0000000000   0.5352858974
 ...... END OF ONE-ELECTRON INTEGRALS ......
 STEP CPU TIME =     0.00 TOTAL CPU TIME =        0.0 (    0.0 MIN)
 TOTAL WALL CLOCK TIME=        0.1 SECONDS, CPU UTILIZATION IS  83.33%
 TOTAL NUMBER OF NONZERO TWO-ELECTRON INTEGRALS =                 141
          1 INTEGRAL RECORDS WERE STORED ON DISK FILE  8.
  ...... END OF TWO-ELECTRON INTEGRALS .....
 STEP CPU TIME =     0.00 TOTAL CPU TIME =        0.0 (    0.0 MIN)
 TOTAL WALL CLOCK TIME=        0.1 SECONDS, CPU UTILIZATION IS  83.33%

          --------------------------
                 RHF SCF CALCULATION
          --------------------------
     DENSITY MATRIX CONV=  1.00E-06

 ITER EX DEM     TOTAL ENERGY        E CHANGE  DENSITY CHANGE    DIIS ERROR
   1  0  0      -37.2321092331   -37.2321092331   0.000288794   0.000000000
   2  1  0      -37.2321095471    -0.0000003139   0.000075814   0.000000000
   3  2  0      -37.2321095499    -0.0000000028   0.000024303   0.000000000
   4  3  0      -37.2321095500    -0.0000000001   0.000007818   0.000000000
   5  4  0      -37.2321095500    -0.0000000000   0.000002623   0.000000000
   6  5  0      -37.2321095500    -0.0000000000   0.000000918   0.000000000
   7  6  0      -37.2321095500    -0.0000000000   0.000000332   0.000000000

 RHF HAS CONVERGED, NOW COMPUTING EXACT TOTAL FOCK MATRIX
 FOR USE DURING THE COUPLED CLUSTER CALCULATION THAT FOLLOWS.

          -----------------
          DENSITY CONVERGED
          -----------------
     TIME TO FORM FOCK OPERATORS=       0.0 SECONDS (       0.0 SEC/ITER)
     TIME TO SOLVE SCF EQUATIONS=       0.0 SECONDS (       0.0 SEC/ITER)

 FINAL RHF ENERGY IS      -37.2321095500 AFTER   7 ITERATIONS
 ...... END OF RHF CALCULATION ......
 STEP CPU TIME =     0.00 TOTAL CPU TIME =        0.0 (    0.0 MIN)
 TOTAL WALL CLOCK TIME=        0.1 SECONDS, CPU UTILIZATION IS  83.33%

     ---------------------------
     COUPLED CLUSTER CALCULATION
     ---------------------------
 CCTYP                        =CCSD(T) 
 TOTAL NUMBER OF MOS          =     7
 NUMBER OF OCCUPIED MOS       =     4
 NUMBER OF FROZEN CORE MOS    =     1
 NUMBER OF FROZEN VIRTUAL MOS =     0
 MAXIMUM CC ITERATIONS        =    30
 MAXIMUM DIIS ITERATIONS      =     5
 CONVERGENCE CRITERION FOR CC =     7
 AMPLITUDE ACCURACY THRESHOLD = 0.0E+00

     --------------------------------------------
     PARTIAL TWO ELECTRON INTEGRAL TRANSFORMATION
     --------------------------------------------

 NUMBER OF CORE MOLECULAR ORBITALS     =    1
 NUMBER OF OCCUPIED MOLECULAR ORBITALS =    7
 TOTAL NUMBER OF MOLECULAR ORBITALS    =    7
 TOTAL NUMBER OF ATOMIC ORBITALS       =    7
 THRESHOLD FOR KEEPING TRANSFORMED 2E- INTEGRALS = 1.000E-09
 AO INTEGRALS WILL BE READ IN FROM DISK...
 EVALUATING THE FROZEN CORE ENERGY...
 ----- FROZEN CORE ENERGY =       -32.9811347204

 PLAN A: REQUIREMENTS FOR FULLY IN-MEMORY TRANSFORMATION:
 # OF WORDS AVAILABLE =              4993683
 # OF WORDS NEEDED    =                61437

 CHOOSING IN MEMORY PARTIAL TRANSFORMATION...
 TOTAL NUMBER OF TRANSFORMED 2E- INTEGRALS KEPT =           85
 ... END OF INTEGRAL TRANSFORMATION ...
 STEP CPU TIME =     0.00 TOTAL CPU TIME =        0.0 (    0.0 MIN)
 TOTAL WALL CLOCK TIME=        0.1 SECONDS, CPU UTILIZATION IS  83.33%

   -----------------------
   COUPLED-CLUSTER PROGRAM
   -----------------------

   -------------------------------------------------------
   P.PIECUCH, S.A.KUCHARSKI, M.WLOCH, K.KOWALSKI, M.MUSIAL
   -------------------------------------------------------

 THE FOLLOWING CALCULATIONS WILL BE PERFORMED:
                                                     CCSD   
                                                     CCSD[T]
                                                     CCSD(T)

 THE FOLLOWING ENERGY WILL BE CONSIDERED THE HIGHEST LEVEL:    CCSD(T)
 THE AVAILABLE REPLICATED MEMORY IS     4993683 WORDS.
 CONVERGENCE THRESHOLD:   1.0E-07
 MAXIMUM NUMBER OF ITERATIONS:   30

 MEMORY TO BE USED IN CC INTEGRAL SORTING IS       30378 WORDS.
 THE MINIMUM MEMORY TO ACCOMPLISH SORTING IS       30378 WORDS.
           85 NON-ZERO TRANSFORMED 2E- INTEGRALS WERE SORTED INTO FILE 72:
           13 [IJ|KL] TYPE,          18 [AJ|KL] TYPE,
           14 [AB|IJ] TYPE,          16 [IA|BJ] TYPE,
           15 [AB|CI] TYPE,           9 [AB|CD] TYPE.
 TRANSFORMED INTEGRAL FILE  9 WAS READ    3 TIMES.
 ....... DONE WITH CC INTEGRAL PREPARATION .......
 STEP CPU TIME =     0.00 TOTAL CPU TIME =        0.0 (    0.0 MIN)
 TOTAL WALL CLOCK TIME=        0.1 SECONDS, CPU UTILIZATION IS  83.33%

 MEMORY REQUIRED FOR THE CCSD ITERATIONS IS         639 WORDS.
 RESTARTING USING PREVIOUS AMPLITUDES READ FROM A DISK FILE.
 ITER:  4   CCSD    CORR. ENERGY:  -0.0560791424   CONV.:  5.1278E-04
 ITER:  5   CCSD    CORR. ENERGY:  -0.0559946603   CONV.:  1.5413E-04
 ITER:  6   CCSD    CORR. ENERGY:  -0.0559525015   CONV.: -7.2731E-05
 ITER:  7   CCSD    CORR. ENERGY:  -0.0559499002   CONV.: -5.4711E-05
 ITER:  8   CCSD    CORR. ENERGY:  -0.0559524309   CONV.: -3.0316E-05
 ITER:  9   CCSD    CORR. ENERGY:  -0.0559559519   CONV.: -6.6457E-06
 ITER: 10   CCSD    CORR. ENERGY:  -0.0559569875   CONV.: -1.0821E-06
 ITER: 11   CCSD    CORR. ENERGY:  -0.0559572416   CONV.: -1.9762E-07
 ITER: 12   CCSD    CORR. ENERGY:  -0.0559572711   CONV.: -2.6367E-08
 ITER: 13   CCSD    CORR. ENERGY:  -0.0559572692   CONV.: -2.6367E-08

     THE    CCSD     ITERATIONS HAVE CONVERGED

    MBPT(2) CORRELATION ENERGY:  -0.0327976486
    CCSD    CORRELATION ENERGY:  -0.0559572692

 T1 DIAGNOSTIC        =     0.00701960
 NORM OF THE T1 VECTOR=     0.01719445
 NORM OF THE T2 VECTOR=     0.27506320

 THE FIVE LARGEST T1 AMPLITUDES ARE:
 T1 AMPLITUDE IS -0.016091 FOR I=   4 -> A=   6
 T1 AMPLITUDE IS -0.005959 FOR I=   2 -> A=   6
 T1 AMPLITUDE IS  0.001099 FOR I=   3 -> A=   7

 THE FIVE LARGEST SPIN-UNIQUE T2 AMPLITUDES ARE:
 T2 AMPLITUDE IS -0.217362 FOR I,J=   4   4 -> A,B=   5   5
 T2 AMPLITUDE IS -0.064335 FOR I,J=   3   3 -> A,B=   7   7
 T2 AMPLITUDE IS -0.055635 FOR I,J=   2   2 -> A,B=   5   5
 T2 AMPLITUDE IS -0.054056 FOR I,J=   2   4 -> A,B=   5   5
 T2 AMPLITUDE IS -0.044433 FOR I,J=   3   3 -> A,B=   6   6
 PRINTED T2(I-ALPHA,J-BETA -> A-ALPHA,B-BETA) VALUES
 EQUAL   T2(J-ALPHA,I-BETA -> B-ALPHA,A-BETA) AMPLITUDES.

 ....... DONE WITH CC AMPLITUDE ITERATIONS .......
 STEP CPU TIME =     0.00 TOTAL CPU TIME =        0.0 (    0.0 MIN)
 TOTAL WALL CLOCK TIME=        0.1 SECONDS, CPU UTILIZATION IS  83.33%

 MEMORY REQUIRED FOR NONITERATIVE TRIPLES (T3WT2  ) IS          396 WORDS.

                      SUMMARY OF RESULTS

      REFERENCE ENERGY:      -37.2321095500
        MBPT(2) ENERGY:      -37.2649071986   CORR.E=  -0.0327976486
        CCSD    ENERGY:      -37.2880668192   CORR.E=  -0.0559572692
        CCSD[T] ENERGY:      -37.2882775053   CORR.E=  -0.0561679553
        CCSD(T) ENERGY:      -37.2882845592   CORR.E=  -0.0561750092

 THE FOLLOWING METHOD AND ENERGY WILL BE CONSIDERED THE HIGHEST LEVEL RESULT:
 COUPLED-CLUSTER ENERGY E(   CCSD(T)) =      -37.2882845592

 ..... DONE WITH CC NON-ITERATIVE TRIPLES CORRECTIONS .....
 STEP CPU TIME =     0.00 TOTAL CPU TIME =        0.0 (    0.0 MIN)
 TOTAL WALL CLOCK TIME=        0.1 SECONDS, CPU UTILIZATION IS  83.33%
 IMODE=    2 IVIB= 2 E=       -37.2882845592

          NSERCH=  0     ENERGY=     -37.2886608

                                 -----------------------
                                 GRADIENT (HARTREE/BOHR)
                                 -----------------------
        ATOM     ZNUC       DE/DX         DE/DY         DE/DZ
 --------------------------------------------------------------
    1  C            6.0     0.0000000     0.0000000     0.0887197
    2  H            1.0     0.0253163     0.0000000    -0.0443598
    3  H            1.0    -0.0253163     0.0000000    -0.0443598

          MAXIMUM GRADIENT = 0.0887197    RMS GRADIENT = 0.0381351

 NSERCH:   0  E=      -37.2886608474  GRAD. MAX=  0.0887197  R.M.S.=  0.0381351

          FORCE CONSTANT MATRIX NOT UPDATED --- TAKING FIRST STEP
          MIN SEARCH, CORRECT HESSIAN, TRYING PURE NR STEP
               NR STEP HAS LENGTH         =   1.198061
          TRIM/QA LAMBDA FOR NON-TS MODES =  -0.14038317
          TRIM/QA STEP HAS LENGTH         =   0.300000
          RADIUS OF STEP TAKEN=   0.30000  CURRENT TRUST RADIUS=   0.30000

 BEGINNING GEOMETRY SEARCH POINT NSERCH=   1 ...

 COORDINATES OF SYMMETRY UNIQUE ATOMS (ANGS)
   ATOM   CHARGE       X              Y              Z
 ------------------------------------------------------------
 C           6.0   0.0000000000   0.0000000000  -0.2122716978
 H           1.0   0.8558292673   0.0000000000   0.5964655372
 COORDINATES OF ALL ATOMS ARE (ANGS)
   ATOM   CHARGE       X              Y              Z
 ------------------------------------------------------------
 C           6.0   0.0000000000   0.0000000000  -0.2122716978
 H           1.0  -0.8558292673   0.0000000000   0.5964655372
 H           1.0   0.8558292673   0.0000000000   0.5964655372

 THE CURRENT FULLY SUBSTITUTED Z-MATRIX IS
 C   
 H      1   1.1774972
 H      1   1.1774972  2    93.2410303

          INTERNUCLEAR DISTANCES (ANGS.)
          ------------------------------

                1 C          2 H          3 H     

   1 C       0.0000000    1.1774972 *  1.1774972 *
   2 H       1.1774972 *  0.0000000    1.7116585 *
   3 H       1.1774972 *  1.7116585 *  0.0000000  

  * ... LESS THAN  3.000

 ...... END OF ONE-ELECTRON INTEGRALS ......
 STEP CPU TIME =     0.01 TOTAL CPU TIME =        0.1 (    0.0 MIN)
 TOTAL WALL CLOCK TIME=        0.1 SECONDS, CPU UTILIZATION IS  85.71%
 TOTAL NUMBER OF NONZERO TWO-ELECTRON INTEGRALS =                 141
          1 INTEGRAL RECORDS WERE STORED ON DISK FILE  8.
  ...... END OF TWO-ELECTRON INTEGRALS .....
 STEP CPU TIME =     0.00 TOTAL CPU TIME =        0.1 (    0.0 MIN)
 TOTAL WALL CLOCK TIME=        0.1 SECONDS, CPU UTILIZATION IS  85.71%

          --------------------------
                 RHF SCF CALCULATION
          --------------------------
     DENSITY MATRIX CONV=  2.00E-05

 ITER EX DEM     TOTAL ENERGY        E CHANGE  DENSITY CHANGE    DIIS ERROR
   1  0  0      -37.2288717588   -37.2288717588   0.100020269   0.000000000
   2  1  0      -37.2323257314    -0.0034539726   0.037050108   0.000000000
   3  2  0      -37.2327667855    -0.0004410541   0.013704503   0.000000000
   4  3  0      -37.2328344608    -0.0000676753   0.005182370   0.000000000
   5  0  0      -37.2328451610    -0.0000107002   0.003291402   0.000000000
   6  1  0      -37.2328472074    -0.0000020464   0.000008701   0.000000000
   7  2  0      -37.2328472075    -0.0000000001   0.000002773   0.000000000
   8  3  0      -37.2328472075    -0.0000000000   0.000001009   0.000000000

 RHF HAS CONVERGED, NOW COMPUTING EXACT TOTAL FOCK MATRIX
 FOR USE DURING THE COUPLED CLUSTER CALCULATION THAT FOLLOWS.

          -----------------
          DENSITY CONVERGED
          -----------------
     TIME TO FORM FOCK OPERATORS=       0.0 SECONDS (       0.0 SEC/ITER)
     TIME TO SOLVE SCF EQUATIONS=       0.0 SECONDS (       0.0 SEC/ITER)

 FINAL RHF ENERGY IS      -37.2328472075 AFTER   8 ITERATIONS
 ...... END OF RHF CALCULATION ......
 STEP CPU TIME =     0.00 TOTAL CPU TIME =        0.1 (    0.0 MIN)
 TOTAL WALL CLOCK TIME=        0.1 SECONDS, CPU UTILIZATION IS  85.71%

     ---------------------------
     COUPLED CLUSTER CALCULATION
     ---------------------------
 CCTYP                        =CCSD(T) 
 TOTAL NUMBER OF MOS          =     7
 NUMBER OF OCCUPIED MOS       =     4
 NUMBER OF FROZEN CORE MOS    =     1
 NUMBER OF FROZEN VIRTUAL MOS =     0
 MAXIMUM CC ITERATIONS        =    30
 MAXIMUM DIIS ITERATIONS      =     5
 CONVERGENCE CRITERION FOR CC =     7
 AMPLITUDE ACCURACY THRESHOLD = 0.0E+00

     --------------------------------------------
     PARTIAL TWO ELECTRON INTEGRAL TRANSFORMATION
     --------------------------------------------

 NUMBER OF CORE MOLECULAR ORBITALS     =    1
 NUMBER OF OCCUPIED MOLECULAR ORBITALS =    7
 TOTAL NUMBER OF MOLECULAR ORBITALS    =    7
 TOTAL NUMBER OF ATOMIC ORBITALS       =    7
 THRESHOLD FOR KEEPING TRANSFORMED 2E- INTEGRALS = 1.000E-09
 AO INTEGRALS WILL BE READ IN FROM DISK...
 EVALUATING THE FROZEN CORE ENERGY...
 ----- FROZEN CORE ENERGY =       -32.8307896848

 PLAN A: REQUIREMENTS FOR FULLY IN-MEMORY TRANSFORMATION:
 # OF WORDS AVAILABLE =              4999964
 # OF WORDS NEEDED    =                61437

 CHOOSING IN MEMORY PARTIAL TRANSFORMATION...
 TOTAL NUMBER OF TRANSFORMED 2E- INTEGRALS KEPT =           85
 ... END OF INTEGRAL TRANSFORMATION ...
 STEP CPU TIME =     0.00 TOTAL CPU TIME =        0.1 (    0.0 MIN)
 TOTAL WALL CLOCK TIME=        0.1 SECONDS, CPU UTILIZATION IS  85.71%

   -----------------------
   COUPLED-CLUSTER PROGRAM
   -----------------------

   -------------------------------------------------------
   P.PIECUCH, S.A.KUCHARSKI, M.WLOCH, K.KOWALSKI, M.MUSIAL
   -------------------------------------------------------

 THE FOLLOWING CALCULATIONS WILL BE PERFORMED:
                                                     CCSD   
                                                     CCSD[T]
                                                     CCSD(T)

 THE FOLLOWING ENERGY WILL BE CONSIDERED THE HIGHEST LEVEL:    CCSD(T)
 THE AVAILABLE REPLICATED MEMORY IS     4999964 WORDS.
 CONVERGENCE THRESHOLD:   1.0E-07
 MAXIMUM NUMBER OF ITERATIONS:   30

 MEMORY TO BE USED IN CC INTEGRAL SORTING IS       30378 WORDS.
 THE MINIMUM MEMORY TO ACCOMPLISH SORTING IS       30378 WORDS.
           85 NON-ZERO TRANSFORMED 2E- INTEGRALS WERE SORTED INTO FILE 72:
           13 [IJ|KL] TYPE,          18 [AJ|KL] TYPE,
           14 [AB|IJ] TYPE,          16 [IA|BJ] TYPE,
           15 [AB|CI] TYPE,           9 [AB|CD] TYPE.
 TRANSFORMED INTEGRAL FILE  9 WAS READ    3 TIMES.
 ....... DONE WITH CC INTEGRAL PREPARATION .......
 STEP CPU TIME =     0.00 TOTAL CPU TIME =        0.1 (    0.0 MIN)
 TOTAL WALL CLOCK TIME=        0.1 SECONDS, CPU UTILIZATION IS  85.71%

 MEMORY REQUIRED FOR THE CCSD ITERATIONS IS         639 WORDS.
 RESTARTING USING PREVIOUS AMPLITUDES READ FROM A DISK FILE.
 ITER:  4   CCSD    CORR. ENERGY:  -0.0523696949   CONV.: -5.6434E-02
 ITER:  5   CCSD    CORR. ENERGY:  -0.0610266104   CONV.:  1.4337E-02
 ITER:  6   CCSD    CORR. ENERGY:  -0.0649671470   CONV.:  6.2877E-03
 ITER:  7   CCSD    CORR. ENERGY:  -0.0656905408   CONV.:  4.0395E-03
 ITER:  8   CCSD    CORR. ENERGY:  -0.0655936738   CONV.:  1.6502E-03
 ITER:  9   CCSD    CORR. ENERGY:  -0.0654223974   CONV.:  4.0430E-04
 ITER: 10   CCSD    CORR. ENERGY:  -0.0653718703   CONV.:  7.0425E-05
 ITER: 11   CCSD    CORR. ENERGY:  -0.0653628836   CONV.:  1.8525E-05
 ITER: 12   CCSD    CORR. ENERGY:  -0.0653604151   CONV.:  4.9428E-06
 ITER: 13   CCSD    CORR. ENERGY:  -0.0653593886   CONV.:  7.0296E-07
 ITER: 14   CCSD    CORR. ENERGY:  -0.0653593887   CONV.:  4.1227E-07
 ITER: 15   CCSD    CORR. ENERGY:  -0.0653594137   CONV.:  2.1235E-07
 ITER: 16   CCSD    CORR. ENERGY:  -0.0653594120   CONV.:  1.1063E-07
 ITER: 17   CCSD    CORR. ENERGY:  -0.0653594023   CONV.:  4.6571E-08
 ITER: 18   CCSD    CORR. ENERGY:  -0.0653593990   CONV.:  4.6571E-08

     THE    CCSD     ITERATIONS HAVE CONVERGED

    MBPT(2) CORRELATION ENERGY:  -0.0396666475
    CCSD    CORRELATION ENERGY:  -0.0653593990

 T1 DIAGNOSTIC        =     0.00742630
 NORM OF THE T1 VECTOR=     0.01819064
 NORM OF THE T2 VECTOR=     0.26590688

 THE FIVE LARGEST T1 AMPLITUDES ARE:
 T1 AMPLITUDE IS  0.015893 FOR I=   4 -> A=   7
 T1 AMPLITUDE IS  0.008188 FOR I=   2 -> A=   7
 T1 AMPLITUDE IS  0.003356 FOR I=   3 -> A=   6

 THE FIVE LARGEST SPIN-UNIQUE T2 AMPLITUDES ARE:
 T2 AMPLITUDE IS -0.172072 FOR I,J=   4   4 -> A,B=   5   5
 T2 AMPLITUDE IS -0.085496 FOR I,J=   3   3 -> A,B=   6   6
 T2 AMPLITUDE IS -0.065112 FOR I,J=   2   4 -> A,B=   5   5
 T2 AMPLITUDE IS -0.061689 FOR I,J=   2   2 -> A,B=   5   5
 T2 AMPLITUDE IS -0.053237 FOR I,J=   4   4 -> A,B=   6   6
 PRINTED T2(I-ALPHA,J-BETA -> A-ALPHA,B-BETA) VALUES
 EQUAL   T2(J-ALPHA,I-BETA -> B-ALPHA,A-BETA) AMPLITUDES.

 ....... DONE WITH CC AMPLITUDE ITERATIONS .......
 STEP CPU TIME =     0.00 TOTAL CPU TIME =        0.1 (    0.0 MIN)
 TOTAL WALL CLOCK TIME=        0.1 SECONDS, CPU UTILIZATION IS  85.71%

 MEMORY REQUIRED FOR NONITERATIVE TRIPLES (T3WT2  ) IS          396 WORDS.

                      SUMMARY OF RESULTS

      REFERENCE ENERGY:      -37.2328472075
        MBPT(2) ENERGY:      -37.2725138550   CORR.E=  -0.0396666475
        CCSD    ENERGY:      -37.2982066065   CORR.E=  -0.0653593990
        CCSD[T] ENERGY:      -37.2983672953   CORR.E=  -0.0655200878
        CCSD(T) ENERGY:      -37.2983730571   CORR.E=  -0.0655258496

 THE FOLLOWING METHOD AND ENERGY WILL BE CONSIDERED THE HIGHEST LEVEL RESULT:
 COUPLED-CLUSTER ENERGY E(   CCSD(T)) =      -37.2983730571

 ..... DONE WITH CC NON-ITERATIVE TRIPLES CORRECTIONS .....
 STEP CPU TIME =     0.00 TOTAL CPU TIME =        0.1 (    0.0 MIN)
 TOTAL WALL CLOCK TIME=        0.1 SECONDS, CPU UTILIZATION IS  85.71%
 DDI: Creating Array [0] - 2 x 4 = 8 words.

 COMPUTING THE NUCLEAR GRADIENT BY NUMERIC DIFFERENTIATION
 PROJECTION FINDS   2 TOTALLY SYMMETRIC MODES OUT OF 3N=     9
 SO     4 SINGLE POINT ENERGIES MUST BE COMPUTED TO GET A GRADIENT.

 -------------------------------
 WORKING ON IMODE=   1 IVIB=1...
 -------------------------------

 COORDINATES OF ALL ATOMS ARE (ANGS)
   ATOM   CHARGE       X              Y              Z
 ------------------------------------------------------------
 C           6.0   0.0000000000   0.0000000000  -0.2165924120
 H           1.0  -0.8558292673   0.0000000000   0.5986258942
 H           1.0   0.8558292673   0.0000000000   0.5986258942
 ...... END OF ONE-ELECTRON INTEGRALS ......
 STEP CPU TIME =     0.01 TOTAL CPU TIME =        0.1 (    0.0 MIN)
 TOTAL WALL CLOCK TIME=        0.1 SECONDS, CPU UTILIZATION IS  87.50%
 TOTAL NUMBER OF NONZERO TWO-ELECTRON INTEGRALS =                 141
          1 INTEGRAL RECORDS WERE STORED ON DISK FILE  8.
  ...... END OF TWO-ELECTRON INTEGRALS .....
 STEP CPU TIME =     0.00 TOTAL CPU TIME =        0.1 (    0.0 MIN)
 TOTAL WALL CLOCK TIME=        0.1 SECONDS, CPU UTILIZATION IS  87.50%

          --------------------------
                 RHF SCF CALCULATION
          --------------------------
     DENSITY MATRIX CONV=  1.00E-06

 ITER EX DEM     TOTAL ENERGY        E CHANGE  DENSITY CHANGE    DIIS ERROR
   1  0  0      -37.2319841567   -37.2319841567   0.002909840   0.000000000
   2  1  0      -37.2319876032    -0.0000034465   0.001087718   0.000000000
   3  2  0      -37.2319880377    -0.0000004345   0.000412068   0.000000000
   4  3  0      -37.2319881064    -0.0000000688   0.000159008   0.000000000
   5  4  0      -37.2319881175    -0.0000000111   0.000062300   0.000000000
   6  5  0      -37.2319881193    -0.0000000018   0.000024669   0.000000000
   7  6  0      -37.2319881196    -0.0000000003   0.000009838   0.000000000
   8  7  0      -37.2319881197    -0.0000000000   0.000003941   0.000000000
   9  8  0      -37.2319881197    -0.0000000000   0.000001584   0.000000000
  10  9  0      -37.2319881197    -0.0000000000   0.000000638   0.000000000

 RHF HAS CONVERGED, NOW COMPUTING EXACT TOTAL FOCK MATRIX
 FOR USE DURING THE COUPLED CLUSTER CALCULATION THAT FOLLOWS.

          -----------------
          DENSITY CONVERGED
          -----------------
     TIME TO FORM FOCK OPERATORS=       0.0 SECONDS (       0.0 SEC/ITER)
     TIME TO SOLVE SCF EQUATIONS=       0.0 SECONDS (       0.0 SEC/ITER)

 FINAL RHF ENERGY IS      -37.2319881197 AFTER  10 ITERATIONS
 ...... END OF RHF CALCULATION ......
 STEP CPU TIME =     0.00 TOTAL CPU TIME =        0.1 (    0.0 MIN)
 TOTAL WALL CLOCK TIME=        0.1 SECONDS, CPU UTILIZATION IS  87.50%

     ---------------------------
     COUPLED CLUSTER CALCULATION
     ---------------------------
 CCTYP                        =CCSD(T) 
 TOTAL NUMBER OF MOS          =     7
 NUMBER OF OCCUPIED MOS       =     4
 NUMBER OF FROZEN CORE MOS    =     1
 NUMBER OF FROZEN VIRTUAL MOS =     0
 MAXIMUM CC ITERATIONS        =    30
 MAXIMUM DIIS ITERATIONS      =     5
 CONVERGENCE CRITERION FOR CC =     7
 AMPLITUDE ACCURACY THRESHOLD = 0.0E+00

     --------------------------------------------
     PARTIAL TWO ELECTRON INTEGRAL TRANSFORMATION
     --------------------------------------------

 NUMBER OF CORE MOLECULAR ORBITALS     =    1
 NUMBER OF OCCUPIED MOLECULAR ORBITALS =    7
 TOTAL NUMBER OF MOLECULAR ORBITALS    =    7
 TOTAL NUMBER OF ATOMIC ORBITALS       =    7
 THRESHOLD FOR KEEPING TRANSFORMED 2E- INTEGRALS = 1.000E-09
 AO INTEGRALS WILL BE READ IN FROM DISK...
 EVALUATING THE FROZEN CORE ENERGY...
 ----- FROZEN CORE ENERGY =       -32.8239651712

 PLAN A: REQUIREMENTS FOR FULLY IN-MEMORY TRANSFORMATION:
 # OF WORDS AVAILABLE =              4993683
 # OF WORDS NEEDED    =                61437

 CHOOSING IN MEMORY PARTIAL TRANSFORMATION...
 TOTAL NUMBER OF TRANSFORMED 2E- INTEGRALS KEPT =           85
 ... END OF INTEGRAL TRANSFORMATION ...
 STEP CPU TIME =     0.00 TOTAL CPU TIME =        0.1 (    0.0 MIN)
 TOTAL WALL CLOCK TIME=        0.1 SECONDS, CPU UTILIZATION IS  87.50%

   -----------------------
   COUPLED-CLUSTER PROGRAM
   -----------------------

   -------------------------------------------------------
   P.PIECUCH, S.A.KUCHARSKI, M.WLOCH, K.KOWALSKI, M.MUSIAL
   -------------------------------------------------------

 THE FOLLOWING CALCULATIONS WILL BE PERFORMED:
                                                     CCSD   
                                                     CCSD[T]
                                                     CCSD(T)

 THE FOLLOWING ENERGY WILL BE CONSIDERED THE HIGHEST LEVEL:    CCSD(T)
 THE AVAILABLE REPLICATED MEMORY IS     4993683 WORDS.
 CONVERGENCE THRESHOLD:   1.0E-07
 MAXIMUM NUMBER OF ITERATIONS:   30

 MEMORY TO BE USED IN CC INTEGRAL SORTING IS       30378 WORDS.
 THE MINIMUM MEMORY TO ACCOMPLISH SORTING IS       30378 WORDS.
           85 NON-ZERO TRANSFORMED 2E- INTEGRALS WERE SORTED INTO FILE 72:
           13 [IJ|KL] TYPE,          18 [AJ|KL] TYPE,
           14 [AB|IJ] TYPE,          16 [IA|BJ] TYPE,
           15 [AB|CI] TYPE,           9 [AB|CD] TYPE.
 TRANSFORMED INTEGRAL FILE  9 WAS READ    3 TIMES.
 ....... DONE WITH CC INTEGRAL PREPARATION .......
 STEP CPU TIME =     0.00 TOTAL CPU TIME =        0.1 (    0.0 MIN)
 TOTAL WALL CLOCK TIME=        0.1 SECONDS, CPU UTILIZATION IS  87.50%

 MEMORY REQUIRED FOR THE CCSD ITERATIONS IS         639 WORDS.
 RESTARTING USING PREVIOUS AMPLITUDES READ FROM A DISK FILE.
 ITER:  4   CCSD    CORR. ENERGY:  -0.0657612619   CONV.: -6.5874E-04
 ITER:  5   CCSD    CORR. ENERGY:  -0.0658364577   CONV.:  2.6002E-04
 ITER:  6   CCSD    CORR. ENERGY:  -0.0658679202   CONV.:  1.7979E-04
 ITER:  7   CCSD    CORR. ENERGY:  -0.0658709343   CONV.:  8.8757E-05
 ITER:  8   CCSD    CORR. ENERGY:  -0.0658630049   CONV.:  1.8624E-05
 ITER:  9   CCSD    CORR. ENERGY:  -0.0658599007   CONV.:  2.6422E-06
 ITER: 10   CCSD    CORR. ENERGY:  -0.0658594343   CONV.:  6.0834E-07
 ITER: 11   CCSD    CORR. ENERGY:  -0.0658593633   CONV.:  1.3517E-07
 ITER: 12   CCSD    CORR. ENERGY:  -0.0658593497   CONV.: -2.2719E-08
 ITER: 13   CCSD    CORR. ENERGY:  -0.0658593491   CONV.: -2.2719E-08

     THE    CCSD     ITERATIONS HAVE CONVERGED

    MBPT(2) CORRELATION ENERGY:  -0.0400092571
    CCSD    CORRELATION ENERGY:  -0.0658593491

 T1 DIAGNOSTIC        =     0.00747368
 NORM OF THE T1 VECTOR=     0.01830669
 NORM OF THE T2 VECTOR=     0.26628479

 THE FIVE LARGEST T1 AMPLITUDES ARE:
 T1 AMPLITUDE IS  0.015941 FOR I=   4 -> A=   7
 T1 AMPLITUDE IS  0.008313 FOR I=   2 -> A=   7
 T1 AMPLITUDE IS  0.003450 FOR I=   3 -> A=   6

 THE FIVE LARGEST SPIN-UNIQUE T2 AMPLITUDES ARE:
 T2 AMPLITUDE IS -0.170721 FOR I,J=   4   4 -> A,B=   5   5
 T2 AMPLITUDE IS -0.086445 FOR I,J=   3   3 -> A,B=   6   6
 T2 AMPLITUDE IS -0.065467 FOR I,J=   2   4 -> A,B=   5   5
 T2 AMPLITUDE IS -0.062001 FOR I,J=   2   2 -> A,B=   5   5
 T2 AMPLITUDE IS -0.053682 FOR I,J=   4   4 -> A,B=   6   6
 PRINTED T2(I-ALPHA,J-BETA -> A-ALPHA,B-BETA) VALUES
 EQUAL   T2(J-ALPHA,I-BETA -> B-ALPHA,A-BETA) AMPLITUDES.

 ....... DONE WITH CC AMPLITUDE ITERATIONS .......
 STEP CPU TIME =     0.01 TOTAL CPU TIME =        0.1 (    0.0 MIN)
 TOTAL WALL CLOCK TIME=        0.1 SECONDS, CPU UTILIZATION IS 100.00%

 MEMORY REQUIRED FOR NONITERATIVE TRIPLES (T3WT2  ) IS          396 WORDS.

                      SUMMARY OF RESULTS

      REFERENCE ENERGY:      -37.2319881197
        MBPT(2) ENERGY:      -37.2719973768   CORR.E=  -0.0400092571
[...]
 TOTAL NUMBER OF TRANSFORMED 2E- INTEGRALS KEPT =           85
 ... END OF INTEGRAL TRANSFORMATION ...
 STEP CPU TIME =     0.00 TOTAL CPU TIME =        0.2 (    0.0 MIN)
 TOTAL WALL CLOCK TIME=        0.2 SECONDS, CPU UTILIZATION IS  90.48%

   -----------------------
   COUPLED-CLUSTER PROGRAM
   -----------------------

   -------------------------------------------------------
   P.PIECUCH, S.A.KUCHARSKI, M.WLOCH, K.KOWALSKI, M.MUSIAL
   -------------------------------------------------------

 THE FOLLOWING CALCULATIONS WILL BE PERFORMED:
                                                     CCSD   
                                                     CCSD[T]
                                                     CCSD(T)

 THE FOLLOWING ENERGY WILL BE CONSIDERED THE HIGHEST LEVEL:    CCSD(T)
 THE AVAILABLE REPLICATED MEMORY IS     4993683 WORDS.
 CONVERGENCE THRESHOLD:   1.0E-07
 MAXIMUM NUMBER OF ITERATIONS:   30

 MEMORY TO BE USED IN CC INTEGRAL SORTING IS       30378 WORDS.
 THE MINIMUM MEMORY TO ACCOMPLISH SORTING IS       30378 WORDS.
           85 NON-ZERO TRANSFORMED 2E- INTEGRALS WERE SORTED INTO FILE 72:
           13 [IJ|KL] TYPE,          18 [AJ|KL] TYPE,
           14 [AB|IJ] TYPE,          16 [IA|BJ] TYPE,
           15 [AB|CI] TYPE,           9 [AB|CD] TYPE.
 TRANSFORMED INTEGRAL FILE  9 WAS READ    3 TIMES.
 ....... DONE WITH CC INTEGRAL PREPARATION .......
 STEP CPU TIME =     0.00 TOTAL CPU TIME =        0.2 (    0.0 MIN)
 TOTAL WALL CLOCK TIME=        0.2 SECONDS, CPU UTILIZATION IS  90.48%

 MEMORY REQUIRED FOR THE CCSD ITERATIONS IS         639 WORDS.
 RESTARTING USING PREVIOUS AMPLITUDES READ FROM A DISK FILE.
 ITER:  4   CCSD    CORR. ENERGY:  -0.0628037252   CONV.: -7.1532E-04
 ITER:  5   CCSD    CORR. ENERGY:  -0.0629122704   CONV.:  3.2424E-04
 ITER:  6   CCSD    CORR. ENERGY:  -0.0629602358   CONV.:  2.3473E-04
 ITER:  7   CCSD    CORR. ENERGY:  -0.0629634306   CONV.:  1.2904E-04
 ITER:  8   CCSD    CORR. ENERGY:  -0.0629519642   CONV.:  3.0135E-05
 ITER:  9   CCSD    CORR. ENERGY:  -0.0629471914   CONV.:  3.9342E-06
 ITER: 10   CCSD    CORR. ENERGY:  -0.0629465311   CONV.:  1.0030E-06
 ITER: 11   CCSD    CORR. ENERGY:  -0.0629464014   CONV.:  2.1533E-07
 ITER: 12   CCSD    CORR. ENERGY:  -0.0629463735   CONV.: -2.5741E-08
 ITER: 13   CCSD    CORR. ENERGY:  -0.0629463740   CONV.: -2.5741E-08

     THE    CCSD     ITERATIONS HAVE CONVERGED

    MBPT(2) CORRELATION ENERGY:  -0.0379279044
    CCSD    CORRELATION ENERGY:  -0.0629463740

 T1 DIAGNOSTIC        =     0.00730557
 NORM OF THE T1 VECTOR=     0.01789492
 NORM OF THE T2 VECTOR=     0.26562587

 THE FIVE LARGEST T1 AMPLITUDES ARE:
 T1 AMPLITUDE IS  0.015942 FOR I=   4 -> A=   7
 T1 AMPLITUDE IS  0.007605 FOR I=   2 -> A=   7
 T1 AMPLITUDE IS  0.002870 FOR I=   3 -> A=   6

 THE FIVE LARGEST SPIN-UNIQUE T2 AMPLITUDES ARE:
 T2 AMPLITUDE IS -0.180475 FOR I,J=   4   4 -> A,B=   5   5
 T2 AMPLITUDE IS -0.079997 FOR I,J=   3   3 -> A,B=   6   6
 T2 AMPLITUDE IS -0.063043 FOR I,J=   2   4 -> A,B=   5   5
 T2 AMPLITUDE IS -0.060440 FOR I,J=   2   2 -> A,B=   5   5
 T2 AMPLITUDE IS -0.050754 FOR I,J=   4   4 -> A,B=   6   6
 PRINTED T2(I-ALPHA,J-BETA -> A-ALPHA,B-BETA) VALUES
 EQUAL   T2(J-ALPHA,I-BETA -> B-ALPHA,A-BETA) AMPLITUDES.

 ....... DONE WITH CC AMPLITUDE ITERATIONS .......
 STEP CPU TIME =     0.00 TOTAL CPU TIME =        0.2 (    0.0 MIN)
 TOTAL WALL CLOCK TIME=        0.2 SECONDS, CPU UTILIZATION IS  90.48%

 MEMORY REQUIRED FOR NONITERATIVE TRIPLES (T3WT2  ) IS          396 WORDS.

                      SUMMARY OF RESULTS

      REFERENCE ENERGY:      -37.2362604511
        MBPT(2) ENERGY:      -37.2741883555   CORR.E=  -0.0379279044
        CCSD    ENERGY:      -37.2992068251   CORR.E=  -0.0629463740
        CCSD[T] ENERGY:      -37.2993758619   CORR.E=  -0.0631154108
        CCSD(T) ENERGY:      -37.2993822870   CORR.E=  -0.0631218359

 THE FOLLOWING METHOD AND ENERGY WILL BE CONSIDERED THE HIGHEST LEVEL RESULT:
 COUPLED-CLUSTER ENERGY E(   CCSD(T)) =      -37.2993822870

 ..... DONE WITH CC NON-ITERATIVE TRIPLES CORRECTIONS .....
 STEP CPU TIME =     0.00 TOTAL CPU TIME =        0.2 (    0.0 MIN)
 TOTAL WALL CLOCK TIME=        0.2 SECONDS, CPU UTILIZATION IS  90.48%
 IMODE=    1 IVIB= 2 E=       -37.2993822870

 -------------------------------
 WORKING ON IMODE=   2 IVIB=2...
 -------------------------------

 COORDINATES OF ALL ATOMS ARE (ANGS)
   ATOM   CHARGE       X              Y              Z
 ------------------------------------------------------------
 C           6.0   0.0000000000   0.0000000000  -0.1835135472
 H           1.0  -0.8613213762   0.0000000000   0.5820864618
 H           1.0   0.8613213762   0.0000000000   0.5820864618
 ...... END OF ONE-ELECTRON INTEGRALS ......
 STEP CPU TIME =     0.00 TOTAL CPU TIME =        0.2 (    0.0 MIN)
 TOTAL WALL CLOCK TIME=        0.2 SECONDS, CPU UTILIZATION IS  90.48%
 TOTAL NUMBER OF NONZERO TWO-ELECTRON INTEGRALS =                 141
          1 INTEGRAL RECORDS WERE STORED ON DISK FILE  8.
  ...... END OF TWO-ELECTRON INTEGRALS .....
 STEP CPU TIME =     0.00 TOTAL CPU TIME =        0.2 (    0.0 MIN)
 TOTAL WALL CLOCK TIME=        0.2 SECONDS, CPU UTILIZATION IS  90.48%

          --------------------------
                 RHF SCF CALCULATION
          --------------------------
     DENSITY MATRIX CONV=  1.00E-06

 ITER EX DEM     TOTAL ENERGY        E CHANGE  DENSITY CHANGE    DIIS ERROR
   1  0  0      -37.2366851223   -37.2366851223   0.000251496   0.000000000
   2  1  0      -37.2366853503    -0.0000002279   0.000051836   0.000000000
   3  2  0      -37.2366853531    -0.0000000029   0.000019917   0.000000000
   4  3  0      -37.2366853534    -0.0000000003   0.000007951   0.000000000
   5  4  0      -37.2366853535    -0.0000000000   0.000003151   0.000000000
   6  5  0      -37.2366853535    -0.0000000000   0.000001274   0.000000000
   7  6  0      -37.2366853535    -0.0000000000   0.000000527   0.000000000

 RHF HAS CONVERGED, NOW COMPUTING EXACT TOTAL FOCK MATRIX
 FOR USE DURING THE COUPLED CLUSTER CALCULATION THAT FOLLOWS.

          -----------------
          DENSITY CONVERGED
          -----------------
     TIME TO FORM FOCK OPERATORS=       0.0 SECONDS (       0.0 SEC/ITER)
     TIME TO SOLVE SCF EQUATIONS=       0.0 SECONDS (       0.0 SEC/ITER)

 FINAL RHF ENERGY IS      -37.2366853535 AFTER   7 ITERATIONS
 ...... END OF RHF CALCULATION ......
 STEP CPU TIME =     0.00 TOTAL CPU TIME =        0.2 (    0.0 MIN)
 TOTAL WALL CLOCK TIME=        0.2 SECONDS, CPU UTILIZATION IS  90.48%

     ---------------------------
     COUPLED CLUSTER CALCULATION
     ---------------------------
 CCTYP                        =CCSD(T) 
 TOTAL NUMBER OF MOS          =     7
 NUMBER OF OCCUPIED MOS       =     4
 NUMBER OF FROZEN CORE MOS    =     1
 NUMBER OF FROZEN VIRTUAL MOS =     0
 MAXIMUM CC ITERATIONS        =    30
 MAXIMUM DIIS ITERATIONS      =     5
 CONVERGENCE CRITERION FOR CC =     7
 AMPLITUDE ACCURACY THRESHOLD = 0.0E+00

     --------------------------------------------
     PARTIAL TWO ELECTRON INTEGRAL TRANSFORMATION
     --------------------------------------------

 NUMBER OF CORE MOLECULAR ORBITALS     =    1
 NUMBER OF OCCUPIED MOLECULAR ORBITALS =    7
 TOTAL NUMBER OF MOLECULAR ORBITALS    =    7
 TOTAL NUMBER OF ATOMIC ORBITALS       =    7
 THRESHOLD FOR KEEPING TRANSFORMED 2E- INTEGRALS = 1.000E-09
 AO INTEGRALS WILL BE READ IN FROM DISK...
 EVALUATING THE FROZEN CORE ENERGY...
 ----- FROZEN CORE ENERGY =       -32.8701565566

 PLAN A: REQUIREMENTS FOR FULLY IN-MEMORY TRANSFORMATION:
 # OF WORDS AVAILABLE =              4993683
 # OF WORDS NEEDED    =                61437

 CHOOSING IN MEMORY PARTIAL TRANSFORMATION...
 TOTAL NUMBER OF TRANSFORMED 2E- INTEGRALS KEPT =           85
 ... END OF INTEGRAL TRANSFORMATION ...
 STEP CPU TIME =     0.00 TOTAL CPU TIME =        0.2 (    0.0 MIN)
 TOTAL WALL CLOCK TIME=        0.2 SECONDS, CPU UTILIZATION IS  90.48%

   -----------------------
   COUPLED-CLUSTER PROGRAM
   -----------------------

   -------------------------------------------------------
   P.PIECUCH, S.A.KUCHARSKI, M.WLOCH, K.KOWALSKI, M.MUSIAL
   -------------------------------------------------------

 THE FOLLOWING CALCULATIONS WILL BE PERFORMED:
                                                     CCSD   
                                                     CCSD[T]
                                                     CCSD(T)

 THE FOLLOWING ENERGY WILL BE CONSIDERED THE HIGHEST LEVEL:    CCSD(T)
 THE AVAILABLE REPLICATED MEMORY IS     4993683 WORDS.
 CONVERGENCE THRESHOLD:   1.0E-07
 MAXIMUM NUMBER OF ITERATIONS:   30

 MEMORY TO BE USED IN CC INTEGRAL SORTING IS       30378 WORDS.
 THE MINIMUM MEMORY TO ACCOMPLISH SORTING IS       30378 WORDS.
           85 NON-ZERO TRANSFORMED 2E- INTEGRALS WERE SORTED INTO FILE 72:
           13 [IJ|KL] TYPE,          18 [AJ|KL] TYPE,
           14 [AB|IJ] TYPE,          16 [IA|BJ] TYPE,
           15 [AB|CI] TYPE,           9 [AB|CD] TYPE.
 TRANSFORMED INTEGRAL FILE  9 WAS READ    3 TIMES.
 ....... DONE WITH CC INTEGRAL PREPARATION .......
 STEP CPU TIME =     0.00 TOTAL CPU TIME =        0.2 (    0.0 MIN)
 TOTAL WALL CLOCK TIME=        0.2 SECONDS, CPU UTILIZATION IS  90.48%

 MEMORY REQUIRED FOR THE CCSD ITERATIONS IS         639 WORDS.
 RESTARTING USING PREVIOUS AMPLITUDES READ FROM A DISK FILE.
 ITER:  4   CCSD    CORR. ENERGY:  -0.0518672057   CONV.:  6.1681E-02
 ITER:  5   CCSD    CORR. ENERGY:  -0.0587291937   CONV.: -1.5544E-02
 ITER:  6   CCSD    CORR. ENERGY:  -0.0617546197   CONV.: -2.9873E-03
 ITER:  7   CCSD    CORR. ENERGY:  -0.0624557237   CONV.:  7.2266E-04
 ITER:  8   CCSD    CORR. ENERGY:  -0.0625175969   CONV.:  1.3950E-04
 ITER:  9   CCSD    CORR. ENERGY:  -0.0625277462   CONV.:  6.0279E-05
 ITER: 10   CCSD    CORR. ENERGY:  -0.0625275129   CONV.:  4.2805E-05
 ITER: 11   CCSD    CORR. ENERGY:  -0.0625266281   CONV.:  2.5207E-05
 ITER: 12   CCSD    CORR. ENERGY:  -0.0625247544   CONV.:  6.2940E-06
 ITER: 13   CCSD    CORR. ENERGY:  -0.0625236122   CONV.:  4.8587E-07
 ITER: 14   CCSD    CORR. ENERGY:  -0.0625234788   CONV.:  8.7839E-08
 ITER: 15   CCSD    CORR. ENERGY:  -0.0625234651   CONV.:  8.7839E-08

     THE    CCSD     ITERATIONS HAVE CONVERGED

    MBPT(2) CORRELATION ENERGY:  -0.0376781557
    CCSD    CORRELATION ENERGY:  -0.0625234651

 T1 DIAGNOSTIC        =     0.00720792
 NORM OF THE T1 VECTOR=     0.01765574
 NORM OF THE T2 VECTOR=     0.26488838

 THE FIVE LARGEST T1 AMPLITUDES ARE:
 T1 AMPLITUDE IS  0.015739 FOR I=   4 -> A=   7
 T1 AMPLITUDE IS  0.007497 FOR I=   2 -> A=   7
 T1 AMPLITUDE IS -0.002793 FOR I=   3 -> A=   6

 THE FIVE LARGEST SPIN-UNIQUE T2 AMPLITUDES ARE:
 T2 AMPLITUDE IS -0.181058 FOR I,J=   4   4 -> A,B=   5   5
 T2 AMPLITUDE IS -0.079686 FOR I,J=   3   3 -> A,B=   6   6
 T2 AMPLITUDE IS -0.062807 FOR I,J=   2   4 -> A,B=   5   5
 T2 AMPLITUDE IS -0.060017 FOR I,J=   2   2 -> A,B=   5   5
 T2 AMPLITUDE IS -0.050494 FOR I,J=   4   4 -> A,B=   6   6
 PRINTED T2(I-ALPHA,J-BETA -> A-ALPHA,B-BETA) VALUES
 EQUAL   T2(J-ALPHA,I-BETA -> B-ALPHA,A-BETA) AMPLITUDES.

 ....... DONE WITH CC AMPLITUDE ITERATIONS .......
 STEP CPU TIME =     0.01 TOTAL CPU TIME =        0.2 (    0.0 MIN)
 TOTAL WALL CLOCK TIME=        0.2 SECONDS, CPU UTILIZATION IS  95.24%

 MEMORY REQUIRED FOR NONITERATIVE TRIPLES (T3WT2  ) IS          396 WORDS.

                      SUMMARY OF RESULTS

      REFERENCE ENERGY:      -37.2366853535
        MBPT(2) ENERGY:      -37.2743635092   CORR.E=  -0.0376781557
        CCSD    ENERGY:      -37.2992088186   CORR.E=  -0.0625234651
        CCSD[T] ENERGY:      -37.2993760494   CORR.E=  -0.0626906959
        CCSD(T) ENERGY:      -37.2993823145   CORR.E=  -0.0626969610

 THE FOLLOWING METHOD AND ENERGY WILL BE CONSIDERED THE HIGHEST LEVEL RESULT:
 COUPLED-CLUSTER ENERGY E(   CCSD(T)) =      -37.2993823145

 ..... DONE WITH CC NON-ITERATIVE TRIPLES CORRECTIONS .....
 STEP CPU TIME =     0.00 TOTAL CPU TIME =        0.2 (    0.0 MIN)
 TOTAL WALL CLOCK TIME=        0.2 SECONDS, CPU UTILIZATION IS  95.24%
 IMODE=    2 IVIB= 2 E=       -37.2993823145

          NSERCH=  5     ENERGY=     -37.2993960

                                 -----------------------
                                 GRADIENT (HARTREE/BOHR)
                                 -----------------------
        ATOM     ZNUC       DE/DX         DE/DY         DE/DZ
 --------------------------------------------------------------
    1  C            6.0     0.0000000     0.0000000     0.0000069
    2  H            1.0    -0.0000010     0.0000000    -0.0000035
    3  H            1.0     0.0000010     0.0000000    -0.0000035

          MAXIMUM GRADIENT = 0.0000069    RMS GRADIENT = 0.0000029

 NSERCH:   5  E=      -37.2993959772  GRAD. MAX=  0.0000069  R.M.S.=  0.0000029


      ***** EQUILIBRIUM GEOMETRY LOCATED *****
 COORDINATES OF SYMMETRY UNIQUE ATOMS (ANGS)
   ATOM   CHARGE       X              Y              Z
 ------------------------------------------------------------
 C           6.0   0.0000000000   0.0000000000  -0.1835135472
 H           1.0   0.8650632244   0.0000000000   0.5820864618
 COORDINATES OF ALL ATOMS ARE (ANGS)
   ATOM   CHARGE       X              Y              Z
 ------------------------------------------------------------
 C           6.0   0.0000000000   0.0000000000  -0.1835135472
 H           1.0  -0.8650632244   0.0000000000   0.5820864618
 H           1.0   0.8650632244   0.0000000000   0.5820864618

 THE CURRENT FULLY SUBSTITUTED Z-MATRIX IS
 C   
 H      1   1.1551960
 H      1   1.1551960  2    96.9809274

          INTERNUCLEAR DISTANCES (ANGS.)
          ------------------------------

                1 C          2 H          3 H     

   1 C       0.0000000    1.1551960 *  1.1551960 *
   2 H       1.1551960 *  0.0000000    1.7301264 *
   3 H       1.1551960 *  1.7301264 *  0.0000000  

  * ... LESS THAN  3.000


          NUCLEAR ENERGY    =        5.8028731549
          ELECTRONIC ENERGY =      -43.0393610744
          TOTAL ENERGY      =      -37.2993959772

          ------------------
          MOLECULAR ORBITALS
          ------------------

                      1          2          3          4          5
                  -10.6295    -0.8080    -0.4700    -0.3016     0.2421
                     A1         A1         B1         A1         B2  
    1  C  1  S    0.984192  -0.243997   0.000000  -0.176744   0.000000
    2  C  1  S    0.060097   0.662934   0.000000   0.676418   0.000000
    3  C  1  X    0.000000   0.000000   0.536483   0.000000   0.000000
    4  C  1  Y    0.000000   0.000000   0.000000   0.000000   1.000000
    5  C  1  Z    0.011133   0.170851   0.000000  -0.713251   0.000000
    6  H  2  S   -0.014714   0.278985  -0.474828  -0.256445   0.000000
    7  H  3  S   -0.014714   0.278985   0.474828  -0.256445   0.000000

                      6          7
                    0.6593     0.6927
                     B1         A1  
    1  C  1  S    0.000000  -0.196512
    2  C  1  S    0.000000   0.970910
    3  C  1  X    1.040806   0.000000
    4  C  1  Y    0.000000   0.000000
    5  C  1  Z    0.000000   0.872998
    6  H  2  S    0.778424  -0.845446
    7  H  3  S   -0.778424  -0.845446

     ----------------------------------------------------------------
     PROPERTY VALUES FOR THE RHF   SELF-CONSISTENT FIELD WAVEFUNCTION
     ----------------------------------------------------------------

          ---------------------------------------
          MULLIKEN AND LOWDIN POPULATION ANALYSES
          ---------------------------------------

               ----- POPULATIONS IN EACH AO -----
                             MULLIKEN      LOWDIN
              1  C  1  S      1.99102     1.98836
              2  C  1  S      1.70042     1.59913
              3  C  1  X      0.91600     0.95526
              4  C  1  Y      0.00000     0.00000
              5  C  1  Z      1.34855     1.38385
              6  H  2  S      1.02200     1.03670
              7  H  3  S      1.02200     1.03670

          ----- MULLIKEN ATOMIC OVERLAP POPULATIONS -----
          (OFF-DIAGONAL ELEMENTS NEED TO BE MULTIPLIED BY 2)

             1           2           3

    1    5.3318055
    2    0.3120977   0.7385503
    3    0.3120977  -0.0286485   0.7385503

          TOTAL MULLIKEN AND LOWDIN ATOMIC POPULATIONS
       ATOM         MULL.POP.    CHARGE          LOW.POP.     CHARGE
    1 C             5.956001    0.043999         5.926599    0.073401
    2 H             1.022000   -0.022000         1.036701   -0.036701
    3 H             1.022000   -0.022000         1.036701   -0.036701

          -------------------------------
          BOND ORDER AND VALENCE ANALYSIS     BOND ORDER THRESHOLD=0.050
          -------------------------------

                   BOND                       BOND                       BOND
  ATOM PAIR DIST  ORDER      ATOM PAIR DIST  ORDER      ATOM PAIR DIST  ORDER
    1   2  1.155  0.996        1   3  1.155  0.996

                       TOTAL       BONDED        FREE
      ATOM            VALENCE     VALENCE     VALENCE
    1 C                 1.991       1.991      -0.000
    2 H                 1.000       1.000       0.000
    3 H                 1.000       1.000       0.000

          ---------------------
          ELECTROSTATIC MOMENTS
          ---------------------

 POINT   1           X           Y           Z (BOHR)    CHARGE
                 0.000000    0.000000   -0.138724       -0.00 (A.U.)
         DX          DY          DZ         /D/  (DEBYE)
     0.000000   -0.000000    1.358021    1.358021
 ...... END OF PROPERTY EVALUATION ......
 STEP CPU TIME =     0.00 TOTAL CPU TIME =        0.2 (    0.0 MIN)
 TOTAL WALL CLOCK TIME=        0.2 SECONDS, CPU UTILIZATION IS  90.91%
  $VIB   
          IVIB=   0 IATOM=   0 ICOORD=   0 E=      -37.2993959772
  0.000000000E+00 0.000000000E+00 6.902705743E-06-9.703191492E-07 0.000000000E+00
 -3.451352871E-06 9.703191492E-07 0.000000000E+00-3.451352871E-06
  1.128770855E-15-1.356048978E-17 1.358020876E+00
 ......END OF GEOMETRY SEARCH......
 STEP CPU TIME =     0.00 TOTAL CPU TIME =        0.2 (    0.0 MIN)
 TOTAL WALL CLOCK TIME=        0.2 SECONDS, CPU UTILIZATION IS  90.91%
               580000  WORDS OF DYNAMIC MEMORY USED
 EXECUTION OF GAMESS TERMINATED NORMALLY Fri Jun  2 01:56:57 2017
 DDI: 263704 bytes (0.3 MB / 0 MWords) used by master data server.

 ----------------------------------------
 CPU timing information for all processes
 ========================================
 0: 0.115 + 0.98 = 0.214
 ----------------------------------------
 ddikick.x: exited gracefully.
unset echo
----- accounting info -----
Files used on the master node compute-0-1.local were:
-rw-rw-r-- 1 sarom sarom     827 Jun  2 01:56 /scratch/e1-cc-numgrd.F05
-rw-rw-r-- 1 sarom sarom  180016 Jun  2 01:56 /scratch/e1-cc-numgrd.F08
-rw-rw-r-- 1 sarom sarom  180192 Jun  2 01:56 /scratch/e1-cc-numgrd.F09
-rw-rw-r-- 1 sarom sarom 2192240 Jun  2 01:56 /scratch/e1-cc-numgrd.F10
-rw-rw-r-- 1 sarom sarom  388608 Jun  2 01:56 /scratch/e1-cc-numgrd.F70
-rw-rw-r-- 1 sarom sarom    7200 Jun  2 01:56 /scratch/e1-cc-numgrd.F71
-rw-rw-r-- 1 sarom sarom    5184 Jun  2 01:56 /scratch/e1-cc-numgrd.F72
-rw-rw-r-- 1 sarom sarom     288 Jun  2 01:56 /scratch/e1-cc-numgrd.F73
-rw-rw-r-- 1 sarom sarom    1296 Jun  2 01:56 /scratch/e1-cc-numgrd.F74
-rw-rw-r-- 1 sarom sarom       0 Jun  2 01:56 /scratch/e1-cc-numgrd.F75
-rw-rw-r-- 1 sarom sarom       0 Jun  2 01:56 /scratch/e1-cc-numgrd.F76
-rw-rw-r-- 1 sarom sarom       0 Jun  2 01:56 /scratch/e1-cc-numgrd.F77
rm: cannot remove `/scratch/sarom': Is a directory
rm: cannot remove `/scratch/tmp': Is a directory
ls: No match.
ls: No match.
ls: No match.
Fri Jun  2 01:57:00 CDT 2017
0.270u 0.126s 0:03.69 10.5%	0+0k 8+352io 0pf+0w
/opt/gridengine/default/spool/compute-0-1/active_jobs/23644.1/pe_hostfile compute-0-1.local
