----- GAMESS execution script 'rungms' -----
This job is running on host compute-3-0
under operating system Linux at Mon Nov 28 22:04:33 CST 2016
Available scratch disk space (Kbyte units) at beginning of the job is
Filesystem            1K-blocks       Used  Available Use% Mounted on
bolt.local:/export/home/sarom
                     9590469632 1553030144 7550271488  18% /home/sarom
Copying input file e1-mp2-numgrd.inp to your run's scratch directory...
cp e1-mp2-numgrd.inp .//e1-mp2-numgrd.F05
unset echo
/home/sarom/gamessGH/ddikick.x /home/sarom/gamessGH/gamess.00.x e1-mp2-numgrd -ddi 1 1 localhost -scr ./

 Distributed Data Interface kickoff program.
 Initiating 1 compute processes on 1 nodes to run the following command:
 /home/sarom/gamessGH/gamess.00.x e1-mp2-numgrd 

          ******************************************************
          *         GAMESS VERSION = 18 AUG 2016 (R1)          *
          *             FROM IOWA STATE UNIVERSITY             *
          * M.W.SCHMIDT, K.K.BALDRIDGE, J.A.BOATZ, S.T.ELBERT, *
          *   M.S.GORDON, J.H.JENSEN, S.KOSEKI, N.MATSUNAGA,   *
          *          K.A.NGUYEN, S.J.SU, T.L.WINDUS,           *
          *       TOGETHER WITH M.DUPUIS, J.A.MONTGOMERY       *
          *         J.COMPUT.CHEM.  14, 1347-1363(1993)        *
          **************** 64 BIT LINUX VERSION ****************

  SINCE 1993, STUDENTS AND POSTDOCS WORKING AT IOWA STATE UNIVERSITY
  AND ALSO IN THEIR VARIOUS JOBS AFTER LEAVING ISU HAVE MADE IMPORTANT
  CONTRIBUTIONS TO THE CODE:
     IVANA ADAMOVIC, CHRISTINE AIKENS, YURI ALEXEEV, POOJA ARORA,
     ANDREY ASADCHEV, ROB BELL, PRADIPTA BANDYOPADHYAY, JONATHAN BENTZ,
     BRETT BODE, KURT BRORSEN, CALEB CARLIN, GALINA CHABAN, WEI CHEN,
     CHEOL HO CHOI, PAUL DAY, ALBERT DEFUSCO, NUWAN DESILVA, TIM DUDLEY,
     DMITRI FEDOROV, GRAHAM FLETCHER, MARK FREITAG, KURT GLAESEMANN,
     DAN KEMP, GRANT MERRILL, NORIYUKI MINEZAWA, JONATHAN MULLIN,
     TAKESHI NAGATA, SEAN NEDD, HEATHER NETZLOFF, BOSILJKA NJEGIC, RYAN OLSON,
     MIKE PAK, SPENCER PRUITT, LUKE ROSKOP, JIM SHOEMAKER, LYUDMILA SLIPCHENKO,
     TONY SMITH, SAROM SOK LEANG, JIE SONG, TETSUYA TAKETSUGU, SIMON WEBB,
     PENG XU, SOOHAENG YOO, FEDERICO ZAHARIEV

  ADDITIONAL CODE HAS BEEN PROVIDED BY COLLABORATORS IN OTHER GROUPS:
     IOWA STATE UNIVERSITY:
          JOE IVANIC, AARON WEST, LAIMUTIS BYTAUTAS, KLAUS RUEDENBERG
     UNIVERSITY OF TOKYO: KIMIHIKO HIRAO, TAKAHITO NAKAJIMA,
          TAKAO TSUNEDA, MUNEAKI KAMIYA, SUSUMU YANAGISAWA,
          KIYOSHI YAGI, MAHITO CHIBA, SEIKEN TOKURA, NAOAKI KAWAKAMI
     UNIVERSITY OF AARHUS: FRANK JENSEN
     UNIVERSITY OF IOWA: VISVALDAS KAIRYS, HUI LI
     NATIONAL INST. OF STANDARDS AND TECHNOLOGY: WALT STEVENS, DAVID GARMER
     UNIVERSITY OF PISA: BENEDETTA MENNUCCI, JACOPO TOMASI
     UNIVERSITY OF MEMPHIS: HENRY KURTZ, PRAKASHAN KORAMBATH
     UNIVERSITY OF ALBERTA: TOBY ZENG, MARIUSZ KLOBUKOWSKI
     UNIVERSITY OF NEW ENGLAND: MARK SPACKMAN
     MIE UNIVERSITY: HIROAKI UMEDA
     NAT. INST. OF ADVANCED INDUSTRIAL SCIENCE AND TECHNOLOGY: KAZUO KITAURA
     MICHIGAN STATE UNIVERSITY:
          KAROL KOWALSKI, MARTA WLOCH, JEFFREY GOUR, JESSE LUTZ,
          WEI LI, PIOTR PIECUCH
     UNIVERSITY OF SILESIA: MONIKA MUSIAL, STANISLAW KUCHARSKI
     FACULTES UNIVERSITAIRES NOTRE-DAME DE LA PAIX:
          OLIVIER QUINET, BENOIT CHAMPAGNE
     UNIVERSITY OF CALIFORNIA - SANTA BARBARA: BERNARD KIRTMAN
     INSTITUTE FOR MOLECULAR SCIENCE:
          KAZUYA ISHIMURA, MICHIO KATOUDA, AND SHIGERU NAGASE
     UNIVERSITY OF NOTRE DAME: ANNA POMOGAEVA, DAN CHIPMAN
     KYUSHU UNIVERSITY:
          HARUYUKI NAKANO,
          FENG LONG GU, JACEK KORCHOWIEC, MARCIN MAKOWSKI, AND YURIKO AOKI,
          HIROTOSHI MORI AND EISAKU MIYOSHI
     PENNSYLVANIA STATE UNIVERSITY:
          TZVETELIN IORDANOV, CHET SWALINA, JONATHAN SKONE,
          SHARON HAMMES-SCHIFFER
     WASEDA UNIVERSITY:
          MASATO KOBAYASHI, TOMOKO AKAMA, TSUGUKI TOUMA,
          TAKESHI YOSHIKAWA, YASUHIRO IKABATA, JUNJI SEINO,
          YUYA NAKAJIMA, HIROMI NAKAI
     NANJING UNIVERSITY: SHUHUA LI
     UNIVERSITY OF NEBRASKA:
          PEIFENG SU, DEJUN SI, NANDUN THELLAMUREGE, YALI WANG, HUI LI
     UNIVERSITY OF ZURICH: ROBERTO PEVERATI, KIM BALDRIDGE
     N. COPERNICUS UNIVERSITY AND JACKSON STATE UNIVERSITY:
          MARIA BARYSZ
     UNIVERSITY OF COPENHAGEN: Jimmy Kromann, CASPER STEINMANN
     TOKYO INSTITUTE OF TECHNOLOGY: HIROYA NAKATA
     NAGOYA UNIVERSITY: YOSHIO NISHIMOTO, STEPHAN IRLE
     MOSCOW STATE UNIVERSITY: VLADIMIR MIRONOV

 EXECUTION OF GAMESS BEGUN Mon Nov 28 22:04:34 2016

            ECHO OF THE FIRST FEW INPUT CARDS -
 INPUT CARD>!   CH2, MP2 numerical gradient test                                            
 INPUT CARD>!                                                                               
 INPUT CARD>!        numerical gradient: RMS= 0.034944430                                   
 INPUT CARD>!         analytic gradient: R.S= 0.034945091                                   
 INPUT CARD>!                                                                               
 INPUT CARD>!   This run takes 0 seconds on 2.66 GHz Cloverton (14 Apr 2015)                
 INPUT CARD>!                                                                               
 INPUT CARD> $CONTRL SCFTYP=RHF mplevl=2 RUNTYP=gradient numgrd=.T. COORD=ZMT $END          
 INPUT CARD> $SYSTEM mwords=1 memddi=1 $END                                                 
 INPUT CARD> $BASIS  GBASIS=STO NGAUSS=2 $END                                               
 INPUT CARD> $mp2    code=ims $end                                                          
 INPUT CARD> $GUESS  GUESS=HUCKEL $END                                                      
 INPUT CARD> $DATA                                                                          
 INPUT CARD>Methylene...1-A-1 state...RHF/STO-2G                                            
 INPUT CARD>Cnv  2                                                                          
 INPUT CARD>                                                                                
 INPUT CARD>C                                                                               
 INPUT CARD>H  1 rCH                                                                        
 INPUT CARD>H  1 rCH  2 aHCH                                                                
 INPUT CARD>                                                                                
 INPUT CARD>rCH=1.09                                                                        
 INPUT CARD>aHCH=110.0                                                                      
 INPUT CARD> $END                                                                           
 INPUT CARD>ENERGY RESTART DATA FOR RUNTYP=OPTIMIZE, NUMGRD=.TRUE.                          
 INPUT CARD> $VIB2                                                                          
 INPUT CARD> NVIB= 2                                                                        
 INPUT CARD> IMODE=    0 IVIB= 0 E=       -37.2651987264                                    
 INPUT CARD> IMODE=    1 IVIB= 1 E=       -37.2661806522                                    
 INPUT CARD> IMODE=    2 IVIB= 1 E=       -37.2641561342                                    
 INPUT CARD> $end                                                                           
 INPUT CARD>                                                                                
 INPUT CARD>the final two entries for a complete restart file would be these:               
 INPUT CARD> IMODE=    1 IVIB= 2 E=       -37.2654524826                                    
 INPUT CARD> IMODE=    2 IVIB= 2 E=       -37.2649071987                                    
    1000000 WORDS OF MEMORY AVAILABLE

     BASIS OPTIONS
     -------------
     GBASIS=STO          IGAUSS=       2      POLAR=NONE    
     NDFUNC=       0     NFFUNC=       0     DIFFSP=       F
     NPFUNC=       0      DIFFS=       F     BASNAM=        


     RUN TITLE
     ---------
 Methylene...1-A-1 state...RHF/STO-2G                                            

 THE POINT GROUP OF THE MOLECULE IS CNV     
 THE ORDER OF THE PRINCIPAL AXIS IS     2

 YOUR FULLY SUBSTITUTED Z-MATRIX IS
 C   
 H      1   1.0900000
 H      1   1.0900000  2  110.0000

 THE MOMENTS OF INERTIA ARE (AMU-ANGSTROM**2)
 IXX=     0.675   IYY=     1.607   IZZ=     2.281

 ATOM      ATOMIC                      COORDINATES (BOHR)
           CHARGE         X                   Y                   Z
 C           6.0     0.0000000000        0.0000000000       -0.1699098334
 H           1.0    -1.6872904675        0.0000000000        1.0115436711
 H           1.0     1.6872904675        0.0000000000        1.0115436711

          INTERNUCLEAR DISTANCES (ANGS.)
          ------------------------------

                1 C          2 H          3 H     

   1 C       0.0000000    1.0900000 *  1.0900000 *
   2 H       1.0900000 *  0.0000000    1.7857515 *
   3 H       1.0900000 *  1.7857515 *  0.0000000  

  * ... LESS THAN  3.000


     ATOMIC BASIS SET
     ----------------
 THE CONTRACTED PRIMITIVE FUNCTIONS HAVE BEEN UNNORMALIZED
 THE CONTRACTED BASIS FUNCTIONS ARE NOW NORMALIZED TO UNITY

  SHELL TYPE  PRIMITIVE        EXPONENT          CONTRACTION COEFFICIENT(S)

 C         

      1   S       1            27.3850330    0.430128498301
      1   S       2             4.8745221    0.678913530502

      2   L       3             1.1367482    0.049471769201    0.511540707616
      2   L       4             0.2883094    0.963782408119    0.612819896119

 H         

      4   S       5             1.3097564    0.430128498301
      4   S       6             0.2331360    0.678913530502

 TOTAL NUMBER OF BASIS SET SHELLS             =    4
 NUMBER OF CARTESIAN GAUSSIAN BASIS FUNCTIONS =    7
 NUMBER OF ELECTRONS                          =    8
 CHARGE OF MOLECULE                           =    0
 SPIN MULTIPLICITY                            =    1
 NUMBER OF OCCUPIED ORBITALS (ALPHA)          =    4
 NUMBER OF OCCUPIED ORBITALS (BETA )          =    4
 TOTAL NUMBER OF ATOMS                        =    3
 THE NUCLEAR REPULSION ENERGY IS        6.1221376700

     $CONTRL OPTIONS
     ---------------
 SCFTYP=RHF          RUNTYP=GRADIENT     EXETYP=RUN     
 MPLEVL=       2     CITYP =NONE         CCTYP =NONE         VBTYP =NONE    
 DFTTYP=NONE         TDDFT =NONE    
 MULT  =       1     ICHARG=       0     NZVAR =       0     COORD =ZMT     
 PP    =NONE         RELWFN=NONE         LOCAL =NONE         NUMGRD=       T
 ISPHER=      -1     NOSYM =       0     MAXIT =      30     UNITS =ANGS    
 PLTORB=       F     MOLPLT=       F     AIMPAC=       F     FRIEND=        
 NPRINT=       7     IREST =       0     GEOM  =INPUT   
 NORMF =       0     NORMP =       0     ITOL  =      20     ICUT  =       9
 INTTYP=BEST         GRDTYP=BEST         QMTTOL= 1.0E-06

     $SYSTEM OPTIONS
     ---------------
  REPLICATED MEMORY=     1000000 WORDS (ON EVERY NODE).
 DISTRIBUTED MEMDDI=           1 MILLION WORDS IN AGGREGATE,
 MEMDDI DISTRIBUTED OVER   1 PROCESSORS IS     1000000 WORDS/PROCESSOR.
 TOTAL MEMORY REQUESTED ON EACH PROCESSOR=     2000000 WORDS.
 TIMLIM=      525600.00 MINUTES, OR     365.0 DAYS.
 PARALL= F  BALTYP=  DLB     KDIAG=    0  COREFL= F
 MXSEQ2=     300 MXSEQ3=     150  mem10=         0

          ----------------
          PROPERTIES INPUT
          ----------------

     MOMENTS            FIELD           POTENTIAL          DENSITY
 IEMOM =       1   IEFLD =       0   IEPOT =       0   IEDEN =       0
 WHERE =COMASS     WHERE =NUCLEI     WHERE =NUCLEI     WHERE =NUCLEI  
 OUTPUT=BOTH       OUTPUT=BOTH       OUTPUT=BOTH       OUTPUT=BOTH    
 IEMINT=       0   IEFINT=       0                     IEDINT=       0
                                                       MORB  =       0
          EXTRAPOLATION IN EFFECT
 ORBITAL PRINTING OPTION: NPREO=     1     7     2     1

     -------------------------------
     INTEGRAL TRANSFORMATION OPTIONS
     -------------------------------
     NWORD  =            0
     CUTOFF = 1.0E-09     MPTRAN =       0
     DIRTRF =       F     AOINTS =DUP     

          ----------------------
          INTEGRAL INPUT OPTIONS
          ----------------------
 NOPK  =       1 NORDER=       0 SCHWRZ=       F

          -----------------------
          MP2 CONTROL INFORMATION
          -----------------------
          NACORE =        1  NBCORE =        1
          LMOMP2 =        F  AOINTS = DUP     
          METHOD =        2  NWORD  =               0
          MP2PRP =        F  OSPT   = NONE    
          CUTOFF = 1.00E-09  CPHFBS = BASISAO 
          CODE   = IMS     

          NUMBER OF CORE -A-  ORBITALS =     1
          NUMBER OF CORE -B-  ORBITALS =     1
          NUMBER OF OCC. -A-  ORBITALS =     4
          NUMBER OF OCC. -B-  ORBITALS =     4
          NUMBER OF MOLECULAR ORBITALS =     7
          NUMBER OF   BASIS  FUNCTIONS =     7


   --- ENCODED Z MATRIX ---
 COORD  TYPE   I   J   K   L   M   N
    1      1    3   1
    2      1    2   1
    3      2    2   1   3

 THE DETERMINANT OF THE G MATRIX IS 10**(    -1)

     ------------------------------------------
     THE POINT GROUP IS CNV, NAXIS= 2, ORDER= 4
     ------------------------------------------

     DIMENSIONS OF THE SYMMETRY SUBSPACES ARE
 A1  =    4     A2  =    0     B1  =    2     B2  =    1

 ..... DONE SETTING UP THE RUN .....
 STEP CPU TIME =     0.02 TOTAL CPU TIME =        0.0 (    0.0 MIN)
 TOTAL WALL CLOCK TIME=        0.1 SECONDS, CPU UTILIZATION IS  33.33%

                    --------------------------------
                    SINGLE POINT ENERGY AND GRADIENT
                    --------------------------------

          ********************
          1 ELECTRON INTEGRALS
          ********************
 ...... END OF ONE-ELECTRON INTEGRALS ......
 STEP CPU TIME =     0.00 TOTAL CPU TIME =        0.0 (    0.0 MIN)
 TOTAL WALL CLOCK TIME=        0.1 SECONDS, CPU UTILIZATION IS  33.33%

          -------------
          GUESS OPTIONS
          -------------
          GUESS =HUCKEL            NORB  =       0          NORDER=       0
          MIX   =       F          PRTMO =       F          PUNMO =       F
          TOLZ  = 1.0E-08          TOLE  = 1.0E-05
          SYMDEN=       F          PURIFY=       F

 INITIAL GUESS ORBITALS GENERATED BY HUCKEL   ROUTINE.
 HUCKEL GUESS REQUIRES      2620 WORDS.

 SYMMETRIES FOR INITIAL GUESS ORBITALS FOLLOW.   BOTH SET(S).
     4 ORBITALS ARE OCCUPIED (    1 CORE ORBITALS).
     2=A1       3=B1       4=A1       5=B2       6=B1       7=A1  
 ...... END OF INITIAL ORBITAL SELECTION ......
 STEP CPU TIME =     0.00 TOTAL CPU TIME =        0.0 (    0.0 MIN)
 TOTAL WALL CLOCK TIME=        0.1 SECONDS, CPU UTILIZATION IS  33.33%

                    ----------------------
                    AO INTEGRAL TECHNOLOGY
                    ----------------------
     S,P,L SHELL ROTATED AXIS INTEGRALS, REPROGRAMMED BY
        KAZUYA ISHIMURA (IMS) AND JOSE SIERRA (SYNSTAR).
     S,P,D,L SHELL ROTATED AXIS INTEGRALS PROGRAMMED BY
        KAZUYA ISHIMURA (INSTITUTE FOR MOLECULAR SCIENCE).
     S,P,D,F,G SHELL TO TOTAL QUARTET ANGULAR MOMENTUM SUM 5,
        ERIC PROGRAM BY GRAHAM FLETCHER (ELORET AND NASA ADVANCED
        SUPERCOMPUTING DIVISION, AMES RESEARCH CENTER).
     S,P,D,F,G,L SHELL GENERAL RYS QUADRATURE PROGRAMMED BY
        MICHEL DUPUIS (PACIFIC NORTHWEST NATIONAL LABORATORY).

          --------------------
          2 ELECTRON INTEGRALS
          --------------------

 THE -PK- OPTION IS OFF, THE INTEGRALS ARE NOT IN SUPERMATRIX FORM.
 STORING   15000 INTEGRALS/RECORD ON DISK, USING 12 BYTES/INTEGRAL.
 TWO ELECTRON INTEGRAL EVALUATION REQUIRES   89366 WORDS OF MEMORY.
 II,JST,KST,LST =  1  1  1  1 NREC =         1 INTLOC =    1
 II,JST,KST,LST =  2  1  1  1 NREC =         1 INTLOC =    2
 II,JST,KST,LST =  3  1  1  1 NREC =         1 INTLOC =   34
 II,JST,KST,LST =  4  1  1  1 NREC =         1 INTLOC =   34
 TOTAL NUMBER OF NONZERO TWO-ELECTRON INTEGRALS =                 141
          1 INTEGRAL RECORDS WERE STORED ON DISK FILE  8.
  ...... END OF TWO-ELECTRON INTEGRALS .....
 STEP CPU TIME =     0.02 TOTAL CPU TIME =        0.0 (    0.0 MIN)
 TOTAL WALL CLOCK TIME=        0.1 SECONDS, CPU UTILIZATION IS  30.77%

          --------------------------
                 RHF SCF CALCULATION
          --------------------------

     NUCLEAR ENERGY =         6.1221376700
     MAXIT =   30     NPUNCH=    2
     EXTRAP=T  DAMP=F  SHIFT=F  RSTRCT=F  DIIS=F  DEM=F  SOSCF=F
     DENSITY MATRIX CONV=  1.00E-06
     MEMORY REQUIRED FOR RHF ITERS=     30441 WORDS.

 ITER EX DEM     TOTAL ENERGY        E CHANGE  DENSITY CHANGE    DIIS ERROR
   1  0  0      -37.1725772831   -37.1725772831   0.380764105   0.000000000
   2  1  0      -37.2279756203    -0.0553983372   0.131481807   0.000000000
   3  2  0      -37.2317322477    -0.0037566275   0.046548651   0.000000000
   4  3  0      -37.2321932103    -0.0004609626   0.016847695   0.000000000
   5  0  0      -37.2322568537    -0.0000636433   0.010114675   0.000000000
   6  1  0      -37.2322678008    -0.0000109472   0.000054437   0.000000000
   7  2  0      -37.2322678015    -0.0000000006   0.000017898   0.000000000
   8  3  0      -37.2322678015    -0.0000000001   0.000006281   0.000000000
   9  4  0      -37.2322678015    -0.0000000000   0.000002282   0.000000000
  10  5  0      -37.2322678015    -0.0000000000   0.000000850   0.000000000
  11  6  0      -37.2322678015    -0.0000000000   0.000000322   0.000000000

          -----------------
          DENSITY CONVERGED
          -----------------
     TIME TO FORM FOCK OPERATORS=       0.0 SECONDS (       0.0 SEC/ITER)
     TIME TO SOLVE SCF EQUATIONS=       0.0 SECONDS (       0.0 SEC/ITER)

 FINAL RHF ENERGY IS      -37.2322678015 AFTER  11 ITERATIONS

          ------------
          EIGENVECTORS
          ------------

                      1          2          3          4          5
                  -10.6188    -0.8205    -0.5149    -0.2795     0.2459
                     A1         A1         B1         A1         B2  
    1  C  1  S    0.983734  -0.243675   0.000000   0.165844   0.000000
    2  C  1  S    0.063273   0.641661   0.000000  -0.643099   0.000000
    3  C  1  X   -0.000000   0.000000   0.520733  -0.000000   0.000000
    4  C  1  Y   -0.000000   0.000000   0.000000  -0.000000   1.000000
    5  C  1  Z    0.011358   0.170910   0.000000   0.766042   0.000000
    6  H  2  S   -0.016439   0.285809  -0.462541   0.227437   0.000000
    7  H  3  S   -0.016439   0.285809   0.462541   0.227437   0.000000

                      6          7
                    0.7165     0.7715
                     A1         B1  
    1  C  1  S   -0.217216   0.000000
    2  C  1  S    1.114002   0.000000
    3  C  1  X   -0.000000   1.125147
    4  C  1  Y   -0.000000   0.000000
    5  C  1  Z    0.811131   0.000000
    6  H  2  S   -0.904459   0.836937
    7  H  3  S   -0.904459  -0.836937
 ...... END OF RHF CALCULATION ......
 STEP CPU TIME =     0.00 TOTAL CPU TIME =        0.0 (    0.0 MIN)
 TOTAL WALL CLOCK TIME=        0.1 SECONDS, CPU UTILIZATION IS  26.67%

     ----------------------------------------------------------------
     PROPERTY VALUES FOR THE RHF   SELF-CONSISTENT FIELD WAVEFUNCTION
     ----------------------------------------------------------------

          -----------------
          ENERGY COMPONENTS
          -----------------

         WAVEFUNCTION NORMALIZATION =       1.0000000000

                ONE ELECTRON ENERGY =     -62.2411641948
                TWO ELECTRON ENERGY =      18.8867587233
           NUCLEAR REPULSION ENERGY =       6.1221376700
                                      ------------------
                       TOTAL ENERGY =     -37.2322678015

 ELECTRON-ELECTRON POTENTIAL ENERGY =      18.8867587233
  NUCLEUS-ELECTRON POTENTIAL ENERGY =     -99.4193932314
   NUCLEUS-NUCLEUS POTENTIAL ENERGY =       6.1221376700
                                      ------------------
             TOTAL POTENTIAL ENERGY =     -74.4104968381
               TOTAL KINETIC ENERGY =      37.1782290366
                 VIRIAL RATIO (V/T) =       2.0014535056

  ...... PI ENERGY ANALYSIS ......

 ENERGY ANALYSIS:
            FOCK ENERGY=    -24.4676467648
          BARE H ENERGY=    -62.2411641948
     ELECTRONIC ENERGY =    -43.3544054798
         KINETIC ENERGY=     37.1782290366
          N-N REPULSION=      6.1221376700
           TOTAL ENERGY=    -37.2322678098
        SIGMA PART(1+2)=    -43.3544054798
               (K,V1,2)=     37.1782290366    -99.4193932314     18.8867587150
           PI PART(1+2)=      0.0000000000
               (K,V1,2)=      0.0000000000      0.0000000000      0.0000000000
  SIGMA SKELETON, ERROR=    -37.2322678098      0.0000000000
             MIXED PART= 0.00000E+00 0.00000E+00 0.00000E+00 0.00000E+00
 ...... END OF PI ENERGY ANALYSIS ......

          ---------------------------------------
          MULLIKEN AND LOWDIN POPULATION ANALYSES
          ---------------------------------------

     ATOMIC MULLIKEN POPULATION IN EACH MOLECULAR ORBITAL

                      1          2          3          4

                  2.000000   2.000000   2.000000   2.000000

    1             2.004857   1.226435   0.911523   1.850338
    2            -0.002428   0.386783   0.544238   0.074831
    3            -0.002428   0.386783   0.544238   0.074831

               ----- POPULATIONS IN EACH AO -----
                             MULLIKEN      LOWDIN
              1  C  1  S      1.98927     1.98637
              2  C  1  S      1.62082     1.50433
              3  C  1  X      0.91152     0.95700
              4  C  1  Y      0.00000     0.00000
              5  C  1  Z      1.47154     1.50761
              6  H  2  S      1.00342     1.02234
              7  H  3  S      1.00342     1.02234

          ----- MULLIKEN ATOMIC OVERLAP POPULATIONS -----
          (OFF-DIAGONAL ELEMENTS NEED TO BE MULTIPLIED BY 2)

             1           2           3

    1    5.3256159
    2    0.3337686   0.6952575
    3    0.3337686  -0.0256026   0.6952575

          TOTAL MULLIKEN AND LOWDIN ATOMIC POPULATIONS
       ATOM         MULL.POP.    CHARGE          LOW.POP.     CHARGE
    1 C             5.993153    0.006847         5.955315    0.044685
    2 H             1.003423   -0.003423         1.022342   -0.022342
    3 H             1.003423   -0.003423         1.022342   -0.022342

          -------------------------------
          BOND ORDER AND VALENCE ANALYSIS     BOND ORDER THRESHOLD=0.050
          -------------------------------

                   BOND                       BOND                       BOND
  ATOM PAIR DIST  ORDER      ATOM PAIR DIST  ORDER      ATOM PAIR DIST  ORDER
    1   2  1.090  0.993        1   3  1.090  0.993

                       TOTAL       BONDED        FREE
      ATOM            VALENCE     VALENCE     VALENCE
    1 C                 1.986       1.986       0.000
    2 H                 1.000       1.000       0.000
    3 H                 1.000       1.000       0.000

          ---------------------
          ELECTROSTATIC MOMENTS
          ---------------------

 POINT   1           X           Y           Z (BOHR)    CHARGE
                 0.000000    0.000000    0.000000        0.00 (A.U.)
         DX          DY          DZ         /D/  (DEBYE)
    -0.000000   -0.000000    1.515764    1.515764
 ...... END OF PROPERTY EVALUATION ......
 STEP CPU TIME =     0.01 TOTAL CPU TIME =        0.0 (    0.0 MIN)
 TOTAL WALL CLOCK TIME=        0.1 SECONDS, CPU UTILIZATION IS  33.33%

 --------------------------   -----------------------------
 RHF-MP2 ENERGY CALCULATION   PROGRAM WRITTEN BY K.ISHIMURA
 --------------------------   -----------------------------
 NUMBER OF OCCUPIED ORBITALS            =    4
 NUMBER OF CORRELATED OCCUPIED ORBITALS =    3
 NUMBER OF VIRTUAL ORBITALS             =    3
 NUMBER OF BASIS FUNCTIONS              =    7
 NUMBER OF BASIS SHELLS                 =    4
 AO-TRANSFORMED INTEGRAL THRESHOLD      = 1.00E-09
 HALF-TRANSFORMED INTEGRAL THRESHOLD    = 7.90E-10
 TOTAL DISK REQUIRED (ALL PROCESSORS)=              0 MBYTES
                  DISK SPACE PER CORE=              0 MBYTES, USING P=    1
 MEMORY REQUIRED FOR TRANSFORMATION OF 1ST THREE INDICES=        1809
 MEMORY REQUIRED FOR    4TH INDEX TRANSF. AND MP2 ENERGY=         319
 BEGINNING MP2 INTEGRAL TRANSFORMATION...
 BEGINNING    1ST SHELL LOOP...

 RESULTS OF MOLLER-PLESSET 2ND ORDER CORRECTION ARE
               E(0)=       -37.2322678015
               E(1)=         0.0
               E(2)=        -0.0329309249
             E(MP2)=       -37.2651987264
 SPIN-COMPONENT-SCALED MP2 RESULTS ARE
              E(2S)=        -0.0324922014
              E(2T)=        -0.0004387234
             E(2ST)=        -0.0391368829 = 6/5 * E(2S) + 1/3 * E(2T)
            SCS-MP2=       -37.2714046844
 ..... DONE WITH MP2 ENERGY .....
 STEP CPU TIME =     0.00 TOTAL CPU TIME =        0.0 (    0.0 MIN)
 TOTAL WALL CLOCK TIME=        0.2 SECONDS, CPU UTILIZATION IS  26.32%
 DDI: Creating Array [0] - 2 x 4 = 8 words.

 COMPUTING THE NUCLEAR GRADIENT BY NUMERIC DIFFERENTIATION
 PROJECTION FINDS   2 TOTALLY SYMMETRIC MODES OUT OF 3N=     9
 SO     4 SINGLE POINT ENERGIES MUST BE COMPUTED TO GET A GRADIENT.
 READING RESTART DATA FROM $VIB2 GROUP IN INPUT FILE...
 FOUND IMODE=    0, IVIB= 0, E=       -37.2651987260
 FOUND IMODE=    1, IVIB= 1, E=       -37.2661806520
 FOUND IMODE=    2, IVIB= 1, E=       -37.2641561340
 FOUND IMODE=    0, IVIB= 0, E=         0.0000000000

 -------------------------------
 WORKING ON IMODE=   2 IVIB=1...
 -------------------------------

 COORDINATES OF ALL ATOMS ARE (ANGS)
   ATOM   CHARGE       X              Y              Z
 ------------------------------------------------------------
 C           6.0   0.0000000000   0.0000000000  -0.0899124183
 H           1.0  -0.8966175765   0.0000000000   0.5352858974
 H           1.0   0.8966175765   0.0000000000   0.5352858974
 ...... END OF ONE-ELECTRON INTEGRALS ......
 STEP CPU TIME =     0.01 TOTAL CPU TIME =        0.1 (    0.0 MIN)
 TOTAL WALL CLOCK TIME=        0.2 SECONDS, CPU UTILIZATION IS  30.00%
 TOTAL NUMBER OF NONZERO TWO-ELECTRON INTEGRALS =                 141
          1 INTEGRAL RECORDS WERE STORED ON DISK FILE  8.
  ...... END OF TWO-ELECTRON INTEGRALS .....
 STEP CPU TIME =     0.00 TOTAL CPU TIME =        0.1 (    0.0 MIN)
 TOTAL WALL CLOCK TIME=        0.2 SECONDS, CPU UTILIZATION IS  26.09%

          --------------------------
                 RHF SCF CALCULATION
          --------------------------
     DENSITY MATRIX CONV=  1.00E-06

 ITER EX DEM     TOTAL ENERGY        E CHANGE  DENSITY CHANGE    DIIS ERROR
   1  0  0      -37.2323866168   -37.2323866168   0.000289163   0.000000000
   2  1  0      -37.2323869332    -0.0000003164   0.000079290   0.000000000
   3  2  0      -37.2323869362    -0.0000000030   0.000025582   0.000000000
   4  3  0      -37.2323869363    -0.0000000002   0.000008309   0.000000000
   5  4  0      -37.2323869363    -0.0000000000   0.000002817   0.000000000
   6  5  0      -37.2323869363    -0.0000000000   0.000000996   0.000000000
   7  6  0      -37.2323869363    -0.0000000000   0.000000364   0.000000000

          -----------------
          DENSITY CONVERGED
          -----------------
     TIME TO FORM FOCK OPERATORS=       0.0 SECONDS (       0.0 SEC/ITER)
     TIME TO SOLVE SCF EQUATIONS=       0.0 SECONDS (       0.0 SEC/ITER)

 FINAL RHF ENERGY IS      -37.2323869363 AFTER   7 ITERATIONS
 ...... END OF RHF CALCULATION ......
 STEP CPU TIME =     0.00 TOTAL CPU TIME =        0.1 (    0.0 MIN)
 TOTAL WALL CLOCK TIME=        0.2 SECONDS, CPU UTILIZATION IS  26.09%

 --------------------------   -----------------------------
 RHF-MP2 ENERGY CALCULATION   PROGRAM WRITTEN BY K.ISHIMURA
 --------------------------   -----------------------------
 NUMBER OF OCCUPIED ORBITALS            =    4
 NUMBER OF CORRELATED OCCUPIED ORBITALS =    3
 NUMBER OF VIRTUAL ORBITALS             =    3
 NUMBER OF BASIS FUNCTIONS              =    7
 NUMBER OF BASIS SHELLS                 =    4
 AO-TRANSFORMED INTEGRAL THRESHOLD      = 1.00E-09
 HALF-TRANSFORMED INTEGRAL THRESHOLD    = 7.92E-10
 TOTAL DISK REQUIRED (ALL PROCESSORS)=              0 MBYTES
                  DISK SPACE PER CORE=              0 MBYTES, USING P=    1
 MEMORY REQUIRED FOR TRANSFORMATION OF 1ST THREE INDICES=        1809
 MEMORY REQUIRED FOR    4TH INDEX TRANSF. AND MP2 ENERGY=         319
 BEGINNING MP2 INTEGRAL TRANSFORMATION...
 BEGINNING    1ST SHELL LOOP...

 RESULTS OF MOLLER-PLESSET 2ND ORDER CORRECTION ARE
               E(0)=       -37.2323869363
               E(1)=         0.0
               E(2)=        -0.0330655462
             E(MP2)=       -37.2654524826
 SPIN-COMPONENT-SCALED MP2 RESULTS ARE
              E(2S)=        -0.0326221330
              E(2T)=        -0.0004434132
             E(2ST)=        -0.0392943640 = 6/5 * E(2S) + 1/3 * E(2T)
            SCS-MP2=       -37.2716813004
 ..... DONE WITH MP2 ENERGY .....
 STEP CPU TIME =     0.00 TOTAL CPU TIME =        0.1 (    0.0 MIN)
 TOTAL WALL CLOCK TIME=        0.2 SECONDS, CPU UTILIZATION IS  25.00%
 IMODE=    1 IVIB= 2 E=       -37.2654524826

 -------------------------------
 WORKING ON IMODE=   2 IVIB=2...
 -------------------------------

 COORDINATES OF ALL ATOMS ARE (ANGS)
   ATOM   CHARGE       X              Y              Z
 ------------------------------------------------------------
 C           6.0   0.0000000000   0.0000000000  -0.0899124183
 H           1.0  -0.8891338801   0.0000000000   0.5352858974
 H           1.0   0.8891338801   0.0000000000   0.5352858974
 ...... END OF ONE-ELECTRON INTEGRALS ......
 STEP CPU TIME =     0.00 TOTAL CPU TIME =        0.1 (    0.0 MIN)
 TOTAL WALL CLOCK TIME=        0.2 SECONDS, CPU UTILIZATION IS  25.00%
 TOTAL NUMBER OF NONZERO TWO-ELECTRON INTEGRALS =                 141
          1 INTEGRAL RECORDS WERE STORED ON DISK FILE  8.
  ...... END OF TWO-ELECTRON INTEGRALS .....
 STEP CPU TIME =     0.00 TOTAL CPU TIME =        0.1 (    0.0 MIN)
 TOTAL WALL CLOCK TIME=        0.2 SECONDS, CPU UTILIZATION IS  25.00%

          --------------------------
                 RHF SCF CALCULATION
          --------------------------
     DENSITY MATRIX CONV=  1.00E-06

 ITER EX DEM     TOTAL ENERGY        E CHANGE  DENSITY CHANGE    DIIS ERROR
   1  0  0      -37.2321092331   -37.2321092331   0.000288794   0.000000000
   2  1  0      -37.2321095471    -0.0000003139   0.000075814   0.000000000
   3  2  0      -37.2321095499    -0.0000000028   0.000024303   0.000000000
   4  3  0      -37.2321095500    -0.0000000001   0.000007818   0.000000000
   5  4  0      -37.2321095500    -0.0000000000   0.000002623   0.000000000
   6  5  0      -37.2321095500    -0.0000000000   0.000000918   0.000000000
   7  6  0      -37.2321095500    -0.0000000000   0.000000332   0.000000000

          -----------------
          DENSITY CONVERGED
          -----------------
     TIME TO FORM FOCK OPERATORS=       0.0 SECONDS (       0.0 SEC/ITER)
     TIME TO SOLVE SCF EQUATIONS=       0.0 SECONDS (       0.0 SEC/ITER)

 FINAL RHF ENERGY IS      -37.2321095500 AFTER   7 ITERATIONS
 ...... END OF RHF CALCULATION ......
 STEP CPU TIME =     0.00 TOTAL CPU TIME =        0.1 (    0.0 MIN)
 TOTAL WALL CLOCK TIME=        0.2 SECONDS, CPU UTILIZATION IS  25.00%

 --------------------------   -----------------------------
 RHF-MP2 ENERGY CALCULATION   PROGRAM WRITTEN BY K.ISHIMURA
 --------------------------   -----------------------------
 NUMBER OF OCCUPIED ORBITALS            =    4
 NUMBER OF CORRELATED OCCUPIED ORBITALS =    3
 NUMBER OF VIRTUAL ORBITALS             =    3
 NUMBER OF BASIS FUNCTIONS              =    7
 NUMBER OF BASIS SHELLS                 =    4
 AO-TRANSFORMED INTEGRAL THRESHOLD      = 1.00E-09
 HALF-TRANSFORMED INTEGRAL THRESHOLD    = 7.88E-10
 TOTAL DISK REQUIRED (ALL PROCESSORS)=              0 MBYTES
                  DISK SPACE PER CORE=              0 MBYTES, USING P=    1
 MEMORY REQUIRED FOR TRANSFORMATION OF 1ST THREE INDICES=        1809
 MEMORY REQUIRED FOR    4TH INDEX TRANSF. AND MP2 ENERGY=         319
 BEGINNING MP2 INTEGRAL TRANSFORMATION...
 BEGINNING    1ST SHELL LOOP...

 RESULTS OF MOLLER-PLESSET 2ND ORDER CORRECTION ARE
               E(0)=       -37.2321095500
               E(1)=         0.0
               E(2)=        -0.0327976487
             E(MP2)=       -37.2649071987
 SPIN-COMPONENT-SCALED MP2 RESULTS ARE
              E(2S)=        -0.0323635564
              E(2T)=        -0.0004340923
             E(2ST)=        -0.0389809651 = 6/5 * E(2S) + 1/3 * E(2T)
            SCS-MP2=       -37.2710905151
 ..... DONE WITH MP2 ENERGY .....
 STEP CPU TIME =     0.00 TOTAL CPU TIME =        0.1 (    0.0 MIN)
 TOTAL WALL CLOCK TIME=        0.3 SECONDS, CPU UTILIZATION IS  18.18%
 IMODE=    2 IVIB= 2 E=       -37.2649071987

                         ----------------------
                         GRADIENT OF THE ENERGY
                         ----------------------

 UNITS ARE HARTREE/BOHR    E'X               E'Y               E'Z 
    1 C                0.000000000       0.000000000       0.082650601
    2 H                0.019278694       0.000000000      -0.041325301
    3 H               -0.019278694       0.000000000      -0.041325301

                   MAXIMUM GRADIENT =    0.082650601
                       RMS GRADIENT =    0.034944430
  $VIB   
          IVIB=   0 IATOM=   0 ICOORD=   0 E=      -37.2651987264
  0.000000000E+00 0.000000000E+00 8.265060125E-02 1.927869429E-02 0.000000000E+00
 -4.132530063E-02-1.927869429E-02 0.000000000E+00-4.132530063E-02
 -1.128770855E-15-6.732243849E-18 1.515764452E+00

..... END OF SINGLE POINT GRADIENT .....
 STEP CPU TIME =     0.00 TOTAL CPU TIME =        0.1 (    0.0 MIN)
 TOTAL WALL CLOCK TIME=        0.4 SECONDS, CPU UTILIZATION IS  15.79%
               580000  WORDS OF DYNAMIC MEMORY USED
 EXECUTION OF GAMESS TERMINATED NORMALLY Mon Nov 28 22:04:34 2016
 DDI: 263704 bytes (0.3 MB / 0 MWords) used by master data server.

 ----------------------------------------
 CPU timing information for all processes
 ========================================
 0: 0.36 + 0.64 = 0.101
 ----------------------------------------
 ddikick.x: exited gracefully.
unset echo
----- accounting info -----
Files used on the master node compute-3-0 were:
-rw-rw-r-- 1 sarom sarom    2304 Nov 29  2016 .//e1-mp2-numgrd.dat
-rw-rw-r-- 1 sarom sarom     863 Nov 29  2016 .//e1-mp2-numgrd.F05
-rw-rw-r-- 1 sarom sarom  180016 Nov 29  2016 .//e1-mp2-numgrd.F08
-rw-rw-r-- 1 sarom sarom 1995920 Nov 29  2016 .//e1-mp2-numgrd.F10
-rw-rw-r-- 1 sarom sarom     863 Nov 28 17:27 .//e1-mp2-numgrd.inp
-rw-rw-r-- 1 sarom sarom   34705 Nov 29  2016 .//e1-mp2-numgrd.log
Mon Nov 28 22:04:37 CST 2016
0.191u 0.559s 0:04.26 17.3%	0+0k 0+136io 0pf+0w
