----- GAMESS execution script 'rungms' -----
This job is running on host compute-3-0
under operating system Linux at Mon Nov 28 22:04:33 CST 2016
Available scratch disk space (Kbyte units) at beginning of the job is
Filesystem            1K-blocks       Used  Available Use% Mounted on
bolt.local:/export/home/sarom
                     9590469632 1553030144 7550271488  18% /home/sarom
Copying input file efp1-qm-numgrd.inp to your run's scratch directory...
cp efp1-qm-numgrd.inp .//efp1-qm-numgrd.F05
unset echo
/home/sarom/gamessGH/ddikick.x /home/sarom/gamessGH/gamess.00.x efp1-qm-numgrd -ddi 1 1 localhost -scr ./

 Distributed Data Interface kickoff program.
 Initiating 1 compute processes on 1 nodes to run the following command:
 /home/sarom/gamessGH/gamess.00.x efp1-qm-numgrd 

          ******************************************************
          *         GAMESS VERSION = 18 AUG 2016 (R1)          *
          *             FROM IOWA STATE UNIVERSITY             *
          * M.W.SCHMIDT, K.K.BALDRIDGE, J.A.BOATZ, S.T.ELBERT, *
          *   M.S.GORDON, J.H.JENSEN, S.KOSEKI, N.MATSUNAGA,   *
          *          K.A.NGUYEN, S.J.SU, T.L.WINDUS,           *
          *       TOGETHER WITH M.DUPUIS, J.A.MONTGOMERY       *
          *         J.COMPUT.CHEM.  14, 1347-1363(1993)        *
          **************** 64 BIT LINUX VERSION ****************

  SINCE 1993, STUDENTS AND POSTDOCS WORKING AT IOWA STATE UNIVERSITY
  AND ALSO IN THEIR VARIOUS JOBS AFTER LEAVING ISU HAVE MADE IMPORTANT
  CONTRIBUTIONS TO THE CODE:
     IVANA ADAMOVIC, CHRISTINE AIKENS, YURI ALEXEEV, POOJA ARORA,
     ANDREY ASADCHEV, ROB BELL, PRADIPTA BANDYOPADHYAY, JONATHAN BENTZ,
     BRETT BODE, KURT BRORSEN, CALEB CARLIN, GALINA CHABAN, WEI CHEN,
     CHEOL HO CHOI, PAUL DAY, ALBERT DEFUSCO, NUWAN DESILVA, TIM DUDLEY,
     DMITRI FEDOROV, GRAHAM FLETCHER, MARK FREITAG, KURT GLAESEMANN,
     DAN KEMP, GRANT MERRILL, NORIYUKI MINEZAWA, JONATHAN MULLIN,
     TAKESHI NAGATA, SEAN NEDD, HEATHER NETZLOFF, BOSILJKA NJEGIC, RYAN OLSON,
     MIKE PAK, SPENCER PRUITT, LUKE ROSKOP, JIM SHOEMAKER, LYUDMILA SLIPCHENKO,
     TONY SMITH, SAROM SOK LEANG, JIE SONG, TETSUYA TAKETSUGU, SIMON WEBB,
     PENG XU, SOOHAENG YOO, FEDERICO ZAHARIEV

  ADDITIONAL CODE HAS BEEN PROVIDED BY COLLABORATORS IN OTHER GROUPS:
     IOWA STATE UNIVERSITY:
          JOE IVANIC, AARON WEST, LAIMUTIS BYTAUTAS, KLAUS RUEDENBERG
     UNIVERSITY OF TOKYO: KIMIHIKO HIRAO, TAKAHITO NAKAJIMA,
          TAKAO TSUNEDA, MUNEAKI KAMIYA, SUSUMU YANAGISAWA,
          KIYOSHI YAGI, MAHITO CHIBA, SEIKEN TOKURA, NAOAKI KAWAKAMI
     UNIVERSITY OF AARHUS: FRANK JENSEN
     UNIVERSITY OF IOWA: VISVALDAS KAIRYS, HUI LI
     NATIONAL INST. OF STANDARDS AND TECHNOLOGY: WALT STEVENS, DAVID GARMER
     UNIVERSITY OF PISA: BENEDETTA MENNUCCI, JACOPO TOMASI
     UNIVERSITY OF MEMPHIS: HENRY KURTZ, PRAKASHAN KORAMBATH
     UNIVERSITY OF ALBERTA: TOBY ZENG, MARIUSZ KLOBUKOWSKI
     UNIVERSITY OF NEW ENGLAND: MARK SPACKMAN
     MIE UNIVERSITY: HIROAKI UMEDA
     NAT. INST. OF ADVANCED INDUSTRIAL SCIENCE AND TECHNOLOGY: KAZUO KITAURA
     MICHIGAN STATE UNIVERSITY:
          KAROL KOWALSKI, MARTA WLOCH, JEFFREY GOUR, JESSE LUTZ,
          WEI LI, PIOTR PIECUCH
     UNIVERSITY OF SILESIA: MONIKA MUSIAL, STANISLAW KUCHARSKI
     FACULTES UNIVERSITAIRES NOTRE-DAME DE LA PAIX:
          OLIVIER QUINET, BENOIT CHAMPAGNE
     UNIVERSITY OF CALIFORNIA - SANTA BARBARA: BERNARD KIRTMAN
     INSTITUTE FOR MOLECULAR SCIENCE:
          KAZUYA ISHIMURA, MICHIO KATOUDA, AND SHIGERU NAGASE
     UNIVERSITY OF NOTRE DAME: ANNA POMOGAEVA, DAN CHIPMAN
     KYUSHU UNIVERSITY:
          HARUYUKI NAKANO,
          FENG LONG GU, JACEK KORCHOWIEC, MARCIN MAKOWSKI, AND YURIKO AOKI,
          HIROTOSHI MORI AND EISAKU MIYOSHI
     PENNSYLVANIA STATE UNIVERSITY:
          TZVETELIN IORDANOV, CHET SWALINA, JONATHAN SKONE,
          SHARON HAMMES-SCHIFFER
     WASEDA UNIVERSITY:
          MASATO KOBAYASHI, TOMOKO AKAMA, TSUGUKI TOUMA,
          TAKESHI YOSHIKAWA, YASUHIRO IKABATA, JUNJI SEINO,
          YUYA NAKAJIMA, HIROMI NAKAI
     NANJING UNIVERSITY: SHUHUA LI
     UNIVERSITY OF NEBRASKA:
          PEIFENG SU, DEJUN SI, NANDUN THELLAMUREGE, YALI WANG, HUI LI
     UNIVERSITY OF ZURICH: ROBERTO PEVERATI, KIM BALDRIDGE
     N. COPERNICUS UNIVERSITY AND JACKSON STATE UNIVERSITY:
          MARIA BARYSZ
     UNIVERSITY OF COPENHAGEN: Jimmy Kromann, CASPER STEINMANN
     TOKYO INSTITUTE OF TECHNOLOGY: HIROYA NAKATA
     NAGOYA UNIVERSITY: YOSHIO NISHIMOTO, STEPHAN IRLE
     MOSCOW STATE UNIVERSITY: VLADIMIR MIRONOV

 EXECUTION OF GAMESS BEGUN Mon Nov 28 22:04:34 2016

            ECHO OF THE FIRST FEW INPUT CARDS -
 INPUT CARD>!  One QM water plus two EFP waters...test of numerical gradients               
 INPUT CARD>!                                                                               
 INPUT CARD>!  FINAL R-B3LYP E= -76.4110995474, 15 iters, RMS grad= 0.009227935             
 INPUT CARD>!                                                                               
 INPUT CARD>!  This run takes 62 seconds on 2.66 GHz Cloverton (14 Apr 2015)                
 INPUT CARD>!                                                                               
 INPUT CARD>!  -------------------------------------------------------------------          
 INPUT CARD>!  ====> analytic result:    R.S GRADIENT =    0.009227506                      
 INPUT CARD>!  UNITS ARE HARTREE/BOHR    E'X               E'Y               E'Z            
 INPUT CARD>!     1 O                 .015241893        .012301486        .024082261        
 INPUT CARD>!     2 H                 .008919672       -.005301607       -.012673068        
 INPUT CARD>!     3 H                -.017515853       -.003548656       -.011688382        
 INPUT CARD>!       TOTAL QM TRANS.   .006645711        .003451223       -.000279189        
 INPUT CARD>!       TOTAL QM TORQUE   .009325613       -.015397372        .016472000        
 INPUT CARD>!   EFP           Trans GRADIENT                           TORQUE               
 INPUT CARD>!     1   -.0040905   .0026120   .0040097      .0001336   .0014090  -.0001929   
 INPUT CARD>!     2   -.0025553  -.0060633  -.0037305      .0009274   .0000100  -.0006742   
 INPUT CARD>!                                                                               
 INPUT CARD>!  ====> numerical result:   R.S GRADIENT =    0.009227935                      
 INPUT CARD>!  UNITS ARE HARTREE/BOHR    E'X               E'Y               E'Z            
 INPUT CARD>!     1 O                 .015243313        .012300676        .024083809        
 INPUT CARD>!     2 H                 .008920235       -.005301740       -.012673965        
 INPUT CARD>!     3 H                -.017516667       -.003549649       -.011688204        
 INPUT CARD>!       TOTAL QM trans.   .006646880        .003449287       -.000278360        
 INPUT CARD>!       total QM TORQUE   .009320858       -.015405836        .016461105        
 INPUT CARD>!   EFP           Trans GRADIENT                           TORQUE               
 INPUT CARD>!     1   -.0040908   .0026133   .0040092      .0001336   .0014088  -.0001932   
 INPUT CARD>!     2   -.0025561  -.0060626  -.0037308      .0009273   .0000098  -.0006746   
 INPUT CARD>!                                                                               
 INPUT CARD> $CONTRL SCFTYP=RHF dfttyp=b3lyp runtyp=gradient numgrd=.true. $END             
 INPUT CARD> $SYSTEM MWORDS=2 $END                                                          
 INPUT CARD> $BASIS  GBASIS=N31 NGAUSS=6 NDFUNC=1 NPFUNC=1 $END                             
 INPUT CARD> $DATA                                                                          
 INPUT CARD>one QM-style DFT water plus two DFT-style EFP water                             
 INPUT CARD>C1                                                                              
 INPUT CARD>O           8.0   1.1867148663   0.0880119548  -0.6883350559                    
 INPUT CARD>H           1.0   0.5364359282   0.3510489893  -0.0465420781                    
 INPUT CARD>H           1.0   2.0393740291   0.2141589462  -0.3072633248                    
 INPUT CARD> $END                                                                           
 INPUT CARD> $EFRAG                                                                         
 INPUT CARD>                                                                                
 INPUT CARD> FRAGNAME=H2ODFT                                                                
 INPUT CARD>O1    -1.2945443020   0.0507734292   0.7942183451                               
 INPUT CARD>H2    -2.0546747762   0.6073861517   0.7627712414                               
 INPUT CARD>H3    -1.4611519555  -0.6936505513   0.2267299487                               
 INPUT CARD> FRAGNAME=H2ODFT                                                                
 INPUT CARD>O1    -0.8541986554  -1.8633213069  -1.3198986625                               
 INPUT CARD>H2    -0.0104934932  -1.4313997122  -1.3906135622                               
 INPUT CARD>H3    -0.7281716414  -2.7799379008  -1.4990868517                               
 INPUT CARD> $END                                                                           
    2000000 WORDS OF MEMORY AVAILABLE

     BASIS OPTIONS
     -------------
     GBASIS=N31          IGAUSS=       6      POLAR=POPN31  
     NDFUNC=       1     NFFUNC=       0     DIFFSP=       F
     NPFUNC=       1      DIFFS=       F     BASNAM=        


     RUN TITLE
     ---------
 one QM-style DFT water plus two DFT-style EFP water                             

 THE POINT GROUP OF THE MOLECULE IS C1      
 THE ORDER OF THE PRINCIPAL AXIS IS     0

 ATOM      ATOMIC                      COORDINATES (BOHR)
           CHARGE         X                   Y                   Z
 O           8.0     2.2425659229        0.1663184782       -1.3007646434
 H           1.0     1.0137169143        0.6633863980       -0.0879517745
 H           1.0     3.8538581015        0.4047017261       -0.5806434899

          INTERNUCLEAR DISTANCES (ANGS.)
          ------------------------------

                1 O          2 H          3 H     

   1 O       0.0000000    0.9507625 *  0.9424205 *
   2 H       0.9507625 *  0.0000000    1.5315147 *
   3 H       0.9424205 *  1.5315147 *  0.0000000  

  * ... LESS THAN  3.000


     ATOMIC BASIS SET
     ----------------
 THE CONTRACTED PRIMITIVE FUNCTIONS HAVE BEEN UNNORMALIZED
 THE CONTRACTED BASIS FUNCTIONS ARE NOW NORMALIZED TO UNITY

  SHELL TYPE  PRIMITIVE        EXPONENT          CONTRACTION COEFFICIENT(S)

 O         

      1   S       1          5484.6716600    0.001831074430
      1   S       2           825.2349460    0.013950172200
      1   S       3           188.0469580    0.068445078098
      1   S       4            52.9645000    0.232714335992
      1   S       5            16.8975704    0.470192897984
      1   S       6             5.7996353    0.358520852987

      2   L       7            15.5396162   -0.110777549525    0.070874268231
      2   L       8             3.5999336   -0.148026262701    0.339752839147
      2   L       9             1.0137618    1.130767015354    0.727158577316

      3   L      10             0.2700058    1.000000000000    1.000000000000

      4   D      11             0.8000000    1.000000000000

 H         

      5   S      12            18.7311370    0.033494604338
      5   S      13             2.8253944    0.234726953484
      5   S      14             0.6401217    0.813757326146

      6   S      15             0.1612778    1.000000000000

      7   P      16             1.1000000    1.000000000000

 H         

      8   S      17            18.7311370    0.033494604338
      8   S      18             2.8253944    0.234726953484
      8   S      19             0.6401217    0.813757326146

      9   S      20             0.1612778    1.000000000000

     10   P      21             1.1000000    1.000000000000

 TOTAL NUMBER OF BASIS SET SHELLS             =   10
 NUMBER OF CARTESIAN GAUSSIAN BASIS FUNCTIONS =   25
 NUMBER OF ELECTRONS                          =   10
 CHARGE OF MOLECULE                           =    0
 SPIN MULTIPLICITY                            =    1
 NUMBER OF OCCUPIED ORBITALS (ALPHA)          =    5
 NUMBER OF OCCUPIED ORBITALS (BETA )          =    5
 TOTAL NUMBER OF ATOMS                        =    3
 THE NUCLEAR REPULSION ENERGY IS        9.2902499929

     LEBEDEV GRID-BASED DFT OPTIONS
     ------------------------------
     DFTTYP=B3LYP   
     NRAD  =      96     NLEB  =     302
     NRAD0 =      24     NLEB0 =     110
     SWOFF =    5.00E-03 (PURE SCF -> DFT)
     SWITCH=    3.00E-04 (COARSE -> TIGHT GRID)
     THRESH=    0.00E+00 GTHRE=    1.00E+00

 GRIMME'S EMPIRICAL DISPERSION CORRECTION= F

     $CONTRL OPTIONS
     ---------------
 SCFTYP=RHF          RUNTYP=GRADIENT     EXETYP=RUN     
 MPLEVL=       0     CITYP =NONE         CCTYP =NONE         VBTYP =NONE    
 DFTTYP=B3LYP        TDDFT =NONE    
 MULT  =       1     ICHARG=       0     NZVAR =       0     COORD =UNIQUE  
 PP    =NONE         RELWFN=NONE         LOCAL =NONE         NUMGRD=       T
 ISPHER=      -1     NOSYM =       0     MAXIT =      30     UNITS =ANGS    
 PLTORB=       F     MOLPLT=       F     AIMPAC=       F     FRIEND=        
 NPRINT=       7     IREST =       0     GEOM  =INPUT   
 NORMF =       0     NORMP =       0     ITOL  =      20     ICUT  =       9
 INTTYP=BEST         GRDTYP=BEST         QMTTOL= 1.0E-06

     $SYSTEM OPTIONS
     ---------------
  REPLICATED MEMORY=     2000000 WORDS (ON EVERY NODE).
 DISTRIBUTED MEMDDI=           0 MILLION WORDS IN AGGREGATE,
 MEMDDI DISTRIBUTED OVER   1 PROCESSORS IS           0 WORDS/PROCESSOR.
 TOTAL MEMORY REQUESTED ON EACH PROCESSOR=     2000000 WORDS.
 TIMLIM=      525600.00 MINUTES, OR     365.0 DAYS.
 PARALL= F  BALTYP=  DLB     KDIAG=    0  COREFL= F
 MXSEQ2=     300 MXSEQ3=     150  mem10=         0

 READING $EFRAG GROUP
 COORD=CART      POSITION=OPTIMIZE  POLMETHD=FRGSCF   NBUFFMO=0
 READING COORDINATES OF FRAGMENT   1 NAMED   H2ODFT
 READING COORDINATES OF FRAGMENT   2 NAMED   H2ODFT
 FINISHED READING $EFRAG GROUP,   2 FRAGMENTS WILL BE USED.



     SUMMARY OF THE EFFECTIVE FRAGMENT POTENTIAL MODEL CHOSEN
     --------------------------------------------------------
 TOTAL NUMBER OF MULTIPOLE POINTS   =        10  (EFP1/EFP2 ELECTROSTATICS)
 TOTAL NUMBER OF POLARIZABLE POINTS =        10  (EFP1/EFP2 INDUCTION)
 TOTAL NUMBER OF L-J POINTS         =         0  (REPULSION AND DISPERSION)
 TOTAL NUMBER OF REPULSIVE POINTS   =         6  (EFP1 REPULSION/ETC.)

 THIS IS A -EFP1- TYPE RUN, WITH PAULI REPULSION, CHARGE TRANSFER, AND
 HIGHER ORDER EFFECTS COLLECTED IN A FITTED REPULSIVE POTENTIAL.

 OPTIONS FOR EFP SCREENING:
     ELECTROSTATIC AB INITIO-EFP GAUSSIAN SCREENING IS ON
     ELECTROSTATIC EFP-EFP SCREENING CHOICE IS EXPONENTIAL, FOR CHARGE/CHARGE
     POLARIZATION EFP-EFP SCREENING IS OFF

     $EWALD OPTIONS
     -----------

     IFEWLD   =        F         TINFOIL        =        T
     BETA    =    0.200         ELECTRIC CONST =     1.00
     EPSILON =     1.00         CUT_OFF        = 0.10E+04
     CUTLIST =  1000.00         LEVEL          =    1
     KMAX    =       10         EWLDPL         =        F

            MULTIPOLE COORDINATES, ELECTRONIC AND NUCLEAR CHARGES

                  X              Y              Z           ELEC.   NUC.
 O1        -2.4463340097   0.0959478686   1.5008550467   -8.22458    8.0
 H2        -3.8846086924   1.1491380958   1.4413526656   -0.57906    1.0
 H3        -2.7818744816  -1.2909404659   0.4306505849   -0.57906    1.0
 B12       -3.1654709345   0.6225430606   1.4711041214   -0.30866    0.0
 B13       -2.6141038291  -0.5974962203   0.9657530811   -0.30866    0.0
 O1        -1.6142013978  -3.5211666971  -2.4942468037   -8.22458    8.0
 H2        -0.0309135970  -2.7106273969  -2.6269496044   -0.57906    1.0
 H3        -1.3361051847  -5.2489429797  -2.8389725849   -0.57906    1.0
 B12       -0.8225579345  -3.1158968316  -2.5605980920   -0.30866    0.0
 B13       -1.4751537283  -4.3850546230  -2.6666095822   -0.30866    0.0

   CHARGE SCREENING PARAMETERS (COEF AND ZETA)
   ICHGP=   5 AI-FRAGMENT SCREENING= 1   FRAGMENT-FRAGMENT SCREENING= 2

             GAUSSIAN DAMPING    EXPONENTIAL DAMPING
 O1         0.18612   0.54910      1.00000   1.96018
 H2         0.11218   0.38954      1.00000   2.38351
 H3         0.11218   0.38954      1.00000   2.38351
 B12       -0.71758   0.96214      1.00000   9.99991
 B13       -0.71758   0.96214      1.00000   9.99991
 O1         0.18612   0.54910      1.00000   1.96018
 H2         0.11218   0.38954      1.00000   2.38351
 H3         0.11218   0.38954      1.00000   2.38351
 B12       -0.71758   0.96214      1.00000   9.99991
 B13       -0.71758   0.96214      1.00000   9.99991

   SCREENING FOR POLARIZATION WITH EXPONENTIAL FORMULA  OFF

   SCREENING FOR POLARIZATION WITH TANG-TOENNIS FORMULA  OFF

                  DIPOLE MOMENTS AND THE SECOND MOMENT TENSOR

                  X        Y        Z           XX/XY    YY/XZ    ZZ/YZ
 O1           -0.36601 -0.06886 -0.23311     -4.03160 -3.80205 -4.26419
                                             -0.25698  0.09031  0.33840
 H2           -0.03380  0.03530  0.00543     -0.30226 -0.30909 -0.31198
                                             -0.00495  0.00261  0.00033
 H3            0.00090 -0.04148 -0.02638     -0.30939 -0.30612 -0.30782
                                              0.00227  0.00360  0.00597
 B12           0.15506 -0.11070  0.00826     -0.10155 -0.10827 -0.12405
                                             -0.01574  0.00482  0.00639
 B13           0.03854  0.14712  0.11505     -0.11653 -0.10203 -0.11531
                                             -0.00058  0.00691  0.01823
 O1            0.38408 -0.18926 -0.09851     -3.93743 -3.66164 -4.49877
                                              0.20693 -0.06618  0.11364
 H2            0.03780  0.03143 -0.00109     -0.30026 -0.30986 -0.31320
                                              0.00283 -0.00179  0.00015
 H3           -0.00327 -0.04844 -0.00776     -0.30912 -0.30137 -0.31283
                                             -0.00360 -0.00138  0.00271
 B12          -0.17054 -0.08404  0.01485     -0.09602 -0.10818 -0.12967
                                              0.01165 -0.00395  0.00186
 B13          -0.03263  0.18416  0.03726     -0.11463 -0.09035 -0.12889
                                             -0.00185 -0.00307  0.00725

                  THE THIRD MOMENT TENSOR

               XXX/XYY  YYY/YYZ  ZZZ/XZZ  XXY/YZZ  XXZ/XYZ
 O1           -0.87896 -0.15331 -0.56314 -0.08035 -0.19551
              -0.27639 -0.16850 -0.30041 -0.04020  0.00309
 H2           -0.02484  0.03937  0.00977  0.00754  0.00444
              -0.00685  0.00315 -0.01154  0.01434 -0.00027
 H3            0.00682 -0.04031 -0.02439 -0.01527 -0.00841
               0.00394 -0.00281  0.00380 -0.01106  0.00186
 B12           0.46005 -0.34490  0.01558 -0.11401  0.00485
               0.15312  0.00193  0.15249 -0.11615 -0.00092
 B13           0.09955  0.44914  0.34313  0.15247  0.11335
               0.03221  0.11492  0.03487  0.14883 -0.00013
 O1            0.91457 -0.41727 -0.24214 -0.18193 -0.08015
               0.29788 -0.06954  0.31518 -0.15357  0.00164
 H2            0.02593  0.03813  0.00001  0.00752  0.00148
               0.00996  0.00020  0.01334  0.01346  0.00041
 H3           -0.00990 -0.03882 -0.00792 -0.01716 -0.00229
              -0.00604  0.00079 -0.00322 -0.01795 -0.00078
 B12          -0.50659 -0.27208  0.04221 -0.08875  0.01363
              -0.16799  0.01205 -0.16908 -0.08756  0.00050
 B13          -0.07891  0.55739  0.11047  0.18811  0.03581
              -0.02657  0.03678 -0.02917  0.18498 -0.00006

                  POLARIZABLE POINTS AND THE POLARIZABILITY TENSOR

              X       Y       Z       XX/YZ    YY/YX    ZZ/ZX    XY/ZY     XZ
 LMO1     -2.4467  0.0959  1.5006   0.00314  0.00346  0.00388  0.00025 -0.00057
                                   -0.00058  0.00025 -0.00057 -0.00058
 LMO2     -2.6618 -0.6549  0.9040   0.80297  2.07943  1.61828  0.25995  0.15160
                                    1.08962  0.55236  0.34080  0.93898
 LMO3     -3.2535  0.6544  1.4464   2.24634  1.47859  0.77574 -0.90879  0.13897
                                   -0.20250 -1.20120 -0.05022 -0.05186
 LMO4     -2.0134  0.3860  1.2729   1.45028  1.38449  0.60397 -0.11339  0.19823
                                    0.46881  0.13093 -0.39161  0.20224
 LMO5     -2.4041 -0.1047  2.0314   0.87488  1.24853  1.31533 -0.28454 -0.01637
                                    0.07717 -0.52886  0.57347  0.34374
 LMO1     -1.6138 -3.5213 -2.4943   0.00293  0.00309  0.00446  0.00006  0.00029
                                   -0.00026  0.00006  0.00029 -0.00026
 LMO2     -1.4278 -4.4666 -2.6888   0.75475  2.83017  0.91576 -0.22256 -0.02443
                                    0.44446 -0.59129 -0.08781  0.38111
 LMO3     -0.7274 -3.1045 -2.5750   2.54746  1.11215  0.84106  0.71023 -0.17210
                                   -0.13776  1.07896 -0.10873 -0.07441
 LMO4     -1.7814 -3.4805 -1.9521   1.11362  1.37264  0.95249  0.21769 -0.10755
                                    0.10266  0.26894 -0.72114  0.41817
 LMO5     -1.9457 -3.3161 -2.9085   1.36754  1.49781  0.57340  0.07937 -0.01471
                                    0.08659  0.02812  0.59889 -0.22892

                    --------------                     ------------------
                      REP POINTS                         REP PARAMETERS  
                    --------------                     ------------------

                X         Y         Z               COEF       N          ZETA

  O1        -2.44633   0.09595   1.50086        -0.00125       0       0.07615
                                                17.16050       0       1.00000
  H2        -3.88461   1.14914   1.44135        -0.00025       0       0.09500
                                                 0.10634       0       0.60000
  H3        -2.78187  -1.29094   0.43065        -0.00025       0       0.09500
                                                 0.10634       0       0.60000
  O1        -1.61420  -3.52117  -2.49425        -0.00125       0       0.07615
                                                17.16050       0       1.00000
  H2        -0.03091  -2.71063  -2.62695        -0.00025       0       0.09500
                                                 0.10634       0       0.60000
  H3        -1.33611  -5.24894  -2.83897        -0.00025       0       0.09500
                                                 0.10634       0       0.60000

 THERE ARE   1 FRAGMENT TYPES, AND   1 FRAGMENT-FRAGMENT INTERACTIONS.

 REPULSIVE FIT FOR FRAGMENT PAIR H2ODFT-H2ODFT (COEF,EXPONENT)
 O1      -O1         -47.20425500    1.50233300
 O1      -H2          44.18476900    2.73135500
 O1      -H3          44.18476900    2.73135500
 O1      -CENTER      31.73261600    1.51840900
 H2      -O1          44.18476900    2.73135500
 H2      -H2           0.12069900    1.31532100
 H2      -H3           0.12069900    1.31532100
 H2      -CENTER      -0.06170800    0.80230100
 H3      -O1          44.18476900    2.73135500
 H3      -H2           0.12069900    1.31532100
 H3      -H3           0.12069900    1.31532100
 H3      -CENTER      -0.06170800    0.80230100
 CENTER  -O1          31.73261600    1.51840900
 CENTER  -H2          -0.06170800    0.80230100
 CENTER  -H3          -0.06170800    0.80230100
 CENTER  -CENTER     146.76346400    2.08394700

          ----------------
          PROPERTIES INPUT
          ----------------

     MOMENTS            FIELD           POTENTIAL          DENSITY
 IEMOM =       1   IEFLD =       0   IEPOT =       0   IEDEN =       0
 WHERE =COMASS     WHERE =NUCLEI     WHERE =NUCLEI     WHERE =NUCLEI  
 OUTPUT=BOTH       OUTPUT=BOTH       OUTPUT=BOTH       OUTPUT=BOTH    
 IEMINT=       0   IEFINT=       0                     IEDINT=       0
                                                       MORB  =       0
          EXTRAPOLATION IN EFFECT
          DIIS IN EFFECT
 ORBITAL PRINTING OPTION: NPREO=     1    25     2     1

     -------------------------------
     INTEGRAL TRANSFORMATION OPTIONS
     -------------------------------
     NWORD  =            0
     CUTOFF = 1.0E-09     MPTRAN =       0
     DIRTRF =       F     AOINTS =DUP     

          ----------------------
          INTEGRAL INPUT OPTIONS
          ----------------------
 NOPK  =       1 NORDER=       0 SCHWRZ=       F

     ------------------------------------------
     THE POINT GROUP IS C1 , NAXIS= 0, ORDER= 1
     ------------------------------------------

     DIMENSIONS OF THE SYMMETRY SUBSPACES ARE
 A   =   25

 ..... DONE SETTING UP THE RUN .....
 STEP CPU TIME =     0.02 TOTAL CPU TIME =        0.0 (    0.0 MIN)
 TOTAL WALL CLOCK TIME=        0.2 SECONDS, CPU UTILIZATION IS  17.65%

                    --------------------------------
                    SINGLE POINT ENERGY AND GRADIENT
                    --------------------------------

          ********************
          1 ELECTRON INTEGRALS
          ********************
 TIME TO DO ORDINARY INTEGRALS=      0.00
 TIME TO DO FRAGMENT INTEGRALS=      0.02
 ...... END OF ONE-ELECTRON INTEGRALS ......
 STEP CPU TIME =     0.02 TOTAL CPU TIME =        0.0 (    0.0 MIN)
 TOTAL WALL CLOCK TIME=        0.2 SECONDS, CPU UTILIZATION IS  27.78%

          -------------
          GUESS OPTIONS
          -------------
          GUESS =HUCKEL            NORB  =       0          NORDER=       0
          MIX   =       F          PRTMO =       F          PUNMO =       F
          TOLZ  = 1.0E-08          TOLE  = 1.0E-05
          SYMDEN=       F          PURIFY=       F

 INITIAL GUESS ORBITALS GENERATED BY HUCKEL   ROUTINE.
 HUCKEL GUESS REQUIRES      7030 WORDS.

 SYMMETRIES FOR INITIAL GUESS ORBITALS FOLLOW.   BOTH SET(S).
     5 ORBITALS ARE OCCUPIED (    1 CORE ORBITALS).
     2=A        3=A        4=A        5=A        6=A        7=A        8=A   
     9=A       10=A       11=A       12=A       13=A       14=A       15=A   
 ...... END OF INITIAL ORBITAL SELECTION ......
 STEP CPU TIME =     0.00 TOTAL CPU TIME =        0.0 (    0.0 MIN)
 TOTAL WALL CLOCK TIME=        0.2 SECONDS, CPU UTILIZATION IS  27.78%

                    ----------------------
                    AO INTEGRAL TECHNOLOGY
                    ----------------------
     S,P,L SHELL ROTATED AXIS INTEGRALS, REPROGRAMMED BY
        KAZUYA ISHIMURA (IMS) AND JOSE SIERRA (SYNSTAR).
     S,P,D,L SHELL ROTATED AXIS INTEGRALS PROGRAMMED BY
        KAZUYA ISHIMURA (INSTITUTE FOR MOLECULAR SCIENCE).
     S,P,D,F,G SHELL TO TOTAL QUARTET ANGULAR MOMENTUM SUM 5,
        ERIC PROGRAM BY GRAHAM FLETCHER (ELORET AND NASA ADVANCED
        SUPERCOMPUTING DIVISION, AMES RESEARCH CENTER).
     S,P,D,F,G,L SHELL GENERAL RYS QUADRATURE PROGRAMMED BY
        MICHEL DUPUIS (PACIFIC NORTHWEST NATIONAL LABORATORY).

          --------------------
          2 ELECTRON INTEGRALS
          --------------------

 THE -PK- OPTION IS OFF, THE INTEGRALS ARE NOT IN SUPERMATRIX FORM.
 STORING   15000 INTEGRALS/RECORD ON DISK, USING 12 BYTES/INTEGRAL.
 TWO ELECTRON INTEGRAL EVALUATION REQUIRES   90451 WORDS OF MEMORY.
 II,JST,KST,LST =  1  1  1  1 NREC =         1 INTLOC =    1
 II,JST,KST,LST =  2  1  1  1 NREC =         1 INTLOC =    2
 II,JST,KST,LST =  3  1  1  1 NREC =         1 INTLOC =   34
 II,JST,KST,LST =  4  1  1  1 NREC =         1 INTLOC =  214
 II,JST,KST,LST =  5  1  1  1 NREC =         1 INTLOC = 1189
 II,JST,KST,LST =  6  1  1  1 NREC =         1 INTLOC = 3245
 II,JST,KST,LST =  7  1  1  1 NREC =         1 INTLOC = 5710
 II,JST,KST,LST =  8  1  1  1 NREC =         2 INTLOC =  997
 II,JST,KST,LST =  9  1  1  1 NREC =         2 INTLOC = 5638
 II,JST,KST,LST = 10  1  1  1 NREC =         2 INTLOC =10973
 TOTAL NUMBER OF NONZERO TWO-ELECTRON INTEGRALS =               46726
          4 INTEGRAL RECORDS WERE STORED ON DISK FILE  8.
  ...... END OF TWO-ELECTRON INTEGRALS .....
 STEP CPU TIME =     0.02 TOTAL CPU TIME =        0.1 (    0.0 MIN)
 TOTAL WALL CLOCK TIME=        0.3 SECONDS, CPU UTILIZATION IS  21.88%

 EFP ADDITIVE CONTRIBUTIONS TO THE "NUCLEAR ENERGY":
   -- NUCLEAR CHARGE - NUCLEAR CHARGE   =        9.2902499929
   -- NUCLEAR CHARGE - EFP CHARGE       =       -0.0042919952
   -- NUCLEAR CHARGE - EFP DIPOLE       =       -0.0223999689
   -- NUCLEAR CHARGE - EFP QUADRUPOLE   =        0.0194954959
   -- NUCLEAR CHARGE - EFP OCTUPOLE     =       -0.0006712801
   -- EFP CHARGE     - EFP CHARGE       =       -0.0059803098
   -- EFP CHARGE     - EFP DIPOLE       =       -0.0026690236
   -- EFP CHARGE     - EFP QUADRUPOLE   =       -0.0013805580
   -- EFP CHARGE     - EFP OCTUPOLE     =        0.0000107435
   -- EFP DIPOLE     - EFP DIPOLE       =       -0.0004675286
   -- EFP DIPOLE     - EFP QUADRUPOLE   =       -0.0001120628
   -- EFP QUADRUPOLE - EFP QUADRUPOLE   =       -0.0003697352
   -- EFP-EFP EXCHANGE REPULSION ENERGY =        0.0021640322
   -- EFP-EFP DISPERSION ENERGY (C6)    =        0.0000000000
   -- EFP-EFP DISPERSION ENERGY (C8)    =        0.0000000000
   -- TOTAL INTERFRAGMENT INTERACTION   =       -0.0088044424
 THE TOTAL NUCLEAR CHARGE/EFP ENERGY    =        9.2735778021

          --------------------------
             R-B3LYP SCF CALCULATION
          --------------------------

     NUCLEAR ENERGY =         9.2735778021
     MAXIT =   30     NPUNCH=    2
     EXTRAP=T  DAMP=F  SHIFT=F  RSTRCT=F  DIIS=T  DEM=F  SOSCF=F
         DENSITY MATRIX CONVERGENCE THRESHOLD=  1.00E-05
     COARSE -> FINE DFT GRID SWITCH THRESHOLD=  3.00E-04 (SWITCH IN $DFT)
                   HF -> DFT SWITCH THRESHOLD=  5.00E-03 (SWOFF IN $DFT)
     MEMORY REQUIRED FOR RHF ITERS=    170178 WORDS.

 DFT CODE IS SWITCHING FROM THE FINE GRID NRAD= 96,  NLEB=  302
                      TO THE COARSE GRID NRAD0= 24, NLEB0=  110

     EXCHANGE FUNCTIONAL   =B88&HFX   
     CORRELATION FUNCTIONAL=LYP88&VWN5
     DFT THRESHOLD         =.460E-07
     GRID CHANGE THRESHOLD =.300E-03
 FOR AN EULER-MACLAURIN QUADRATURE USING  96 RADIAL POINTS:
 SMALLEST GAUSSIAN PRIMITIVE EXPONENT=        0.1612777588 OF TYPE -S-
 ON ATOM NUMBER   2 HAS RADIAL NORMALIZATION=  1.000000
  LARGEST GAUSSIAN PRIMITIVE EXPONENT=     5484.6716600000 OF TYPE -S-
 ON ATOM NUMBER   1 HAS RADIAL NORMALIZATION=  1.000000
 DFT IS SWITCHED OFF, PERFORMING PURE SCF UNTIL SWOFF THRESHOLD IS REACHED.

 ITER EX DEM     TOTAL ENERGY        E CHANGE  DENSITY CHANGE    DIIS ERROR
   1  0  0      -75.7909379256   -75.7909379256   0.224682593   0.907896496
          * * *   INITIATING DIIS PROCEDURE   * * *
   2  1  0      -76.0414552919    -0.2505173663   0.070624106   0.079825417
   3  2  0      -76.0534775267    -0.0120222348   0.021220701   0.025158200
   4  3  0      -76.0547409543    -0.0012634276   0.007117009   0.007585844
   5  4  0      -76.0548191614    -0.0000782070   0.002112597   0.002488131
 CONVERGED TO SWOFF, SO DFT CALCULATION IS NOW SWITCHED ON.
          * * *   INITIATING DIIS PROCEDURE   * * *
   6  5  0      -76.4073038037    -0.3524846423   0.082559772   0.101805701
   7  6  0      -76.4104209596    -0.0031171559   0.019007156   0.014270672
   8  7  0      -76.4103122910     0.0001086685   0.010207150   0.016328950
   9  8  0      -76.4106772086    -0.0003649176   0.000286160   0.000346396
 DFT CODE IS SWITCHING BACK TO THE FINE GRID
          * * *   INITIATING DIIS PROCEDURE   * * *
  10  9  0      -76.4110991202    -0.0004219117   0.000327813   0.000454548
  11 10  0      -76.4110995073    -0.0000003871   0.000217368   0.000188025
  12 11  0      -76.4110995066     0.0000000008   0.000106755   0.000176000
  13 12  0      -76.4110995473    -0.0000000407   0.000004560   0.000008825
  14 13  0      -76.4110995474    -0.0000000001   0.000000607   0.000000931
  15 14  0      -76.4110995474    -0.0000000000   0.000000037   0.000000098

          -----------------
          DENSITY CONVERGED
          -----------------
     TIME TO FORM FOCK OPERATORS=       1.4 SECONDS (       0.1 SEC/ITER)
     TIME TO SOLVE SCF EQUATIONS=       0.0 SECONDS (       0.0 SEC/ITER)

 FINAL R-B3LYP ENERGY IS      -76.4110995474 AFTER  15 ITERATIONS
 DFT EXCHANGE + CORRELATION ENERGY =        -7.5450839991
 TOTAL ELECTRON NUMBER             =         9.9999964992

          INDUCED DIPOLE     ATOMIC UNITS          DEBYE
                X(IND)            0.02975          0.07563
                Y(IND)           -0.07232         -0.18382
                Z(IND)           -0.09231         -0.23462

          ------------
          EIGENVECTORS
          ------------

                      1          2          3          4          5
                  -19.1193    -0.9884    -0.5131    -0.3580    -0.2834
                     A          A          A          A          A   
    1  O  1  S    0.992857  -0.212072   0.007498   0.079431  -0.004561
    2  O  1  S    0.026268   0.464697  -0.004903  -0.157928   0.014083
    3  O  1  X    0.000283   0.025327   0.510865   0.086604   0.009265
    4  O  1  Y    0.000373   0.036862  -0.040930   0.223623   0.585856
    5  O  1  Z    0.001077   0.103354  -0.077840   0.508795  -0.255111
    6  O  1  S    0.010536   0.431668  -0.067302  -0.366506   0.011256
    7  O  1  X    0.000081   0.003422   0.261060   0.052911   0.013219
    8  O  1  Y    0.000105   0.009761  -0.023431   0.164330   0.459589
    9  O  1  Z    0.000247   0.034049  -0.048524   0.356582  -0.195155
   10  O  1 XX   -0.007484  -0.001065   0.013131   0.005833   0.002690
   11  O  1 YY   -0.007777  -0.007316   0.003595   0.004406   0.014359
   12  O  1 ZZ   -0.007627  -0.001096  -0.002827   0.036615  -0.014333
   13  O  1 XY   -0.000002   0.000571   0.008290   0.001174   0.004578
   14  O  1 XZ    0.000016   0.000782   0.025605   0.005235  -0.001484
   15  O  1 YZ    0.000079   0.003943  -0.004138   0.015426   0.019018
   16  H  2  S    0.000147   0.148816  -0.237889   0.142011  -0.004285
   17  H  2  S   -0.001198   0.005902  -0.087139   0.062038   0.001960
   18  H  2  X   -0.000252   0.019443  -0.003979   0.010485  -0.000299
   19  H  2  Y    0.000080  -0.005840   0.005327   0.003536   0.018028
   20  H  2  Z    0.000190  -0.014685   0.014682   0.007715  -0.007690
   21  H  3  S    0.000076   0.158463   0.251100   0.129735  -0.006840
   22  H  3  S   -0.001248   0.020175   0.143560   0.103585  -0.009674
   23  H  3  X    0.000378  -0.023963  -0.008686  -0.007214   0.001385
   24  H  3  Y    0.000039  -0.002483  -0.004533   0.005325   0.019486
   25  H  3  Z    0.000123  -0.007795  -0.012396   0.011524  -0.008061

                      6          7          8          9         10
                    0.1050     0.2809     0.8040     0.8376     0.8957
                     A          A          A          A          A   
    1  O  1  S    0.093504   0.037309   0.023367   0.031749  -0.015519
    2  O  1  S   -0.138609  -0.178445  -0.104145   0.344426   0.256680
    3  O  1  X   -0.198693   0.390265  -0.171997  -0.174974   0.005712
    4  O  1  Y   -0.061914  -0.085895  -0.118229  -0.313052  -0.841419
    5  O  1  Z   -0.182984  -0.189793  -0.277687  -0.563142   0.197157
    6  O  1  S   -1.122966  -0.204887   0.194482  -0.584789  -0.396499
    7  O  1  X   -0.433537   0.533272  -0.221094   0.467272  -0.077731
    8  O  1  Y   -0.107051  -0.086722   0.128152   0.285970   0.963867
    9  O  1  Z   -0.301107  -0.193251   0.277457   0.498648  -0.075965
   10  O  1 XX    0.032538  -0.016958   0.210667   0.290221  -0.015340
   11  O  1 YY    0.038510  -0.033470  -0.077908   0.086050   0.121769
   12  O  1 ZZ    0.029585  -0.022276  -0.047120   0.210083   0.064012
   13  O  1 XY   -0.006441  -0.011031   0.061053  -0.055135   0.020933
   14  O  1 XZ   -0.019139  -0.025717   0.174220  -0.119053   0.039107
   15  O  1 YZ   -0.003304   0.006828   0.010065   0.066680  -0.018666
   16  H  2  S    0.059975   0.213736  -0.330896   0.670483  -0.420490
   17  H  2  S    0.281067   1.337214   0.275108  -0.542913   0.283429
   18  H  2  X   -0.012699  -0.029552  -0.066503  -0.103850   0.027908
   19  H  2  Y    0.005177   0.016901  -0.010591   0.036134  -0.007990
   20  H  2  Z    0.010797   0.039054  -0.030772   0.092204  -0.001522
   21  H  3  S    0.112606  -0.070642   0.969865  -0.102540  -0.212321
   22  H  3  S    1.479405  -0.735335  -0.908412  -0.025256   0.197686
   23  H  3  X    0.002456  -0.004289   0.152877   0.130933  -0.043309
   24  H  3  Y    0.000164  -0.006152   0.028085  -0.006154   0.001251
   25  H  3  Z    0.000388  -0.015600   0.084188  -0.001749   0.017280

                     11         12         13         14         15
                    0.9060     1.0640     1.2321     1.5360     1.5786
                     A          A          A          A          A   
    1  O  1  S   -0.026026  -0.027430  -0.064931   0.000085  -0.027891
    2  O  1  S    0.529013  -0.375313  -1.441821   0.000331  -0.340341
    3  O  1  X    0.041297  -0.810452   0.159121  -0.002044   0.005398
    4  O  1  Y    0.258113   0.049612  -0.151975  -0.002846  -0.018336
    5  O  1  Z   -0.522589   0.055700  -0.341099   0.000980  -0.046557
    6  O  1  S   -0.773662   0.968521   3.543449  -0.001098   0.939113
    7  O  1  X   -0.157979   1.764404  -0.313466   0.008940   0.056538
    8  O  1  Y   -0.171091  -0.060879   0.369343  -0.006011   0.176671
    9  O  1  Z    0.839777  -0.022441   0.888212   0.004781   0.451919
   10  O  1 XX    0.015198  -0.157272  -0.560866   0.030336   0.188243
   11  O  1 YY    0.229669  -0.081976  -0.303224  -0.083916   0.153145
   12  O  1 ZZ    0.170527  -0.136294  -0.299433   0.055099  -0.636726
   13  O  1 XY    0.026625   0.048521   0.012522   0.621847  -0.085391
   14  O  1 XZ    0.054776   0.127312   0.005846  -0.244648  -0.207213
   15  O  1 YZ   -0.041833  -0.032614   0.007095  -0.074584  -0.419154
   16  H  2  S   -0.706415  -0.133719  -0.115654   0.000047  -0.220848
   17  H  2  S    0.387576   0.992680  -1.338611   0.004841  -0.206058
   18  H  2  X    0.029233   0.145342  -0.000401  -0.008363  -0.200643
   19  H  2  Y    0.008485  -0.035315   0.047019  -0.311258  -0.071322
   20  H  2  Z    0.017531  -0.083403   0.119201   0.118070  -0.197831
   21  H  3  S   -0.414313  -0.252158  -0.202833  -0.004004  -0.225076
   22  H  3  S    0.352361  -1.235846  -0.483143  -0.003323  -0.144822
   23  H  3  X   -0.058118   0.148587  -0.030837   0.010012   0.109003
   24  H  3  Y    0.016032   0.027335   0.036612   0.328448  -0.106978
   25  H  3  Z    0.031730   0.082530   0.085559  -0.130013  -0.253061

                     16         17         18         19         20
                    1.6661     2.2740     2.2783     2.5180     2.6757
                     A          A          A          A          A   
    1  O  1  S    0.000697  -0.052302  -0.003107   0.001396  -0.001212
    2  O  1  S    0.007131  -0.584697  -0.029257  -0.024711   0.001566
    3  O  1  X   -0.002317  -0.025537  -0.086193  -0.318003  -0.001734
    4  O  1  Y   -0.026265  -0.065610   0.003754   0.025538  -0.031951
    5  O  1  Z    0.010044  -0.170104   0.003322   0.046134   0.012022
    6  O  1  S   -0.017739   1.468759   0.075159   0.022849   0.008527
    7  O  1  X    0.000461   0.083462   0.613396   0.453247  -0.011539
    8  O  1  Y   -0.171294   0.234320  -0.044819  -0.037181  -0.391514
    9  O  1  Z    0.070292   0.615441  -0.074709  -0.067168   0.151515
   10  O  1 XX    0.010823   0.503894   0.039529   0.282530  -0.011548
   11  O  1 YY    0.462039  -0.925668  -0.052697  -0.047375  -0.393140
   12  O  1 ZZ   -0.463397  -0.101749  -0.016620  -0.226525   0.394217
   13  O  1 XY    0.126257  -0.079045  -0.005900   0.285911  -0.227395
   14  O  1 XZ   -0.031833  -0.088306  -0.004861   0.745789   0.068759
   15  O  1 YZ    0.579815   0.438205   0.020144  -0.121456  -0.509245
   16  H  2  S    0.000687  -0.669629   0.194740   0.559600  -0.002277
   17  H  2  S    0.004090  -0.130294   0.103023  -0.208418  -0.001970
   18  H  2  X    0.003908   0.127342  -0.585633  -0.155442   0.015981
   19  H  2  Y    0.274321  -0.069246  -0.155927   0.138857   0.643297
   20  H  2  Z   -0.107741  -0.170670  -0.437893   0.334073  -0.245566
   21  H  3  S   -0.000775  -0.640131  -0.267306  -0.556995   0.001704
   22  H  3  S    0.000688  -0.106294  -0.108195   0.187807  -0.000753
   23  H  3  X    0.008943  -0.143666  -0.395850  -0.297433   0.018362
   24  H  3  Y    0.258091  -0.065762   0.239381  -0.100345   0.791317
   25  H  3  Z   -0.104051  -0.182501   0.589600  -0.266483  -0.304136

                     21         22         23         24         25
                    2.7044     3.0816     3.3846     3.5663     3.7398
                     A          A          A          A          A   
    1  O  1  S   -0.000061   0.021729  -0.261878   0.014344  -0.398219
    2  O  1  S    0.000180  -0.129974   0.287565   0.013038   0.066080
    3  O  1  X    0.001845   0.014388   0.152794   0.752975  -0.117075
    4  O  1  Y   -0.000684   0.017421   0.145604  -0.076839  -0.173662
    5  O  1  Z    0.000206   0.045278   0.388646  -0.153018  -0.456062
    6  O  1  S    0.001826   0.174019   2.954144  -0.211359   2.590498
    7  O  1  X   -0.000851   0.100603   0.223784   1.357592  -0.051400
    8  O  1  Y   -0.039559   0.172794   0.258344  -0.148204  -0.031451
    9  O  1  Z    0.016681   0.458532   0.681473  -0.296355  -0.089235
   10  O  1 XX    0.034314  -0.612022   0.027541   0.444472  -2.064569
   11  O  1 YY   -0.170705   0.098248  -1.123135  -0.012494  -1.156385
   12  O  1 ZZ    0.136996   0.810818  -0.636243  -0.366392  -1.442365
   13  O  1 XY    0.807541   0.147498  -0.034121   0.480713   0.060627
   14  O  1 XZ   -0.324061   0.338386   0.001558   1.275202   0.084938
   15  O  1 YZ   -0.163769   0.358992   0.257041  -0.227557  -0.150964
   16  H  2  S   -0.004757  -0.112253  -0.651369   1.281622   0.718034
   17  H  2  S    0.000945  -0.091644  -0.586918   0.635286  -0.316338
   18  H  2  X    0.018225  -0.647309  -0.559253   0.779951   0.398813
   19  H  2  Y    0.749852  -0.174206   0.214825  -0.320130  -0.213368
   20  H  2  Z   -0.291608  -0.497630   0.527233  -0.784425  -0.526911
   21  H  3  S    0.001112  -0.137348  -0.869439  -1.180020   0.779374
   22  H  3  S   -0.002166  -0.089692  -0.610250  -0.521594  -0.280767
   23  H  3  X   -0.012871   0.416954   0.865674   0.896719  -0.618886
   24  H  3  Y   -0.597325  -0.268023   0.119290   0.141799  -0.132866
   25  H  3  Z    0.234600  -0.672035   0.366903   0.422151  -0.379680
 ...... END OF RHF CALCULATION ......
 STEP CPU TIME =     1.43 TOTAL CPU TIME =        1.5 (    0.0 MIN)
 TOTAL WALL CLOCK TIME=        1.9 SECONDS, CPU UTILIZATION IS  78.13%

     ---------------------------------------------------------------------
     PROPERTIES FOR THE B3LYP    DFT FUNCTIONAL (RHF  TYPE) DENSITY MATRIX
     ---------------------------------------------------------------------

          -----------------
          ENERGY COMPONENTS
          -----------------

         WAVEFUNCTION NORMALIZATION =       1.0000000000

                ONE ELECTRON ENERGY =    -123.4491370929
                TWO ELECTRON ENERGY =      37.7591797959
           NUCLEAR REPULSION ENERGY =       9.2902499929
          EFFECTIVE FRAGMENT ENERGY =      -0.0113922433
                                      ------------------
                       TOTAL ENERGY =     -76.4110995474

 ELECTRON-ELECTRON POTENTIAL ENERGY =      37.7591797959
  NUCLEUS-ELECTRON POTENTIAL ENERGY =    -199.3066521420
   NUCLEUS-NUCLEUS POTENTIAL ENERGY =       9.2902499929
 ELECTRON-FRAGMENT MULTIPOLE ENERGY =      -0.0156077443
 ELECTRON-FRAGMENT REMAINDER ENERGY =       0.0026507068
        STATIC INTERFRAGMENT ENERGY =      -0.0088044424
            FRAGMENT-NUCLEAR ENERGY =      -0.0078677484
    TOTAL FRAGMENT INDUCTION ENERGY =      -0.0028373203
 ELECTRON-FRAGMENT EXCHANGE REPULSION =      0.0000000000
                                      ------------------
             TOTAL POTENTIAL ENERGY =    -152.2896889018
                                      ------------------
            SOLUTE POTENTIAL ENERGY =    -152.2572223531
              SOLUTE KINETIC ENERGY =      75.8785893544
                 VIRIAL RATIO (V/T) =       2.0065900493

          ---------------------------------------
          MULLIKEN AND LOWDIN POPULATION ANALYSES
          ---------------------------------------

     ATOMIC MULLIKEN POPULATION IN EACH MOLECULAR ORBITAL

                      1          2          3          4          5

                  2.000000   2.000000   2.000000   2.000000   2.000000

    1             2.000447   1.625026   1.303574   1.804944   1.978225
    2            -0.000210   0.170206   0.317865   0.099882   0.010262
    3            -0.000237   0.204767   0.378561   0.095174   0.011514

               ----- POPULATIONS IN EACH AO -----
                             MULLIKEN      LOWDIN
              1  O  1  S      1.99254     1.97588
              2  O  1  S      0.88212     0.67507
              3  O  1  X      0.83642     0.74144
              4  O  1  Y      1.11926     1.08007
              5  O  1  Z      0.99896     0.93479
              6  O  1  S      0.94338     0.47403
              7  O  1  X      0.45409     0.54169
              8  O  1  Y      0.81271     0.80795
              9  O  1  Z      0.68575     0.71760
             10  O  1 XX     -0.00277     0.18061
             11  O  1 YY     -0.01093     0.15996
             12  O  1 ZZ     -0.01223     0.16327
             13  O  1 XY      0.00112     0.00187
             14  O  1 XZ      0.00902     0.01428
             15  O  1 YZ      0.00278     0.00199
             16  H  2  S      0.48055     0.43696
             17  H  2  S      0.07884     0.19390
             18  H  2  X      0.01338     0.03680
             19  H  2  Y      0.01078     0.03459
             20  H  2  Z      0.01446     0.03889
             21  H  3  S      0.50413     0.45307
             22  H  3  S      0.14565     0.22503
             23  H  3  X      0.01814     0.04492
             24  H  3  Y      0.01105     0.03441
             25  H  3  Z      0.01080     0.03092

          ----- MULLIKEN ATOMIC OVERLAP POPULATIONS -----
          (OFF-DIAGONAL ELEMENTS NEED TO BE MULTIPLIED BY 2)

             1           2           3

    1    8.1045892
    2    0.3139126   0.3037907
    3    0.2937148  -0.0196987   0.4157628

          TOTAL MULLIKEN AND LOWDIN ATOMIC POPULATIONS
       ATOM         MULL.POP.    CHARGE          LOW.POP.     CHARGE
    1 O             8.712217   -0.712217         8.470509   -0.470509
    2 H             0.598004    0.401996         0.741135    0.258865
    3 H             0.689779    0.310221         0.788356    0.211644

          -------------------------------
          BOND ORDER AND VALENCE ANALYSIS     BOND ORDER THRESHOLD=0.050
          -------------------------------

                   BOND                       BOND                       BOND
  ATOM PAIR DIST  ORDER      ATOM PAIR DIST  ORDER      ATOM PAIR DIST  ORDER
    1   2  0.951  0.839        1   3  0.942  0.897

                       TOTAL       BONDED        FREE
      ATOM            VALENCE     VALENCE     VALENCE
    1 O                 1.735       1.735       0.000
    2 H                 0.838       0.838       0.000
    3 H                 0.896       0.896       0.000

          ----------------------------
          SOLUTE ELECTROSTATIC MOMENTS
          ----------------------------

 POINT   1           X           Y           Z (BOHR)    CHARGE
                 2.263966    0.207472   -1.192603       -0.00 (A.U.)
         DX          DY          DZ         /D/  (DEBYE)
     0.168323    0.858571    2.108526    2.282840

          ----------------------------------------
          EFFECTIVE FRAGMENT ELECTROSTATIC MOMENTS
          ----------------------------------------

 FRAGMENT   1  H2ODFT
          X           Y           Z (BOHR)    CHARGE
    -2.545592    0.077275    1.437640       -0.00 (A.U.)
         DX          DY          DZ         /D/  (DEBYE)
    -1.919681   -0.527960   -1.217150    2.333532

 FRAGMENT   2  H2ODFT
          X           Y           Z (BOHR)    CHARGE
    -1.510043   -3.572493   -2.520962       -0.00 (A.U.)
         DX          DY          DZ         /D/  (DEBYE)
     2.080412   -0.871604   -0.579390    2.328841


          ----------------------------
          SYSTEM ELECTROSTATIC MOMENTS
          ----------------------------

 POINT   1           X           Y           Z (BOHR)    CHARGE
                 2.263966    0.207472   -1.192603       -0.00 (A.U.)
         DX          DY          DZ         /D/  (DEBYE)
     0.329053   -0.540993    0.311987    0.705893
 ...... END OF PROPERTY EVALUATION ......
 STEP CPU TIME =     0.00 TOTAL CPU TIME =        1.5 (    0.0 MIN)
 TOTAL WALL CLOCK TIME=        1.9 SECONDS, CPU UTILIZATION IS  78.13%

 COMPUTING THE NUCLEAR GRADIENT BY NUMERIC DIFFERENTIATION
1 FRAGMENT  1                    -------------------
     TRANS  1                    NUCLEAR COORDINATES
       VIB  1                    -------------------

 ATOM                    X                    Y                    Z
 O                 2.2425659229        0.1663184782       -1.3007646434
 H                 1.0137169143        0.6633863980       -0.0879517745
 H                 3.8538581015        0.4047017261       -0.5806434899
 COORDINATES OF FRAGMENT MULTIPOLE CENTERS (BOHR)
 MULTIPOLE NAME        X              Y              Z
 ------------------------------------------------------------
 FRAGNAME=H2ODFT
 O1               -2.4453340097   0.0959478686   1.5008550467
 H2               -3.8836086924   1.1491380958   1.4413526656
 H3               -2.7808744816  -1.2909404659   0.4306505849
 FRAGNAME=H2ODFT
 O1               -1.6142013978  -3.5211666971  -2.4942468037
 H2               -0.0309135970  -2.7106273969  -2.6269496044
 H3               -1.3361051847  -5.2489429797  -2.8389725849
 ...... END OF ONE-ELECTRON INTEGRALS ......
 STEP CPU TIME =     0.02 TOTAL CPU TIME =        1.5 (    0.0 MIN)
 TOTAL WALL CLOCK TIME=        1.9 SECONDS, CPU UTILIZATION IS  78.35%

 EFP ADDITIVE CONTRIBUTIONS TO THE "NUCLEAR ENERGY":
   -- NUCLEAR CHARGE - NUCLEAR CHARGE   =        9.2902499929
   -- NUCLEAR CHARGE - EFP CHARGE       =       -0.0043235249
   -- NUCLEAR CHARGE - EFP DIPOLE       =       -0.0224043415
   -- NUCLEAR CHARGE - EFP QUADRUPOLE   =        0.0194815352
   -- NUCLEAR CHARGE - EFP OCTUPOLE     =       -0.0006713315
   -- EFP CHARGE     - EFP CHARGE       =       -0.0059821461
   -- EFP CHARGE     - EFP DIPOLE       =       -0.0026693869
   -- EFP CHARGE     - EFP QUADRUPOLE   =       -0.0013807790
   -- EFP CHARGE     - EFP OCTUPOLE     =        0.0000107979
   -- EFP DIPOLE     - EFP DIPOLE       =       -0.0004676169
   -- EFP DIPOLE     - EFP QUADRUPOLE   =       -0.0001119847
   -- EFP QUADRUPOLE - EFP QUADRUPOLE   =       -0.0003697741
   -- EFP-EFP EXCHANGE REPULSION ENERGY =        0.0021660668
   -- EFP-EFP DISPERSION ENERGY (C6)    =        0.0000000000
   -- EFP-EFP DISPERSION ENERGY (C8)    =        0.0000000000
   -- TOTAL INTERFRAGMENT INTERACTION   =       -0.0088048229
 THE TOTAL NUCLEAR CHARGE/EFP ENERGY    =        9.2735275073

          --------------------------
             R-B3LYP SCF CALCULATION
          --------------------------
         DENSITY MATRIX CONVERGENCE THRESHOLD=  1.00E-05
     COARSE -> FINE DFT GRID SWITCH THRESHOLD=  3.00E-04 (SWITCH IN $DFT)
                   HF -> DFT SWITCH THRESHOLD=  5.00E-03 (SWOFF IN $DFT)

 DFT CODE IS SWITCHING FROM THE FINE GRID NRAD= 96,  NLEB=  302
                      TO THE COARSE GRID NRAD0= 24, NLEB0=  110

 ITER EX DEM     TOTAL ENERGY        E CHANGE  DENSITY CHANGE    DIIS ERROR
          * * *   INITIATING DIIS PROCEDURE   * * *
   1  0  0      -76.4106810290   -76.4106810290   0.000335679   0.000465428
   2  1  0      -76.4106814383    -0.0000004093   0.000211823   0.000194602
 DFT CODE IS SWITCHING BACK TO THE FINE GRID
          * * *   INITIATING DIIS PROCEDURE   * * *
   3  2  0      -76.4111032179    -0.0004217796   0.000369069   0.000480607
   4  3  0      -76.4111036242    -0.0000004063   0.000086376   0.000090098
   5  4  0      -76.4111036277    -0.0000000035   0.000052846   0.000062740
   6  5  0      -76.4111036342    -0.0000000065   0.000010205   0.000018612
   7  6  0      -76.4111036346    -0.0000000005   0.000000456   0.000000676
   8  7  0      -76.4111036346    -0.0000000000   0.000000033   0.000000040

          -----------------
          DENSITY CONVERGED
          -----------------
     TIME TO FORM FOCK OPERATORS=       1.4 SECONDS (       0.2 SEC/ITER)
     TIME TO SOLVE SCF EQUATIONS=       0.0 SECONDS (       0.0 SEC/ITER)

 FINAL R-B3LYP ENERGY IS      -76.4111036346 AFTER   8 ITERATIONS
 DFT EXCHANGE + CORRELATION ENERGY =        -7.5450896042
 TOTAL ELECTRON NUMBER             =         9.9999964992

          INDUCED DIPOLE     ATOMIC UNITS          DEBYE
                X(IND)            0.02969          0.07547
                Y(IND)           -0.07236         -0.18392
                Z(IND)           -0.09232         -0.23465
 ...... END OF RHF CALCULATION ......
 STEP CPU TIME =     1.40 TOTAL CPU TIME =        2.9 (    0.0 MIN)
 TOTAL WALL CLOCK TIME=        3.4 SECONDS, CPU UTILIZATION IS  86.14%
1 FRAGMENT  1                    -------------------
     TRANS  2                    NUCLEAR COORDINATES
       VIB  1                    -------------------

 ATOM                    X                    Y                    Z
 O                 2.2425659229        0.1663184782       -1.3007646434
 H                 1.0137169143        0.6633863980       -0.0879517745
 H                 3.8538581015        0.4047017261       -0.5806434899
 COORDINATES OF FRAGMENT MULTIPOLE CENTERS (BOHR)
 MULTIPOLE NAME        X              Y              Z
 ------------------------------------------------------------
 FRAGNAME=H2ODFT
 O1               -2.4463340097   0.0969478686   1.5008550467
 H2               -3.8846086924   1.1501380958   1.4413526656
 H3               -2.7818744816  -1.2899404659   0.4306505849
 FRAGNAME=H2ODFT
 O1               -1.6142013978  -3.5211666971  -2.4942468037
 H2               -0.0309135970  -2.7106273969  -2.6269496044
 H3               -1.3361051847  -5.2489429797  -2.8389725849
 ...... END OF ONE-ELECTRON INTEGRALS ......
 STEP CPU TIME =     0.01 TOTAL CPU TIME =        2.9 (    0.0 MIN)
 TOTAL WALL CLOCK TIME=        3.4 SECONDS, CPU UTILIZATION IS  86.18%

 EFP ADDITIVE CONTRIBUTIONS TO THE "NUCLEAR ENERGY":
   -- NUCLEAR CHARGE - NUCLEAR CHARGE   =        9.2902499929
   -- NUCLEAR CHARGE - EFP CHARGE       =       -0.0042800713
   -- NUCLEAR CHARGE - EFP DIPOLE       =       -0.0224008864
   -- NUCLEAR CHARGE - EFP QUADRUPOLE   =        0.0195103497
   -- NUCLEAR CHARGE - EFP OCTUPOLE     =       -0.0006708937
   -- EFP CHARGE     - EFP CHARGE       =       -0.0059765782
   -- EFP CHARGE     - EFP DIPOLE       =       -0.0026682193
   -- EFP CHARGE     - EFP QUADRUPOLE   =       -0.0013792128
   -- EFP CHARGE     - EFP OCTUPOLE     =        0.0000107891
   -- EFP DIPOLE     - EFP DIPOLE       =       -0.0004673451
   -- EFP DIPOLE     - EFP QUADRUPOLE   =       -0.0001121213
   -- EFP QUADRUPOLE - EFP QUADRUPOLE   =       -0.0003692470
   -- EFP-EFP EXCHANGE REPULSION ENERGY =        0.0021585565
   -- EFP-EFP DISPERSION ENERGY (C6)    =        0.0000000000
   -- EFP-EFP DISPERSION ENERGY (C8)    =        0.0000000000
   -- TOTAL INTERFRAGMENT INTERACTION   =       -0.0088033783
 THE TOTAL NUCLEAR CHARGE/EFP ENERGY    =        9.2736051129

          --------------------------
             R-B3LYP SCF CALCULATION
          --------------------------
         DENSITY MATRIX CONVERGENCE THRESHOLD=  1.00E-05
     COARSE -> FINE DFT GRID SWITCH THRESHOLD=  3.00E-04 (SWITCH IN $DFT)
                   HF -> DFT SWITCH THRESHOLD=  5.00E-03 (SWOFF IN $DFT)

 DFT CODE IS SWITCHING FROM THE FINE GRID NRAD= 96,  NLEB=  302
                      TO THE COARSE GRID NRAD0= 24, NLEB0=  110

 ITER EX DEM     TOTAL ENERGY        E CHANGE  DENSITY CHANGE    DIIS ERROR
          * * *   INITIATING DIIS PROCEDURE   * * *
   1  0  0      -76.4106743274   -76.4106743274   0.000329217   0.000470990
   2  1  0      -76.4106747302    -0.0000004028   0.000220289   0.000201314
 DFT CODE IS SWITCHING BACK TO THE FINE GRID
          * * *   INITIATING DIIS PROCEDURE   * * *
   3  2  0      -76.4110965130    -0.0004217828   0.000374516   0.000481443
   4  3  0      -76.4110969190    -0.0000004060   0.000094983   0.000092708
   5  4  0      -76.4110969222    -0.0000000032   0.000057189   0.000070267
   6  5  0      -76.4110969301    -0.0000000080   0.000009784   0.000018045
   7  6  0      -76.4110969306    -0.0000000004   0.000000470   0.000000699

          -----------------
          DENSITY CONVERGED
          -----------------
     TIME TO FORM FOCK OPERATORS=       1.1 SECONDS (       0.2 SEC/ITER)
     TIME TO SOLVE SCF EQUATIONS=       0.0 SECONDS (       0.0 SEC/ITER)

 FINAL R-B3LYP ENERGY IS      -76.4110969306 AFTER   7 ITERATIONS
 DFT EXCHANGE + CORRELATION ENERGY =        -7.5450842885
 TOTAL ELECTRON NUMBER             =         9.9999964992

          INDUCED DIPOLE     ATOMIC UNITS          DEBYE
                X(IND)            0.02971          0.07552
                Y(IND)           -0.07228         -0.18371
                Z(IND)           -0.09225         -0.23448
 ...... END OF RHF CALCULATION ......
 STEP CPU TIME =     1.06 TOTAL CPU TIME =        4.0 (    0.1 MIN)
 TOTAL WALL CLOCK TIME=        4.5 SECONDS, CPU UTILIZATION IS  88.27%
1 FRAGMENT  1                    -------------------
     TRANS  3                    NUCLEAR COORDINATES
       VIB  1                    -------------------

 ATOM                    X                    Y                    Z
 O                 2.2425659229        0.1663184782       -1.3007646434
 H                 1.0137169143        0.6633863980       -0.0879517745
 H                 3.8538581015        0.4047017261       -0.5806434899
 COORDINATES OF FRAGMENT MULTIPOLE CENTERS (BOHR)
 MULTIPOLE NAME        X              Y              Z
 ------------------------------------------------------------
 FRAGNAME=H2ODFT
 O1               -2.4463340097   0.0959478686   1.5018550467
 H2               -3.8846086924   1.1491380958   1.4423526656
 H3               -2.7818744816  -1.2909404659   0.4316505849
 FRAGNAME=H2ODFT
 O1               -1.6142013978  -3.5211666971  -2.4942468037
 H2               -0.0309135970  -2.7106273969  -2.6269496044
 H3               -1.3361051847  -5.2489429797  -2.8389725849
 ...... END OF ONE-ELECTRON INTEGRALS ......
 STEP CPU TIME =     0.00 TOTAL CPU TIME =        4.0 (    0.1 MIN)
 TOTAL WALL CLOCK TIME=        4.6 SECONDS, CPU UTILIZATION IS  87.50%

 EFP ADDITIVE CONTRIBUTIONS TO THE "NUCLEAR ENERGY":
   -- NUCLEAR CHARGE - NUCLEAR CHARGE   =        9.2902499929
   -- NUCLEAR CHARGE - EFP CHARGE       =       -0.0042490044
   -- NUCLEAR CHARGE - EFP DIPOLE       =       -0.0223780395
   -- NUCLEAR CHARGE - EFP QUADRUPOLE   =        0.0194943974
   -- NUCLEAR CHARGE - EFP OCTUPOLE     =       -0.0006712085
   -- EFP CHARGE     - EFP CHARGE       =       -0.0059755448
   -- EFP CHARGE     - EFP DIPOLE       =       -0.0026674926
   -- EFP CHARGE     - EFP QUADRUPOLE   =       -0.0013801456
   -- EFP CHARGE     - EFP OCTUPOLE     =        0.0000107216
   -- EFP DIPOLE     - EFP DIPOLE       =       -0.0004673362
   -- EFP DIPOLE     - EFP QUADRUPOLE   =       -0.0001118604
   -- EFP QUADRUPOLE - EFP QUADRUPOLE   =       -0.0003697144
   -- EFP-EFP EXCHANGE REPULSION ENERGY =        0.0021579009
   -- EFP-EFP DISPERSION ENERGY (C6)    =        0.0000000000
   -- EFP-EFP DISPERSION ENERGY (C8)    =        0.0000000000
   -- TOTAL INTERFRAGMENT INTERACTION   =       -0.0088034714
 THE TOTAL NUCLEAR CHARGE/EFP ENERGY    =        9.2736426664

          --------------------------
             R-B3LYP SCF CALCULATION
          --------------------------
         DENSITY MATRIX CONVERGENCE THRESHOLD=  1.00E-05
     COARSE -> FINE DFT GRID SWITCH THRESHOLD=  3.00E-04 (SWITCH IN $DFT)
                   HF -> DFT SWITCH THRESHOLD=  5.00E-03 (SWOFF IN $DFT)

 DFT CODE IS SWITCHING FROM THE FINE GRID NRAD= 96,  NLEB=  302
                      TO THE COARSE GRID NRAD0= 24, NLEB0=  110

 ITER EX DEM     TOTAL ENERGY        E CHANGE  DENSITY CHANGE    DIIS ERROR
          * * *   INITIATING DIIS PROCEDURE   * * *
   1  0  0      -76.4106729312   -76.4106729312   0.000319653   0.000474564
   2  1  0      -76.4106733318    -0.0000004006   0.000225304   0.000205550
 DFT CODE IS SWITCHING BACK TO THE FINE GRID
          * * *   INITIATING DIIS PROCEDURE   * * *
   3  2  0      -76.4110951167    -0.0004217849   0.000377673   0.000481936
   4  3  0      -76.4110955225    -0.0000004058   0.000100025   0.000094214
   5  4  0      -76.4110955255    -0.0000000030   0.000059697   0.000074619
   6  5  0      -76.4110955344    -0.0000000089   0.000009536   0.000017701
   7  6  0      -76.4110955348    -0.0000000004   0.000000477   0.000000710

          -----------------
          DENSITY CONVERGED
          -----------------
     TIME TO FORM FOCK OPERATORS=       0.9 SECONDS (       0.1 SEC/ITER)
     TIME TO SOLVE SCF EQUATIONS=       0.0 SECONDS (       0.0 SEC/ITER)

 FINAL R-B3LYP ENERGY IS      -76.4110955348 AFTER   7 ITERATIONS
 DFT EXCHANGE + CORRELATION ENERGY =        -7.5450809031
 TOTAL ELECTRON NUMBER             =         9.9999964993

          INDUCED DIPOLE     ATOMIC UNITS          DEBYE
                X(IND)            0.02975          0.07563
                Y(IND)           -0.07225         -0.18365
                Z(IND)           -0.09226         -0.23449
 ...... END OF RHF CALCULATION ......
 STEP CPU TIME =     0.91 TOTAL CPU TIME =        4.9 (    0.1 MIN)
 TOTAL WALL CLOCK TIME=        5.5 SECONDS, CPU UTILIZATION IS  88.77%
1 FRAGMENT  1                    -------------------
       ROT  1                    NUCLEAR COORDINATES
       VIB  1                    -------------------

 ATOM                    X                    Y                    Z
 O                 2.2425659229        0.1663184782       -1.3007646434
 H                 1.0137169143        0.6633863980       -0.0879517745
 H                 3.8538581015        0.4047017261       -0.5806434899
 COORDINATES OF FRAGMENT MULTIPOLE CENTERS (BOHR)
 MULTIPOLE NAME        X              Y              Z
 ------------------------------------------------------------
 FRAGNAME=H2ODFT
 O1               -2.4463340097   0.0958846438   1.5008736879
 H2               -3.8846086924   1.1491338468   1.4424245267
 H3               -2.7818744816  -1.2899327930   0.4292828732
 FRAGNAME=H2ODFT
 O1               -1.6142013978  -3.5211666971  -2.4942468037
 H2               -0.0309135970  -2.7106273969  -2.6269496044
 H3               -1.3361051847  -5.2489429797  -2.8389725849
 ...... END OF ONE-ELECTRON INTEGRALS ......
 STEP CPU TIME =     0.01 TOTAL CPU TIME =        4.9 (    0.1 MIN)
 TOTAL WALL CLOCK TIME=        5.5 SECONDS, CPU UTILIZATION IS  88.79%

 EFP ADDITIVE CONTRIBUTIONS TO THE "NUCLEAR ENERGY":
   -- NUCLEAR CHARGE - NUCLEAR CHARGE   =        9.2902499929
   -- NUCLEAR CHARGE - EFP CHARGE       =       -0.0042513756
   -- NUCLEAR CHARGE - EFP DIPOLE       =       -0.0223964035
   -- NUCLEAR CHARGE - EFP QUADRUPOLE   =        0.0195311173
   -- NUCLEAR CHARGE - EFP OCTUPOLE     =       -0.0006703591
   -- EFP CHARGE     - EFP CHARGE       =       -0.0059823893
   -- EFP CHARGE     - EFP DIPOLE       =       -0.0026705464
   -- EFP CHARGE     - EFP QUADRUPOLE   =       -0.0013790014
   -- EFP CHARGE     - EFP OCTUPOLE     =        0.0000108909
   -- EFP DIPOLE     - EFP DIPOLE       =       -0.0004675367
   -- EFP DIPOLE     - EFP QUADRUPOLE   =       -0.0001126004
   -- EFP QUADRUPOLE - EFP QUADRUPOLE   =       -0.0003689393
   -- EFP-EFP EXCHANGE REPULSION ENERGY =        0.0021647984
   -- EFP-EFP DISPERSION ENERGY (C6)    =        0.0000000000
   -- EFP-EFP DISPERSION ENERGY (C8)    =        0.0000000000
   -- TOTAL INTERFRAGMENT INTERACTION   =       -0.0088053241
 THE TOTAL NUCLEAR CHARGE/EFP ENERGY    =        9.2736576479

          --------------------------
             R-B3LYP SCF CALCULATION
          --------------------------
         DENSITY MATRIX CONVERGENCE THRESHOLD=  1.00E-05
     COARSE -> FINE DFT GRID SWITCH THRESHOLD=  3.00E-04 (SWITCH IN $DFT)
                   HF -> DFT SWITCH THRESHOLD=  5.00E-03 (SWOFF IN $DFT)

 DFT CODE IS SWITCHING FROM THE FINE GRID NRAD= 96,  NLEB=  302
                      TO THE COARSE GRID NRAD0= 24, NLEB0=  110

 ITER EX DEM     TOTAL ENERGY        E CHANGE  DENSITY CHANGE    DIIS ERROR
          * * *   INITIATING DIIS PROCEDURE   * * *
   1  0  0      -76.4106767922   -76.4106767922   0.000325200   0.000472538
   2  1  0      -76.4106771949    -0.0000004027   0.000220994   0.000202187
 DFT CODE IS SWITCHING BACK TO THE FINE GRID
          * * *   INITIATING DIIS PROCEDURE   * * *
   3  2  0      -76.4110989778    -0.0004217829   0.000374677   0.000481497
   4  3  0      -76.4110993837    -0.0000004060   0.000095576   0.000092829
   5  4  0      -76.4110993869    -0.0000000031   0.000057471   0.000070756
   6  5  0      -76.4110993950    -0.0000000081   0.000009753   0.000018002
   7  6  0      -76.4110993954    -0.0000000004   0.000000471   0.000000700

          -----------------
          DENSITY CONVERGED
          -----------------
     TIME TO FORM FOCK OPERATORS=       0.9 SECONDS (       0.1 SEC/ITER)
     TIME TO SOLVE SCF EQUATIONS=       0.0 SECONDS (       0.0 SEC/ITER)

 FINAL R-B3LYP ENERGY IS      -76.4110993954 AFTER   7 ITERATIONS
 DFT EXCHANGE + CORRELATION ENERGY =        -7.5450836438
 TOTAL ELECTRON NUMBER             =         9.9999964992

          INDUCED DIPOLE     ATOMIC UNITS          DEBYE
                X(IND)            0.02977          0.07567
                Y(IND)           -0.07236         -0.18393
                Z(IND)           -0.09235         -0.23473
 ...... END OF RHF CALCULATION ......
 STEP CPU TIME =     0.95 TOTAL CPU TIME =        5.9 (    0.1 MIN)
 TOTAL WALL CLOCK TIME=        6.7 SECONDS, CPU UTILIZATION IS  87.99%
1 FRAGMENT  1                    -------------------
       ROT  2                    NUCLEAR COORDINATES
       VIB  1                    -------------------

 ATOM                    X                    Y                    Z
 O                 2.2425659229        0.1663184782       -1.3007646434
 H                 1.0137169143        0.6633863980       -0.0879517745
 H                 3.8538581015        0.4047017261       -0.5806434899
 COORDINATES OF FRAGMENT MULTIPOLE CENTERS (BOHR)
 MULTIPOLE NAME        X              Y              Z
 ------------------------------------------------------------
 FRAGNAME=H2ODFT
 O1               -2.4462708439   0.0959478686   1.5007557569
 H2               -3.8846043097   1.1491380958   1.4426916801
 H3               -2.7828813522  -1.2909404659   0.4308873707
 FRAGNAME=H2ODFT
 O1               -1.6142013978  -3.5211666971  -2.4942468037
 H2               -0.0309135970  -2.7106273969  -2.6269496044
 H3               -1.3361051847  -5.2489429797  -2.8389725849
 ...... END OF ONE-ELECTRON INTEGRALS ......
 STEP CPU TIME =     0.01 TOTAL CPU TIME =        5.9 (    0.1 MIN)
 TOTAL WALL CLOCK TIME=        6.7 SECONDS, CPU UTILIZATION IS  88.01%

 EFP ADDITIVE CONTRIBUTIONS TO THE "NUCLEAR ENERGY":
   -- NUCLEAR CHARGE - NUCLEAR CHARGE   =        9.2902499929
   -- NUCLEAR CHARGE - EFP CHARGE       =       -0.0044172174
   -- NUCLEAR CHARGE - EFP DIPOLE       =       -0.0224902708
   -- NUCLEAR CHARGE - EFP QUADRUPOLE   =        0.0195317397
   -- NUCLEAR CHARGE - EFP OCTUPOLE     =       -0.0006714872
   -- EFP CHARGE     - EFP CHARGE       =       -0.0059781358
   -- EFP CHARGE     - EFP DIPOLE       =       -0.0026681135
   -- EFP CHARGE     - EFP QUADRUPOLE   =       -0.0013807481
   -- EFP CHARGE     - EFP OCTUPOLE     =        0.0000106341
   -- EFP DIPOLE     - EFP DIPOLE       =       -0.0004673081
   -- EFP DIPOLE     - EFP QUADRUPOLE   =       -0.0001123043
   -- EFP QUADRUPOLE - EFP QUADRUPOLE   =       -0.0003696621
   -- EFP-EFP EXCHANGE REPULSION ENERGY =        0.0021625391
   -- EFP-EFP DISPERSION ENERGY (C6)    =        0.0000000000
   -- EFP-EFP DISPERSION ENERGY (C8)    =        0.0000000000
   -- TOTAL INTERFRAGMENT INTERACTION   =       -0.0088030988
 THE TOTAL NUCLEAR CHARGE/EFP ENERGY    =        9.2733996585

          --------------------------
             R-B3LYP SCF CALCULATION
          --------------------------
         DENSITY MATRIX CONVERGENCE THRESHOLD=  1.00E-05
     COARSE -> FINE DFT GRID SWITCH THRESHOLD=  3.00E-04 (SWITCH IN $DFT)
                   HF -> DFT SWITCH THRESHOLD=  5.00E-03 (SWOFF IN $DFT)

 DFT CODE IS SWITCHING FROM THE FINE GRID NRAD= 96,  NLEB=  302
                      TO THE COARSE GRID NRAD0= 24, NLEB0=  110

 ITER EX DEM     TOTAL ENERGY        E CHANGE  DENSITY CHANGE    DIIS ERROR
          * * *   INITIATING DIIS PROCEDURE   * * *
   1  0  0      -76.4106755255   -76.4106755255   0.000326161   0.000468819
   2  1  0      -76.4106759290    -0.0000004035   0.000221020   0.000201535
 DFT CODE IS SWITCHING BACK TO THE FINE GRID
          * * *   INITIATING DIIS PROCEDURE   * * *
   3  2  0      -76.4110977110    -0.0004217820   0.000375854   0.000481578
   4  3  0      -76.4110981170    -0.0000004059   0.000096314   0.000093105
   5  4  0      -76.4110981201    -0.0000000031   0.000057876   0.000071469
   6  5  0      -76.4110981283    -0.0000000082   0.000009718   0.000017950
   7  6  0      -76.4110981287    -0.0000000004   0.000000472   0.000000703

          -----------------
          DENSITY CONVERGED
          -----------------
     TIME TO FORM FOCK OPERATORS=       0.9 SECONDS (       0.1 SEC/ITER)
     TIME TO SOLVE SCF EQUATIONS=       0.0 SECONDS (       0.0 SEC/ITER)

 FINAL R-B3LYP ENERGY IS      -76.4110981287 AFTER   7 ITERATIONS
 DFT EXCHANGE + CORRELATION ENERGY =        -7.5450836738
 TOTAL ELECTRON NUMBER             =         9.9999964992

          INDUCED DIPOLE     ATOMIC UNITS          DEBYE
                X(IND)            0.02972          0.07555
                Y(IND)           -0.07228         -0.18372
                Z(IND)           -0.09225         -0.23448
 ...... END OF RHF CALCULATION ......
 STEP CPU TIME =     0.93 TOTAL CPU TIME =        6.8 (    0.1 MIN)
 TOTAL WALL CLOCK TIME=        7.7 SECONDS, CPU UTILIZATION IS  88.77%
1 FRAGMENT  1                    -------------------
       ROT  3                    NUCLEAR COORDINATES
       VIB  1                    -------------------

 ATOM                    X                    Y                    Z
 O                 2.2425659229        0.1663184782       -1.3007646434
 H                 1.0137169143        0.6633863980       -0.0879517745
 H                 3.8538581015        0.4047017261       -0.5806434899
 COORDINATES OF FRAGMENT MULTIPOLE CENTERS (BOHR)
 MULTIPOLE NAME        X              Y              Z
 ------------------------------------------------------------
 FRAGNAME=H2ODFT
 O1               -2.4463527323   0.0960471175   1.5008550467
 H2               -3.8856798858   1.1477985436   1.4413526656
 H3               -2.7805061482  -1.2911760641   0.4306505849
 FRAGNAME=H2ODFT
 O1               -1.6142013978  -3.5211666971  -2.4942468037
 H2               -0.0309135970  -2.7106273969  -2.6269496044
 H3               -1.3361051847  -5.2489429797  -2.8389725849
 ...... END OF ONE-ELECTRON INTEGRALS ......
 STEP CPU TIME =     0.01 TOTAL CPU TIME =        6.8 (    0.1 MIN)
 TOTAL WALL CLOCK TIME=        7.7 SECONDS, CPU UTILIZATION IS  88.79%

 EFP ADDITIVE CONTRIBUTIONS TO THE "NUCLEAR ENERGY":
   -- NUCLEAR CHARGE - NUCLEAR CHARGE   =        9.2902499929
   -- NUCLEAR CHARGE - EFP CHARGE       =       -0.0042261788
   -- NUCLEAR CHARGE - EFP DIPOLE       =       -0.0224018757
   -- NUCLEAR CHARGE - EFP QUADRUPOLE   =        0.0195671597
   -- NUCLEAR CHARGE - EFP OCTUPOLE     =       -0.0006695413
   -- EFP CHARGE     - EFP CHARGE       =       -0.0059827316
   -- EFP CHARGE     - EFP DIPOLE       =       -0.0026698076
   -- EFP CHARGE     - EFP QUADRUPOLE   =       -0.0013807352
   -- EFP CHARGE     - EFP OCTUPOLE     =        0.0000108588
   -- EFP DIPOLE     - EFP DIPOLE       =       -0.0004676796
   -- EFP DIPOLE     - EFP QUADRUPOLE   =       -0.0001122232
   -- EFP QUADRUPOLE - EFP QUADRUPOLE   =       -0.0003693762
   -- EFP-EFP EXCHANGE REPULSION ENERGY =        0.0021655980
   -- EFP-EFP DISPERSION ENERGY (C6)    =        0.0000000000
   -- EFP-EFP DISPERSION ENERGY (C8)    =        0.0000000000
   -- TOTAL INTERFRAGMENT INTERACTION   =       -0.0088060967
 THE TOTAL NUCLEAR CHARGE/EFP ENERGY    =        9.2737134601

          --------------------------
             R-B3LYP SCF CALCULATION
          --------------------------
         DENSITY MATRIX CONVERGENCE THRESHOLD=  1.00E-05
     COARSE -> FINE DFT GRID SWITCH THRESHOLD=  3.00E-04 (SWITCH IN $DFT)
                   HF -> DFT SWITCH THRESHOLD=  5.00E-03 (SWOFF IN $DFT)

 DFT CODE IS SWITCHING FROM THE FINE GRID NRAD= 96,  NLEB=  302
                      TO THE COARSE GRID NRAD0= 24, NLEB0=  110

 ITER EX DEM     TOTAL ENERGY        E CHANGE  DENSITY CHANGE    DIIS ERROR
          * * *   INITIATING DIIS PROCEDURE   * * *
   1  0  0      -76.4106771194   -76.4106771194   0.000322370   0.000472893
   2  1  0      -76.4106775212    -0.0000004018   0.000221597   0.000202749
 DFT CODE IS SWITCHING BACK TO THE FINE GRID
          * * *   INITIATING DIIS PROCEDURE   * * *
   3  2  0      -76.4110993049    -0.0004217837   0.000375080   0.000481540
   4  3  0      -76.4110997109    -0.0000004060   0.000096132   0.000093093
   5  4  0      -76.4110997140    -0.0000000031   0.000057755   0.000071245
   6  5  0      -76.4110997222    -0.0000000082   0.000009727   0.000017968
   7  6  0      -76.4110997227    -0.0000000004   0.000000471   0.000000702

          -----------------
          DENSITY CONVERGED
          -----------------
     TIME TO FORM FOCK OPERATORS=       0.9 SECONDS (       0.1 SEC/ITER)
     TIME TO SOLVE SCF EQUATIONS=       0.0 SECONDS (       0.0 SEC/ITER)

 FINAL R-B3LYP ENERGY IS      -76.4110997227 AFTER   7 ITERATIONS
 DFT EXCHANGE + CORRELATION ENERGY =        -7.5450836480
 TOTAL ELECTRON NUMBER             =         9.9999964992

          INDUCED DIPOLE     ATOMIC UNITS          DEBYE
                X(IND)            0.02976          0.07564
                Y(IND)           -0.07236         -0.18393
                Z(IND)           -0.09234         -0.23472
 ...... END OF RHF CALCULATION ......
 STEP CPU TIME =     0.95 TOTAL CPU TIME =        7.8 (    0.1 MIN)
 TOTAL WALL CLOCK TIME=        8.7 SECONDS, CPU UTILIZATION IS  89.40%
1 FRAGMENT  2                    -------------------
     TRANS  1                    NUCLEAR COORDINATES
       VIB  1                    -------------------

 ATOM                    X                    Y                    Z
 O                 2.2425659229        0.1663184782       -1.3007646434
 H                 1.0137169143        0.6633863980       -0.0879517745
 H                 3.8538581015        0.4047017261       -0.5806434899
 COORDINATES OF FRAGMENT MULTIPOLE CENTERS (BOHR)
 MULTIPOLE NAME        X              Y              Z
 ------------------------------------------------------------
 FRAGNAME=H2ODFT
 O1               -2.4463340097   0.0959478686   1.5008550467
 H2               -3.8846086924   1.1491380958   1.4413526656
 H3               -2.7818744816  -1.2909404659   0.4306505849
 FRAGNAME=H2ODFT
 O1               -1.6132013978  -3.5211666971  -2.4942468037
 H2               -0.0299135970  -2.7106273969  -2.6269496044
 H3               -1.3351051847  -5.2489429797  -2.8389725849
 ...... END OF ONE-ELECTRON INTEGRALS ......
 STEP CPU TIME =     0.01 TOTAL CPU TIME =        7.8 (    0.1 MIN)
 TOTAL WALL CLOCK TIME=        8.7 SECONDS, CPU UTILIZATION IS  89.41%

 EFP ADDITIVE CONTRIBUTIONS TO THE "NUCLEAR ENERGY":
   -- NUCLEAR CHARGE - NUCLEAR CHARGE   =        9.2902499929
   -- NUCLEAR CHARGE - EFP CHARGE       =       -0.0042826259
   -- NUCLEAR CHARGE - EFP DIPOLE       =       -0.0224067407
   -- NUCLEAR CHARGE - EFP QUADRUPOLE   =        0.0195115801
   -- NUCLEAR CHARGE - EFP OCTUPOLE     =       -0.0006711811
   -- EFP CHARGE     - EFP CHARGE       =       -0.0059784722
   -- EFP CHARGE     - EFP DIPOLE       =       -0.0026686595
   -- EFP CHARGE     - EFP QUADRUPOLE   =       -0.0013803367
   -- EFP CHARGE     - EFP OCTUPOLE     =        0.0000106891
   -- EFP DIPOLE     - EFP DIPOLE       =       -0.0004674402
   -- EFP DIPOLE     - EFP QUADRUPOLE   =       -0.0001121409
   -- EFP QUADRUPOLE - EFP QUADRUPOLE   =       -0.0003696962
   -- EFP-EFP EXCHANGE REPULSION ENERGY =        0.0021619974
   -- EFP-EFP DISPERSION ENERGY (C6)    =        0.0000000000
   -- EFP-EFP DISPERSION ENERGY (C8)    =        0.0000000000
   -- TOTAL INTERFRAGMENT INTERACTION   =       -0.0088040591
 THE TOTAL NUCLEAR CHARGE/EFP ENERGY    =        9.2735969662

          --------------------------
             R-B3LYP SCF CALCULATION
          --------------------------
         DENSITY MATRIX CONVERGENCE THRESHOLD=  1.00E-05
     COARSE -> FINE DFT GRID SWITCH THRESHOLD=  3.00E-04 (SWITCH IN $DFT)
                   HF -> DFT SWITCH THRESHOLD=  5.00E-03 (SWOFF IN $DFT)

 DFT CODE IS SWITCHING FROM THE FINE GRID NRAD= 96,  NLEB=  302
                      TO THE COARSE GRID NRAD0= 24, NLEB0=  110

 ITER EX DEM     TOTAL ENERGY        E CHANGE  DENSITY CHANGE    DIIS ERROR
          * * *   INITIATING DIIS PROCEDURE   * * *
   1  0  0      -76.4106794968   -76.4106794968   0.000320687   0.000469240
   2  1  0      -76.4106799010    -0.0000004042   0.000218931   0.000200987
 DFT CODE IS SWITCHING BACK TO THE FINE GRID
          * * *   INITIATING DIIS PROCEDURE   * * *
   3  2  0      -76.4111016825    -0.0004217816   0.000373688   0.000481292
   4  3  0      -76.4111020886    -0.0000004060   0.000093579   0.000092275
   5  4  0      -76.4111020918    -0.0000000032   0.000056487   0.000069061
   6  5  0      -76.4111020995    -0.0000000077   0.000009847   0.000018129
   7  6  0      -76.4111020999    -0.0000000005   0.000000468   0.000000695

          -----------------
          DENSITY CONVERGED
          -----------------
     TIME TO FORM FOCK OPERATORS=       0.9 SECONDS (       0.1 SEC/ITER)
     TIME TO SOLVE SCF EQUATIONS=       0.0 SECONDS (       0.0 SEC/ITER)

 FINAL R-B3LYP ENERGY IS      -76.4111020999 AFTER   7 ITERATIONS
 DFT EXCHANGE + CORRELATION ENERGY =        -7.5450843345
 TOTAL ELECTRON NUMBER             =         9.9999964992

          INDUCED DIPOLE     ATOMIC UNITS          DEBYE
                X(IND)            0.02980          0.07574
                Y(IND)           -0.07227         -0.18371
                Z(IND)           -0.09229         -0.23458
 ...... END OF RHF CALCULATION ......
 STEP CPU TIME =     0.90 TOTAL CPU TIME =        8.7 (    0.1 MIN)
 TOTAL WALL CLOCK TIME=        9.6 SECONDS, CPU UTILIZATION IS  90.03%
1 FRAGMENT  2                    -------------------
     TRANS  2                    NUCLEAR COORDINATES
       VIB  1                    -------------------

[...]
   -- EFP-EFP DISPERSION ENERGY (C6)    =        0.0000000000
   -- EFP-EFP DISPERSION ENERGY (C8)    =        0.0000000000
   -- TOTAL INTERFRAGMENT INTERACTION   =       -0.0088044424
 THE TOTAL NUCLEAR CHARGE/EFP ENERGY    =        9.2711812697

          --------------------------
             R-B3LYP SCF CALCULATION
          --------------------------
         DENSITY MATRIX CONVERGENCE THRESHOLD=  1.00E-05
     COARSE -> FINE DFT GRID SWITCH THRESHOLD=  3.00E-04 (SWITCH IN $DFT)
                   HF -> DFT SWITCH THRESHOLD=  5.00E-03 (SWOFF IN $DFT)

 DFT CODE IS SWITCHING FROM THE FINE GRID NRAD= 96,  NLEB=  302
                      TO THE COARSE GRID NRAD0= 24, NLEB0=  110

 ITER EX DEM     TOTAL ENERGY        E CHANGE  DENSITY CHANGE    DIIS ERROR
          * * *   INITIATING DIIS PROCEDURE   * * *
   1  0  0      -76.4107026924   -76.4107026924   0.000328039   0.000532556
   2  1  0      -76.4107031665    -0.0000004741   0.000293532   0.000281566
 DFT CODE IS SWITCHING BACK TO THE FINE GRID
          * * *   INITIATING DIIS PROCEDURE   * * *
   3  2  0      -76.4111163769    -0.0004132104   0.000411721   0.000485297
   4  3  0      -76.4111167752    -0.0000003983   0.000150027   0.000110158
   5  4  0      -76.4111167776    -0.0000000024   0.000083378   0.000115484
   6  5  0      -76.4111167979    -0.0000000203   0.000007354   0.000015156
   7  6  0      -76.4111167982    -0.0000000003   0.000000521   0.000000785
   8  7  0      -76.4111167982    -0.0000000000   0.000000033   0.000000055

          -----------------
          DENSITY CONVERGED
          -----------------
     TIME TO FORM FOCK OPERATORS=       1.0 SECONDS (       0.1 SEC/ITER)
     TIME TO SOLVE SCF EQUATIONS=       0.0 SECONDS (       0.0 SEC/ITER)

 FINAL R-B3LYP ENERGY IS      -76.4111167982 AFTER   8 ITERATIONS
 DFT EXCHANGE + CORRELATION ENERGY =        -7.5448952454
 TOTAL ELECTRON NUMBER             =         9.9999965146

          INDUCED DIPOLE     ATOMIC UNITS          DEBYE
                X(IND)            0.02976          0.07564
                Y(IND)           -0.07232         -0.18382
                Z(IND)           -0.09230         -0.23461
 ...... END OF RHF CALCULATION ......
 STEP CPU TIME =     0.98 TOTAL CPU TIME =       36.7 (    0.6 MIN)
 TOTAL WALL CLOCK TIME=       38.6 SECONDS, CPU UTILIZATION IS  94.95%


 QM DISPLACEMENT: ATOM=  3 COORD=  2 VIB= 1
 ...... END OF ONE-ELECTRON INTEGRALS ......
 STEP CPU TIME =     0.00 TOTAL CPU TIME =       36.7 (    0.6 MIN)
 TOTAL WALL CLOCK TIME=       38.6 SECONDS, CPU UTILIZATION IS  94.95%
 TOTAL NUMBER OF NONZERO TWO-ELECTRON INTEGRALS =               46726
          4 INTEGRAL RECORDS WERE STORED ON DISK FILE  8.
  ...... END OF TWO-ELECTRON INTEGRALS .....
 STEP CPU TIME =     0.01 TOTAL CPU TIME =       36.7 (    0.6 MIN)
 TOTAL WALL CLOCK TIME=       38.6 SECONDS, CPU UTILIZATION IS  94.95%

 EFP ADDITIVE CONTRIBUTIONS TO THE "NUCLEAR ENERGY":
   -- NUCLEAR CHARGE - NUCLEAR CHARGE   =        9.2905762568
   -- NUCLEAR CHARGE - EFP CHARGE       =       -0.0042892126
   -- NUCLEAR CHARGE - EFP DIPOLE       =       -0.0223992276
   -- NUCLEAR CHARGE - EFP QUADRUPOLE   =        0.0194961236
   -- NUCLEAR CHARGE - EFP OCTUPOLE     =       -0.0006712814
   -- EFP CHARGE     - EFP CHARGE       =       -0.0059803098
   -- EFP CHARGE     - EFP DIPOLE       =       -0.0026690236
   -- EFP CHARGE     - EFP QUADRUPOLE   =       -0.0013805580
   -- EFP CHARGE     - EFP OCTUPOLE     =        0.0000107435
   -- EFP DIPOLE     - EFP DIPOLE       =       -0.0004675286
   -- EFP DIPOLE     - EFP QUADRUPOLE   =       -0.0001120628
   -- EFP QUADRUPOLE - EFP QUADRUPOLE   =       -0.0003697352
   -- EFP-EFP EXCHANGE REPULSION ENERGY =        0.0021640322
   -- EFP-EFP DISPERSION ENERGY (C6)    =        0.0000000000
   -- EFP-EFP DISPERSION ENERGY (C8)    =        0.0000000000
   -- TOTAL INTERFRAGMENT INTERACTION   =       -0.0088044424
 THE TOTAL NUCLEAR CHARGE/EFP ENERGY    =        9.2739082164

          --------------------------
             R-B3LYP SCF CALCULATION
          --------------------------
         DENSITY MATRIX CONVERGENCE THRESHOLD=  1.00E-05
     COARSE -> FINE DFT GRID SWITCH THRESHOLD=  3.00E-04 (SWITCH IN $DFT)
                   HF -> DFT SWITCH THRESHOLD=  5.00E-03 (SWOFF IN $DFT)

 DFT CODE IS SWITCHING FROM THE FINE GRID NRAD= 96,  NLEB=  302
                      TO THE COARSE GRID NRAD0= 24, NLEB0=  110

 ITER EX DEM     TOTAL ENERGY        E CHANGE  DENSITY CHANGE    DIIS ERROR
          * * *   INITIATING DIIS PROCEDURE   * * *
   1  0  0      -76.4106732887   -76.4106732887   0.000465300   0.000469950
   2  1  0      -76.4106737401    -0.0000004514   0.000210863   0.000188456
 DFT CODE IS SWITCHING BACK TO THE FINE GRID
          * * *   INITIATING DIIS PROCEDURE   * * *
   3  2  0      -76.4110955783    -0.0004218382   0.000369146   0.000480422
   4  3  0      -76.4110959849    -0.0000004066   0.000087426   0.000089931
   5  4  0      -76.4110959882    -0.0000000034   0.000053364   0.000063804
   6  5  0      -76.4110959949    -0.0000000067   0.000010085   0.000018419
   7  6  0      -76.4110959954    -0.0000000005   0.000000455   0.000000678
   8  7  0      -76.4110959954    -0.0000000000   0.000000037   0.000000039

          -----------------
          DENSITY CONVERGED
          -----------------
     TIME TO FORM FOCK OPERATORS=       1.0 SECONDS (       0.1 SEC/ITER)
     TIME TO SOLVE SCF EQUATIONS=       0.0 SECONDS (       0.0 SEC/ITER)

 FINAL R-B3LYP ENERGY IS      -76.4110959954 AFTER   8 ITERATIONS
 DFT EXCHANGE + CORRELATION ENERGY =        -7.5451111823
 TOTAL ELECTRON NUMBER             =         9.9999964814

          INDUCED DIPOLE     ATOMIC UNITS          DEBYE
                X(IND)            0.02975          0.07562
                Y(IND)           -0.07231         -0.18380
                Z(IND)           -0.09231         -0.23462
 ...... END OF RHF CALCULATION ......
 STEP CPU TIME =     0.99 TOTAL CPU TIME =       37.7 (    0.6 MIN)
 TOTAL WALL CLOCK TIME=       39.6 SECONDS, CPU UTILIZATION IS  95.01%


 QM DISPLACEMENT: ATOM=  3 COORD=  2 VIB= 2
 ...... END OF ONE-ELECTRON INTEGRALS ......
 STEP CPU TIME =     0.01 TOTAL CPU TIME =       37.7 (    0.6 MIN)
 TOTAL WALL CLOCK TIME=       39.7 SECONDS, CPU UTILIZATION IS  95.01%
 TOTAL NUMBER OF NONZERO TWO-ELECTRON INTEGRALS =               46726
          4 INTEGRAL RECORDS WERE STORED ON DISK FILE  8.
  ...... END OF TWO-ELECTRON INTEGRALS .....
 STEP CPU TIME =     0.00 TOTAL CPU TIME =       37.7 (    0.6 MIN)
 TOTAL WALL CLOCK TIME=       39.7 SECONDS, CPU UTILIZATION IS  95.01%

 EFP ADDITIVE CONTRIBUTIONS TO THE "NUCLEAR ENERGY":
   -- NUCLEAR CHARGE - NUCLEAR CHARGE   =        9.2899223486
   -- NUCLEAR CHARGE - EFP CHARGE       =       -0.0042947769
   -- NUCLEAR CHARGE - EFP DIPOLE       =       -0.0224007098
   -- NUCLEAR CHARGE - EFP QUADRUPOLE   =        0.0194948682
   -- NUCLEAR CHARGE - EFP OCTUPOLE     =       -0.0006712788
   -- EFP CHARGE     - EFP CHARGE       =       -0.0059803098
   -- EFP CHARGE     - EFP DIPOLE       =       -0.0026690236
   -- EFP CHARGE     - EFP QUADRUPOLE   =       -0.0013805580
   -- EFP CHARGE     - EFP OCTUPOLE     =        0.0000107435
   -- EFP DIPOLE     - EFP DIPOLE       =       -0.0004675286
   -- EFP DIPOLE     - EFP QUADRUPOLE   =       -0.0001120628
   -- EFP QUADRUPOLE - EFP QUADRUPOLE   =       -0.0003697352
   -- EFP-EFP EXCHANGE REPULSION ENERGY =        0.0021640322
   -- EFP-EFP DISPERSION ENERGY (C6)    =        0.0000000000
   -- EFP-EFP DISPERSION ENERGY (C8)    =        0.0000000000
   -- TOTAL INTERFRAGMENT INTERACTION   =       -0.0088044424
 THE TOTAL NUCLEAR CHARGE/EFP ENERGY    =        9.2732460088

          --------------------------
             R-B3LYP SCF CALCULATION
          --------------------------
         DENSITY MATRIX CONVERGENCE THRESHOLD=  1.00E-05
     COARSE -> FINE DFT GRID SWITCH THRESHOLD=  3.00E-04 (SWITCH IN $DFT)
                   HF -> DFT SWITCH THRESHOLD=  5.00E-03 (SWOFF IN $DFT)

 DFT CODE IS SWITCHING FROM THE FINE GRID NRAD= 96,  NLEB=  302
                      TO THE COARSE GRID NRAD0= 24, NLEB0=  110

 ITER EX DEM     TOTAL ENERGY        E CHANGE  DENSITY CHANGE    DIIS ERROR
          * * *   INITIATING DIIS PROCEDURE   * * *
   1  0  0      -76.4106805306   -76.4106805306   0.000296919   0.000479040
 DFT CODE IS SWITCHING BACK TO THE FINE GRID
          * * *   INITIATING DIIS PROCEDURE   * * *
   2  1  0      -76.4111025334    -0.0004220028   0.000485549   0.000620417
   3  2  0      -76.4111028584    -0.0000003250   0.000378173   0.000424591
   4  3  0      -76.4111030458    -0.0000001875   0.000119459   0.000189068
   5  4  0      -76.4111030945    -0.0000000486   0.000007742   0.000011883
   6  5  0      -76.4111030947    -0.0000000002   0.000000616   0.000000955
   7  6  0      -76.4111030947    -0.0000000000   0.000000021   0.000000058

          -----------------
          DENSITY CONVERGED
          -----------------
     TIME TO FORM FOCK OPERATORS=       1.0 SECONDS (       0.1 SEC/ITER)
     TIME TO SOLVE SCF EQUATIONS=       0.0 SECONDS (       0.0 SEC/ITER)

 FINAL R-B3LYP ENERGY IS      -76.4111030947 AFTER   7 ITERATIONS
 DFT EXCHANGE + CORRELATION ENERGY =        -7.5450567164
 TOTAL ELECTRON NUMBER             =         9.9999965174

          INDUCED DIPOLE     ATOMIC UNITS          DEBYE
                X(IND)            0.02975          0.07563
                Y(IND)           -0.07233         -0.18385
                Z(IND)           -0.09231         -0.23462
 ...... END OF RHF CALCULATION ......
 STEP CPU TIME =     1.01 TOTAL CPU TIME =       38.7 (    0.6 MIN)
 TOTAL WALL CLOCK TIME=       40.7 SECONDS, CPU UTILIZATION IS  95.04%


 QM DISPLACEMENT: ATOM=  3 COORD=  3 VIB= 1
 ...... END OF ONE-ELECTRON INTEGRALS ......
 STEP CPU TIME =     0.01 TOTAL CPU TIME =       38.7 (    0.6 MIN)
 TOTAL WALL CLOCK TIME=       40.7 SECONDS, CPU UTILIZATION IS  95.04%
 TOTAL NUMBER OF NONZERO TWO-ELECTRON INTEGRALS =               46729
          4 INTEGRAL RECORDS WERE STORED ON DISK FILE  8.
  ...... END OF TWO-ELECTRON INTEGRALS .....
 STEP CPU TIME =     0.00 TOTAL CPU TIME =       38.7 (    0.6 MIN)
 TOTAL WALL CLOCK TIME=       40.7 SECONDS, CPU UTILIZATION IS  95.01%

 EFP ADDITIVE CONTRIBUTIONS TO THE "NUCLEAR ENERGY":
   -- NUCLEAR CHARGE - NUCLEAR CHARGE   =        9.2912492058
   -- NUCLEAR CHARGE - EFP CHARGE       =       -0.0042881549
   -- NUCLEAR CHARGE - EFP DIPOLE       =       -0.0223986152
   -- NUCLEAR CHARGE - EFP QUADRUPOLE   =        0.0194958264
   -- NUCLEAR CHARGE - EFP OCTUPOLE     =       -0.0006712956
   -- EFP CHARGE     - EFP CHARGE       =       -0.0059803098
   -- EFP CHARGE     - EFP DIPOLE       =       -0.0026690236
   -- EFP CHARGE     - EFP QUADRUPOLE   =       -0.0013805580
   -- EFP CHARGE     - EFP OCTUPOLE     =        0.0000107435
   -- EFP DIPOLE     - EFP DIPOLE       =       -0.0004675286
   -- EFP DIPOLE     - EFP QUADRUPOLE   =       -0.0001120628
   -- EFP QUADRUPOLE - EFP QUADRUPOLE   =       -0.0003697352
   -- EFP-EFP EXCHANGE REPULSION ENERGY =        0.0021640322
   -- EFP-EFP DISPERSION ENERGY (C6)    =        0.0000000000
   -- EFP-EFP DISPERSION ENERGY (C8)    =        0.0000000000
   -- TOTAL INTERFRAGMENT INTERACTION   =       -0.0088044424
 THE TOTAL NUCLEAR CHARGE/EFP ENERGY    =        9.2745825240

          --------------------------
             R-B3LYP SCF CALCULATION
          --------------------------
         DENSITY MATRIX CONVERGENCE THRESHOLD=  1.00E-05
     COARSE -> FINE DFT GRID SWITCH THRESHOLD=  3.00E-04 (SWITCH IN $DFT)
                   HF -> DFT SWITCH THRESHOLD=  5.00E-03 (SWOFF IN $DFT)

 DFT CODE IS SWITCHING FROM THE FINE GRID NRAD= 96,  NLEB=  302
                      TO THE COARSE GRID NRAD0= 24, NLEB0=  110

 ITER EX DEM     TOTAL ENERGY        E CHANGE  DENSITY CHANGE    DIIS ERROR
          * * *   INITIATING DIIS PROCEDURE   * * *
   1  0  0      -76.4106633927   -76.4106633927   0.000360780   0.000449402
   2  1  0      -76.4106638463    -0.0000004536   0.000179394   0.000163848
 DFT CODE IS SWITCHING BACK TO THE FINE GRID
          * * *   INITIATING DIIS PROCEDURE   * * *
   3  2  0      -76.4110873865    -0.0004235403   0.000347687   0.000476982
   4  3  0      -76.4110877946    -0.0000004080   0.000051935   0.000080253
   5  4  0      -76.4110877992    -0.0000000046   0.000034490   0.000034667
   6  5  0      -76.4110878011    -0.0000000019   0.000010991   0.000019152
   7  6  0      -76.4110878016    -0.0000000005   0.000000347   0.000000494
   8  7  0      -76.4110878016    -0.0000000000   0.000000032   0.000000031

          -----------------
          DENSITY CONVERGED
          -----------------
     TIME TO FORM FOCK OPERATORS=       1.0 SECONDS (       0.1 SEC/ITER)
     TIME TO SOLVE SCF EQUATIONS=       0.0 SECONDS (       0.0 SEC/ITER)

 FINAL R-B3LYP ENERGY IS      -76.4110878016 AFTER   8 ITERATIONS
 DFT EXCHANGE + CORRELATION ENERGY =        -7.5451675045
 TOTAL ELECTRON NUMBER             =         9.9999965042

          INDUCED DIPOLE     ATOMIC UNITS          DEBYE
                X(IND)            0.02976          0.07563
                Y(IND)           -0.07232         -0.18381
                Z(IND)           -0.09230         -0.23461
 ...... END OF RHF CALCULATION ......
 STEP CPU TIME =     0.99 TOTAL CPU TIME =       39.7 (    0.7 MIN)
 TOTAL WALL CLOCK TIME=       41.7 SECONDS, CPU UTILIZATION IS  95.06%


 QM DISPLACEMENT: ATOM=  3 COORD=  3 VIB= 2
 ...... END OF ONE-ELECTRON INTEGRALS ......
 STEP CPU TIME =     0.00 TOTAL CPU TIME =       39.7 (    0.7 MIN)
 TOTAL WALL CLOCK TIME=       41.7 SECONDS, CPU UTILIZATION IS  95.06%
 TOTAL NUMBER OF NONZERO TWO-ELECTRON INTEGRALS =               46729
          4 INTEGRAL RECORDS WERE STORED ON DISK FILE  8.
  ...... END OF TWO-ELECTRON INTEGRALS .....
 STEP CPU TIME =     0.01 TOTAL CPU TIME =       39.7 (    0.7 MIN)
 TOTAL WALL CLOCK TIME=       41.8 SECONDS, CPU UTILIZATION IS  95.07%

 EFP ADDITIVE CONTRIBUTIONS TO THE "NUCLEAR ENERGY":
   -- NUCLEAR CHARGE - NUCLEAR CHARGE   =        9.2892500208
   -- NUCLEAR CHARGE - EFP CHARGE       =       -0.0042958356
   -- NUCLEAR CHARGE - EFP DIPOLE       =       -0.0224013227
   -- NUCLEAR CHARGE - EFP QUADRUPOLE   =        0.0194951654
   -- NUCLEAR CHARGE - EFP OCTUPOLE     =       -0.0006712646
   -- EFP CHARGE     - EFP CHARGE       =       -0.0059803098
   -- EFP CHARGE     - EFP DIPOLE       =       -0.0026690236
   -- EFP CHARGE     - EFP QUADRUPOLE   =       -0.0013805580
   -- EFP CHARGE     - EFP OCTUPOLE     =        0.0000107435
   -- EFP DIPOLE     - EFP DIPOLE       =       -0.0004675286
   -- EFP DIPOLE     - EFP QUADRUPOLE   =       -0.0001120628
   -- EFP QUADRUPOLE - EFP QUADRUPOLE   =       -0.0003697352
   -- EFP-EFP EXCHANGE REPULSION ENERGY =        0.0021640322
   -- EFP-EFP DISPERSION ENERGY (C6)    =        0.0000000000
   -- EFP-EFP DISPERSION ENERGY (C8)    =        0.0000000000
   -- TOTAL INTERFRAGMENT INTERACTION   =       -0.0088044424
 THE TOTAL NUCLEAR CHARGE/EFP ENERGY    =        9.2725723209

          --------------------------
             R-B3LYP SCF CALCULATION
          --------------------------
         DENSITY MATRIX CONVERGENCE THRESHOLD=  1.00E-05
     COARSE -> FINE DFT GRID SWITCH THRESHOLD=  3.00E-04 (SWITCH IN $DFT)
                   HF -> DFT SWITCH THRESHOLD=  5.00E-03 (SWOFF IN $DFT)

 DFT CODE IS SWITCHING FROM THE FINE GRID NRAD= 96,  NLEB=  302
                      TO THE COARSE GRID NRAD0= 24, NLEB0=  110

 ITER EX DEM     TOTAL ENERGY        E CHANGE  DENSITY CHANGE    DIIS ERROR
          * * *   INITIATING DIIS PROCEDURE   * * *
   1  0  0      -76.4106903136   -76.4106903136   0.000345551   0.000502812
   2  1  0      -76.4106907388    -0.0000004251   0.000259530   0.000240305
 DFT CODE IS SWITCHING BACK TO THE FINE GRID
          * * *   INITIATING DIIS PROCEDURE   * * *
   3  2  0      -76.4111107566    -0.0004200178   0.000397696   0.000485509
   4  3  0      -76.4111111604    -0.0000004038   0.000128388   0.000103383
   5  4  0      -76.4111111627    -0.0000000023   0.000073515   0.000098519
   6  5  0      -76.4111111777    -0.0000000150   0.000008249   0.000016202
   7  6  0      -76.4111111780    -0.0000000004   0.000000503   0.000000759
   8  7  0      -76.4111111780    -0.0000000000   0.000000035   0.000000049

          -----------------
          DENSITY CONVERGED
          -----------------
     TIME TO FORM FOCK OPERATORS=       1.0 SECONDS (       0.1 SEC/ITER)
     TIME TO SOLVE SCF EQUATIONS=       0.0 SECONDS (       0.0 SEC/ITER)

 FINAL R-B3LYP ENERGY IS      -76.4111111780 AFTER   8 ITERATIONS
 DFT EXCHANGE + CORRELATION ENERGY =        -7.5450004451
 TOTAL ELECTRON NUMBER             =         9.9999964948

          INDUCED DIPOLE     ATOMIC UNITS          DEBYE
                X(IND)            0.02975          0.07562
                Y(IND)           -0.07233         -0.18384
                Z(IND)           -0.09231         -0.23463
 ...... END OF RHF CALCULATION ......
 STEP CPU TIME =     1.00 TOTAL CPU TIME =       40.7 (    0.7 MIN)
 TOTAL WALL CLOCK TIME=       42.8 SECONDS, CPU UTILIZATION IS  95.11%

                         ----------------------
                         GRADIENT OF THE ENERGY
                         ----------------------

 UNITS ARE HARTREE/BOHR    E'X               E'Y               E'Z 
    1 O                0.015243313       0.012300676       0.024083809
    2 H                0.008920235      -0.005301740      -0.012673965
    3 H               -0.017516667      -0.003549649      -0.011688204
      TOTAL QM TRANS.  0.006646881       0.003449287      -0.000278360
      TOTAL QM TORQUE  0.009320859      -0.015405838       0.016461105
  EFP           TRANS GRADIENT                           TORQUE
    1  -0.0040908  0.0026133  0.0040092     0.0001336  0.0014088 -0.0001932
    2  -0.0025561 -0.0060626 -0.0037308     0.0009273  0.0000098 -0.0006746

                   MAXIMUM GRADIENT =    0.024083809
                       RMS GRADIENT =    0.009227935
  $VIB   
          IVIB=   0 IATOM=   0 ICOORD=   0 E=      -76.4110995474
  1.524331292E-02 1.230067617E-02 2.408380888E-02 8.920234585E-03-5.301740210E-03
 -1.267396529E-02-1.751666694E-02-3.549648767E-03-1.168820383E-02
-4.090812183E-03 2.613266588E-03 4.009154594E-03
 1.336222866E-04 1.408804167E-03-1.932243805E-04
-2.556068232E-03-6.062565980E-03-3.730798376E-03
 9.273256367E-04 9.832525905E-06-6.746414840E-04
  3.290532900E-01-5.409930704E-01 3.119866068E-01

..... END OF SINGLE POINT GRADIENT .....
 STEP CPU TIME =     0.00 TOTAL CPU TIME =       40.7 (    0.7 MIN)
 TOTAL WALL CLOCK TIME=       42.8 SECONDS, CPU UTILIZATION IS  95.09%
               580000  WORDS OF DYNAMIC MEMORY USED
 EXECUTION OF GAMESS TERMINATED NORMALLY Mon Nov 28 22:05:17 2016
 DDI: 263640 bytes (0.3 MB / 0 MWords) used by master data server.

 ----------------------------------------
 CPU timing information for all processes
 ========================================
 0: 40.437 + 0.265 = 40.703
 ----------------------------------------
 ddikick.x: exited gracefully.
unset echo
----- accounting info -----
Files used on the master node compute-3-0 were:
-rw-rw-r-- 1 sarom sarom   12803 Nov 29  2016 .//efp1-qm-numgrd.dat
-rw-rw-r-- 1 sarom sarom    2453 Nov 29  2016 .//efp1-qm-numgrd.F05
-rw-rw-r-- 1 sarom sarom  720064 Nov 29  2016 .//efp1-qm-numgrd.F08
-rw-rw-r-- 1 sarom sarom 1995920 Nov 29  2016 .//efp1-qm-numgrd.F10
-rw-rw-r-- 1 sarom sarom 1067192 Nov 29  2016 .//efp1-qm-numgrd.F22
-rw-rw-r-- 1 sarom sarom   78240 Nov 29  2016 .//efp1-qm-numgrd.F25
-rw-rw-r-- 1 sarom sarom    2453 Nov 28 17:27 .//efp1-qm-numgrd.inp
-rw-rw-r-- 1 sarom sarom  222985 Nov 29  2016 .//efp1-qm-numgrd.log
Mon Nov 28 22:05:20 CST 2016
0.200u 0.584s 0:46.78 1.6%	0+0k 0+136io 0pf+0w
