-catch_rsh /opt/gridengine/default/spool/compute-0-8/active_jobs/23653.1/pe_hostfile
compute-0-8
The primary node assigned by SGE to this run is compute-0-8
Warning: no access to tty (Bad file descriptor).
Thus no job control in this shell.
Deleting shmid=2785280.
Deleting shmid=2818049.
source /home/sarom/gamess.github.2017-05-31.14.06/install.info
setenv GMS_PATH /home/sarom/gamess.github.2017-05-31.14.06
setenv GMS_BUILD_DIR /home/sarom/gamess.github.2017-05-31.14.06
setenv GMS_TARGET linux64
setenv GMS_FORTRAN gfortran
setenv GMS_GFORTRAN_VERNO 4.4
setenv GMS_MATHLIB mkl-so
setenv GMS_MATHLIB_PATH /share/apps/intel/compilers_and_libraries_2017.1.132/linux/mkl/lib/intel64
setenv GMS_MKL_VERNO 12
setenv GMS_DDI_COMM sockets
setenv GMS_LIBCCHEM false
setenv GMS_EIGEN_PATH
setenv GMS_PHI false
setenv GMS_SHMTYPE sysv
setenv GMS_OPENMP false
unset echo
efp2-fo-opt-numgrd
tests/numdiff
----- GAMESS execution script 'rungms' -----
This job is running on host compute-0-8.local
under operating system Linux at Fri Jun 2 01:59:42 CDT 2017
Available scratch disk space (Kbyte units) at beginning of the job is
Filesystem           1K-blocks      Used Available Use% Mounted on
/dev/sda1             16126920   3867344  11440376  26% /
GAMESS temporary binary files will be written to /scratch
GAMESS supplementary output files will be written to /home/sarom/restart
Copying input file efp2-fo-opt-numgrd.inp to your run's scratch directory...
cp tests/numdiff/efp2-fo-opt-numgrd.inp /scratch/efp2-fo-opt-numgrd.F05
unset echo
The generated host list is
compute-0-8.local
/home/sarom/gamess.github.2017-05-31.14.06/ddikick.x /home/sarom/gamess.github.2017-05-31.14.06/gamess.00.x efp2-fo-opt-numgrd -ddi 1 1 compute-0-8.local -scr /scratch

 Distributed Data Interface kickoff program.
 Initiating 1 compute processes on 1 nodes to run the following command:
 /home/sarom/gamess.github.2017-05-31.14.06/gamess.00.x efp2-fo-opt-numgrd 

          ******************************************************
          *         GAMESS VERSION = 20 APR 2017 (R1)          *
          *             FROM IOWA STATE UNIVERSITY             *
          * M.W.SCHMIDT, K.K.BALDRIDGE, J.A.BOATZ, S.T.ELBERT, *
          *   M.S.GORDON, J.H.JENSEN, S.KOSEKI, N.MATSUNAGA,   *
          *          K.A.NGUYEN, S.J.SU, T.L.WINDUS,           *
          *       TOGETHER WITH M.DUPUIS, J.A.MONTGOMERY       *
          *         J.COMPUT.CHEM.  14, 1347-1363(1993)        *
          **************** 64 BIT LINUX VERSION ****************

  SINCE 1993, STUDENTS AND POSTDOCS WORKING AT IOWA STATE UNIVERSITY
  AND ALSO IN THEIR VARIOUS JOBS AFTER LEAVING ISU HAVE MADE IMPORTANT
  CONTRIBUTIONS TO THE CODE:
     IVANA ADAMOVIC, CHRISTINE AIKENS, YURI ALEXEEV, POOJA ARORA,
     ANDREY ASADCHEV, ROB BELL, PRADIPTA BANDYOPADHYAY, JONATHAN BENTZ,
     BRETT BODE, KURT BRORSEN, CALEB CARLIN, GALINA CHABAN, WEI CHEN,
     CHEOL HO CHOI, PAUL DAY, ALBERT DEFUSCO, NUWAN DESILVA, TIM DUDLEY,
     DMITRI FEDOROV, GRAHAM FLETCHER, MARK FREITAG, KURT GLAESEMANN,
     DAN KEMP, GRANT MERRILL, NORIYUKI MINEZAWA, JONATHAN MULLIN,
     TAKESHI NAGATA, SEAN NEDD, HEATHER NETZLOFF, BOSILJKA NJEGIC, RYAN OLSON,
     MIKE PAK, SPENCER PRUITT, LUKE ROSKOP, JIM SHOEMAKER, LYUDMILA SLIPCHENKO,
     TONY SMITH, SAROM SOK LEANG, JIE SONG, TETSUYA TAKETSUGU, SIMON WEBB,
     PENG XU, SOOHAENG YOO, FEDERICO ZAHARIEV

  ADDITIONAL CODE HAS BEEN PROVIDED BY COLLABORATORS IN OTHER GROUPS:
     IOWA STATE UNIVERSITY:
          JOE IVANIC, AARON WEST, LAIMUTIS BYTAUTAS, KLAUS RUEDENBERG
     UNIVERSITY OF TOKYO: KIMIHIKO HIRAO, TAKAHITO NAKAJIMA,
          TAKAO TSUNEDA, MUNEAKI KAMIYA, SUSUMU YANAGISAWA,
          KIYOSHI YAGI, MAHITO CHIBA, SEIKEN TOKURA, NAOAKI KAWAKAMI
     UNIVERSITY OF AARHUS: FRANK JENSEN
     UNIVERSITY OF IOWA: VISVALDAS KAIRYS, HUI LI
     NATIONAL INST. OF STANDARDS AND TECHNOLOGY: WALT STEVENS, DAVID GARMER
     UNIVERSITY OF PISA: BENEDETTA MENNUCCI, JACOPO TOMASI
     UNIVERSITY OF MEMPHIS: HENRY KURTZ, PRAKASHAN KORAMBATH
     UNIVERSITY OF ALBERTA: TOBY ZENG, MARIUSZ KLOBUKOWSKI
     UNIVERSITY OF NEW ENGLAND: MARK SPACKMAN
     MIE UNIVERSITY: HIROAKI UMEDA
     NAT. INST. OF ADVANCED INDUSTRIAL SCIENCE AND TECHNOLOGY: KAZUO KITAURA
     MICHIGAN STATE UNIVERSITY:
          KAROL KOWALSKI, MARTA WLOCH, JEFFREY GOUR, JESSE LUTZ,
          WEI LI, PIOTR PIECUCH
     UNIVERSITY OF SILESIA: MONIKA MUSIAL, STANISLAW KUCHARSKI
     FACULTES UNIVERSITAIRES NOTRE-DAME DE LA PAIX:
          OLIVIER QUINET, BENOIT CHAMPAGNE
     UNIVERSITY OF CALIFORNIA - SANTA BARBARA: BERNARD KIRTMAN
     INSTITUTE FOR MOLECULAR SCIENCE:
          KAZUYA ISHIMURA, MICHIO KATOUDA, AND SHIGERU NAGASE
     UNIVERSITY OF NOTRE DAME: ANNA POMOGAEVA, DAN CHIPMAN
     KYUSHU UNIVERSITY:
          HARUYUKI NAKANO,
          FENG LONG GU, JACEK KORCHOWIEC, MARCIN MAKOWSKI, AND YURIKO AOKI,
          HIROTOSHI MORI AND EISAKU MIYOSHI
     PENNSYLVANIA STATE UNIVERSITY:
          TZVETELIN IORDANOV, CHET SWALINA, JONATHAN SKONE,
          SHARON HAMMES-SCHIFFER
     WASEDA UNIVERSITY:
          MASATO KOBAYASHI, TOMOKO AKAMA, TSUGUKI TOUMA,
          TAKESHI YOSHIKAWA, YASUHIRO IKABATA, JUNJI SEINO,
          YUYA NAKAJIMA, HIROMI NAKAI
     NANJING UNIVERSITY: SHUHUA LI
     UNIVERSITY OF NEBRASKA:
          PEIFENG SU, DEJUN SI, NANDUN THELLAMUREGE, YALI WANG, HUI LI
     UNIVERSITY OF ZURICH: ROBERTO PEVERATI, KIM BALDRIDGE
     N. COPERNICUS UNIVERSITY AND JACKSON STATE UNIVERSITY:
          MARIA BARYSZ
     UNIVERSITY OF COPENHAGEN: Jimmy Kromann, CASPER STEINMANN
     TOKYO INSTITUTE OF TECHNOLOGY: HIROYA NAKATA
     NAGOYA UNIVERSITY: YOSHIO NISHIMOTO, STEPHAN IRLE
     MOSCOW STATE UNIVERSITY: VLADIMIR MIRONOV

 EXECUTION OF GAMESS BEGUN Fri Jun  2 01:59:42 2017

            ECHO OF THE FIRST FEW INPUT CARDS -
 INPUT CARD>!    2 water EFP plus 1 methanol EFP (not all possible EFP2 terms used)         
 INPUT CARD>!    geometry optimization using numerical gradients w/o quantum system         
 INPUT CARD>!                                                                               
 INPUT CARD>!    the expected results using numerical derivatives are                       
 INPUT CARD>!       NSERCH:   0  E=       -0.0197099700  R.M.S.=  0.0010353                 
 INPUT CARD>!       NSERCH:   1  E=       -0.0188124046  R.M.S.=  0.0029558                 
 INPUT CARD>!       NSERCH:   2  E=       -0.0196764173  R.M.S.=  0.0013138                 
 INPUT CARD>!       NSERCH:   3  E=       -0.0199381714  R.M.S.=  0.0004827                 
 INPUT CARD>!       NSERCH:   4  E=       -0.0199760247  R.M.S.=  0.0002308                 
 INPUT CARD>!       NSERCH:   5  E=       -0.0199912602  R.M.S.=  0.0002376                 
 INPUT CARD>!       NSERCH:   6  E=       -0.0200067917  R.M.S.=  0.0001011                 
 INPUT CARD>!       NSERCH:   7  E=       -0.0200165989  R.M.S.=  0.0000937                 
 INPUT CARD>!       NSERCH:   8  E=       -0.0200199224  R.M.S.=  0.0001418                 
 INPUT CARD>!       NSERCH:   9  E=       -0.0200238409  R.M.S.=  0.0000402                 
 INPUT CARD>!       NSERCH:  10  E=       -0.0200241556  R.M.S.=  0.0000317                 
 INPUT CARD>!                                                                               
 INPUT CARD>!    This run takes 1 second on 2.66 GHz Coverton (15 Apr 2015)                 
 INPUT CARD>!                                                                               
 INPUT CARD>!    analytic gradients exist for this, and give an optimization of             
 INPUT CARD>!       N.ERCH:   0  E=       -0.0197099700  R.M.S.=  0.0010353                 
 INPUT CARD>!       N.ERCH:   1  E=       -0.0188124094  R.M.S.=  0.0029558                 
 INPUT CARD>!       N.ERCH:   2  E=       -0.0196764161  R.M.S.=  0.0013138                 
 INPUT CARD>!       N.ERCH:   3  E=       -0.0199381720  R.M.S.=  0.0004827                 
 INPUT CARD>!       N.ERCH:   4  E=       -0.0199760250  R.M.S.=  0.0002308                 
 INPUT CARD>!       N.ERCH:   5  E=       -0.0199912600  R.M.S.=  0.0002376                 
 INPUT CARD>!       N.ERCH:   6  E=       -0.0200067917  R.M.S.=  0.0001011                 
 INPUT CARD>!       N.ERCH:   7  E=       -0.0200165990  R.M.S.=  0.0000937                 
 INPUT CARD>!       N.ERCH:   8  E=       -0.0200199223  R.M.S.=  0.0001418                 
 INPUT CARD>!       N.ERCH:   9  E=       -0.0200238408  R.M.S.=  0.0000402                 
 INPUT CARD>!       N.ERCH:  10  E=       -0.0200241556  R.M.S.=  0.0000318                 
 INPUT CARD>!                                                                               
 INPUT CARD> $contrl runtyp=optimize coord=fragonly numgrd=.true. $end                      
 INPUT CARD> $efrag                                                                         
 INPUT CARD>coord=cart                                                                      
 INPUT CARD>FRAGNAME=WATER                                                                  
 INPUT CARD>O1               -2.6365810425  -2.1135020113   0.3008906609                    
 INPUT CARD>H2               -1.9828954888  -1.7567844196  -0.2790457243                    
 INPUT CARD>H3               -2.2807746399  -2.0642841146   1.1737353530                    
 INPUT CARD>FRAGNAME=WATER                                                                  
 INPUT CARD>O1               -4.9119817377  -0.6376318338   1.6124377828                    
 INPUT CARD>H2               -4.4443975220  -1.1521743727   0.9740887944                    
 INPUT CARD>H3               -5.7989042531  -0.9602984231   1.6239780503                    
 INPUT CARD>FRAGNAME=MEOH                                                                   
 INPUT CARD>O1               -2.5450272815  -1.5225697275   3.2520798341                    
 INPUT CARD>H2               -3.4032259106  -1.1729393394   3.0816192838                    
 INPUT CARD>C3               -1.9125329466  -0.7985878118   4.2715410879                    
 INPUT CARD>H4               -0.9386886792  -1.2438408355   4.4208033480                    
 INPUT CARD>H5               -1.7775842988   0.2455310867   4.0005102248                    
 INPUT CARD>H6               -2.4645178226  -0.8526075982   5.2065532268                    
 INPUT CARD> $end                                                                           
    1000000 WORDS OF MEMORY AVAILABLE

     $CONTRL OPTIONS
     ---------------
 SCFTYP=RHF          RUNTYP=OPTIMIZE     EXETYP=RUN     
 MPLEVL=       0     CITYP =NONE         CCTYP =NONE         VBTYP =NONE    
 DFTTYP=NONE         TDDFT =NONE    
 MULT  =       1     ICHARG=       0     NZVAR =       0     COORD =FRAGONLY
 PP    =NONE         RELWFN=NONE         LOCAL =NONE         NUMGRD=       T
 ISPHER=      -1     NOSYM =       0     MAXIT =      30     UNITS =ANGS    
 PLTORB=       F     MOLPLT=       F     AIMPAC=       F     FRIEND=        
 NPRINT=       7     IREST =       0     GEOM  =INPUT   
 NORMF =       0     NORMP =       0     ITOL  =      20     ICUT  =       9
 INTTYP=BEST         GRDTYP=BEST         QMTTOL= 1.0E-06

     $SYSTEM OPTIONS
     ---------------
  REPLICATED MEMORY=     1000000 WORDS (ON EVERY NODE).
 DISTRIBUTED MEMDDI=           0 MILLION WORDS IN AGGREGATE,
 MEMDDI DISTRIBUTED OVER   1 PROCESSORS IS           0 WORDS/PROCESSOR.
 TOTAL MEMORY REQUESTED ON EACH PROCESSOR=     1000000 WORDS.
 TIMLIM=      525600.00 MINUTES, OR     365.0 DAYS.
 PARALL= F  BALTYP=  DLB     KDIAG=    0  COREFL= F
 MXSEQ2=     300 MXSEQ3=     150  mem10=         0

 READING $EFRAG GROUP
 COORD=CART      POSITION=OPTIMIZE  POLMETHD=FRGSCF   NBUFFMO=0
 READING COORDINATES OF FRAGMENT   1 NAMED   WATER 
 READING COORDINATES OF FRAGMENT   2 NAMED   WATER 
 READING COORDINATES OF FRAGMENT   3 NAMED   MEOH  
 FINISHED READING $EFRAG GROUP,   3 FRAGMENTS WILL BE USED.

 READING POTENTIAL PARAMETERS FOR FRAGMENT    1 FROM GROUP $WATER 
 READING POTENTIAL PARAMETERS FOR FRAGMENT    2 FROM GROUP $WATER 
 READING POTENTIAL PARAMETERS FOR FRAGMENT    3 FROM GROUP $MEOH  


     SUMMARY OF THE EFFECTIVE FRAGMENT POTENTIAL MODEL CHOSEN
     --------------------------------------------------------
 TOTAL NUMBER OF MULTIPOLE POINTS   =        21  (EFP1/EFP2 ELECTROSTATICS)
 TOTAL NUMBER OF POLARIZABLE POINTS =        15  (EFP1/EFP2 INDUCTION)
 TOTAL NUMBER OF L-J POINTS         =         0  (REPULSION AND DISPERSION)
 TOTAL NUMBER OF AO CENTERS         =        12  (EFP2 PAULI REPULSION)
 TOTAL NUMBER OF EFP MOS            =        15  (EFP2 PAULI REPULSION)
 TOTAL NO OF DYNAMIC POLARIZABLE PTS=       180  (EFP2 DISPERSION)
 TOTAL NUMBER OF EFP MOS            =         0  (EFP2 CHARGE TRANSFER)

 THIS IS A -EFP2- TYPE RUN, INCLUDING SEPARATE FORMULAE FOR
   PAULI REPULSION=T  DISPERSION=T  CHARGE TRANSFER=F

 OPTIONS FOR EFP SCREENING:
     ELECTROSTATIC EFP-EFP SCREENING CHOICE IS NO ELECTROSTATIC SCREENING
     POLARIZATION EFP-EFP SCREENING IS TANG-TOENNIS LIKE
     DISPERSION EFP-EFP SCREENING CHOICE IS USING OVERLAP

     $EWALD OPTIONS
     -----------

     IFEWLD   =        F         TINFOIL        =        T
     BETA    =    0.200         ELECTRIC CONST =     1.00
     EPSILON =     1.00         CUT_OFF        = 0.10E+04
     CUTLIST =  1000.00         LEVEL          =    1
     KMAX    =       10         EWLDPL         =        F

            MULTIPOLE COORDINATES, ELECTRONIC AND NUCLEAR CHARGES

                  X              Y              Z           ELEC.   NUC.
 O1        -4.9824157147  -3.9939396759   0.5686009014   -8.10053    8.0
 H2        -3.7471291362  -3.3198411726  -0.5273199569   -0.59413    1.0
 H3        -4.3100391091  -3.9009313374   2.2180381993   -0.59413    1.0
 BO21      -4.3647724255  -3.6568904242   0.0206404722   -0.35561    0.0
 BO31      -4.6462274119  -3.9474355066   1.3933195503   -0.35561    0.0
 O1        -9.2822995409  -1.2049494469   3.0470655817   -8.10053    8.0
 H2        -8.3986934971  -2.1772938545   1.8407609091   -0.59413    1.0
 H3       -10.9583400675  -1.8147008862   3.0688735250   -0.59413    1.0
 BO21      -8.8404965190  -1.6911216507   2.4439132454   -0.35561    0.0
 BO31     -10.1203198042  -1.5098251666   3.0579695534   -0.35561    0.0
 O1        -4.8094041933  -2.8772395822   6.1455397766   -8.25884    8.0
 H2        -6.4311644454  -2.2165339517   5.8234160449   -0.61318    1.0
 C3        -3.6141632115  -1.5091121414   8.0720422015   -4.97116    6.0
 H4        -1.7738643915  -2.3505183517   8.3541069732   -0.71688    1.0
 H5        -3.3591472447   0.4639864752   7.5598681358   -0.74973    1.0
 H6        -4.6572633764  -1.6111947357   9.8389589392   -0.74973    1.0
 BO21      -5.6202843194  -2.5468867669   5.9844779107   -0.32591    0.0
 BO31      -4.2117837025  -2.1931758618   7.1087909890   -0.14939    0.0
 BO43      -2.6940138015  -1.9298152466   8.2130745873   -0.51801    0.0
 BO53      -3.4866552281  -0.5225628332   7.8159551686   -0.47359    0.0
 BO63      -4.1357132940  -1.5601534386   8.9555005703   -0.47359    0.0

   CHARGE SCREENING PARAMETERS (COEF AND ZETA)
   ICHGP=   0 AI-FRAGMENT SCREENING= 0   FRAGMENT-FRAGMENT SCREENING= 0

             GAUSSIAN DAMPING    EXPONENTIAL DAMPING
 O1         0.00000   0.00000      0.00000   0.00000
 H2         0.00000   0.00000      0.00000   0.00000
 H3         0.00000   0.00000      0.00000   0.00000
 BO21       0.00000   0.00000      0.00000   0.00000
 BO31       0.00000   0.00000      0.00000   0.00000
 O1         0.00000   0.00000      0.00000   0.00000
 H2         0.00000   0.00000      0.00000   0.00000
 H3         0.00000   0.00000      0.00000   0.00000
 BO21       0.00000   0.00000      0.00000   0.00000
 BO31       0.00000   0.00000      0.00000   0.00000
 O1         0.00000   0.00000      0.00000   0.00000
 H2         0.00000   0.00000      0.00000   0.00000
 C3         0.00000   0.00000      0.00000   0.00000
 H4         0.00000   0.00000      0.00000   0.00000
 H5         0.00000   0.00000      0.00000   0.00000
 H6         0.00000   0.00000      0.00000   0.00000
 BO21       0.00000   0.00000      0.00000   0.00000
 BO31       0.00000   0.00000      0.00000   0.00000
 BO43       0.00000   0.00000      0.00000   0.00000
 BO53       0.00000   0.00000      0.00000   0.00000
 BO63       0.00000   0.00000      0.00000   0.00000

   SCREENING FOR POLARIZATION WITH EXPONENTIAL FORMULA  OFF

   SCREENING FOR POLARIZATION WITH TANG-TOENNIS FORMULA   ON

    WITH COEFFICIENTS 

     WATER   0.60

     MEOH    0.60

                  DIPOLE MOMENTS AND THE SECOND MOMENT TENSOR

                  X        Y        Z           XX/XY    YY/XZ    ZZ/YZ
 O1            0.70561  0.28374  0.20474     -4.08790 -4.64808 -3.67478
                                              0.31672 -0.02519 -0.14883
 H2            0.02727  0.01976 -0.06419     -0.34025 -0.35974 -0.35126
                                              0.01222 -0.00867 -0.00556
 H3           -0.00064 -0.00905  0.07191     -0.34944 -0.36356 -0.33825
                                              0.00563  0.01242  0.00208
 BO21         -0.28563 -0.14136  0.13447     -0.02591 -0.10493 -0.05872
                                              0.05716 -0.07674 -0.04290
 BO31         -0.20151 -0.05452 -0.27581     -0.09036 -0.13168  0.03247
                                              0.01094  0.07106  0.01064
 O1           -0.29311 -0.58519 -0.43813     -3.75574 -4.32403 -4.33099
                                              0.09924 -0.27445  0.40935
 H2            0.05792 -0.02003 -0.03871     -0.35419 -0.34914 -0.34792
                                             -0.00350 -0.00728  0.01658
 H3           -0.06898 -0.00205  0.02218     -0.33682 -0.35405 -0.36038
                                              0.01260  0.00154  0.00642
 BO21         -0.09008  0.22909  0.24300     -0.08277 -0.06630 -0.04049
                                             -0.04587 -0.06064  0.07960
 BO31          0.29244  0.17491  0.05947      0.03896 -0.10073 -0.12779
                                              0.06702  0.00113  0.00842
 O1           -0.37299  0.54275  0.28175     -4.05418 -4.58033 -4.55695
                                             -0.21585  0.38734  0.33137
 H2           -0.06058  0.00571 -0.02931     -0.37581 -0.38728 -0.39437
                                             -0.01245  0.00302  0.00541
 C3           -0.11462 -0.15639 -0.20768     -3.06641 -3.03175 -2.90642
                                              0.11657  0.14455  0.15935
 H4            0.05945 -0.02620  0.01000     -0.50672 -0.50426 -0.50367
                                              0.00128 -0.00002  0.00107
 H5            0.01131  0.05961 -0.01415     -0.55662 -0.55978 -0.55571
                                             -0.00059  0.00043  0.00042
 H6           -0.02829 -0.00370  0.05538     -0.55659 -0.55620 -0.55932
                                              0.00055  0.00144  0.00010
 BO21          0.29639 -0.20078 -0.01400      0.10384 -0.00302 -0.04298
                                             -0.08108  0.02218  0.00998
 BO31          0.06934 -0.08949 -0.04199      0.52032  0.59950  0.62267
                                              0.04299  0.00988  0.04978
 BO43         -0.29740  0.15212 -0.03088     -0.39569 -0.34530 -0.34916
                                              0.00792 -0.00563  0.02987
 BO53         -0.01652 -0.30526  0.09701     -0.25974 -0.33760 -0.18748
                                             -0.03359  0.01674 -0.01807
 BO63          0.18680  0.01977 -0.25997     -0.21339 -0.22541 -0.34602
                                              0.03854  0.02120 -0.00750

                  THE THIRD MOMENT TENSOR

               XXX/XYY  YYY/YYZ  ZZZ/XZZ  XXY/YZZ  XXZ/XYZ
 O1            1.94405  0.76732  0.56618  0.27350  0.18968
               0.64126  0.18314  0.65092  0.26053  0.00045
 H2           -0.00376  0.01647 -0.10699 -0.00058 -0.03121
              -0.00027 -0.03634 -0.00334  0.00218  0.00401
 H3           -0.04099 -0.02920  0.08535 -0.01098  0.03015
              -0.01252  0.03541 -0.02058 -0.01064 -0.00151
 BO21         -0.83703 -0.40045  0.34606 -0.14613  0.13462
              -0.27790  0.12031 -0.29493 -0.14354  0.01222
 BO31         -0.59649 -0.16694 -0.80334 -0.05844 -0.25466
              -0.19742 -0.24771 -0.22500 -0.06116  0.00100
 O1           -0.80950 -1.60017 -1.19548 -0.54116 -0.40079
              -0.27203 -0.41315 -0.26279 -0.54260 -0.00274
 H2            0.10420  0.00316 -0.03209  0.00209 -0.00888
               0.03338 -0.00654  0.03106  0.00703 -0.00413
 H3           -0.07515  0.02892  0.05839  0.01717  0.01914
              -0.02817  0.02054 -0.03149  0.00917  0.00137
 BO21         -0.21283  0.66476  0.70126  0.23181  0.23801
              -0.08205  0.24124 -0.08953  0.23649 -0.01425
 BO31          0.85899  0.51344  0.19554  0.19487  0.06570
               0.27207  0.06632  0.26224  0.17291 -0.00308
 O1           -0.95132  1.60213  0.91896  0.54089  0.30507
              -0.31929  0.30707 -0.31509  0.53044 -0.00270
 H2           -0.06155 -0.02326 -0.06233 -0.01460 -0.01792
              -0.02128 -0.02165 -0.02468 -0.00679  0.00028
 C3           -0.38850 -0.54160 -0.59644 -0.04742 -0.21473
              -0.13820 -0.09167  0.01873 -0.08478  0.03709
 H4            0.09212 -0.03605  0.01947 -0.01203  0.00634
               0.03060  0.00667  0.03057 -0.01213 -0.00020
 H5            0.01947  0.08629 -0.01790  0.02888 -0.00605
               0.00651 -0.00587  0.00653  0.02853 -0.00005
 H6           -0.03736 -0.00481  0.08210 -0.00140  0.02720
              -0.01247  0.02730 -0.01244 -0.00162 -0.00012
 BO21          0.84584 -0.62154 -0.12067 -0.23991 -0.03332
               0.27297 -0.03505  0.25676 -0.20665 -0.00780
 BO31          0.23736 -0.38706 -0.30094 -0.19299 -0.08119
               0.06136 -0.14004  0.00012 -0.18037 -0.03106
 BO43         -0.94691  0.50979 -0.04984  0.19919 -0.01676
              -0.31214 -0.02886 -0.29861  0.16057  0.00337
 BO53          0.00931 -0.96111  0.22205 -0.30364  0.10039
               0.01256  0.13777 -0.03545 -0.30798  0.01394
 BO63          0.58107  0.02636 -0.75555 -0.02687 -0.28343
               0.17385 -0.26537  0.23654  0.03446 -0.01392

                  POLARIZABLE POINTS AND THE POLARIZABILITY TENSOR

              X       Y       Z       XX/YZ    YY/YX    ZZ/ZX    XY/ZY     XZ
 CT1      -4.2896 -3.6221  0.0053   2.08987  1.11763  1.99336  0.73102 -1.06496
                                   -0.62172  0.74503 -1.17985 -0.67199
 CT2      -4.5854 -3.9275  1.4481   1.21868  0.75600  3.22618  0.12020  0.81819
                                    0.05181  0.10619  0.93309  0.10208
 CT3      -5.0298 -4.5456  0.4421   1.13603  3.06372  1.43710  0.25337  0.01135
                                    0.43708  0.35462  0.03278  0.41632
 CT4      -5.4261 -3.6397  0.5526   2.51117  1.79981  1.32587 -0.94047  0.04061
                                   -0.11675 -1.04171  0.01918 -0.09599
 CT1      -8.8360 -1.7522  2.3860   1.62506  1.57311  2.00269 -0.73534 -0.99637
                                    1.01694 -0.64554 -0.91344  1.04828
 CT2     -10.1813 -1.5616  3.0314   3.27063  1.10771  0.82252  0.88060 -0.07835
                                    0.08590  0.79079 -0.16128  0.05456
 CT3      -9.3039 -0.6744  2.8455   1.29044  3.02055  1.32587 -0.07335 -0.08634
                                   -0.55399 -0.02806 -0.09971 -0.64839
 CT4      -9.0568 -1.3283  3.5536   1.64657  1.13903  2.85125 -0.14376  0.67670
                                   -0.33402 -0.18905  0.69007 -0.23962
 CT1      -5.6856 -2.4799  6.0083   3.10519  1.00717  1.09737 -0.77256  0.69824
                                    0.06088 -0.47348  0.97064 -0.10943
 CT2      -3.4483 -0.1444  7.7205   2.36347  5.51636  2.58427  0.52937 -0.09789
                                   -0.93925  0.36930 -0.11180 -0.80297
 CT3      -4.4095 -2.3148  6.8855   1.78854  1.92252  3.05416  1.03064  1.52010
                                    1.56062  0.89283  1.39485  1.63920
 CT4      -4.3415 -1.5724  9.2888   3.22061  2.33517  4.90839  0.17574 -1.42039
                                   -0.18040  0.10328 -1.61806 -0.18409
 CT5      -2.3591 -2.0782  8.2687   5.16679  2.89334  2.38521 -1.30990  0.46437
                                   -0.15006 -1.28010  0.49164 -0.16702
 CT6      -4.4951 -2.7824  5.6691   1.61532  1.07290  2.92699  0.14124 -0.36033
                                    0.26988  0.18161 -0.38282  0.22658
 CT7      -4.8875 -3.4097  6.3580   1.34666  2.88797  1.38044  0.51407  0.27450
                                   -0.05440  0.51492  0.33481 -0.03450

                  DYNAMIC POLARIZABLE POINTS AND DYNAMIC TENSOR

              X       Y       Z       XX/YZ    YY/YX    ZZ/ZX    XY/ZY     XZ
 CT1      -4.2896 -3.6221  0.0053   2.08981  1.11755  1.99327  0.73102 -1.06490
                                   -0.62170  0.74504 -1.17987 -0.67200
 CT2      -4.5854 -3.9275  1.4481   1.21862  0.75591  3.22608  0.12022  0.81815
                                    0.05180  0.10620  0.93313  0.10210
 CT3      -5.1301 -3.6940  1.1204   1.13603  3.06370  1.43714  0.25331  0.01132
                                    0.43706  0.35459  0.03276  0.41629
 CT4      -4.9345 -3.4920  0.1660   2.51111  1.79984  1.32592 -0.94043  0.04060
                                   -0.11675 -1.04172  0.01916 -0.09598
 CT1      -4.2896 -3.6221  0.0053   2.08868  1.11714  1.99249  0.73045 -1.06394
                                   -0.62119  0.74449 -1.17907 -0.67156
 CT2      -4.5854 -3.9275  1.4481   1.21822  0.75581  3.22428  0.12019  0.81730
                                    0.05163  0.10615  0.93243  0.10200
 CT3      -5.1301 -3.6940  1.1204   1.13576  3.06083  1.43653  0.25328  0.01136
                                    0.43640  0.35384  0.03264  0.41578
 CT4      -4.9345 -3.4920  0.1660   2.50900  1.79866  1.32546 -0.93945  0.04047
                                   -0.11655 -1.04002  0.01918 -0.09593
 CT1      -4.2896 -3.6221  0.0053   2.08209  1.11480  1.98794  0.72714 -1.05834
                                   -0.61826  0.74129 -1.17436 -0.66902
 CT2      -4.5854 -3.9275  1.4481   1.21585  0.75522  3.21376  0.12002  0.81233
                                    0.05067  0.10587  0.92835  0.10143
 CT3      -5.1301 -3.6940  1.1204   1.13419  3.04414  1.43297  0.25311  0.01157
                                    0.43257  0.34951  0.03198  0.41280
 CT4      -4.9345 -3.4920  0.1660   2.49677  1.79177  1.32276 -0.93374  0.03974
                                   -0.11540 -1.03015  0.01934 -0.09563
 CT1      -4.2896 -3.6221  0.0053   2.05940  1.10674  1.97207  0.71575 -1.03914
                                   -0.60817  0.73025 -1.15804 -0.66019
 CT2      -4.5854 -3.9275  1.4481   1.20767  0.75318  3.17735  0.11939  0.79536
                                    0.04744  0.10488  0.91427  0.09946
 CT3      -5.1301 -3.6940  1.1204   1.12859  2.98763  1.42069  0.25227  0.01223
                                    0.41970  0.33509  0.02976  0.40272
 CT4      -4.9345 -3.4920  0.1660   2.45520  1.76831  1.31339 -0.91429  0.03732
                                   -0.11154 -0.99712  0.01979 -0.09455
 CT1      -4.2896 -3.6221  0.0053   1.99829  1.08495  1.92796  0.68519 -0.98820
                                   -0.58117  0.70045 -1.11335 -0.63593
 CT2      -4.5854 -3.9275  1.4481   1.18543  0.74753  3.07825  0.11746  0.75092
                                    0.03942  0.10220  0.87607  0.09417
 CT3      -5.1301 -3.6940  1.1204   1.11221  2.84250  1.38740  0.24839  0.01353
                                    0.38743  0.29990  0.02444  0.37687
 CT4      -4.9345 -3.4920  0.1660   2.34763  1.70701  1.28747 -0.86360  0.03148
                                   -0.10204 -0.91511  0.02057 -0.09148
 CT1      -4.2896 -3.6221  0.0053   1.85948  1.03483  1.82070  0.61661 -0.87678
                                   -0.52094  0.63268 -1.00854 -0.57859
 CT2      -4.5854 -3.9275  1.4481   1.13345  0.73345  2.84810  0.11197  0.65657
                                    0.02461  0.09590  0.78833  0.08225
 CT3      -5.1301 -3.6940  1.1204   1.06921  2.54446  1.31039  0.23355  0.01470
                                    0.32486  0.23635  0.01529  0.32429
 CT4      -4.9345 -3.4920  0.1660   2.12348  1.57546  1.22512 -0.75655  0.02130
                                   -0.08440 -0.75935  0.02071 -0.08383
 CT1      -4.2896 -3.6221  0.0053   1.59495  0.93495  1.59300  0.49061 -0.68185
                                   -0.41166  0.50538 -0.80297 -0.46464
 CT2      -4.5854 -3.9275  1.4481   1.02658  0.69902  2.39730  0.09774  0.50057
                                    0.00757  0.08297  0.62169  0.06056
 CT3      -5.1301 -3.6940  1.1204   0.97107  2.06295  1.15724  0.19573  0.01407
                                    0.23552  0.15923  0.00634  0.24300
 CT4      -4.9345 -3.4920  0.1660   1.75475  1.34266  1.09386 -0.57882  0.01081
                                   -0.06079 -0.54232  0.01854 -0.06827
 CT1      -4.2896 -3.6221  0.0053   1.18680  0.76174  1.20079  0.31392 -0.42791
                                   -0.26188  0.32287 -0.50131 -0.29399
 CT2      -4.5854 -3.9275  1.4481   0.83242  0.61464  1.70227  0.06871  0.31144
                                    0.00043  0.05976  0.38483  0.03254
 CT3      -5.1301 -3.6940  1.1204   0.78754  1.45599  0.90170  0.13728  0.01247
                                    0.14508  0.10102  0.00479  0.15251
 CT4      -4.9345 -3.4920  0.1660   1.27829  1.00493  0.86201 -0.36117  0.00759
                                   -0.03773 -0.32490  0.01527 -0.04516
 CT1      -4.2896 -3.6221  0.0053   0.69591  0.50433  0.70102  0.14172 -0.19653
                                   -0.11943  0.14401 -0.21529 -0.12764
 CT2      -4.5854 -3.9275  1.4481   0.53844  0.43896  0.92385  0.03107  0.14586
                                    0.00319  0.02879  0.16461  0.01139
 CT3      -5.1301 -3.6940  1.1204   0.51150  0.84051  0.55939  0.07581  0.00996
                                    0.07633  0.06327  0.00730  0.07890
 CT4      -4.9345 -3.4920  0.1660   0.76486  0.60764  0.53890 -0.17535  0.00875
                                   -0.01932 -0.16280  0.01140 -0.02189
 CT1      -4.2896 -3.6221  0.0053   0.27242  0.22123  0.26997  0.03851 -0.05710
                                   -0.03347  0.03847 -0.05678 -0.03334
 CT2      -4.5854 -3.9275  1.4481   0.22844  0.20298  0.33220  0.00693  0.04408
                                    0.00320  0.00697  0.04376  0.00306
 CT3      -5.1301 -3.6940  1.1204   0.21913  0.33862  0.23215  0.02844  0.00485
                                    0.02976  0.02770  0.00469  0.02991
 CT4      -4.9345 -3.4920  0.1660   0.31431  0.25114  0.22445 -0.06194  0.00523
                                   -0.00698 -0.06120  0.00539 -0.00714
 CT1      -4.2896 -3.6221  0.0053   0.05298  0.04600  0.05190  0.00531 -0.00822
                                   -0.00467  0.00525 -0.00774 -0.00446
 CT2      -4.5854 -3.9275  1.4481   0.04672  0.04341  0.06075  0.00076  0.00661
                                    0.00075  0.00082  0.00613  0.00053
 CT3      -5.1301 -3.6940  1.1204   0.04598  0.06830  0.04785  0.00514  0.00099
                                    0.00569  0.00518  0.00100  0.00568
 CT4      -4.9345 -3.4920  0.1660   0.06370  0.05201  0.04642 -0.01150  0.00110
                                   -0.00119 -0.01155  0.00109 -0.00118
 CT1      -4.2896 -3.6221  0.0053   0.00201  0.00177  0.00196  0.00018 -0.00027
                                   -0.00015  0.00018 -0.00025 -0.00015
 CT2      -4.5854 -3.9275  1.4481   0.00180  0.00168  0.00225  0.00003  0.00022
                                    0.00003  0.00003  0.00020  0.00002
 CT3      -5.1301 -3.6940  1.1204   0.00182  0.00262  0.00187  0.00017  0.00004
                                    0.00021  0.00017  0.00004  0.00021
 CT4      -4.9345 -3.4920  0.1660   0.00244  0.00205  0.00182 -0.00042  0.00004
                                   -0.00004 -0.00042  0.00004 -0.00004
 CT1      -8.8360 -1.7522  2.3860   1.62498  1.57303  2.00261 -0.73536 -0.99639
                                    1.01693 -0.64549 -0.91340  1.04830
 CT2     -10.1813 -1.5616  3.0314   3.27053  1.10764  0.82245  0.88063 -0.07831
                                    0.08593  0.79076 -0.16130  0.05457
 CT3      -9.6739 -1.4889  3.4741   1.29048  3.02049  1.32590 -0.07339 -0.08635
                                   -0.55399 -0.02807 -0.09973 -0.64842
 CT4      -8.7841 -1.6149  3.0471   1.64660  1.13905  2.85122 -0.14377  0.67665
                                   -0.33407 -0.18908  0.69003 -0.23963
 CT1      -8.8360 -1.7522  2.3860   1.62447  1.57229  2.00155 -0.73486 -0.99578
                                    1.01613 -0.64487 -0.91268  1.04753
 CT2     -10.1813 -1.5616  3.0314   3.26865  1.10729  0.82237  0.87998 -0.07829
                                    0.08596  0.79000 -0.16139  0.05456
 CT3      -9.6739 -1.4889  3.4741   1.29006  3.01768  1.32537 -0.07316 -0.08630
                                   -0.55350 -0.02817 -0.09958 -0.64726
 CT4      -8.7841 -1.6149  3.0471   1.64570  1.13877  2.84865 -0.14371  0.67575
                                   -0.33332 -0.18869  0.68904 -0.23956
 CT1      -8.8360 -1.7522  2.3860   1.62146  1.56798  1.99539 -0.73194 -0.99224
                                    1.01142 -0.64125 -0.90849  1.04307
 CT2     -10.1813 -1.5616  3.0314   3.25768  1.10523  0.82192  0.87621 -0.07815
                                    0.08616  0.78553 -0.16189  0.05451
 CT3      -9.6739 -1.4889  3.4741   1.28758  3.00143  1.32230 -0.07183 -0.08604
                                   -0.55064 -0.02871 -0.09877 -0.64052
 CT4      -8.7841 -1.6149  3.0471   1.64046  1.13709  2.83375 -0.14334  0.67055
                                   -0.32902 -0.18647  0.68328 -0.23914
 CT1      -8.8360 -1.7522  2.3860   1.61095  1.55313  1.97413 -0.72180 -0.97991
                                    0.99523 -0.62886 -0.89408  1.02766
 CT2     -10.1813 -1.5616  3.0314   3.21975  1.09813  0.82032  0.86317 -0.07765
                                    0.08679  0.77024 -0.16347  0.05435
 CT3      -9.6739 -1.4889  3.4741   1.27895  2.94630  1.31165 -0.06748 -0.08510
                                   -0.54083 -0.03043 -0.09604 -0.61805
 CT4      -8.7841 -1.6149  3.0471   1.62251  1.13118  2.78321 -0.14205  0.65297
                                   -0.31477 -0.17910  0.66391 -0.23755
 CT1      -8.8360 -1.7522  2.3860   1.58136  1.51310  1.91674 -0.69396 -0.94578
                                    0.95189 -0.59615 -0.85545  0.98603
 CT2     -10.1813 -1.5616  3.0314   3.11676  1.07886  0.81558  0.82781 -0.07627
                                    0.08808  0.73000 -0.16660  0.05395
 CT3      -9.6739 -1.4889  3.4741   1.25493  2.80450  1.28268 -0.05726 -0.08248
                                   -0.51474 -0.03422 -0.08929 -0.56277
 CT4      -8.7841 -1.6149  3.0471   1.57488  1.11416  2.65307 -0.13816  0.60823
                                   -0.28034 -0.16120  0.61504 -0.23232
 CT1      -8.8360 -1.7522  2.3860   1.50745  1.42191  1.78564 -0.62830 -0.86393
                                    0.85508 -0.52531 -0.76882  0.89102
 CT2     -10.1813 -1.5616  3.0314   2.87882  1.03406  0.80212  0.74652 -0.07288
                                    0.08900  0.64354 -0.16799  0.05306
 CT3      -9.6739 -1.4889  3.4741   1.19642  2.51266  1.21498 -0.04011 -0.07610
                                   -0.45714 -0.03886 -0.07647 -0.45975
 CT4      -8.7841 -1.6149  3.0471   1.46946  1.07016  2.38444 -0.12756  0.51878
                                   -0.21873 -0.12881  0.51915 -0.21612
 CT1      -8.8360 -1.7522  2.3860   1.34326  1.24584  1.53379 -0.49860 -0.69762
                                    0.67862 -0.40394 -0.61020  0.71165
 CT2     -10.1813 -1.5616  3.0314   2.41684  0.94222  0.76384  0.59172 -0.06538
                                    0.08379  0.49706 -0.15280  0.05076
 CT3      -9.6739 -1.4889  3.4741   1.07138  2.04196  1.07793 -0.02078 -0.06291
                                   -0.35412 -0.03711 -0.05809 -0.32009
 CT4      -8.7841 -1.6149  3.0471   1.27433  0.96970  1.94723 -0.10304  0.38437
                                   -0.14093 -0.08672  0.37955 -0.17496
 CT1      -8.8360 -1.7522  2.3860   1.04241  0.96328  1.14364 -0.30831 -0.44311
                                    0.43364 -0.25095 -0.39013  0.45365
 CT2     -10.1813 -1.5616  3.0314   1.71178  0.77397  0.66358  0.36984 -0.05044
                                    0.06219  0.31248 -0.10342  0.04217
 CT3      -9.6739 -1.4889  3.4741   0.84759  1.45206  0.84557 -0.00555 -0.04181
                                   -0.21770 -0.02178 -0.03702 -0.18389
 CT4      -8.7841 -1.6149  3.0471   0.97469  0.78059  1.38995 -0.06307  0.24006
                                   -0.07170 -0.04684  0.23527 -0.10551
 CT1      -8.8360 -1.7522  2.3860   0.63067  0.59553  0.67505 -0.13071 -0.19187
                                    0.19636 -0.11605 -0.17833  0.20147
 CT2     -10.1813 -1.5616  3.0314   0.92811  0.51141  0.46173  0.15980 -0.02739
                                    0.02752  0.14514 -0.04093  0.02241
 CT3      -9.6739 -1.4889  3.4741   0.53226  0.84841  0.53074  0.00153 -0.01907
                                   -0.09921 -0.00408 -0.01742 -0.08752
 CT4      -8.7841 -1.6149  3.0471   0.59788  0.50175  0.81178 -0.02540  0.12563
                                   -0.02960 -0.01979  0.12398 -0.04129
 CT1      -8.8360 -1.7522  2.3860   0.25095  0.24542  0.26724 -0.03447 -0.04950
                                    0.05376 -0.03471 -0.04973  0.05368
 CT2     -10.1813 -1.5616  3.0314   0.33402  0.22193  0.20767  0.04232 -0.00757
                                    0.00510  0.04257 -0.00735  0.00519
 CT3      -9.6739 -1.4889  3.4741   0.22245  0.34418  0.22327  0.00143 -0.00543
                                   -0.03293  0.00110 -0.00533 -0.03224
 CT4      -8.7841 -1.6149  3.0471   0.24710  0.21395  0.32885 -0.00690  0.04841
                                   -0.01048 -0.00657  0.04831 -0.01117
 CT1      -8.8360 -1.7522  2.3860   0.04930  0.04928  0.05229 -0.00473 -0.00652
                                    0.00745 -0.00510 -0.00686  0.00732
 CT2     -10.1813 -1.5616  3.0314   0.06113  0.04593  0.04381  0.00586 -0.00086
                                    0.00040  0.00624 -0.00052  0.00054
 CT3      -9.6739 -1.4889  3.4741   0.04613  0.06931  0.04670  0.00028 -0.00075
                                   -0.00613  0.00030 -0.00075 -0.00617
 CT4      -8.7841 -1.6149  3.0471   0.05072  0.04506  0.06636 -0.00119  0.00925
                                   -0.00212 -0.00121  0.00926 -0.00208
 CT1      -8.8360 -1.7522  2.3860   0.00188  0.00188  0.00198 -0.00015 -0.00021
                                    0.00025 -0.00017 -0.00023  0.00025
 CT2     -10.1813 -1.5616  3.0314   0.00227  0.00177  0.00170  0.00020 -0.00003
                                    0.00002  0.00021 -0.00001  0.00002
 CT3      -9.6739 -1.4889  3.4741   0.00181  0.00265  0.00185  0.00001 -0.00002
                                   -0.00023  0.00001 -0.00002 -0.00023
 CT4      -8.7841 -1.6149  3.0471   0.00197  0.00179  0.00254 -0.00004  0.00034
                                   -0.00009 -0.00005  0.00034 -0.00008
 CT1      -5.6856 -2.4799  6.0083   3.10501  1.00728  1.09726 -0.77267  0.69807
                                    0.06088 -0.47350  0.97047 -0.10952
 CT2      -3.4483 -0.1444  7.7205   2.36356  5.51624  2.58418  0.52937 -0.09785
                                   -0.93924  0.36931 -0.11194 -0.80296
 CT3      -4.4095 -2.3148  6.8855   1.78832  1.92231  3.05372  1.03075  1.52017
                                    1.56033  0.89280  1.39456  1.63891
 CT4      -4.3415 -1.5724  9.2888   3.22060  2.33513  4.90825  0.17571 -1.42023
                                   -0.18044  0.10312 -1.61798 -0.18420
 CT5      -2.3591 -2.0782  8.2687   5.16663  2.89329  2.38524 -1.30996  0.46424
                                   -0.15007 -1.27992  0.49158 -0.16718
 CT6      -4.4951 -2.7824  5.6691   1.61553  1.07288  2.92706  0.14119 -0.36028
                                    0.26989  0.18190 -0.38293  0.22652
 CT7      -4.8875 -3.4097  6.3580   1.34673  2.88816  1.38057  0.51403  0.27451
                                   -0.05441  0.51492  0.33504 -0.03473
 CT1      -5.6856 -2.4799  6.0083   3.10325  1.00713  1.09701 -0.77217  0.69752
                                    0.06095 -0.47314  0.96980 -0.10937
 CT2      -3.4483 -0.1444  7.7205   2.36243  5.51165  2.58296  0.52878 -0.09772
                                   -0.93832  0.36888 -0.11167 -0.80199
 CT3      -4.4095 -2.3148  6.8855   1.78752  1.92118  3.05174  1.02997  1.51915
                                    1.55909  0.89200  1.39353  1.63767
 CT4      -4.3415 -1.5724  9.2888   3.21865  2.33407  4.90431  0.17561 -1.41858
                                   -0.18011  0.10310 -1.61626 -0.18405
 CT5      -2.3591 -2.0782  8.2687   5.16278  2.89166  2.38422 -1.30865  0.46382
                                   -0.14979 -1.27847  0.49130 -0.16699
 CT6      -4.4951 -2.7824  5.6691   1.61487  1.07265  2.92482  0.14119 -0.35985
                                    0.26968  0.18163 -0.38263  0.22609
 CT7      -4.8875 -3.4097  6.3580   1.34625  2.88601  1.38008  0.51342  0.27427
                                   -0.05464  0.51434  0.33470 -0.03460
 CT1      -5.6856 -2.4799  6.0083   3.09297  1.00623  1.09555 -0.76924  0.69432
                                    0.06132 -0.47100  0.96588 -0.10855
 CT2      -3.4483 -0.1444  7.7205   2.35580  5.48491  2.57581  0.52533 -0.09695
                                   -0.93296  0.36634 -0.11008 -0.79640
 CT3      -4.4095 -2.3148  6.8855   1.78286  1.91457  3.04020  1.02537  1.51321
                                    1.55186  0.88735  1.38754  1.63047
 CT4      -4.3415 -1.5724  9.2888   3.20730  2.32784  4.88138  0.17501 -1.40900
                                   -0.17818  0.10300 -1.60621 -0.18317
 CT5      -2.3591 -2.0782  8.2687   5.14035  2.88213  2.37830 -1.30105  0.46139
                                   -0.14818 -1.27001  0.48966 -0.16586
 CT6      -4.4951 -2.7824  5.6691   1.61102  1.07133  2.91176  0.14121 -0.35740
                                    0.26849  0.18004 -0.38091  0.22364
 CT7      -4.8875 -3.4097  6.3580   1.34341  2.87347  1.37722  0.50985  0.27285
                                   -0.05599  0.51093  0.33270 -0.03387
 CT1      -5.6856 -2.4799  6.0083   3.05744  1.00305  1.09043 -0.75909  0.68328
                                    0.06253 -0.46369  0.95226 -0.10572
 CT2      -3.4483 -0.1444  7.7205   2.33288  5.39321  2.55099  0.51356 -0.09430
                                   -0.91447  0.35778 -0.10476 -0.77733
 CT3      -4.4095 -2.3148  6.8855   1.76662  1.89180  3.00038  1.00948  1.49258
                                    1.52697  0.87141  1.36686  1.60562
 CT4      -4.3415 -1.5724  9.2888   3.16812  2.30623  4.80273  0.17290 -1.37632
                                   -0.17169  0.10262 -1.57170 -0.18007
 CT5      -2.3591 -2.0782  8.2687   5.06309  2.84919  2.35767 -1.27493  0.45306
                                   -0.14270 -1.24110  0.48386 -0.16197
 CT6      -4.4951 -2.7824  5.6691   1.59771  1.06663  2.86711  0.14116 -0.34914
                                    0.26431  0.17468 -0.37510  0.21536
 CT7      -4.8875 -3.4097  6.3580   1.33352  2.83065  1.36727  0.49773  0.26797
                                   -0.06051  0.49927  0.32587 -0.03154
 CT1      -5.6856 -2.4799  6.0083   2.96085  0.99393  1.07594 -0.73129  0.65362
                                    0.06524 -0.44446  0.91479 -0.09813
 CT2      -3.4483 -0.1444  7.7205   2.27053  5.14986  2.48295  0.48264 -0.08701
                                   -0.86466  0.33590 -0.09132 -0.72774
 CT3      -4.4095 -2.3148  6.8855   1.72193  1.83066  2.89308  0.96641  1.43604
                                    1.46021  0.82906  1.31099  1.53843
 CT4      -4.3415 -1.5724  9.2888   3.06230  2.24698  4.59407  0.16700 -1.29091
                                   -0.15528  0.10138 -1.47995 -0.17124
 CT5      -2.3591 -2.0782  8.2687   4.85559  2.75995  2.30065 -1.20525  0.43092
                                   -0.12859 -1.16520  0.46739 -0.15141
 CT6      -4.4951 -2.7824  5.6691   1.56157  1.05293  2.74945  0.14032 -0.32829
                                    0.25254  0.16107 -0.36026  0.19440
 CT7      -4.8875 -3.4097  6.3580   1.30617  2.71810  1.33968  0.46626  0.25496
                                   -0.07164  0.46850  0.30786 -0.02659
 CT1      -5.6856 -2.4799  6.0083   2.73730  0.96983  1.03907 -0.66598  0.58680
                                    0.06855 -0.40304  0.82622 -0.08121
 CT2      -3.4483 -0.1444  7.7205   2.12530  4.61556  2.32253  0.41631 -0.07013
                                   -0.75240  0.29150 -0.06511 -0.62373
 CT3      -4.4095 -2.3148  6.8855   1.61540  1.69275  2.64949  0.86751  1.30325
                                    1.31033  0.73604  1.18355  1.38521
 CT4      -4.3415 -1.5724  9.2888   2.82064  2.10708  4.13567  0.15257 -1.11004
                                   -0.12289  0.09765 -1.27872 -0.14919
 CT5      -2.3591 -2.0782  8.2687   4.38837  2.55458  2.16358 -1.05110  0.38230
                                   -0.09998 -1.00314  0.42597 -0.12730
 CT6      -4.4951 -2.7824  5.6691   1.47740  1.01647  2.49456  0.13509 -0.28749
                                    0.22427  0.13384 -0.32995  0.15336
 CT7      -4.8875 -3.4097  6.3580   1.24016  2.47553  1.27274  0.40035  0.22606
                                   -0.09148  0.40205  0.26893 -0.02082
 CT1      -5.6856 -2.4799  6.0083   2.30183  0.90850  0.95296 -0.53709  0.46363
                                    0.06550 -0.33142  0.65090 -0.05164
 CT2      -3.4483 -0.1444  7.7205   1.83482  3.66665  1.99856  0.30368 -0.03970
                                   -0.54951  0.22159 -0.02831 -0.45402
 CT3      -4.4095 -2.3148  6.8855   1.39728  1.43451  2.19142  0.68010  1.04203
                                    1.03556  0.57199  0.94360  1.09713
 CT4      -4.3415 -1.5724  9.2888   2.35939  1.82314  3.31752  0.12284 -0.81110
                                   -0.07552  0.08781 -0.92913 -0.10429
 CT5      -2.3591 -2.0782  8.2687   3.52581  2.15670  1.87779 -0.77842  0.29606
                                   -0.05762 -0.73273  0.33766 -0.08364
 CT6      -4.4951 -2.7824  5.6691   1.30699  0.92865  2.04857  0.11561 -0.22895
                                    0.17031  0.09223 -0.28039  0.09619
 CT7      -4.8875 -3.4097  6.3580   1.10063  2.05354  1.13004  0.29213  0.17418
                                   -0.11076  0.28950  0.20194 -0.02183
 CT1      -5.6856 -2.4799  6.0083   1.63493  0.76669  0.77835 -0.34449  0.29208
                                    0.04455 -0.23393  0.39275 -0.01843
 CT2      -3.4483 -0.1444  7.7205   1.35859  2.38468  1.46807  0.16505 -0.00551
                                   -0.29087  0.13643  0.00261 -0.25407
 CT3      -4.4095 -2.3148  6.8855   1.03991  1.05104  1.52402  0.41559  0.65501
                                    0.65529  0.35637  0.60109  0.68902
 CT4      -4.3415 -1.5724  9.2888   1.66359  1.35295  2.19481  0.07710 -0.45425
                                   -0.02953  0.06654 -0.49805 -0.04402
 CT5      -2.3591 -2.0782  8.2687   2.31448  1.54307  1.39354 -0.43153  0.18055
                                   -0.01860 -0.40902  0.20105 -0.03142
 CT6      -4.4951 -2.7824  5.6691   1.01680  0.75296  1.44169  0.07413 -0.16910
                                    0.09755  0.04725 -0.21316  0.04532
 CT7      -4.8875 -3.4097  6.3580   0.85595  1.47671  0.87879  0.16235  0.10410
                                   -0.10570  0.15464  0.11666 -0.03376
 CT1      -5.6856 -2.4799  6.0083   0.89107  0.51292  0.50358 -0.15484  0.12821
                                    0.01330 -0.12768  0.15294 -0.00218
 CT2      -3.4483 -0.1444  7.7205   0.76803  1.15183  0.81875  0.05655  0.00873
                                   -0.09581  0.05809  0.00986 -0.09925
 CT3      -4.4095 -2.3148  6.8855   0.60664  0.61383  0.81844  0.17310  0.28020
                                    0.29372  0.16011  0.26837  0.30112
 CT4      -4.3415 -1.5724  9.2888   0.88925  0.76639  1.08297  0.03232 -0.17371
                                   -0.00669  0.03499 -0.17102 -0.00564
 CT5      -2.3591 -2.0782  8.2687   1.12386  0.84043  0.78537 -0.15567  0.07436
                                   -0.00157 -0.15620  0.07388 -0.00127
 CT6      -4.4951 -2.7824  5.6691   0.62790  0.48643  0.80880  0.02916 -0.11342
                                    0.03267  0.01759 -0.13323  0.01435
 CT7      -4.8875 -3.4097  6.3580   0.52683  0.85421  0.54210  0.06074  0.03956
                                   -0.07126  0.05449  0.04315 -0.04280
 CT1      -5.6856 -2.4799  6.0083   0.32332  0.22279  0.21448 -0.04324  0.03280
                                   -0.00090 -0.04342  0.03263 -0.00079
 CT2      -3.4483 -0.1444  7.7205   0.27948  0.36490  0.29405  0.00997  0.00426
                                   -0.01950  0.01347  0.00346 -0.02588
 CT3      -4.4095 -2.3148  6.8855   0.23983  0.24590  0.29880  0.04348  0.07013
                                    0.07978  0.04465  0.07120  0.07911
 CT4      -4.3415 -1.5724  9.2888   0.30990  0.27985  0.34868  0.00821 -0.04151
                                   -0.00235  0.01066 -0.03529  0.00064
 CT5      -2.3591 -2.0782  8.2687   0.35812  0.29806  0.28402 -0.03394  0.01692
                                    0.00024 -0.03778  0.01343  0.00243
 CT6      -4.4951 -2.7824  5.6691   0.25956  0.20964  0.31444  0.00691 -0.05283
                                    0.00234  0.00569 -0.05615  0.00074
 CT7      -4.8875 -3.4097  6.3580   0.21803  0.33975  0.22586  0.01474  0.00695
                                   -0.03126  0.01286  0.00744 -0.02790
 CT1      -5.6856 -2.4799  6.0083   0.05963  0.04619  0.04427 -0.00625  0.00405
                                   -0.00061 -0.00694  0.00343 -0.00022
 CT2      -3.4483 -0.1444  7.7205   0.05051  0.06059  0.05282  0.00070  0.00062
                                   -0.00248  0.00141  0.00040 -0.00383
 CT3      -4.4095 -2.3148  6.8855   0.04797  0.04959  0.05641  0.00561  0.00879
                                    0.01089  0.00617  0.00930  0.01057
 CT4      -4.3415 -1.5724  9.2888   0.05477  0.05082  0.05833  0.00117 -0.00545
                                   -0.00064  0.00164 -0.00415  0.00004
 CT5      -2.3591 -2.0782  8.2687   0.05988  0.05326  0.05111 -0.00418  0.00179
                                    0.00003 -0.00505  0.00099  0.00053
 CT6      -4.4951 -2.7824  5.6691   0.05309  0.04424  0.06251  0.00105 -0.01096
                                   -0.00083  0.00106 -0.01110 -0.00071
 CT7      -4.8875 -3.4097  6.3580   0.04520  0.06781  0.04682  0.00221  0.00037
                                   -0.00656  0.00203  0.00035 -0.00658
 CT1      -5.6856 -2.4799  6.0083   0.00222  0.00179  0.00171 -0.00021  0.00013
                                   -0.00002 -0.00024  0.00010 -0.00000
 CT2      -3.4483 -0.1444  7.7205   0.00182  0.00213  0.00190  0.00001  0.00002
                                   -0.00008  0.00004  0.00001 -0.00013
 CT3      -4.4095 -2.3148  6.8855   0.00185  0.00191  0.00213  0.00018  0.00028
                                    0.00036  0.00020  0.00030  0.00035
 CT4      -4.3415 -1.5724  9.2888   0.00196  0.00184  0.00206  0.00004 -0.00018
                                   -0.00003  0.00006 -0.00013 -0.00000
 CT5      -2.3591 -2.0782  8.2687   0.00211  0.00192  0.00184 -0.00013  0.00005
                                    0.00000 -0.00017  0.00002  0.00002
 CT6      -4.4951 -2.7824  5.6691   0.00207  0.00174  0.00240  0.00004 -0.00041
                                   -0.00005  0.00004 -0.00041 -0.00004
 CT7      -4.8875 -3.4097  6.3580   0.00178  0.00260  0.00183  0.00008  0.00000
                                   -0.00026  0.00007  0.00000 -0.00026

                    AO EXPANSION POINTS                             LMO CENTROIDS

                X          Y          Z                         X          Y          Z

  O1         -4.98242   -3.99394    0.56860       CT1        -4.28957   -3.62212    0.00529
  H2         -3.74713   -3.31984   -0.52732       CT2        -4.58541   -3.92751    1.44814
  H3         -4.31004   -3.90093    2.21804       CT3        -5.02978   -4.54564    0.44212
  O1         -9.28230   -1.20495    3.04707       CT4        -5.42612   -3.63971    0.55260
  H2         -8.39869   -2.17729    1.84076       CT1        -8.83604   -1.75216    2.38599
  H3        -10.95834   -1.81470    3.06887       CT2       -10.18128   -1.56160    3.03144
  O1         -4.80940   -2.87724    6.14554       CT3        -9.30386   -0.67437    2.84549
  H2         -6.43116   -2.21653    5.82342       CT4        -9.05675   -1.32827    3.55356
  C3         -3.61416   -1.50911    8.07204       CT1        -5.68561   -2.47988    6.00828
  H4         -1.77386   -2.35052    8.35411       CT2        -3.44829   -0.14442    7.72050
  H5         -3.35915    0.46399    7.55987       CT3        -4.40950   -2.31478    6.88546
  H6         -4.65726   -1.61119    9.83896       CT4        -4.34154   -1.57237    9.28876
                                                  CT5        -2.35911   -2.07825    8.26868
                                                  CT6        -4.49514   -2.78239    5.66909
                                                  CT7        -4.88755   -3.40969    6.35803

          ----------------
          PROPERTIES INPUT
          ----------------

     MOMENTS            FIELD           POTENTIAL          DENSITY
 IEMOM =       1   IEFLD =       0   IEPOT =       0   IEDEN =       0
 WHERE =COMASS     WHERE =NUCLEI     WHERE =NUCLEI     WHERE =NUCLEI  
 OUTPUT=BOTH       OUTPUT=BOTH       OUTPUT=BOTH       OUTPUT=BOTH    
 IEMINT=       0   IEFINT=       0                     IEDINT=       0
                                                       MORB  =       0
          EXTRAPOLATION IN EFFECT
 ORBITAL PRINTING OPTION: NPREO=     1     0     2     1

     -------------------------------
     INTEGRAL TRANSFORMATION OPTIONS
     -------------------------------
     NWORD  =            0
     CUTOFF = 1.0E-09     MPTRAN =       0
     DIRTRF =       F     AOINTS =DUP     

          ----------------------
          INTEGRAL INPUT OPTIONS
          ----------------------
 NOPK  =       1 NORDER=       0 SCHWRZ=       F

 ..... DONE SETTING UP THE RUN .....
 STEP CPU TIME =     0.10 TOTAL CPU TIME =        0.1 (    0.0 MIN)
 TOTAL WALL CLOCK TIME=        0.1 SECONDS, CPU UTILIZATION IS  90.91%


          -----------------------------
          STATIONARY POINT LOCATION RUN
          -----------------------------

 OBTAINING INITIAL HESSIAN, HESS=GUESS   
 DIAGONAL GUESS HESSIAN FOR FRAGMENTS(TRANS)=  0.0300
 DIAGONAL GUESS HESSIAN FOR FRAGMENTS(ROT)  =  0.0100

          PARAMETERS CONTROLLING GEOMETRY SEARCH ARE
          METHOD =QA                  UPHESS =BFGS    
          NNEG   =         0          NFRZ   =         0
          NSTEP  =        50          IFOLOW =         1
          HESS   =GUESS               RESTAR =         F
          IHREP  =         0          HSSEND =         F
          NPRT   =         0          NPUN   =         0
          OPTTOL = 1.000E-04          RMIN   = 1.500E-03
          RMAX   = 1.000E-01          RLIM   = 7.000E-02
          DXMAX  = 3.000E-01          PURIFY =         F
          MOVIE  =         F          TRUPD  =         T
          TRMAX  = 5.000E-01          TRMIN  = 5.000E-02
          ITBMAT =         5          STPT   =         F
          STSTEP = 1.000E-02          PROJCT=          T

 BEGINNING GEOMETRY SEARCH POINT NSERCH=   0 ...

  
 COORDINATES OF FRAGMENT MULTIPOLE CENTERS (ANGS)
 MULTIPOLE NAME        X              Y              Z
 ------------------------------------------------------------
 FRAGNAME=WATER 
 O1               -2.6365810425  -2.1135020113   0.3008906609
 H2               -1.9828954889  -1.7567844196  -0.2790457242
 H3               -2.2807746399  -2.0642841146   1.1737353530
 FRAGNAME=WATER 
 O1               -4.9119817377  -0.6376318338   1.6124377828
 H2               -4.4443975220  -1.1521743727   0.9740887944
 H3               -5.7989042531  -0.9602984232   1.6239780502
 FRAGNAME=MEOH  
 O1               -2.5450272815  -1.5225697275   3.2520798341
 H2               -3.4032259106  -1.1729393394   3.0816192838
 C3               -1.9125329466  -0.7985878118   4.2715410879
 H4               -0.9386886792  -1.2438408356   4.4208033479
 H5               -1.7775842988   0.2455310866   4.0005102247
 H6               -2.4645178225  -0.8526075982   5.2065532268

                 --------------------------------------
                 FRAGMENT-FRAGMENT INTERACTION ENERGIES
                 --------------------------------------

                 CHARGE-CHARGE         =  -0.0081112910
                 CHARGE-DIPOLE         =  -0.0058600914
                 CHARGE-QUADRUPOLE     =  -0.0054976494
                 CHARGE-OCTUPOLE       =   0.0000642779
                 DIPOLE-DIPOLE         =  -0.0009832749
                 DIPOLE-QUADRUPOLE     =  -0.0013422085
                 QUADRUPOLE-QUADRUPOLE =  -0.0014850966
                 OVERLAP PEN. ENERGY   =   0.0000000000
                                         --------------
                 ELECTROSTATIC ENERGY  =  -0.0232153340
                 REPULSION ENERGY      =   0.0129323057
                 POLARIZATION ENERGY   =  -0.0042060818
                 TOTAL DISPERSION ENERGY(E6+E7+E8) =  -0.0050534782
                 E7 DISPERSION ENERGY     =   0.0000000000
                 E6 DISPERSION ENERGY     =  -0.0037901087
                 --------------------------------------
                 FINAL EFP ENERGY      =  -0.0195425883


          ----------------------------------------
          EFFECTIVE FRAGMENT ELECTROSTATIC MOMENTS
          ----------------------------------------

 FRAGMENT   1  WATER 
          X           Y           Z (BOHR)    CHARGE
    -4.875668   -3.951014    0.599574        0.00 (A.U.)
         DX          DY          DZ         /D/  (DEBYE)
     2.031010    0.600150    0.692902    2.228294

 FRAGMENT   2  WATER 
          X           Y           Z (BOHR)    CHARGE
    -9.326642   -1.293479    2.980784        0.00 (A.U.)
         DX          DY          DZ         /D/  (DEBYE)
    -0.713723   -1.519572   -1.435550    2.208914

 FRAGMENT   3  MEOH  
          X           Y           Z (BOHR)    CHARGE
    -4.266640   -2.182260    7.087485       -0.00 (A.U.)
         DX          DY          DZ         /D/  (DEBYE)
    -1.003863    1.525213    0.996106    2.079962

          ----------------------------
          SYSTEM ELECTROSTATIC MOMENTS
          ----------------------------

 CENTER              X           Y           Z (BOHR)    CHARGE
               -5.767102   -2.415169    4.283336       -0.00 (A.U.)
         DX          DY          DZ         /D/  (DEBYE)
     0.313424    0.605792    0.253458    0.727639


 COMPUTING THE NUCLEAR GRADIENT BY NUMERIC DIFFERENTIATION
1 FRAGMENT  1                    -------------------
     TRANS  1                    NUCLEAR COORDINATES
       VIB  1                    -------------------
 COORDINATES OF FRAGMENT MULTIPOLE CENTERS (BOHR)
 MULTIPOLE NAME        X              Y              Z
 ------------------------------------------------------------
 FRAGNAME=WATER 
 O1               -4.9814157147  -3.9939396759   0.5686009014
 H2               -3.7461291362  -3.3198411726  -0.5273199569
 H3               -4.3090391091  -3.9009313374   2.2180381993
 FRAGNAME=WATER 
 O1               -9.2822995409  -1.2049494469   3.0470655817
 H2               -8.3986934971  -2.1772938545   1.8407609091
 H3              -10.9583400675  -1.8147008862   3.0688735250
 FRAGNAME=MEOH  
 O1               -4.8094041933  -2.8772395822   6.1455397766
 H2               -6.4311644454  -2.2165339517   5.8234160449
 C3               -3.6141632115  -1.5091121414   8.0720422015
 H4               -1.7738643915  -2.3505183517   8.3541069732
 H5               -3.3591472447   0.4639864752   7.5598681358
 H6               -4.6572633764  -1.6111947357   9.8389589392

                 --------------------------------------
                 FRAGMENT-FRAGMENT INTERACTION ENERGIES
                 --------------------------------------

                 CHARGE-CHARGE         =  -0.0081089979
                 CHARGE-DIPOLE         =  -0.0058593976
                 CHARGE-QUADRUPOLE     =  -0.0054960881
                 CHARGE-OCTUPOLE       =   0.0000641925
                 DIPOLE-DIPOLE         =  -0.0009832051
                 DIPOLE-QUADRUPOLE     =  -0.0013423548
                 QUADRUPOLE-QUADRUPOLE =  -0.0014844156
                 OVERLAP PEN. ENERGY   =   0.0000000000
                                         --------------
                 ELECTROSTATIC ENERGY  =  -0.0232102667
                 REPULSION ENERGY      =   0.0129240669
                 POLARIZATION ENERGY   =  -0.0042041859
                 TOTAL DISPERSION ENERGY(E6+E7+E8) =  -0.0050520781
                 E7 DISPERSION ENERGY     =   0.0000000000
                 E6 DISPERSION ENERGY     =  -0.0037890586
                 --------------------------------------
                 FINAL EFP ENERGY      =  -0.0195424638


          ----------------------------------------
          EFFECTIVE FRAGMENT ELECTROSTATIC MOMENTS
          ----------------------------------------

 FRAGMENT   1  WATER 
          X           Y           Z (BOHR)    CHARGE
    -4.874668   -3.951014    0.599574        0.00 (A.U.)
         DX          DY          DZ         /D/  (DEBYE)
     2.030839    0.600247    0.692953    2.228180

 FRAGMENT   2  WATER 
          X           Y           Z (BOHR)    CHARGE
    -9.326642   -1.293479    2.980784        0.00 (A.U.)
         DX          DY          DZ         /D/  (DEBYE)
    -0.713764   -1.519518   -1.435462    2.208833

 FRAGMENT   3  MEOH  
          X           Y           Z (BOHR)    CHARGE
    -4.266640   -2.182260    7.087485       -0.00 (A.U.)
         DX          DY          DZ         /D/  (DEBYE)
    -1.003918    1.525183    0.996041    2.079936

          ----------------------------
          SYSTEM ELECTROSTATIC MOMENTS
          ----------------------------

 CENTER              X           Y           Z (BOHR)    CHARGE
               -5.766837   -2.415169    4.283336       -0.00 (A.U.)
         DX          DY          DZ         /D/  (DEBYE)
     0.313157    0.605912    0.253533    0.727651

1 FRAGMENT  1                    -------------------
     TRANS  2                    NUCLEAR COORDINATES
       VIB  1                    -------------------
 COORDINATES OF FRAGMENT MULTIPOLE CENTERS (BOHR)
 MULTIPOLE NAME        X              Y              Z
 ------------------------------------------------------------
 FRAGNAME=WATER 
 O1               -4.9824157147  -3.9929396759   0.5686009014
 H2               -3.7471291362  -3.3188411726  -0.5273199569
 H3               -4.3100391091  -3.8999313374   2.2180381993
 FRAGNAME=WATER 
 O1               -9.2822995409  -1.2049494469   3.0470655817
 H2               -8.3986934971  -2.1772938545   1.8407609091
 H3              -10.9583400675  -1.8147008862   3.0688735250
 FRAGNAME=MEOH  
 O1               -4.8094041933  -2.8772395822   6.1455397766
 H2               -6.4311644454  -2.2165339517   5.8234160449
 C3               -3.6141632115  -1.5091121414   8.0720422015
 H4               -1.7738643915  -2.3505183517   8.3541069732
 H5               -3.3591472447   0.4639864752   7.5598681358
 H6               -4.6572633764  -1.6111947357   9.8389589392

                 --------------------------------------
                 FRAGMENT-FRAGMENT INTERACTION ENERGIES
                 --------------------------------------

                 CHARGE-CHARGE         =  -0.0081125146
                 CHARGE-DIPOLE         =  -0.0058608743
                 CHARGE-QUADRUPOLE     =  -0.0054985806
                 CHARGE-OCTUPOLE       =   0.0000642931
                 DIPOLE-DIPOLE         =  -0.0009834495
                 DIPOLE-QUADRUPOLE     =  -0.0013423740
                 QUADRUPOLE-QUADRUPOLE =  -0.0014852679
                 OVERLAP PEN. ENERGY   =   0.0000000000
                                         --------------
                 ELECTROSTATIC ENERGY  =  -0.0232187678
                 REPULSION ENERGY      =   0.0129383977
                 POLARIZATION ENERGY   =  -0.0042074735
                 TOTAL DISPERSION ENERGY(E6+E7+E8) =  -0.0050547243
                 E7 DISPERSION ENERGY     =   0.0000000000
                 E6 DISPERSION ENERGY     =  -0.0037910432
                 --------------------------------------
                 FINAL EFP ENERGY      =  -0.0195425679


          ----------------------------------------
          EFFECTIVE FRAGMENT ELECTROSTATIC MOMENTS
          ----------------------------------------

 FRAGMENT   1  WATER 
          X           Y           Z (BOHR)    CHARGE
    -4.875668   -3.950014    0.599574        0.00 (A.U.)
         DX          DY          DZ         /D/  (DEBYE)
     2.031102    0.600146    0.692922    2.228383

 FRAGMENT   2  WATER 
          X           Y           Z (BOHR)    CHARGE
    -9.326642   -1.293479    2.980784        0.00 (A.U.)
         DX          DY          DZ         /D/  (DEBYE)
    -0.713681   -1.519579   -1.435606    2.208942

 FRAGMENT   3  MEOH  
          X           Y           Z (BOHR)    CHARGE
    -4.266640   -2.182260    7.087485       -0.00 (A.U.)
         DX          DY          DZ         /D/  (DEBYE)
    -1.003885    1.525184    0.996197    2.079995

          ----------------------------
          SYSTEM ELECTROSTATIC MOMENTS
          ----------------------------

 CENTER              X           Y           Z (BOHR)    CHARGE
               -5.767102   -2.414904    4.283336       -0.00 (A.U.)
         DX          DY          DZ         /D/  (DEBYE)
     0.313537    0.605750    0.253512    0.727672

1 FRAGMENT  1                    -------------------
     TRANS  3                    NUCLEAR COORDINATES
       VIB  1                    -------------------
 COORDINATES OF FRAGMENT MULTIPOLE CENTERS (BOHR)
 MULTIPOLE NAME        X              Y              Z
 ------------------------------------------------------------
 FRAGNAME=WATER 
 O1               -4.9824157147  -3.9939396759   0.5696009014
 H2               -3.7471291362  -3.3198411726  -0.5263199569
 H3               -4.3100391091  -3.9009313374   2.2190381993
 FRAGNAME=WATER 
 O1               -9.2822995409  -1.2049494469   3.0470655817
 H2               -8.3986934971  -2.1772938545   1.8407609091
 H3              -10.9583400675  -1.8147008862   3.0688735250
 FRAGNAME=MEOH  
 O1               -4.8094041933  -2.8772395822   6.1455397766
 H2               -6.4311644454  -2.2165339517   5.8234160449
 C3               -3.6141632115  -1.5091121414   8.0720422015
 H4               -1.7738643915  -2.3505183517   8.3541069732
 H5               -3.3591472447   0.4639864752   7.5598681358
 H6               -4.6572633764  -1.6111947357   9.8389589392

                 --------------------------------------
                 FRAGMENT-FRAGMENT INTERACTION ENERGIES
                 --------------------------------------

                 CHARGE-CHARGE         =  -0.0081137986
                 CHARGE-DIPOLE         =  -0.0058623413
                 CHARGE-QUADRUPOLE     =  -0.0054992226
                 CHARGE-OCTUPOLE       =   0.0000642481
                 DIPOLE-DIPOLE         =  -0.0009835656
                 DIPOLE-QUADRUPOLE     =  -0.0013429835
                 QUADRUPOLE-QUADRUPOLE =  -0.0014853144
                 OVERLAP PEN. ENERGY   =   0.0000000000
                                         --------------
                 ELECTROSTATIC ENERGY  =  -0.0232229779
                 REPULSION ENERGY      =   0.0129446732
                 POLARIZATION ENERGY   =  -0.0042089155
                 TOTAL DISPERSION ENERGY(E6+E7+E8) =  -0.0050560002
                 E7 DISPERSION ENERGY     =   0.0000000000
                 E6 DISPERSION ENERGY     =  -0.0037920001
                 --------------------------------------
                 FINAL EFP ENERGY      =  -0.0195432204


          ----------------------------------------
          EFFECTIVE FRAGMENT ELECTROSTATIC MOMENTS
          ----------------------------------------

 FRAGMENT   1  WATER 
          X           Y           Z (BOHR)    CHARGE
    -4.875668   -3.951014    0.600574        0.00 (A.U.)
         DX          DY          DZ         /D/  (DEBYE)
     2.031119    0.600123    0.693091    2.228445

 FRAGMENT   2  WATER 
          X           Y           Z (BOHR)    CHARGE
    -9.326642   -1.293479    2.980784        0.00 (A.U.)
         DX          DY          DZ         /D/  (DEBYE)
    -0.713653   -1.519623   -1.435599    2.208959

 FRAGMENT   3  MEOH  
          X           Y           Z (BOHR)    CHARGE
    -4.266640   -2.182260    7.087485       -0.00 (A.U.)
         DX          DY          DZ         /D/  (DEBYE)
    -1.003921    1.525306    0.996268    2.080137

          ----------------------------
          SYSTEM ELECTROSTATIC MOMENTS
          ----------------------------

 CENTER              X           Y           Z (BOHR)    CHARGE
               -5.767102   -2.415169    4.283600       -0.00 (A.U.)
         DX          DY          DZ         /D/  (DEBYE)
     0.313545    0.605807    0.253760    0.727810

1 FRAGMENT  1                    -------------------
       ROT  1                    NUCLEAR COORDINATES
       VIB  1                    -------------------
 COORDINATES OF FRAGMENT MULTIPOLE CENTERS (BOHR)
 MULTIPOLE NAME        X              Y              Z
 ------------------------------------------------------------
 FRAGNAME=WATER 
 O1               -4.9824157147  -3.9939086810   0.5685579915
 H2               -3.7471291362  -3.3187145941  -0.5266882204
 H3               -4.3100391091  -3.9025498261   2.2180874731
 FRAGNAME=WATER 
 O1               -9.2822995409  -1.2049494469   3.0470655817
 H2               -8.3986934971  -2.1772938545   1.8407609091
 H3              -10.9583400675  -1.8147008862   3.0688735250
 FRAGNAME=MEOH  
 O1               -4.8094041933  -2.8772395822   6.1455397766
 H2               -6.4311644454  -2.2165339517   5.8234160449
 C3               -3.6141632115  -1.5091121414   8.0720422015
 H4               -1.7738643915  -2.3505183517   8.3541069732
 H5               -3.3591472447   0.4639864752   7.5598681358
 H6               -4.6572633764  -1.6111947357   9.8389589392

                 --------------------------------------
                 FRAGMENT-FRAGMENT INTERACTION ENERGIES
                 --------------------------------------

                 CHARGE-CHARGE         =  -0.0081106340
                 CHARGE-DIPOLE         =  -0.0058617795
                 CHARGE-QUADRUPOLE     =  -0.0054954710
                 CHARGE-OCTUPOLE       =   0.0000642207
                 DIPOLE-DIPOLE         =  -0.0009831980
                 DIPOLE-QUADRUPOLE     =  -0.0013430130
                 QUADRUPOLE-QUADRUPOLE =  -0.0014848678
                 OVERLAP PEN. ENERGY   =   0.0000000000
                                         --------------
                 ELECTROSTATIC ENERGY  =  -0.0232147427
                 REPULSION ENERGY      =   0.0129318295
                 POLARIZATION ENERGY   =  -0.0042057208
                 TOTAL DISPERSION ENERGY(E6+E7+E8) =  -0.0050533401
                 E7 DISPERSION ENERGY     =   0.0000000000
                 E6 DISPERSION ENERGY     =  -0.0037900051
                 --------------------------------------
                 FINAL EFP ENERGY      =  -0.0195419741


          ----------------------------------------
          EFFECTIVE FRAGMENT ELECTROSTATIC MOMENTS
          ----------------------------------------

 FRAGMENT   1  WATER 
          X           Y           Z (BOHR)    CHARGE
    -4.875668   -3.951014    0.599574        0.00 (A.U.)
         DX          DY          DZ         /D/  (DEBYE)
     2.031031    0.599534    0.693516    2.228338

 FRAGMENT   2  WATER 
          X           Y           Z (BOHR)    CHARGE
    -9.326642   -1.293479    2.980784        0.00 (A.U.)
         DX          DY          DZ         /D/  (DEBYE)
    -0.713645   -1.519587   -1.435561    2.208907

 FRAGMENT   3  MEOH  
          X           Y           Z (BOHR)    CHARGE
    -4.266640   -2.182260    7.087485       -0.00 (A.U.)
         DX          DY          DZ         /D/  (DEBYE)
    -1.003876    1.525339    0.995890    2.079957

          ----------------------------
          SYSTEM ELECTROSTATIC MOMENTS
          ----------------------------

 CENTER              X           Y           Z (BOHR)    CHARGE
               -5.767102   -2.415169    4.283336       -0.00 (A.U.)
         DX          DY          DZ         /D/  (DEBYE)
     0.313510    0.605285    0.253844    0.727390

1 FRAGMENT  1                    -------------------
       ROT  2                    NUCLEAR COORDINATES
       VIB  1                    -------------------
 COORDINATES OF FRAGMENT MULTIPOLE CENTERS (BOHR)
 MULTIPOLE NAME        X              Y              Z
 ------------------------------------------------------------
 FRAGNAME=WATER 
 O1               -4.9824466347  -3.9939396759   0.5687076648
 H2               -3.7482565945  -3.3198411726  -0.5284479319
 H3               -4.3084209283  -3.9009313374   2.2174717615
 FRAGNAME=WATER 
 O1               -9.2822995409  -1.2049494469   3.0470655817
 H2               -8.3986934971  -2.1772938545   1.8407609091
 H3              -10.9583400675  -1.8147008862   3.0688735250
 FRAGNAME=MEOH  
 O1               -4.8094041933  -2.8772395822   6.1455397766
 H2               -6.4311644454  -2.2165339517   5.8234160449
 C3               -3.6141632115  -1.5091121414   8.0720422015
 H4               -1.7738643915  -2.3505183517   8.3541069732
 H5               -3.3591472447   0.4639864752   7.5598681358
 H6               -4.6572633764  -1.6111947357   9.8389589392

                 --------------------------------------
                 FRAGMENT-FRAGMENT INTERACTION ENERGIES
                 --------------------------------------

                 CHARGE-CHARGE         =  -0.0081077905
                 CHARGE-DIPOLE         =  -0.0058605372
                 CHARGE-QUADRUPOLE     =  -0.0054982651
                 CHARGE-OCTUPOLE       =   0.0000640337
                 DIPOLE-DIPOLE         =  -0.0009835394
                 DIPOLE-QUADRUPOLE     =  -0.0013433380
                 QUADRUPOLE-QUADRUPOLE =  -0.0014852983
                 OVERLAP PEN. ENERGY   =   0.0000000000
                                         --------------
                 ELECTROSTATIC ENERGY  =  -0.0232147349
                 REPULSION ENERGY      =   0.0129294963
                 POLARIZATION ENERGY   =  -0.0042059396
                 TOTAL DISPERSION ENERGY(E6+E7+E8) =  -0.0050532830
                 E7 DISPERSION ENERGY     =   0.0000000000
                 E6 DISPERSION ENERGY     =  -0.0037899623
                 --------------------------------------
                 FINAL EFP ENERGY      =  -0.0195444613


          ----------------------------------------
          EFFECTIVE FRAGMENT ELECTROSTATIC MOMENTS
          ----------------------------------------

 FRAGMENT   1  WATER 
          X           Y           Z (BOHR)    CHARGE
    -4.875668   -3.951014    0.599574        0.00 (A.U.)
         DX          DY          DZ         /D/  (DEBYE)
     2.031638    0.600112    0.691051    2.228282

 FRAGMENT   2  WATER 
          X           Y           Z (BOHR)    CHARGE
    -9.326642   -1.293479    2.980784        0.00 (A.U.)
         DX          DY          DZ         /D/  (DEBYE)
    -0.713595   -1.519668   -1.435549    2.208939

 FRAGMENT   3  MEOH  
          X           Y           Z (BOHR)    CHARGE
    -4.266640   -2.182260    7.087485       -0.00 (A.U.)
         DX          DY          DZ         /D/  (DEBYE)
    -1.004072    1.525094    0.995818    2.079838

          ----------------------------
          SYSTEM ELECTROSTATIC MOMENTS
          ----------------------------

 CENTER              X           Y           Z (BOHR)    CHARGE
               -5.767102   -2.415169    4.283336       -0.00 (A.U.)
         DX          DY          DZ         /D/  (DEBYE)
     0.313971    0.605538    0.251320    0.726922

1 FRAGMENT  1                    -------------------
       ROT  3                    NUCLEAR COORDINATES
       VIB  1                    -------------------
 COORDINATES OF FRAGMENT MULTIPOLE CENTERS (BOHR)
 MULTIPOLE NAME        X              Y              Z
 ------------------------------------------------------------
 FRAGNAME=WATER 
 O1               -4.9823727360  -3.9940464023   0.5686009014
 H2               -3.7477608736  -3.3187129498  -0.5273199569
 H3               -4.3100894749  -3.9003657339   2.2180381993
 FRAGNAME=WATER 
 O1               -9.2822995409  -1.2049494469   3.0470655817
 H2               -8.3986934971  -2.1772938545   1.8407609091
 H3              -10.9583400675  -1.8147008862   3.0688735250
 FRAGNAME=MEOH  
 O1               -4.8094041933  -2.8772395822   6.1455397766
 H2               -6.4311644454  -2.2165339517   5.8234160449
 C3               -3.6141632115  -1.5091121414   8.0720422015
 H4               -1.7738643915  -2.3505183517   8.3541069732
 H5               -3.3591472447   0.4639864752   7.5598681358
 H6               -4.6572633764  -1.6111947357   9.8389589392

                 --------------------------------------
                 FRAGMENT-FRAGMENT INTERACTION ENERGIES
                 --------------------------------------

                 CHARGE-CHARGE         =  -0.0081115081
                 CHARGE-DIPOLE         =  -0.0058564956
                 CHARGE-QUADRUPOLE     =  -0.0055021880
                 CHARGE-OCTUPOLE       =   0.0000643055
                 DIPOLE-DIPOLE         =  -0.0009825867
                 DIPOLE-QUADRUPOLE     =  -0.0013414541
                 QUADRUPOLE-QUADRUPOLE =  -0.0014871245
                 OVERLAP PEN. ENERGY   =   0.0000000000
                                         --------------
                 ELECTROSTATIC ENERGY  =  -0.0232170515
                 REPULSION ENERGY      =   0.0129335274
                 POLARIZATION ENERGY   =  -0.0042065647
                 TOTAL DISPERSION ENERGY(E6+E7+E8) =  -0.0050535142
                 E7 DISPERSION ENERGY     =   0.0000000000
                 E6 DISPERSION ENERGY     =  -0.0037901356
                 --------------------------------------
                 FINAL EFP ENERGY      =  -0.0195436029


          ----------------------------------------
          EFFECTIVE FRAGMENT ELECTROSTATIC MOMENTS
          ----------------------------------------

 FRAGMENT   1  WATER 
          X           Y           Z (BOHR)    CHARGE
    -4.875668   -3.951014    0.599574        0.00 (A.U.)
         DX          DY          DZ         /D/  (DEBYE)
     2.030384    0.601958    0.692916    2.228216

 FRAGMENT   2  WATER 
          X           Y           Z (BOHR)    CHARGE
    -9.326642   -1.293479    2.980784        0.00 (A.U.)
         DX          DY          DZ         /D/  (DEBYE)
    -0.713755   -1.519614   -1.435539    2.208947

 FRAGMENT   3  MEOH  
          X           Y           Z (BOHR)    CHARGE
    -4.266640   -2.182260    7.087485       -0.00 (A.U.)
         DX          DY          DZ         /D/  (DEBYE)
    -1.003853    1.525135    0.996207    2.079948

          ----------------------------
[...]
 C3               -3.5298350524  -1.4190291865   7.8161363471
 H4               -1.7295090199  -2.3204033347   8.1633761989
 H5               -3.1879098308   0.4095060850   6.9443453907
 H6               -4.4761918522  -1.1339454283   9.6171387420

                 --------------------------------------
                 FRAGMENT-FRAGMENT INTERACTION ENERGIES
                 --------------------------------------

                 CHARGE-CHARGE         =  -0.0081993477
                 CHARGE-DIPOLE         =  -0.0054038786
                 CHARGE-QUADRUPOLE     =  -0.0064323704
                 CHARGE-OCTUPOLE       =   0.0000592925
                 DIPOLE-DIPOLE         =  -0.0009061403
                 DIPOLE-QUADRUPOLE     =  -0.0012884609
                 QUADRUPOLE-QUADRUPOLE =  -0.0018992413
                 OVERLAP PEN. ENERGY   =   0.0000000000
                                         --------------
                 ELECTROSTATIC ENERGY  =  -0.0240701468
                 REPULSION ENERGY      =   0.0140763901
                 POLARIZATION ENERGY   =  -0.0045541963
                 TOTAL DISPERSION ENERGY(E6+E7+E8) =  -0.0053048884
                 E7 DISPERSION ENERGY     =   0.0000000000
                 E6 DISPERSION ENERGY     =  -0.0039786663
                 --------------------------------------
                 FINAL EFP ENERGY      =  -0.0198528414


          ----------------------------------------
          EFFECTIVE FRAGMENT ELECTROSTATIC MOMENTS
          ----------------------------------------

 FRAGMENT   1  WATER 
          X           Y           Z (BOHR)    CHARGE
    -4.862057   -3.912949    0.684171        0.00 (A.U.)
         DX          DY          DZ         /D/  (DEBYE)
     2.035241    0.520217    0.753784    2.231820

 FRAGMENT   2  WATER 
          X           Y           Z (BOHR)    CHARGE
    -9.331662   -1.304395    2.983813        0.00 (A.U.)
         DX          DY          DZ         /D/  (DEBYE)
    -0.607147   -1.382787   -1.639890    2.229342

 FRAGMENT   3  MEOH  
          X           Y           Z (BOHR)    CHARGE
    -4.275232   -2.210409    6.999860       -0.00 (A.U.)
         DX          DY          DZ         /D/  (DEBYE)
    -0.896684    1.700541    0.790462    2.078633

          ----------------------------
          SYSTEM ELECTROSTATIC MOMENTS
          ----------------------------

 CENTER              X           Y           Z (BOHR)    CHARGE
               -5.768871   -2.421231    4.265288       -0.00 (A.U.)
         DX          DY          DZ         /D/  (DEBYE)
     0.531410    0.837971   -0.095645    0.996865

1 FRAGMENT  3                    -------------------
     TRANS  3                    NUCLEAR COORDINATES
       VIB  2                    -------------------
 COORDINATES OF FRAGMENT MULTIPOLE CENTERS (BOHR)
 MULTIPOLE NAME        X              Y              Z
 ------------------------------------------------------------
 FRAGNAME=WATER 
 O1               -4.9694110413  -3.9528432269   0.6512982953
 H2               -3.6965874639  -3.3135452576  -0.4222949693
 H3               -4.3237372308  -3.8792023585   2.3123421249
 FRAGNAME=WATER 
 O1               -9.2932310897  -1.2232508668   3.0621444955
 H2               -8.3288519254  -2.0099336049   1.7844562128
 H3              -10.9443923139  -1.8866749356   2.9399996344
 FRAGNAME=MEOH  
 O1               -4.9101752411  -3.0221291152   6.2234989281
 H2               -6.5056147448  -2.3201764531   5.8598546045
 C3               -3.5298350524  -1.4180291865   7.8151363471
 H4               -1.7295090199  -2.3194033347   8.1623761989
 H5               -3.1879098308   0.4105060850   6.9433453907
 H6               -4.4761918522  -1.1329454283   9.6161387420

                 --------------------------------------
                 FRAGMENT-FRAGMENT INTERACTION ENERGIES
                 --------------------------------------

                 CHARGE-CHARGE         =  -0.0082026384
                 CHARGE-DIPOLE         =  -0.0054073492
                 CHARGE-QUADRUPOLE     =  -0.0064337013
                 CHARGE-OCTUPOLE       =   0.0000593163
                 DIPOLE-DIPOLE         =  -0.0009065977
                 DIPOLE-QUADRUPOLE     =  -0.0012897775
                 QUADRUPOLE-QUADRUPOLE =  -0.0018990240
                 OVERLAP PEN. ENERGY   =   0.0000000000
                                         --------------
                 ELECTROSTATIC ENERGY  =  -0.0240797719
                 REPULSION ENERGY      =   0.0140928971
                 POLARIZATION ENERGY   =  -0.0045578190
                 TOTAL DISPERSION ENERGY(E6+E7+E8) =  -0.0053081347
                 E7 DISPERSION ENERGY     =   0.0000000000
                 E6 DISPERSION ENERGY     =  -0.0039811010
                 --------------------------------------
                 FINAL EFP ENERGY      =  -0.0198528285


          ----------------------------------------
          EFFECTIVE FRAGMENT ELECTROSTATIC MOMENTS
          ----------------------------------------

 FRAGMENT   1  WATER 
          X           Y           Z (BOHR)    CHARGE
    -4.862057   -3.912949    0.684171        0.00 (A.U.)
         DX          DY          DZ         /D/  (DEBYE)
     2.035291    0.520237    0.753920    2.231916

 FRAGMENT   2  WATER 
          X           Y           Z (BOHR)    CHARGE
    -9.331662   -1.304395    2.983813        0.00 (A.U.)
         DX          DY          DZ         /D/  (DEBYE)
    -0.607255   -1.382800   -1.640033    2.229484

 FRAGMENT   3  MEOH  
          X           Y           Z (BOHR)    CHARGE
    -4.275232   -2.209409    6.998860       -0.00 (A.U.)
         DX          DY          DZ         /D/  (DEBYE)
    -0.896878    1.700678    0.790543    2.078859

          ----------------------------
          SYSTEM ELECTROSTATIC MOMENTS
          ----------------------------

 CENTER              X           Y           Z (BOHR)    CHARGE
               -5.768871   -2.420761    4.264817       -0.00 (A.U.)
         DX          DY          DZ         /D/  (DEBYE)
     0.531158    0.838115   -0.095570    0.996844

1 FRAGMENT  3                    -------------------
       ROT  1                    NUCLEAR COORDINATES
       VIB  2                    -------------------
 COORDINATES OF FRAGMENT MULTIPOLE CENTERS (BOHR)
 MULTIPOLE NAME        X              Y              Z
 ------------------------------------------------------------
 FRAGNAME=WATER 
 O1               -4.9694110413  -3.9528432269   0.6512982953
 H2               -3.6965874639  -3.3135452576  -0.4222949693
 H3               -4.3237372308  -3.8792023585   2.3123421249
 FRAGNAME=WATER 
 O1               -9.2932310897  -1.2232508668   3.0621444955
 H2               -8.3288519254  -2.0099336049   1.7844562128
 H3              -10.9443923139  -1.8866749356   2.9399996344
 FRAGNAME=MEOH  
 O1               -4.9101752411  -3.0229040697   6.2253120353
 H2               -6.5056147448  -2.3213154028   5.8609659410
 C3               -3.5298350524  -1.4172133059   7.8153445589
 H4               -1.7295090199  -2.3182397636   8.1634856110
 H5               -3.1879098308   0.4104492605   6.9417255034
 H6               -4.4761918522  -1.1303286882   9.6160609696

                 --------------------------------------
                 FRAGMENT-FRAGMENT INTERACTION ENERGIES
                 --------------------------------------

                 CHARGE-CHARGE         =  -0.0081974573
                 CHARGE-DIPOLE         =  -0.0053997415
                 CHARGE-QUADRUPOLE     =  -0.0064336996
                 CHARGE-OCTUPOLE       =   0.0000593602
                 DIPOLE-DIPOLE         =  -0.0009054549
                 DIPOLE-QUADRUPOLE     =  -0.0012872831
                 QUADRUPOLE-QUADRUPOLE =  -0.0019003711
                 OVERLAP PEN. ENERGY   =   0.0000000000
                                         --------------
                 ELECTROSTATIC ENERGY  =  -0.0240646471
                 REPULSION ENERGY      =   0.0140669942
                 POLARIZATION ENERGY   =  -0.0045520563
                 TOTAL DISPERSION ENERGY(E6+E7+E8) =  -0.0053031650
                 E7 DISPERSION ENERGY     =   0.0000000000
                 E6 DISPERSION ENERGY     =  -0.0039773737
                 --------------------------------------
                 FINAL EFP ENERGY      =  -0.0198528742


          ----------------------------------------
          EFFECTIVE FRAGMENT ELECTROSTATIC MOMENTS
          ----------------------------------------

 FRAGMENT   1  WATER 
          X           Y           Z (BOHR)    CHARGE
    -4.862057   -3.912949    0.684171        0.00 (A.U.)
         DX          DY          DZ         /D/  (DEBYE)
     2.035214    0.520189    0.753624    2.231735

 FRAGMENT   2  WATER 
          X           Y           Z (BOHR)    CHARGE
    -9.331662   -1.304395    2.983813        0.00 (A.U.)
         DX          DY          DZ         /D/  (DEBYE)
    -0.607187   -1.382772   -1.639846    2.229311

 FRAGMENT   3  MEOH  
          X           Y           Z (BOHR)    CHARGE
    -4.275232   -2.209409    6.999860       -0.00 (A.U.)
         DX          DY          DZ         /D/  (DEBYE)
    -0.896656    1.701114    0.788740    2.078435

          ----------------------------
          SYSTEM ELECTROSTATIC MOMENTS
          ----------------------------

 CENTER              X           Y           Z (BOHR)    CHARGE
               -5.768871   -2.420761    4.265288       -0.00 (A.U.)
         DX          DY          DZ         /D/  (DEBYE)
     0.531371    0.838532   -0.097483    0.997494

1 FRAGMENT  3                    -------------------
       ROT  2                    NUCLEAR COORDINATES
       VIB  2                    -------------------
 COORDINATES OF FRAGMENT MULTIPOLE CENTERS (BOHR)
 MULTIPOLE NAME        X              Y              Z
 ------------------------------------------------------------
 FRAGNAME=WATER 
 O1               -4.9694110413  -3.9528432269   0.6512982953
 H2               -3.6965874639  -3.3135452576  -0.4222949693
 H3               -4.3237372308  -3.8792023585   2.3123421249
 FRAGNAME=WATER 
 O1               -9.2932310897  -1.2232508668   3.0621444955
 H2               -8.3288519254  -2.0099336049   1.7844562128
 H3              -10.9443923139  -1.8866749356   2.9399996344
 FRAGNAME=MEOH  
 O1               -4.9093995628  -3.0221291152   6.2238643723
 H2               -6.5044746245  -2.3201764531   5.8586247914
 C3               -3.5306517014  -1.4180291865   7.8168813355
 H4               -1.7306738089  -2.3194033347   8.1659213394
 H5               -3.1878548599   0.4105060850   6.9454327402
 H6               -4.4788090301  -1.1329454283   9.6169364733

                 --------------------------------------
                 FRAGMENT-FRAGMENT INTERACTION ENERGIES
                 --------------------------------------

                 CHARGE-CHARGE         =  -0.0082038508
                 CHARGE-DIPOLE         =  -0.0054059939
                 CHARGE-QUADRUPOLE     =  -0.0064329562
                 CHARGE-OCTUPOLE       =   0.0000595786
                 DIPOLE-DIPOLE         =  -0.0009061819
                 DIPOLE-QUADRUPOLE     =  -0.0012893211
                 QUADRUPOLE-QUADRUPOLE =  -0.0018978415
                 OVERLAP PEN. ENERGY   =   0.0000000000
                                         --------------
                 ELECTROSTATIC ENERGY  =  -0.0240765669
                 REPULSION ENERGY      =   0.0140859424
                 POLARIZATION ENERGY   =  -0.0045561336
                 TOTAL DISPERSION ENERGY(E6+E7+E8) =  -0.0053060646
                 E7 DISPERSION ENERGY     =   0.0000000000
                 E6 DISPERSION ENERGY     =  -0.0039795484
                 --------------------------------------
                 FINAL EFP ENERGY      =  -0.0198528226


          ----------------------------------------
          EFFECTIVE FRAGMENT ELECTROSTATIC MOMENTS
          ----------------------------------------

 FRAGMENT   1  WATER 
          X           Y           Z (BOHR)    CHARGE
    -4.862057   -3.912949    0.684171        0.00 (A.U.)
         DX          DY          DZ         /D/  (DEBYE)
     2.035367    0.520199    0.753712    2.231907

 FRAGMENT   2  WATER 
          X           Y           Z (BOHR)    CHARGE
    -9.331662   -1.304395    2.983813        0.00 (A.U.)
         DX          DY          DZ         /D/  (DEBYE)
    -0.607454   -1.382755   -1.639959    2.229457

 FRAGMENT   3  MEOH  
          X           Y           Z (BOHR)    CHARGE
    -4.275232   -2.209409    6.999860       -0.00 (A.U.)
         DX          DY          DZ         /D/  (DEBYE)
    -0.897334    1.700640    0.789832    2.078754

          ----------------------------
          SYSTEM ELECTROSTATIC MOMENTS
          ----------------------------

 CENTER              X           Y           Z (BOHR)    CHARGE
               -5.768871   -2.420761    4.265288       -0.00 (A.U.)
         DX          DY          DZ         /D/  (DEBYE)
     0.530579    0.838084   -0.096415    0.996591

1 FRAGMENT  3                    -------------------
       ROT  3                    NUCLEAR COORDINATES
       VIB  2                    -------------------
 COORDINATES OF FRAGMENT MULTIPOLE CENTERS (BOHR)
 MULTIPOLE NAME        X              Y              Z
 ------------------------------------------------------------
 FRAGNAME=WATER 
 O1               -4.9694110413  -3.9528432269   0.6512982953
 H2               -3.6965874639  -3.3135452576  -0.4222949693
 H3               -4.3237372308  -3.8792023585   2.3123421249
 FRAGNAME=WATER 
 O1               -9.2932310897  -1.2232508668   3.0621444955
 H2               -8.3288519254  -2.0099336049   1.7844562128
 H3              -10.9443923139  -1.8866749356   2.9399996344
 FRAGNAME=MEOH  
 O1               -4.9109876432  -3.0214937654   6.2244989281
 H2               -6.5057243966  -2.3179460150   5.8608546045
 C3               -3.5290440450  -1.4187749787   7.8161363471
 H4               -1.7296202867  -2.3219490020   8.1633761989
 H5               -3.1852904593   0.4094174533   6.9443453907
 H6               -4.4751152879  -1.1327450065   9.6171387420

                 --------------------------------------
                 FRAGMENT-FRAGMENT INTERACTION ENERGIES
                 --------------------------------------

                 CHARGE-CHARGE         =  -0.0081984895
                 CHARGE-DIPOLE         =  -0.0054077088
                 CHARGE-QUADRUPOLE     =  -0.0064302278
                 CHARGE-OCTUPOLE       =   0.0000592439
                 DIPOLE-DIPOLE         =  -0.0009068962
                 DIPOLE-QUADRUPOLE     =  -0.0012901941
                 QUADRUPOLE-QUADRUPOLE =  -0.0018985515
                 OVERLAP PEN. ENERGY   =   0.0000000000
                                         --------------
                 ELECTROSTATIC ENERGY  =  -0.0240728241
                 REPULSION ENERGY      =   0.0140811656
                 POLARIZATION ENERGY   =  -0.0045553288
                 TOTAL DISPERSION ENERGY(E6+E7+E8) =  -0.0053058084
                 E7 DISPERSION ENERGY     =   0.0000000000
                 E6 DISPERSION ENERGY     =  -0.0039793563
                 --------------------------------------
                 FINAL EFP ENERGY      =  -0.0198527956


          ----------------------------------------
          EFFECTIVE FRAGMENT ELECTROSTATIC MOMENTS
          ----------------------------------------

 FRAGMENT   1  WATER 
          X           Y           Z (BOHR)    CHARGE
    -4.862057   -3.912949    0.684171        0.00 (A.U.)
         DX          DY          DZ         /D/  (DEBYE)
     2.035167    0.520221    0.753806    2.231761

 FRAGMENT   2  WATER 
          X           Y           Z (BOHR)    CHARGE
    -9.331662   -1.304395    2.983813        0.00 (A.U.)
         DX          DY          DZ         /D/  (DEBYE)
    -0.607243   -1.382966   -1.640018    2.229574

 FRAGMENT   3  MEOH  
          X           Y           Z (BOHR)    CHARGE
    -4.275232   -2.209409    6.999860       -0.00 (A.U.)
         DX          DY          DZ         /D/  (DEBYE)
    -0.895350    1.701164    0.790216    2.078474

          ----------------------------
          SYSTEM ELECTROSTATIC MOMENTS
          ----------------------------

 CENTER              X           Y           Z (BOHR)    CHARGE
               -5.768871   -2.420761    4.265288       -0.00 (A.U.)
         DX          DY          DZ         /D/  (DEBYE)
     0.532574    0.838420   -0.095996    0.997897


          NSERCH= 10     ENERGY=      -0.0198528
  EFP           TOTAL GRADIENT                           TORQUES
    1  -0.0000290  0.0000157  0.0000110    -0.0000489 -0.0000941  0.0000207
    2   0.0000174 -0.0000136 -0.0000030    -0.0000129 -0.0000227  0.0000197
    3   0.0000117 -0.0000020 -0.0000080     0.0000390  0.0000120 -0.0000349

          MAXIMUM GRADIENT = 0.0000941    RMS GRADIENT = 0.0000312

 NSERCH:  10  E=       -0.0198528449  GRAD. MAX=  0.0000941  R.M.S.=  0.0000312


      ***** EQUILIBRIUM GEOMETRY LOCATED *****
  
 COORDINATES OF FRAGMENT MULTIPOLE CENTERS (ANGS)
 MULTIPOLE NAME        X              Y              Z
 ------------------------------------------------------------
 FRAGNAME=WATER 
 O1               -2.6296992652  -2.0917547055   0.3446522404
 H2               -1.9561499857  -1.7534527647  -0.2234688902
 H3               -2.2880233742  -2.0527856333   1.2236388449
 FRAGNAME=WATER 
 O1               -4.9177664646  -0.6473165288   1.6204172009
 H2               -4.4074389512  -1.0636111362   0.9442936301
 H3               -5.7915234193  -0.9983854526   1.5557809193
 FRAGNAME=MEOH  
 O1               -2.5983530274  -1.5992419720   3.2938632207
 H2               -3.4426233153  -1.2277845932   3.1014309178
 C3               -1.8679084033  -0.7503887843   4.1361215318
 H4               -0.9152168257  -1.2273754765   4.3198729614
 H5               -1.6869693551   0.2172304809   3.6747895916
 H6               -2.3686988914  -0.5995289453   5.0891710251

     EFFECTIVE FRAGMENT CALCULATION'S TOTAL ENERGY=  -0.0198528449
  $VIB   
          IVIB=   0 IATOM=   0 ICOORD=   0 E=       -0.0198528449
-2.904731214E-05 1.566117734E-05 1.100221234E-05
-4.889516413E-05-9.414161416E-05 2.073758711E-05
 1.735230924E-05-1.361394708E-05-3.048628969E-06
-1.288364014E-05-2.269579616E-05 1.965974566E-05
 1.169478168E-05-2.047227166E-06-7.953491827E-06
 3.901144338E-05 1.201275451E-05-3.486704691E-05
  0.000000000E+00 0.000000000E+00 0.000000000E+00
 ......END OF GEOMETRY SEARCH......
 STEP CPU TIME =     1.24 TOTAL CPU TIME =        1.3 (    0.0 MIN)
 TOTAL WALL CLOCK TIME=        1.4 SECONDS, CPU UTILIZATION IS  97.81%
                29239  WORDS OF DYNAMIC MEMORY USED
 EXECUTION OF GAMESS TERMINATED NORMALLY Fri Jun  2 01:59:44 2017
 DDI: 263640 bytes (0.3 MB / 0 MWords) used by master data server.

 ----------------------------------------
 CPU timing information for all processes
 ========================================
 0: 1.321 + 0.29 = 1.351
 ----------------------------------------
 ddikick.x: exited gracefully.
unset echo
----- accounting info -----
Files used on the master node compute-0-8.local were:
-rw-rw-r-- 1 sarom sarom  59729 Jun  2 01:59 /scratch/efp2-fo-opt-numgrd.F05
-rw-rw-r-- 1 sarom sarom      0 Jun  2 01:59 /scratch/efp2-fo-opt-numgrd.F08
-rw-rw-r-- 1 sarom sarom 359920 Jun  2 01:59 /scratch/efp2-fo-opt-numgrd.F10
-rw-rw-r-- 1 sarom sarom      0 Jun  2 01:59 /scratch/efp2-fo-opt-numgrd.F25
rm: cannot remove `/scratch/sarom': Is a directory
rm: cannot remove `/scratch/tmp': Is a directory
ls: No match.
ls: No match.
ls: No match.
Fri Jun  2 01:59:47 CDT 2017
0.261u 0.188s 0:04.93 8.9%	0+0k 120+480io 0pf+0w
Deleting shmid=2785280.
Deleting shmid=2818049.
/opt/gridengine/default/spool/compute-0-8/active_jobs/23653.1/pe_hostfile compute-0-8.local
