-catch_rsh /opt/gridengine/default/spool/compute-1-7/active_jobs/35870.1/pe_hostfile
compute-1-7
The primary node assigned by SGE to this run is compute-1-7
Warning: no access to tty (Bad file descriptor).
Thus no job control in this shell.
source /home/sarom/dir.git.branch.saromleang-travis-ci/install.info
setenv GMS_PATH /home/sarom/dir.git.branch.saromleang-travis-ci
setenv GMS_BUILD_DIR /home/sarom/dir.git.branch.saromleang-travis-ci
setenv GMS_TARGET linux64
setenv GMS_FORTRAN gfortran
setenv GMS_GFORTRAN_VERNO 4.4
setenv GMS_MATHLIB mkl-so
setenv GMS_MATHLIB none
setenv GMS_MATHLIB_PATH /share/apps/intel/compilers_and_libraries_2017.1.132/linux/mkl/lib/intel64
setenv GMS_MKL_VERNO 12
setenv GMS_DDI_COMM sockets
setenv GMS_LIBCCHEM false
setenv GMS_EIGEN_PATH
setenv GMS_PHI false
setenv GMS_SHMTYPE sysv
setenv GMS_OPENMP false
unset echo
nh3-mp2-seminum-ims
/home/sarom/dir.git.branch.saromleang-travis-ci/tests/numdiff
----- GAMESS execution script 'rungms' -----
This job is running on host compute-1-7.local
under operating system Linux at Wed Aug 9 20:32:11 CDT 2017
Available scratch disk space (Kbyte units) at beginning of the job is
Filesystem           1K-blocks      Used Available Use% Mounted on
/dev/sda1             16126920   8505684   6802036  56% /
GAMESS temporary binary files will be written to /scratch
GAMESS supplementary output files will be written to /home/sarom/restart
Copying input file nh3-mp2-seminum-ims.inp to your run's scratch directory...
cp /home/sarom/dir.git.branch.saromleang-travis-ci/tests/numdiff/nh3-mp2-seminum-ims.inp /scratch/nh3-mp2-seminum-ims.F05
unset echo
The generated host list is
compute-1-7.local
/home/sarom/dir.git.branch.saromleang-travis-ci/ddikick.x /home/sarom/dir.git.branch.saromleang-travis-ci/gamess.00.x nh3-mp2-seminum-ims -ddi 1 1 compute-1-7.local -scr /scratch

 Distributed Data Interface kickoff program.
 Initiating 1 compute processes on 1 nodes to run the following command:
 /home/sarom/dir.git.branch.saromleang-travis-ci/gamess.00.x nh3-mp2-seminum-ims 

          ******************************************************
          *         GAMESS VERSION = 20 APR 2017 (R1)          *
          *             FROM IOWA STATE UNIVERSITY             *
          * M.W.SCHMIDT, K.K.BALDRIDGE, J.A.BOATZ, S.T.ELBERT, *
          *   M.S.GORDON, J.H.JENSEN, S.KOSEKI, N.MATSUNAGA,   *
          *          K.A.NGUYEN, S.J.SU, T.L.WINDUS,           *
          *       TOGETHER WITH M.DUPUIS, J.A.MONTGOMERY       *
          *         J.COMPUT.CHEM.  14, 1347-1363(1993)        *
          **************** 64 BIT LINUX VERSION ****************

  SINCE 1993, STUDENTS AND POSTDOCS WORKING AT IOWA STATE UNIVERSITY
  AND ALSO IN THEIR VARIOUS JOBS AFTER LEAVING ISU HAVE MADE IMPORTANT
  CONTRIBUTIONS TO THE CODE:
     IVANA ADAMOVIC, CHRISTINE AIKENS, YURI ALEXEEV, POOJA ARORA,
     ANDREY ASADCHEV, ROB BELL, PRADIPTA BANDYOPADHYAY, JONATHAN BENTZ,
     BRETT BODE, KURT BRORSEN, CALEB CARLIN, GALINA CHABAN, WEI CHEN,
     CHEOL HO CHOI, PAUL DAY, ALBERT DEFUSCO, NUWAN DESILVA, TIM DUDLEY,
     DMITRI FEDOROV, GRAHAM FLETCHER, MARK FREITAG, KURT GLAESEMANN,
     DAN KEMP, GRANT MERRILL, NORIYUKI MINEZAWA, JONATHAN MULLIN,
     TAKESHI NAGATA, SEAN NEDD, HEATHER NETZLOFF, BOSILJKA NJEGIC, RYAN OLSON,
     MIKE PAK, SPENCER PRUITT, LUKE ROSKOP, JIM SHOEMAKER, LYUDMILA SLIPCHENKO,
     TONY SMITH, SAROM SOK LEANG, JIE SONG, TETSUYA TAKETSUGU, SIMON WEBB,
     PENG XU, SOOHAENG YOO, FEDERICO ZAHARIEV

  ADDITIONAL CODE HAS BEEN PROVIDED BY COLLABORATORS IN OTHER GROUPS:
     IOWA STATE UNIVERSITY:
          JOE IVANIC, AARON WEST, LAIMUTIS BYTAUTAS, KLAUS RUEDENBERG
     UNIVERSITY OF TOKYO: KIMIHIKO HIRAO, TAKAHITO NAKAJIMA,
          TAKAO TSUNEDA, MUNEAKI KAMIYA, SUSUMU YANAGISAWA,
          KIYOSHI YAGI, MAHITO CHIBA, SEIKEN TOKURA, NAOAKI KAWAKAMI
     UNIVERSITY OF AARHUS: FRANK JENSEN
     UNIVERSITY OF IOWA: VISVALDAS KAIRYS, HUI LI
     NATIONAL INST. OF STANDARDS AND TECHNOLOGY: WALT STEVENS, DAVID GARMER
     UNIVERSITY OF PISA: BENEDETTA MENNUCCI, JACOPO TOMASI
     UNIVERSITY OF MEMPHIS: HENRY KURTZ, PRAKASHAN KORAMBATH
     UNIVERSITY OF ALBERTA: TOBY ZENG, MARIUSZ KLOBUKOWSKI
     UNIVERSITY OF NEW ENGLAND: MARK SPACKMAN
     MIE UNIVERSITY: HIROAKI UMEDA
     NAT. INST. OF ADVANCED INDUSTRIAL SCIENCE AND TECHNOLOGY: KAZUO KITAURA
     MICHIGAN STATE UNIVERSITY:
          KAROL KOWALSKI, MARTA WLOCH, JEFFREY GOUR, JESSE LUTZ,
          WEI LI, PIOTR PIECUCH
     UNIVERSITY OF SILESIA: MONIKA MUSIAL, STANISLAW KUCHARSKI
     FACULTES UNIVERSITAIRES NOTRE-DAME DE LA PAIX:
          OLIVIER QUINET, BENOIT CHAMPAGNE
     UNIVERSITY OF CALIFORNIA - SANTA BARBARA: BERNARD KIRTMAN
     INSTITUTE FOR MOLECULAR SCIENCE:
          KAZUYA ISHIMURA, MICHIO KATOUDA, AND SHIGERU NAGASE
     UNIVERSITY OF NOTRE DAME: ANNA POMOGAEVA, DAN CHIPMAN
     KYUSHU UNIVERSITY:
          HARUYUKI NAKANO,
          FENG LONG GU, JACEK KORCHOWIEC, MARCIN MAKOWSKI, AND YURIKO AOKI,
          HIROTOSHI MORI AND EISAKU MIYOSHI
     PENNSYLVANIA STATE UNIVERSITY:
          TZVETELIN IORDANOV, CHET SWALINA, JONATHAN SKONE,
          SHARON HAMMES-SCHIFFER
     WASEDA UNIVERSITY:
          MASATO KOBAYASHI, TOMOKO AKAMA, TSUGUKI TOUMA,
          TAKESHI YOSHIKAWA, YASUHIRO IKABATA, JUNJI SEINO,
          YUYA NAKAJIMA, HIROMI NAKAI
     NANJING UNIVERSITY: SHUHUA LI
     UNIVERSITY OF NEBRASKA:
          PEIFENG SU, DEJUN SI, NANDUN THELLAMUREGE, YALI WANG, HUI LI
     UNIVERSITY OF ZURICH: ROBERTO PEVERATI, KIM BALDRIDGE
     N. COPERNICUS UNIVERSITY AND JACKSON STATE UNIVERSITY:
          MARIA BARYSZ
     UNIVERSITY OF COPENHAGEN: Jimmy Kromann, CASPER STEINMANN
     TOKYO INSTITUTE OF TECHNOLOGY: HIROYA NAKATA
     NAGOYA UNIVERSITY: YOSHIO NISHIMOTO, STEPHAN IRLE
     MOSCOW STATE UNIVERSITY: VLADIMIR MIRONOV

 EXECUTION OF GAMESS BEGUN Wed Aug  9 20:32:11 2017

            ECHO OF THE FIRST FEW INPUT CARDS -
 INPUT CARD>!  Test of numerical MP2 hessian for non-Abelian molecule (ammonia).            
 INPUT CARD>!  Since restart data is provided, only the SCF wfn at Vib0 is                  
 INPUT CARD>!  computed, along with RHF+MP2 at 4 displacements.                             
 INPUT CARD>!                                                                               
 INPUT CARD>!  Vib0 E(MP2)= -56.3542116434 (value is not computed in this run)              
 INPUT CARD>!       FREQ= 1162.02, 1755.04, 1755.04, 3502.65, 3658.58, 3658.58              
 INPUT CARD>!  Intensity= 4.42688, 0.46799, 0.46799, 0.00190, 0.01453, 0.01453              
 INPUT CARD>!                                                                               
 INPUT CARD>!  This run takes 1 second on 2.66 GHz Cloverton (15 Apr 2015)                  
 INPUT CARD>!  results changed only minisculely since 2005.                                 
 INPUT CARD>!                                                                               
 INPUT CARD> $mp2 code=ims $end                                                             
 INPUT CARD> $contrl scftyp=rhf mplevl=2 runtyp=hessian coord=zmt $end                      
 INPUT CARD> $system mwords=1 memddi=10 $end                                                
 INPUT CARD> $basis  gbasis=n31 ngauss=6 ndfunc=1 $end                                      
 INPUT CARD> $guess  guess=huckel $end                                                      
 INPUT CARD> $force  method=numeric nvib=2 $end                                             
 INPUT CARD> $data                                                                          
 INPUT CARD>ammonia...MP2/6-31G(d)                                                          
 INPUT CARD>Cnv 3                                                                           
 INPUT CARD>                                                                                
 INPUT CARD>N                                                                               
 INPUT CARD>H 1 rNH                                                                         
 INPUT CARD>H 1 rNH 2 aHNH                                                                  
 INPUT CARD>H 1 rNH 2 aHNH 3 aHNH +1                                                        
 INPUT CARD>                                                                                
 INPUT CARD>rNH=1.0170604                                                                   
 INPUT CARD>aHNH=106.3168316                                                                
 INPUT CARD> $end                                                                           
 INPUT CARD>                                                                                
 INPUT CARD>ENERGY/GRADIENT/DIPOLE RESTART DATA FOR RUNTYP=HESSIAN                          
 INPUT CARD>ammonia...MP2/6-31G(d)                                                          
 INPUT CARD> $VIB                                                                           
 INPUT CARD>         IVIB=   0 IATOM=   0 ICOORD=   0 E=      -56.3542116430                
 INPUT CARD>-2.175372115E-08 0.000000000E+00 9.731119248E-07 5.041640574E-07-8.738741031E-07
 INPUT CARD>-3.273720748E-07 5.041640692E-07 8.738740944E-07-3.273720746E-07-9.865744015E-07
 INPUT CARD> 0.000000000E+00-3.183677438E-07                                                
 INPUT CARD> 5.643854273E-15-8.399486641E-15-1.965712077E+00                                
 INPUT CARD>         IVIB=   1 IATOM=   1 ICOORD=   1 E=      -56.3541785456                
 INPUT CARD> 6.597645255E-03 0.000000000E+00-4.728237209E-05-1.440921951E-03 1.354791049E-03
 INPUT CARD> 9.252969765E-04-1.440921951E-03-1.354791050E-03 9.252969765E-04-3.715801352E-03
 INPUT CARD> 0.000000000E+00-1.803311581E-03                                                
 INPUT CARD>-9.775858179E-03-3.210367459E-14-1.965714964E+00                                
 INPUT CARD>         IVIB=   1 IATOM=   1 ICOORD=   2 E=      -56.3541783260                
 INPUT CARD> 6.584822380E-05 6.663536647E-03-4.772692849E-05 1.317684346E-03-2.965791323E-03
 INPUT CARD>-1.566110055E-03-1.372912702E-03-3.029736218E-03 1.616082196E-03-1.061986765E-05
 INPUT CARD>-6.680091059E-04-2.245212617E-06                                                
 INPUT CARD>-3.913881002E-05-9.814991795E-03-1.965714990E+00                                
 INPUT CARD>         IVIB=   1 IATOM=   1 ICOORD=   3 E=      -56.3541994304                
 INPUT CARD>-1.361532849E-08 0.000000000E+00 2.448823867E-03 5.933637977E-04-1.027736632E-03
    1000000 WORDS OF MEMORY AVAILABLE

     BASIS OPTIONS
     -------------
     GBASIS=N31          IGAUSS=       6      POLAR=POPN31  
     NDFUNC=       1     NFFUNC=       0     DIFFSP=       F
     NPFUNC=       0      DIFFS=       F     BASNAM=        


     RUN TITLE
     ---------
 ammonia...MP2/6-31G(d)                                                          

 THE POINT GROUP OF THE MOLECULE IS CNV     
 THE ORDER OF THE PRINCIPAL AXIS IS     3

 YOUR FULLY SUBSTITUTED Z-MATRIX IS
 N   
 H      1   1.0170604
 H      1   1.0170604  2  106.3168
 H      1   1.0170604  2  106.3168  3  106.3168  1

 THE MOMENTS OF INERTIA ARE (AMU-ANGSTROM**2)
 IXX=     1.711   IYY=     1.711   IZZ=     2.671

 ATOM      ATOMIC                      COORDINATES (BOHR)
           CHARGE         X                   Y                   Z
 N           7.0     0.0000000000        0.0000000000        0.1304225730
 H           1.0     0.8880467242       -1.5381420458       -0.6040454839
 H           1.0     0.8880467242        1.5381420458       -0.6040454839
 H           1.0    -1.7760934484        0.0000000000       -0.6040454839

          INTERNUCLEAR DISTANCES (ANGS.)
          ------------------------------

                1 N          2 H          3 H          4 H     

   1 N       0.0000000    1.0170604 *  1.0170604 *  1.0170604 *
   2 H       1.0170604 *  0.0000000    1.6278996 *  1.6278996 *
   3 H       1.0170604 *  1.6278996 *  0.0000000    1.6278996 *
   4 H       1.0170604 *  1.6278996 *  1.6278996 *  0.0000000  

  * ... LESS THAN  3.000


     ATOMIC BASIS SET
     ----------------
 THE CONTRACTED PRIMITIVE FUNCTIONS HAVE BEEN UNNORMALIZED
 THE CONTRACTED BASIS FUNCTIONS ARE NOW NORMALIZED TO UNITY

  SHELL TYPE  PRIMITIVE        EXPONENT          CONTRACTION COEFFICIENT(S)

 N         

      1   S       1          4173.5114600    0.001834772160
      1   S       2           627.4579110    0.013994627002
      1   S       3           142.9020930    0.068586551812
      1   S       4            40.2343293    0.232240873040
      1   S       5            12.8202129    0.469069948082
      1   S       6             4.3904370    0.360455199063

      2   L       7            11.6263619   -0.114961181702    0.067579743878
      2   L       8             2.7162798   -0.169117478561    0.323907295893
      2   L       9             0.7722184    1.145851947027    0.740895139755

      3   L      10             0.2120315    1.000000000000    1.000000000000

      4   D      11             0.8000000    1.000000000000

 H         

      9   S      12            18.7311370    0.033494604338
      9   S      13             2.8253944    0.234726953484
      9   S      14             0.6401217    0.813757326146

     10   S      15             0.1612778    1.000000000000

 TOTAL NUMBER OF BASIS SET SHELLS             =   10
 NUMBER OF CARTESIAN GAUSSIAN BASIS FUNCTIONS =   21
 NUMBER OF ELECTRONS                          =   10
 CHARGE OF MOLECULE                           =    0
 SPIN MULTIPLICITY                            =    1
 NUMBER OF OCCUPIED ORBITALS (ALPHA)          =    5
 NUMBER OF OCCUPIED ORBITALS (BETA )          =    5
 TOTAL NUMBER OF ATOMS                        =    4
 THE NUCLEAR REPULSION ENERGY IS       11.9015174513

     $CONTRL OPTIONS
     ---------------
 SCFTYP=RHF          RUNTYP=HESSIAN      EXETYP=RUN     
 MPLEVL=       2     CITYP =NONE         CCTYP =NONE         VBTYP =NONE    
 DFTTYP=NONE         TDDFT =NONE    
 MULT  =       1     ICHARG=       0     NZVAR =       0     COORD =ZMT     
 PP    =NONE         RELWFN=NONE         LOCAL =NONE         NUMGRD=       F
 ISPHER=      -1     NOSYM =       0     MAXIT =      30     UNITS =ANGS    
 PLTORB=       F     MOLPLT=       F     AIMPAC=       F     FRIEND=        
 NPRINT=       7     IREST =       0     GEOM  =INPUT   
 NORMF =       0     NORMP =       0     ITOL  =      20     ICUT  =       9
 INTTYP=BEST         GRDTYP=BEST         QMTTOL= 1.0E-06

     $SYSTEM OPTIONS
     ---------------
  REPLICATED MEMORY=     1000000 WORDS (ON EVERY NODE).
 DISTRIBUTED MEMDDI=          10 MILLION WORDS IN AGGREGATE,
 MEMDDI DISTRIBUTED OVER   1 PROCESSORS IS    10000000 WORDS/PROCESSOR.
 TOTAL MEMORY REQUESTED ON EACH PROCESSOR=    11000000 WORDS.
 TIMLIM=      525600.00 MINUTES, OR     365.0 DAYS.
 PARALL= F  BALTYP=  DLB     KDIAG=    0  COREFL= F
 MXSEQ2=     300 MXSEQ3=     150  mem10=         0

          ----------------
          PROPERTIES INPUT
          ----------------

     MOMENTS            FIELD           POTENTIAL          DENSITY
 IEMOM =       1   IEFLD =       0   IEPOT =       0   IEDEN =       0
 WHERE =COMASS     WHERE =NUCLEI     WHERE =NUCLEI     WHERE =NUCLEI  
 OUTPUT=BOTH       OUTPUT=BOTH       OUTPUT=BOTH       OUTPUT=BOTH    
 IEMINT=       0   IEFINT=       0                     IEDINT=       0
                                                       MORB  =       0
          EXTRAPOLATION IN EFFECT
          DIIS IN EFFECT
 ORBITAL PRINTING OPTION: NPREO=     1    21     2     1

     -------------------------------
     INTEGRAL TRANSFORMATION OPTIONS
     -------------------------------
     NWORD  =            0
     CUTOFF = 1.0E-09     MPTRAN =       0
     DIRTRF =       F     AOINTS =DUP     

          ----------------------
          INTEGRAL INPUT OPTIONS
          ----------------------
 NOPK  =       1 NORDER=       0 SCHWRZ=       F

          -----------------------
          MP2 CONTROL INFORMATION
          -----------------------
          NACORE =        1  NBCORE =        1
          LMOMP2 =        F  AOINTS = DUP     
          METHOD =        2  NWORD  =               0
          MP2PRP =        F  OSPT   = NONE    
          CUTOFF = 1.00E-09  CPHFBS = BASISAO 
          CODE   = IMS     

          NUMBER OF CORE -A-  ORBITALS =     1
          NUMBER OF CORE -B-  ORBITALS =     1
          NUMBER OF OCC. -A-  ORBITALS =     5
          NUMBER OF OCC. -B-  ORBITALS =     5
          NUMBER OF MOLECULAR ORBITALS =    21
          NUMBER OF   BASIS  FUNCTIONS =    21


 **** EFFICIENCY NOTE ****
 THE MP2 TRANSFORMATION CANNOT USE SYMMETRY WHEN THE GROUP IS NON-ABELIAN.
 YOU MAY BE ABLE TO SPEED UP THIS RUN BY USING AN ABELIAN SUBGROUP IN $DATA.


     ------------------------------------------
     THE POINT GROUP IS CNV, NAXIS= 3, ORDER= 6
     ------------------------------------------

     DIMENSIONS OF THE SYMMETRY SUBSPACES ARE
 A1  =    9     A2  =    0     E   =    6

 ..... DONE SETTING UP THE RUN .....
 STEP CPU TIME =     0.02 TOTAL CPU TIME =        0.0 (    0.0 MIN)
 TOTAL WALL CLOCK TIME=        0.0 SECONDS, CPU UTILIZATION IS  66.67%

     ---------------------------------
     HESSIAN MATRIX CONTROL PARAMETERS
     ---------------------------------
     METHOD=SEMINUM    NVIB  =       2   VIBSIZ= 0.01000
     RDHESS=       F   PURIFY=       F   PRTIFC=       F
     VIBANL=       T   DECOMP=       F   PROJCT=       F
     SCLFAC= 1.00000   PRTSCN=       F   NPRT  =       0
     PULCOR=       F   NPUN  =       0   REDOVB=       T
     HSSTYP=GENERAL 
     THERMOCHEMISTRY WILL BE PRINTED FOR    1 TEMPERATURES:
      298.15000

     A $VIB GROUP WAS FOUND IN YOUR INPUT.
     THEREFORE, THIS IS A NUMERICAL HESSIAN RESTART.

          ********************
          1 ELECTRON INTEGRALS
          ********************
 ...... END OF ONE-ELECTRON INTEGRALS ......
 STEP CPU TIME =     0.00 TOTAL CPU TIME =        0.0 (    0.0 MIN)
 TOTAL WALL CLOCK TIME=        0.0 SECONDS, CPU UTILIZATION IS  66.67%

          -------------
          GUESS OPTIONS
          -------------
          GUESS =HUCKEL            NORB  =       0          NORDER=       0
          MIX   =       F          PRTMO =       F          PUNMO =       F
          TOLZ  = 1.0E-08          TOLE  = 1.0E-05
          SYMDEN=       F          PURIFY=       F

 INITIAL GUESS ORBITALS GENERATED BY HUCKEL   ROUTINE.
 HUCKEL GUESS REQUIRES      6369 WORDS.

 SYMMETRIES FOR INITIAL GUESS ORBITALS FOLLOW.   BOTH SET(S).
     5 ORBITALS ARE OCCUPIED (    1 CORE ORBITALS).
     2=A1       3=E        4=E        5=A1       6=E        7=E        8=A1  
     9=A1      10=A1      11=A1      12=A1      13=A1      14=E       15=E   
 ...... END OF INITIAL ORBITAL SELECTION ......
 STEP CPU TIME =     0.00 TOTAL CPU TIME =        0.0 (    0.0 MIN)
 TOTAL WALL CLOCK TIME=        0.0 SECONDS, CPU UTILIZATION IS  66.67%

     EITHER THIS IS AN MCSCF FUNCTION, IN WHICH CASE THE
     VIB 0 CI EIGENVECTOR IS UNKNOWN, OR YOU DID NOT
     READ IN CONVERGED VIB 0 ORBITALS BY GUESS=MOREAD.

     THEREFORE THE VIB 0 WAVEFUNCTION MUST BE REEVALUATED.

          ********************
          1 ELECTRON INTEGRALS
          ********************
 ...... END OF ONE-ELECTRON INTEGRALS ......
 STEP CPU TIME =     0.00 TOTAL CPU TIME =        0.0 (    0.0 MIN)
 TOTAL WALL CLOCK TIME=        0.0 SECONDS, CPU UTILIZATION IS  66.67%

                    ----------------------
                    AO INTEGRAL TECHNOLOGY
                    ----------------------
     S,P,L SHELL ROTATED AXIS INTEGRALS, REPROGRAMMED BY
        KAZUYA ISHIMURA (IMS) AND JOSE SIERRA (SYNSTAR).
     S,P,D,L SHELL ROTATED AXIS INTEGRALS PROGRAMMED BY
        KAZUYA ISHIMURA (INSTITUTE FOR MOLECULAR SCIENCE).
     S,P,D,F,G SHELL TO TOTAL QUARTET ANGULAR MOMENTUM SUM 5,
        ERIC PROGRAM BY GRAHAM FLETCHER (ELORET AND NASA ADVANCED
        SUPERCOMPUTING DIVISION, AMES RESEARCH CENTER).
     S,P,D,F,G,L SHELL GENERAL RYS QUADRATURE PROGRAMMED BY
        MICHEL DUPUIS (PACIFIC NORTHWEST NATIONAL LABORATORY).

          --------------------
          2 ELECTRON INTEGRALS
          --------------------

 THE -PK- OPTION IS OFF, THE INTEGRALS ARE NOT IN SUPERMATRIX FORM.
 STORING   15000 INTEGRALS/RECORD ON DISK, USING 12 BYTES/INTEGRAL.
 TWO ELECTRON INTEGRAL EVALUATION REQUIRES   90451 WORDS OF MEMORY.
 II,JST,KST,LST =  1  1  1  1 NREC =         1 INTLOC =    1
 II,JST,KST,LST =  2  1  1  1 NREC =         1 INTLOC =    2
 II,JST,KST,LST =  3  1  1  1 NREC =         1 INTLOC =   34
 II,JST,KST,LST =  4  1  1  1 NREC =         1 INTLOC =  214
 II,JST,KST,LST =  5  1  1  1 NREC =         1 INTLOC = 1189
 II,JST,KST,LST =  6  1  1  1 NREC =         1 INTLOC = 1189
 II,JST,KST,LST =  7  1  1  1 NREC =         1 INTLOC = 1189
 II,JST,KST,LST =  8  1  1  1 NREC =         1 INTLOC = 1189
 II,JST,KST,LST =  9  1  1  1 NREC =         1 INTLOC = 1189
 II,JST,KST,LST = 10  1  1  1 NREC =         1 INTLOC = 2682
 TOTAL NUMBER OF NONZERO TWO-ELECTRON INTEGRALS =                5020
          1 INTEGRAL RECORDS WERE STORED ON DISK FILE  8.
  ...... END OF TWO-ELECTRON INTEGRALS .....
 STEP CPU TIME =     0.02 TOTAL CPU TIME =        0.0 (    0.0 MIN)
 TOTAL WALL CLOCK TIME=        0.0 SECONDS, CPU UTILIZATION IS  80.00%

          --------------------------
                 RHF SCF CALCULATION
          --------------------------

     NUCLEAR ENERGY =        11.9015174513
     MAXIT =   30     NPUNCH=    2
     EXTRAP=T  DAMP=F  SHIFT=F  RSTRCT=F  DIIS=T  DEM=F  SOSCF=F
     DENSITY MATRIX CONV=  1.00E-06
     MEMORY REQUIRED FOR RHF ITERS=     34046 WORDS.

 ITER EX DEM     TOTAL ENERGY        E CHANGE  DENSITY CHANGE    DIIS ERROR
   1  0  0      -55.9979637790   -55.9979637790   0.198514799   0.642398336
          * * *   INITIATING DIIS PROCEDURE   * * *
   2  1  0      -56.1725974134    -0.1746336344   0.076256224   0.062985791
   3  2  0      -56.1823616125    -0.0097641991   0.039618023   0.019059204
   4  3  0      -56.1837265857    -0.0013649732   0.009623521   0.005441599
   5  4  0      -56.1838049957    -0.0000784100   0.003483904   0.002192089
   6  5  0      -56.1838188009    -0.0000138052   0.001801224   0.000732214
   7  6  0      -56.1838205716    -0.0000017707   0.000251140   0.000077956
   8  7  0      -56.1838205964    -0.0000000248   0.000029139   0.000017716
   9  8  0      -56.1838205970    -0.0000000005   0.000003804   0.000001847
  10  9  0      -56.1838205970    -0.0000000000   0.000000317   0.000000152
  11 10  0      -56.1838205970     0.0000000000   0.000000004   0.000000011

          -----------------
          DENSITY CONVERGED
          -----------------
     TIME TO FORM FOCK OPERATORS=       0.0 SECONDS (       0.0 SEC/ITER)
     TIME TO SOLVE SCF EQUATIONS=       0.0 SECONDS (       0.0 SEC/ITER)

 FINAL RHF ENERGY IS      -56.1838205970 AFTER  11 ITERATIONS

          ------------
          EIGENVECTORS
          ------------

                      1          2          3          4          5
                  -15.5404    -1.1346    -0.6206    -0.6206    -0.4221
                     A1         A1         E          E          A1  
    1  N  1  S    0.994992  -0.197225   0.000000   0.000000  -0.065100
    2  N  1  S    0.024710   0.409655   0.000000   0.000000   0.153208
    3  N  1  X    0.000000   0.000000   0.470357   0.000000  -0.000000
    4  N  1  Y    0.000000   0.000000   0.000000   0.470357  -0.000000
    5  N  1  Z   -0.001554  -0.089228   0.000000   0.000000   0.552239
    6  N  1  S   -0.001625   0.433833   0.000000   0.000000   0.278200
    7  N  1  X    0.000000   0.000000   0.280175   0.000000  -0.000000
    8  N  1  Y    0.000000   0.000000   0.000000   0.280175  -0.000000
    9  N  1  Z    0.000931  -0.050199   0.000000   0.000000   0.486654
   10  N  1 XX   -0.003490   0.014362  -0.021302   0.000000   0.008262
   11  N  1 YY   -0.003490   0.014362   0.021302   0.000000   0.008262
   12  N  1 ZZ   -0.003298   0.000684   0.000000   0.000000  -0.032562
   13  N  1 XY    0.000000   0.000000   0.000000   0.024597  -0.000000
   14  N  1 XZ    0.000000   0.000000  -0.040311   0.000000  -0.000000
   15  N  1 YZ    0.000000   0.000000   0.000000  -0.040311  -0.000000
   16  H  2  S    0.000229   0.135674   0.137653  -0.238423  -0.066961
   17  H  2  S    0.000567   0.010174   0.084469  -0.146305  -0.050924
   18  H  3  S    0.000229   0.135674   0.137653   0.238423  -0.066961
   19  H  3  S    0.000567   0.010174   0.084469   0.146305  -0.050924
   20  H  4  S    0.000229   0.135674  -0.275307   0.000000  -0.066961
   21  H  4  S    0.000567   0.010174  -0.168938   0.000000  -0.050924

                      6          7          8          9         10
                    0.2195     0.3209     0.3209     0.8971     0.8971
                     A1         E          E          E          E   
    1  N  1  S   -0.125070   0.000000  -0.000000   0.000000   0.000000
    2  N  1  S    0.101516   0.000000  -0.000000   0.000000   0.000000
    3  N  1  X    0.000000   0.335101  -0.000000  -0.358821   0.000000
    4  N  1  Y    0.000000   0.000000  -0.335101   0.000000  -0.358821
    5  N  1  Z   -0.151700   0.000000  -0.000000   0.000000   0.000000
    6  N  1  S    1.960786   0.000000  -0.000000   0.000000   0.000000
    7  N  1  X    0.000000   1.112105  -0.000000   1.174202   0.000000
    8  N  1  Y    0.000000   0.000000  -1.112105   0.000000   1.174202
    9  N  1  Z   -0.506483   0.000000  -0.000000   0.000000   0.000000
   10  N  1 XX   -0.039602   0.002090  -0.000000   0.120766   0.000000
   11  N  1 YY   -0.039602  -0.002090  -0.000000  -0.120766   0.000000
   12  N  1 ZZ   -0.038288   0.000000  -0.000000   0.000000   0.000000
   13  N  1 XY    0.000000   0.000000   0.002413   0.000000  -0.139448
   14  N  1 XZ    0.000000  -0.016664  -0.000000   0.087119   0.000000
   15  N  1 YZ    0.000000   0.000000   0.016664   0.000000   0.087119
   16  H  2  S   -0.029073  -0.024584  -0.042580  -0.388760   0.673352
   17  H  2  S   -0.971023  -0.878362  -1.521368   0.042349  -0.073350
   18  H  3  S   -0.029073  -0.024584   0.042580  -0.388760  -0.673352
   19  H  3  S   -0.971023  -0.878362   1.521368   0.042349   0.073350
   20  H  4  S   -0.029073   0.049168  -0.000000   0.777520   0.000000
   21  H  4  S   -0.971023   1.756725  -0.000000  -0.084697   0.000000

                     11         12         13         14         15
                    0.9701     1.2050     1.2182     1.2182     1.3728
                     A1         A1         E          E          A1  
    1  N  1  S    0.016210   0.056566  -0.000000  -0.000000  -0.097635
    2  N  1  S   -0.264108  -0.766643  -0.000000  -0.000000  -1.488669
    3  N  1  X   -0.000000  -0.000000  -1.025224  -0.000000  -0.000000
    4  N  1  Y   -0.000000  -0.000000  -0.000000  -1.025224  -0.000000
    5  N  1  Z   -0.956877   0.352884  -0.000000  -0.000000   0.158626
    6  N  1  S    0.200966   1.204758  -0.000000  -0.000000   4.068462
    7  N  1  X   -0.000000  -0.000000   1.329232  -0.000000  -0.000000
    8  N  1  Y   -0.000000  -0.000000  -0.000000   1.329232  -0.000000
    9  N  1  Z    1.078843  -0.122350  -0.000000  -0.000000  -0.844284
   10  N  1 XX   -0.065379  -0.024596  -0.100430  -0.000000  -0.419667
   11  N  1 YY   -0.065379  -0.024596   0.100430  -0.000000  -0.419667
   12  N  1 ZZ   -0.080686  -0.282808  -0.000000  -0.000000  -0.066619
   13  N  1 XY   -0.000000  -0.000000  -0.000000   0.115967  -0.000000
   14  N  1 XZ   -0.000000  -0.000000  -0.076642  -0.000000  -0.000000
   15  N  1 YZ   -0.000000  -0.000000  -0.000000  -0.076642  -0.000000
   16  H  2  S    0.104838   0.671907   0.272571  -0.472107  -0.385921
   17  H  2  S    0.039323  -0.585951  -0.669596   1.159775  -0.758023
   18  H  3  S    0.104838   0.671907   0.272571   0.472107  -0.385921
   19  H  3  S    0.039323  -0.585951  -0.669596  -1.159775  -0.758023
   20  H  4  S    0.104838   0.671907  -0.545143  -0.000000  -0.385921
   21  H  4  S    0.039323  -0.585951   1.339193  -0.000000  -0.758023

                     16         17         18         19         20
                    1.9662     1.9662     2.2591     2.7502     2.7502
                     E          E          A1         E          E   
    1  N  1  S   -0.000000  -0.000000  -0.057478   0.000000   0.000000
    2  N  1  S   -0.000000  -0.000000  -0.433652   0.000000   0.000000
    3  N  1  X    0.020471  -0.000000  -0.000000   0.080137   0.000000
    4  N  1  Y   -0.000000   0.020471  -0.000000   0.000000   0.080137
    5  N  1  Z   -0.000000  -0.000000  -0.028456   0.000000   0.000000
    6  N  1  S   -0.000000  -0.000000   1.509814   0.000000   0.000000
    7  N  1  X    0.034035  -0.000000  -0.000000   0.648451   0.000000
    8  N  1  Y   -0.000000   0.034035  -0.000000   0.000000   0.648451
    9  N  1  Z   -0.000000  -0.000000  -0.446962   0.000000   0.000000
   10  N  1 XX   -0.558209  -0.000000   0.439275  -0.796353   0.000000
   11  N  1 YY    0.558209  -0.000000   0.439275   0.796353   0.000000
   12  N  1 ZZ   -0.000000  -0.000000  -1.065534   0.000000   0.000000
   13  N  1 XY   -0.000000   0.644564  -0.000000   0.000000   0.919549
   14  N  1 XZ    0.763774  -0.000000  -0.000000  -0.776373   0.000000
   15  N  1 YZ   -0.000000   0.763774  -0.000000   0.000000  -0.776373
   16  H  2  S   -0.016397   0.028401  -0.479084  -0.462712   0.801441
   17  H  2  S   -0.000263   0.000456  -0.195926   0.016684  -0.028898
   18  H  3  S   -0.016397  -0.028401  -0.479084  -0.462712  -0.801441
   19  H  3  S   -0.000263  -0.000456  -0.195926   0.016684   0.028898
   20  H  4  S    0.032794  -0.000000  -0.479084   0.925425   0.000000
   21  H  4  S    0.000526  -0.000000  -0.195926  -0.033369   0.000000

                     21
                    4.0846
                     A1  
    1  N  1  S   -0.463573
    2  N  1  S    1.200971
    3  N  1  X    0.000000
    4  N  1  Y    0.000000
    5  N  1  Z    0.097954
    6  N  1  S    3.121954
    7  N  1  X    0.000000
    8  N  1  Y    0.000000
    9  N  1  Z   -0.316709
   10  N  1 XX   -1.498217
   11  N  1 YY   -1.498217
   12  N  1 ZZ   -1.516800
   13  N  1 XY    0.000000
   14  N  1 XZ    0.000000
   15  N  1 YZ    0.000000
   16  H  2  S    0.140075
   17  H  2  S   -0.549244
   18  H  3  S    0.140075
   19  H  3  S   -0.549244
   20  H  4  S    0.140075
   21  H  4  S   -0.549244
 ...... END OF RHF CALCULATION ......
 STEP CPU TIME =     0.00 TOTAL CPU TIME =        0.0 (    0.0 MIN)
 TOTAL WALL CLOCK TIME=        0.0 SECONDS, CPU UTILIZATION IS  80.00%

     ----------------------------------------------------------------
     PROPERTY VALUES FOR THE RHF   SELF-CONSISTENT FIELD WAVEFUNCTION
     ----------------------------------------------------------------

          -----------------
          ENERGY COMPONENTS
          -----------------

         WAVEFUNCTION NORMALIZATION =       1.0000000000

                ONE ELECTRON ENERGY =     -99.4940331984
                TWO ELECTRON ENERGY =      31.4086951501
           NUCLEAR REPULSION ENERGY =      11.9015174513
                                      ------------------
                       TOTAL ENERGY =     -56.1838205970

 ELECTRON-ELECTRON POTENTIAL ENERGY =      31.4086951501
  NUCLEUS-ELECTRON POTENTIAL ENERGY =    -155.5264301998
   NUCLEUS-NUCLEUS POTENTIAL ENERGY =      11.9015174513
                                      ------------------
             TOTAL POTENTIAL ENERGY =    -112.2162175984
               TOTAL KINETIC ENERGY =      56.0323970014
                 VIRIAL RATIO (V/T) =       2.0027024294

          ---------------------------------------
          MULLIKEN AND LOWDIN POPULATION ANALYSES
          ---------------------------------------

     ATOMIC MULLIKEN POPULATION IN EACH MOLECULAR ORBITAL

                      1          2          3          4          5

                  2.000000   2.000000   2.000000   2.000000   2.000000

    1             1.999658   1.584625   1.240818   1.240818   1.922714
    2             0.000114   0.138458   0.126530   0.379591   0.025762
    3             0.000114   0.138458   0.126530   0.379591   0.025762
    4             0.000114   0.138458   0.506121   0.000000   0.025762

               ----- POPULATIONS IN EACH AO -----
                             MULLIKEN      LOWDIN
              1  N  1  S      1.99552     1.97923
              2  N  1  S      0.76916     0.52493
              3  N  1  X      0.73890     0.67920
              4  N  1  Y      0.73890     0.67949
              5  N  1  Z      0.95917     0.93555
              6  N  1  S      0.90472     0.43148
              7  N  1  X      0.48276     0.55942
              8  N  1  Y      0.48276     0.56029
              9  N  1  Z      0.84365     0.86772
             10  N  1 XX      0.02590     0.19727
             11  N  1 YY      0.02590     0.19727
             12  N  1 ZZ     -0.00957     0.15277
             13  N  1 XY      0.00745     0.01168
             14  N  1 XZ      0.01171     0.01377
             15  N  1 YZ      0.01171     0.01383
             16  H  2  S      0.50025     0.46074
             17  H  2  S      0.17021     0.27080
             18  H  3  S      0.50025     0.46074
             19  H  3  S      0.17021     0.27080
             20  H  4  S      0.50025     0.46216
             21  H  4  S      0.17021     0.27088

          ----- MULLIKEN ATOMIC OVERLAP POPULATIONS -----
          (OFF-DIAGONAL ELEMENTS NEED TO BE MULTIPLIED BY 2)

             1           2           3           4

    1    7.0069566
    2    0.3272255   0.3949263
    3    0.3272255  -0.0258481   0.3949263
    4    0.3272255  -0.0258481  -0.0258481   0.3949263

          TOTAL MULLIKEN AND LOWDIN ATOMIC POPULATIONS
       ATOM         MULL.POP.    CHARGE          LOW.POP.     CHARGE
    1 N             7.988633   -0.988633         7.803888   -0.803888
    2 H             0.670456    0.329544         0.731536    0.268464
    3 H             0.670456    0.329544         0.731536    0.268464
    4 H             0.670456    0.329544         0.733041    0.266959

          -------------------------------
          BOND ORDER AND VALENCE ANALYSIS     BOND ORDER THRESHOLD=0.050
          -------------------------------

                   BOND                       BOND                       BOND
  ATOM PAIR DIST  ORDER      ATOM PAIR DIST  ORDER      ATOM PAIR DIST  ORDER
    1   2  1.017  0.865        1   3  1.017  0.865        1   4  1.017  0.865

                       TOTAL       BONDED        FREE
      ATOM            VALENCE     VALENCE     VALENCE
    1 N                 2.596       2.596      -0.000
    2 H                 0.853       0.853      -0.000
    3 H                 0.853       0.853      -0.000
    4 H                 0.853       0.853      -0.000

          ---------------------
          ELECTROSTATIC MOMENTS
          ---------------------

 POINT   1           X           Y           Z (BOHR)    CHARGE
                 0.000000   -0.000000    0.000000       -0.00 (A.U.)
         DX          DY          DZ         /D/  (DEBYE)
     0.000000   -0.000000   -1.971018    1.971018
 ...... END OF PROPERTY EVALUATION ......
 STEP CPU TIME =     0.00 TOTAL CPU TIME =        0.0 (    0.0 MIN)
 TOTAL WALL CLOCK TIME=        0.0 SECONDS, CPU UTILIZATION IS  80.00%

     READING $VIB RESTART DATA FROM $VIB CARDS...
 IVIB=   0 IATOM=   0 ICOORD=   0 E=      -56.3542116430

 THE VIB 0 GEOMETRY GRADIENT IS

 UNITS ARE HARTREE/BOHR    E'X               E'Y               E'Z 
    1 N               -0.000000022       0.000000000       0.000000973
    2 H                0.000000504      -0.000000874      -0.000000327
    3 H                0.000000504       0.000000874      -0.000000327
    4 H               -0.000000987       0.000000000      -0.000000318
 IVIB=   1 IATOM=   1 ICOORD=   1 E=      -56.3541785456

 UNITS ARE HARTREE/BOHR    E'X               E'Y               E'Z 
    1 N                0.006597645       0.000000000      -0.000047282
    2 H               -0.001440922       0.001354791       0.000925297
    3 H               -0.001440922      -0.001354791       0.000925297
    4 H               -0.003715801       0.000000000      -0.001803312
 IVIB=   1 IATOM=   1 ICOORD=   2 E=      -56.3541783260

 UNITS ARE HARTREE/BOHR    E'X               E'Y               E'Z 
    1 N                0.000065848       0.006663537      -0.000047727
    2 H                0.001317684      -0.002965791      -0.001566110
    3 H               -0.001372913      -0.003029736       0.001616082
    4 H               -0.000010620      -0.000668009      -0.000002245
 IVIB=   1 IATOM=   1 ICOORD=   3 E=      -56.3541994304

 UNITS ARE HARTREE/BOHR    E'X               E'Y               E'Z 
    1 N               -0.000000014       0.000000000       0.002448824
    2 H                0.000593364      -0.001027737      -0.000816277
    3 H                0.000593364       0.001027737      -0.000816277
    4 H               -0.001186714       0.000000000      -0.000816271
 IVIB=   1 IATOM=   4 ICOORD=   1 E=      -56.3541908615

 UNITS ARE HARTREE/BOHR    E'X               E'Y               E'Z 
    1 N               -0.003832665       0.000000000      -0.001223239
    2 H               -0.000172246      -0.000047340      -0.000123319
    3 H               -0.000172246       0.000047340      -0.000123319
    4 H                0.004177158       0.000000000       0.001469877
 IVIB=   1 IATOM=   4 ICOORD=   2 E=      -56.3542084197

 UNITS ARE HARTREE/BOHR    E'X               E'Y               E'Z 
    1 N                0.000008891      -0.000668022       0.000003170
    2 H                0.000365216       0.000010794       0.000159647
    3 H               -0.000365626       0.000012570      -0.000159310
    4 H               -0.000008481       0.000644658      -0.000003508
 IVIB=   1 IATOM=   4 ICOORD=   3 E=      -56.3542077870

 UNITS ARE HARTREE/BOHR    E'X               E'Y               E'Z 
    1 N               -0.001842631       0.000000000      -0.000800800
    2 H                0.000200422      -0.000027165       0.000015645
    3 H                0.000200422       0.000027165       0.000015645
    4 H                0.001441788       0.000000000       0.000769510
 IVIB=   2 IATOM=   1 ICOORD=   1 E=      -56.3541781064

 UNITS ARE HARTREE/BOHR    E'X               E'Y               E'Z 
    1 N               -0.006729421       0.000000000      -0.000048162
    2 H                0.001447917      -0.001335202      -0.000911649
    3 H                0.001447917       0.001335202      -0.000911649
    4 H                0.003833587       0.000000000       0.001871459
 IVIB=   2 IATOM=   1 ICOORD=   2 E=      -56.3541783260

 UNITS ARE HARTREE/BOHR    E'X               E'Y               E'Z 
    1 N                0.000065848      -0.006663537      -0.000047727
    2 H               -0.001372913       0.003029736       0.001616082
    3 H                0.001317684       0.002965791      -0.001566110
    4 H               -0.000010620       0.000668009      -0.000002245
1   ATOM  1
                                        -------------------
   COORD  3                             NUCLEAR COORDINATES
                                        -------------------
     VIB  2

                       ATOM             X              Y              Z

                 1  N                0.000000       0.000000       0.120423
                 2  H                0.888047      -1.538142      -0.604045
                 3  H                0.888047       1.538142      -0.604045
                 4  H               -1.776093       0.000000      -0.604045
 ...... END OF ONE-ELECTRON INTEGRALS ......
 STEP CPU TIME =     0.00 TOTAL CPU TIME =        0.0 (    0.0 MIN)
 TOTAL WALL CLOCK TIME=        0.0 SECONDS, CPU UTILIZATION IS  80.00%
 TOTAL NUMBER OF NONZERO TWO-ELECTRON INTEGRALS =               18712
          2 INTEGRAL RECORDS WERE STORED ON DISK FILE  8.
  ...... END OF TWO-ELECTRON INTEGRALS .....
 STEP CPU TIME =     0.01 TOTAL CPU TIME =        0.0 (    0.0 MIN)
 TOTAL WALL CLOCK TIME=        0.1 SECONDS, CPU UTILIZATION IS  83.33%

          --------------------------
                 RHF SCF CALCULATION
          --------------------------
     DENSITY MATRIX CONV=  1.00E-06

 ITER EX DEM     TOTAL ENERGY        E CHANGE  DENSITY CHANGE    DIIS ERROR
          * * *   INITIATING DIIS PROCEDURE   * * *
   1  0  0      -56.1839494905   -56.1839494905   0.002997482   0.002032573
   2  1  0      -56.1839588476    -0.0000093571   0.001021735   0.001108650
   3  2  0      -56.1839599811    -0.0000011334   0.000438573   0.000334229
   4  3  0      -56.1839602141    -0.0000002330   0.000178279   0.000070977
   5  4  0      -56.1839602324    -0.0000000183   0.000048390   0.000019295
   6  5  0      -56.1839602335    -0.0000000011   0.000012424   0.000003180
   7  6  0      -56.1839602335    -0.0000000001   0.000001174   0.000000771
   8  7  0      -56.1839602335    -0.0000000000   0.000000073   0.000000030

          -----------------
          DENSITY CONVERGED
          -----------------
     TIME TO FORM FOCK OPERATORS=       0.0 SECONDS (       0.0 SEC/ITER)
     TIME TO SOLVE SCF EQUATIONS=       0.0 SECONDS (       0.0 SEC/ITER)

 FINAL RHF ENERGY IS      -56.1839602335 AFTER   8 ITERATIONS
 ...... END OF RHF CALCULATION ......
 STEP CPU TIME =     0.00 TOTAL CPU TIME =        0.0 (    0.0 MIN)
 TOTAL WALL CLOCK TIME=        0.1 SECONDS, CPU UTILIZATION IS  83.33%

 -------------------------------   -----------------------------
 MP2 ENERGY GRADIENT CALCULATION   PROGRAM WRITTEN BY K.ISHIMURA
 -------------------------------   -----------------------------
 NUMBER OF OCCUPIED ORBITALS            =    5
 NUMBER OF VIRTUAL ORBITALS             =   16
 NUMBER OF ACTIVE OCCUPIED ORBITALS     =    4
 NUMBER OF ACTIVE VIRTUAL ORBITALS      =   16
 NUMBER OF BASIS FUNCTIONS              =   21
 NUMBER OF BASIS SHELLS                 =   10
 AO INTEGRAL THRESHOLD                  = 1.00E-09
 HALF-TRANSFORMED INTEGRAL THRESHOLD    = 5.97E-11
   REQUIRED DISK =         0 MBYTES/PROCESSOR

 MAXIMUM MEMORY USED DURING MP2 GRADIENT=      148155 WORDS, OR       1 MWORDS.
 BEGINNING    1ST SHELL LOOP...
 .... DONE WITH 1ST THREE INDEX TRANSFORMATIONS ....
 STEP CPU TIME =     0.01 TOTAL CPU TIME =        0.1 (    0.0 MIN)
 TOTAL WALL CLOCK TIME=        0.1 SECONDS, CPU UTILIZATION IS  85.71%

 RESULTS OF MOLLER-PLESSET 2ND ORDER CORRECTION ARE
               E(0)=       -56.1839602335
               E(1)=         0.0
               E(2)=        -0.1702393673
             E(MP2)=       -56.3541996008
 .... DONE WITH 4TH INDEX TRANSFORMATION AND ENERGY ....
 STEP CPU TIME =     0.00 TOTAL CPU TIME =        0.1 (    0.0 MIN)
 TOTAL WALL CLOCK TIME=        0.1 SECONDS, CPU UTILIZATION IS  85.71%
 .... DONE WITH 1ST THREE INDEX TRANSFORMATIONS FOR GRADIENT ....
 STEP CPU TIME =     0.01 TOTAL CPU TIME =        0.1 (    0.0 MIN)
 TOTAL WALL CLOCK TIME=        0.1 SECONDS, CPU UTILIZATION IS  87.50%
 .... DONE WITH 4TH INDEX TRANSFORMATION FOR GRADIENT ....
 STEP CPU TIME =     0.00 TOTAL CPU TIME =        0.1 (    0.0 MIN)
 TOTAL WALL CLOCK TIME=        0.1 SECONDS, CPU UTILIZATION IS  87.50%
 CYCLE  1  Z-VECTOR ERROR= -0.267717E-02
 CYCLE  2  Z-VECTOR ERROR=  0.595888E-03
 CYCLE  3  Z-VECTOR ERROR= -0.784911E-04
 CYCLE  4  Z-VECTOR ERROR=  0.141261E-04
 CYCLE  5  Z-VECTOR ERROR= -0.177015E-05
 CYCLE  6  Z-VECTOR ERROR=  0.173194E-06
 CYCLE  7  Z-VECTOR ERROR= -0.108002E-07
 CYCLE  8  Z-VECTOR ERROR=  0.372247E-09
 CYCLE  9  Z-VECTOR ERROR= -0.327927E-10
 .... DONE WITH RESPONSE EQUATIONS AND DENSITY ....
 STEP CPU TIME =     0.00 TOTAL CPU TIME =        0.1 (    0.0 MIN)
 TOTAL WALL CLOCK TIME=        0.1 SECONDS, CPU UTILIZATION IS  77.78%
 ..... END OF 1-ELECTRON GRADIENT ......
 STEP CPU TIME =     0.00 TOTAL CPU TIME =        0.1 (    0.0 MIN)
 TOTAL WALL CLOCK TIME=        0.1 SECONDS, CPU UTILIZATION IS  77.78%
 THE COARSE/FINE SCHWARZ SCREENINGS SKIPPED          0/         0 BLOCKS.
 THE NUMBER OF GRADIENT INTEGRAL BLOCKS COMPUTED WAS      5304
 MAXIMUM MEMORY USED DURING MP2 GRADIENT=      148155 WORDS, OR       1 MWORDS.
 ..... DONE WITH MP2 ENERGY .....
 STEP CPU TIME =     0.03 TOTAL CPU TIME =        0.1 (    0.0 MIN)
 TOTAL WALL CLOCK TIME=        0.1 SECONDS, CPU UTILIZATION IS  83.33%

 UNITS ARE HARTREE/BOHR    E'X               E'Y               E'Z 
    1 N               -0.000000019       0.000000000      -0.002401781
    2 H               -0.000599170       0.001037792       0.000800591
    3 H               -0.000599170      -0.001037792       0.000800591
    4 H                0.001198359       0.000000000       0.000800599
  $VIB   
          IVIB=   2 IATOM=   1 ICOORD=   3 E=      -56.3541996008
 -1.884577622E-08 0.000000000E+00-2.401781225E-03-5.991700900E-04 1.037791568E-03
  8.005911964E-04-5.991700899E-04-1.037791568E-03 8.005911964E-04 1.198359026E-03
  0.000000000E+00 8.005988327E-04
  1.693156282E-14-2.815297660E-14-1.949133081E+00
1   ATOM  4
                                        -------------------
   COORD  1                             NUCLEAR COORDINATES
                                        -------------------
     VIB  2

                       ATOM             X              Y              Z

                 1  N                0.000000       0.000000       0.130423
                 2  H                0.888047      -1.538142      -0.604045
                 3  H                0.888047       1.538142      -0.604045
                 4  H               -1.786093       0.000000      -0.604045
 ...... END OF ONE-ELECTRON INTEGRALS ......
 STEP CPU TIME =     0.00 TOTAL CPU TIME =        0.1 (    0.0 MIN)
 TOTAL WALL CLOCK TIME=        0.1 SECONDS, CPU UTILIZATION IS  83.33%
 TOTAL NUMBER OF NONZERO TWO-ELECTRON INTEGRALS =               18712
          2 INTEGRAL RECORDS WERE STORED ON DISK FILE  8.
  ...... END OF TWO-ELECTRON INTEGRALS .....
 STEP CPU TIME =     0.00 TOTAL CPU TIME =        0.1 (    0.0 MIN)
 TOTAL WALL CLOCK TIME=        0.1 SECONDS, CPU UTILIZATION IS  83.33%

          --------------------------
                 RHF SCF CALCULATION
          --------------------------
     DENSITY MATRIX CONV=  1.00E-06

 ITER EX DEM     TOTAL ENERGY        E CHANGE  DENSITY CHANGE    DIIS ERROR
          * * *   INITIATING DIIS PROCEDURE   * * *
   1  0  0      -56.1836803202   -56.1836803202   0.001227870   0.001812007
   2  1  0      -56.1836861963    -0.0000058761   0.000476669   0.000652211
   3  2  0      -56.1836868122    -0.0000006160   0.000218524   0.000336780
   4  3  0      -56.1836869316    -0.0000001193   0.000047578   0.000048576
   5  4  0      -56.1836869389    -0.0000000074   0.000012599   0.000009305
   6  5  0      -56.1836869393    -0.0000000003   0.000004002   0.000001894
   7  6  0      -56.1836869393    -0.0000000000   0.000001071   0.000000358
   8  7  0      -56.1836869393    -0.0000000000   0.000000157   0.000000048

          -----------------
          DENSITY CONVERGED
          -----------------
     TIME TO FORM FOCK OPERATORS=       0.0 SECONDS (       0.0 SEC/ITER)
     TIME TO SOLVE SCF EQUATIONS=       0.0 SECONDS (       0.0 SEC/ITER)

 FINAL RHF ENERGY IS      -56.1836869393 AFTER   8 ITERATIONS
 ...... END OF RHF CALCULATION ......
 STEP CPU TIME =     0.02 TOTAL CPU TIME =        0.1 (    0.0 MIN)
 TOTAL WALL CLOCK TIME=        0.1 SECONDS, CPU UTILIZATION IS 100.00%

 -------------------------------   -----------------------------
 MP2 ENERGY GRADIENT CALCULATION   PROGRAM WRITTEN BY K.ISHIMURA
 -------------------------------   -----------------------------
 NUMBER OF OCCUPIED ORBITALS            =    5
 NUMBER OF VIRTUAL ORBITALS             =   16
 NUMBER OF ACTIVE OCCUPIED ORBITALS     =    4
 NUMBER OF ACTIVE VIRTUAL ORBITALS      =   16
 NUMBER OF BASIS FUNCTIONS              =   21
 NUMBER OF BASIS SHELLS                 =   10
 AO INTEGRAL THRESHOLD                  = 1.00E-09
 HALF-TRANSFORMED INTEGRAL THRESHOLD    = 6.05E-11
   REQUIRED DISK =         0 MBYTES/PROCESSOR

 MAXIMUM MEMORY USED DURING MP2 GRADIENT=      148155 WORDS, OR       1 MWORDS.
 BEGINNING    1ST SHELL LOOP...
 .... DONE WITH 1ST THREE INDEX TRANSFORMATIONS ....
 STEP CPU TIME =     0.01 TOTAL CPU TIME =        0.1 (    0.0 MIN)
 TOTAL WALL CLOCK TIME=        0.1 SECONDS, CPU UTILIZATION IS 100.00%

 RESULTS OF MOLLER-PLESSET 2ND ORDER CORRECTION ARE
               E(0)=       -56.1836869393
               E(1)=         0.0
               E(2)=        -0.1705042926
             E(MP2)=       -56.3541912319
 .... DONE WITH 4TH INDEX TRANSFORMATION AND ENERGY ....
 STEP CPU TIME =     0.00 TOTAL CPU TIME =        0.1 (    0.0 MIN)
 TOTAL WALL CLOCK TIME=        0.1 SECONDS, CPU UTILIZATION IS  92.86%
 .... DONE WITH 1ST THREE INDEX TRANSFORMATIONS FOR GRADIENT ....
 STEP CPU TIME =     0.01 TOTAL CPU TIME =        0.1 (    0.0 MIN)
 TOTAL WALL CLOCK TIME=        0.2 SECONDS, CPU UTILIZATION IS  93.33%
 .... DONE WITH 4TH INDEX TRANSFORMATION FOR GRADIENT ....
 STEP CPU TIME =     0.00 TOTAL CPU TIME =        0.1 (    0.0 MIN)
 TOTAL WALL CLOCK TIME=        0.2 SECONDS, CPU UTILIZATION IS  93.33%
 CYCLE  1  Z-VECTOR ERROR= -0.273335E-02
 CYCLE  2  Z-VECTOR ERROR=  0.615585E-03
 CYCLE  3  Z-VECTOR ERROR= -0.804332E-04
 CYCLE  4  Z-VECTOR ERROR=  0.142005E-04
 CYCLE  5  Z-VECTOR ERROR= -0.177730E-05
 CYCLE  6  Z-VECTOR ERROR=  0.178610E-06
 CYCLE  7  Z-VECTOR ERROR= -0.162668E-07
 CYCLE  8  Z-VECTOR ERROR=  0.372980E-08
 CYCLE  9  Z-VECTOR ERROR= -0.327629E-09
 CYCLE 10  Z-VECTOR ERROR=  0.658729E-10
 .... DONE WITH RESPONSE EQUATIONS AND DENSITY ....
 STEP CPU TIME =     0.00 TOTAL CPU TIME =        0.1 (    0.0 MIN)
 TOTAL WALL CLOCK TIME=        0.2 SECONDS, CPU UTILIZATION IS  93.33%
 ..... END OF 1-ELECTRON GRADIENT ......
 STEP CPU TIME =     0.00 TOTAL CPU TIME =        0.1 (    0.0 MIN)
 TOTAL WALL CLOCK TIME=        0.2 SECONDS, CPU UTILIZATION IS  93.33%
 THE COARSE/FINE SCHWARZ SCREENINGS SKIPPED          0/         0 BLOCKS.
 THE NUMBER OF GRADIENT INTEGRAL BLOCKS COMPUTED WAS      5304
 MAXIMUM MEMORY USED DURING MP2 GRADIENT=      148155 WORDS, OR       1 MWORDS.
 ..... DONE WITH MP2 ENERGY .....
 STEP CPU TIME =     0.03 TOTAL CPU TIME =        0.2 (    0.0 MIN)
 TOTAL WALL CLOCK TIME=        0.2 SECONDS, CPU UTILIZATION IS  94.44%

 UNITS ARE HARTREE/BOHR    E'X               E'Y               E'Z 
    1 N                0.003716738       0.000000000       0.001162748
    2 H                0.000172537       0.000045850       0.000122104
    3 H                0.000172537      -0.000045850       0.000122104
    4 H               -0.004061813       0.000000000      -0.001406956
  $VIB   
          IVIB=   2 IATOM=   4 ICOORD=   1 E=      -56.3541912319
  3.716738447E-03 0.000000000E+00 1.162747695E-03 1.725374903E-04 4.585036627E-05
  1.221041507E-04 1.725374900E-04-4.585036610E-05 1.221041508E-04-4.061813427E-03
  0.000000000E+00-1.406955996E-03
 -1.884712051E-03 1.434201933E-13-1.963427002E+00
1   ATOM  4
                                        -------------------
   COORD  2                             NUCLEAR COORDINATES
                                        -------------------
     VIB  2

                       ATOM             X              Y              Z

                 1  N                0.000000       0.000000       0.130423
                 2  H                0.888047      -1.538142      -0.604045
                 3  H                0.888047       1.538142      -0.604045
                 4  H               -1.776093      -0.010000      -0.604045
 ...... END OF ONE-ELECTRON INTEGRALS ......
 STEP CPU TIME =     0.00 TOTAL CPU TIME =        0.2 (    0.0 MIN)
 TOTAL WALL CLOCK TIME=        0.2 SECONDS, CPU UTILIZATION IS  94.44%
 TOTAL NUMBER OF NONZERO TWO-ELECTRON INTEGRALS =               20636
          2 INTEGRAL RECORDS WERE STORED ON DISK FILE  8.
  ...... END OF TWO-ELECTRON INTEGRALS .....
 STEP CPU TIME =     0.00 TOTAL CPU TIME =        0.2 (    0.0 MIN)
 TOTAL WALL CLOCK TIME=        0.2 SECONDS, CPU UTILIZATION IS  94.44%

          --------------------------
                 RHF SCF CALCULATION
          --------------------------
     DENSITY MATRIX CONV=  1.00E-06

 ITER EX DEM     TOTAL ENERGY        E CHANGE  DENSITY CHANGE    DIIS ERROR
          * * *   INITIATING DIIS PROCEDURE   * * *
   1  0  0      -56.1838148832   -56.1838148832   0.000753884   0.000604720
   2  1  0      -56.1838166395    -0.0000017563   0.000229219   0.000199109
   3  2  0      -56.1838167941    -0.0000001546   0.000044936   0.000042978
   4  3  0      -56.1838168024    -0.0000000083   0.000012875   0.000006876
   5  4  0      -56.1838168028    -0.0000000004   0.000002760   0.000001827
   6  5  0      -56.1838168028    -0.0000000000   0.000001273   0.000000793
   7  6  0      -56.1838168028    -0.0000000000   0.000000367   0.000000176

          -----------------
          DENSITY CONVERGED
          -----------------
     TIME TO FORM FOCK OPERATORS=       0.0 SECONDS (       0.0 SEC/ITER)
     TIME TO SOLVE SCF EQUATIONS=       0.0 SECONDS (       0.0 SEC/ITER)

 FINAL RHF ENERGY IS      -56.1838168028 AFTER   7 ITERATIONS
 ...... END OF RHF CALCULATION ......
 STEP CPU TIME =     0.00 TOTAL CPU TIME =        0.2 (    0.0 MIN)
 TOTAL WALL CLOCK TIME=        0.2 SECONDS, CPU UTILIZATION IS  94.44%

 -------------------------------   -----------------------------
 MP2 ENERGY GRADIENT CALCULATION   PROGRAM WRITTEN BY K.ISHIMURA
 -------------------------------   -----------------------------
 NUMBER OF OCCUPIED ORBITALS            =    5
 NUMBER OF VIRTUAL ORBITALS             =   16
 NUMBER OF ACTIVE OCCUPIED ORBITALS     =    4
 NUMBER OF ACTIVE VIRTUAL ORBITALS      =   16
 NUMBER OF BASIS FUNCTIONS              =   21
 NUMBER OF BASIS SHELLS                 =   10
 AO INTEGRAL THRESHOLD                  = 1.00E-09
 HALF-TRANSFORMED INTEGRAL THRESHOLD    = 6.04E-11
   REQUIRED DISK =         0 MBYTES/PROCESSOR

 MAXIMUM MEMORY USED DURING MP2 GRADIENT=      148155 WORDS, OR       1 MWORDS.
 BEGINNING    1ST SHELL LOOP...
 .... DONE WITH 1ST THREE INDEX TRANSFORMATIONS ....
 STEP CPU TIME =     0.01 TOTAL CPU TIME =        0.2 (    0.0 MIN)
 TOTAL WALL CLOCK TIME=        0.2 SECONDS, CPU UTILIZATION IS  90.00%

 RESULTS OF MOLLER-PLESSET 2ND ORDER CORRECTION ARE
               E(0)=       -56.1838168028
               E(1)=         0.0
               E(2)=        -0.1703916169
             E(MP2)=       -56.3542084197
 .... DONE WITH 4TH INDEX TRANSFORMATION AND ENERGY ....
 STEP CPU TIME =     0.01 TOTAL CPU TIME =        0.2 (    0.0 MIN)
 TOTAL WALL CLOCK TIME=        0.2 SECONDS, CPU UTILIZATION IS  95.00%
 .... DONE WITH 1ST THREE INDEX TRANSFORMATIONS FOR GRADIENT ....
 STEP CPU TIME =     0.01 TOTAL CPU TIME =        0.2 (    0.0 MIN)
 TOTAL WALL CLOCK TIME=        0.2 SECONDS, CPU UTILIZATION IS  95.24%
 .... DONE WITH 4TH INDEX TRANSFORMATION FOR GRADIENT ....
 STEP CPU TIME =     0.00 TOTAL CPU TIME =        0.2 (    0.0 MIN)
 TOTAL WALL CLOCK TIME=        0.2 SECONDS, CPU UTILIZATION IS  95.24%
 CYCLE  1  Z-VECTOR ERROR= -0.271568E-02
 CYCLE  2  Z-VECTOR ERROR=  0.609896E-03
 CYCLE  3  Z-VECTOR ERROR= -0.795882E-04
 CYCLE  4  Z-VECTOR ERROR=  0.141629E-04
 CYCLE  5  Z-VECTOR ERROR= -0.177735E-05
 CYCLE  6  Z-VECTOR ERROR=  0.174595E-06
 CYCLE  7  Z-VECTOR ERROR= -0.110625E-07
 CYCLE  8  Z-VECTOR ERROR=  0.584635E-09
 CYCLE  9  Z-VECTOR ERROR= -0.111003E-09
 CYCLE 10  Z-VECTOR ERROR=  0.334953E-10
 .... DONE WITH RESPONSE EQUATIONS AND DENSITY ....
 STEP CPU TIME =     0.00 TOTAL CPU TIME =        0.2 (    0.0 MIN)
 TOTAL WALL CLOCK TIME=        0.2 SECONDS, CPU UTILIZATION IS  95.24%
 ..... END OF 1-ELECTRON GRADIENT ......
 STEP CPU TIME =     0.00 TOTAL CPU TIME =        0.2 (    0.0 MIN)
 TOTAL WALL CLOCK TIME=        0.2 SECONDS, CPU UTILIZATION IS  95.24%
 THE COARSE/FINE SCHWARZ SCREENINGS SKIPPED          0/         0 BLOCKS.
 THE NUMBER OF GRADIENT INTEGRAL BLOCKS COMPUTED WAS      5304
 MAXIMUM MEMORY USED DURING MP2 GRADIENT=      148155 WORDS, OR       1 MWORDS.
 ..... DONE WITH MP2 ENERGY .....
 STEP CPU TIME =     0.03 TOTAL CPU TIME =        0.2 (    0.0 MIN)
 TOTAL WALL CLOCK TIME=        0.2 SECONDS, CPU UTILIZATION IS  95.83%

 UNITS ARE HARTREE/BOHR    E'X               E'Y               E'Z 
    1 N                0.000008891       0.000668022       0.000003170
    2 H               -0.000365626      -0.000012570      -0.000159310
    3 H                0.000365216      -0.000010794       0.000159647
    4 H               -0.000008481      -0.000644658      -0.000003508
  $VIB   
          IVIB=   2 IATOM=   4 ICOORD=   2 E=      -56.3542084197
  8.891171372E-06 6.680223707E-04 3.170417276E-06-3.656262553E-04-1.257027632E-05
 -1.593095090E-04 3.652159640E-04-1.079393976E-05 1.596471629E-04-8.480880114E-06
 -6.446581546E-04-3.508071140E-06
  1.149669883E-05-4.632537797E-03-1.965709097E+00
1   ATOM  4
                                        -------------------
   COORD  3                             NUCLEAR COORDINATES
                                        -------------------
     VIB  2

                       ATOM             X              Y              Z

                 1  N                0.000000       0.000000       0.130423
                 2  H                0.888047      -1.538142      -0.604045
                 3  H                0.888047       1.538142      -0.604045
                 4  H               -1.776093       0.000000      -0.614045
 ...... END OF ONE-ELECTRON INTEGRALS ......
 STEP CPU TIME =     0.00 TOTAL CPU TIME =        0.2 (    0.0 MIN)
 TOTAL WALL CLOCK TIME=        0.2 SECONDS, CPU UTILIZATION IS  95.83%
 TOTAL NUMBER OF NONZERO TWO-ELECTRON INTEGRALS =               18712
          2 INTEGRAL RECORDS WERE STORED ON DISK FILE  8.
  ...... END OF TWO-ELECTRON INTEGRALS .....
 STEP CPU TIME =     0.00 TOTAL CPU TIME =        0.2 (    0.0 MIN)
 TOTAL WALL CLOCK TIME=        0.2 SECONDS, CPU UTILIZATION IS  95.83%

          --------------------------
                 RHF SCF CALCULATION
          --------------------------
     DENSITY MATRIX CONV=  1.00E-06

 ITER EX DEM     TOTAL ENERGY        E CHANGE  DENSITY CHANGE    DIIS ERROR
          * * *   INITIATING DIIS PROCEDURE   * * *
   1  0  0      -56.1837614121   -56.1837614121   0.001007435   0.001128590
   2  1  0      -56.1837646841    -0.0000032720   0.000409056   0.000377291
   3  2  0      -56.1837650662    -0.0000003821   0.000186018   0.000218691
   4  3  0      -56.1837651370    -0.0000000708   0.000108743   0.000048782
   5  4  0      -56.1837651445    -0.0000000075   0.000035059   0.000016177
   6  5  0      -56.1837651451    -0.0000000006   0.000005159   0.000002604
   7  6  0      -56.1837651451    -0.0000000000   0.000000430   0.000000338
   8  7  0      -56.1837651451    -0.0000000000   0.000000059   0.000000054

          -----------------
          DENSITY CONVERGED
          -----------------
     TIME TO FORM FOCK OPERATORS=       0.0 SECONDS (       0.0 SEC/ITER)
     TIME TO SOLVE SCF EQUATIONS=       0.0 SECONDS (       0.0 SEC/ITER)

 FINAL RHF ENERGY IS      -56.1837651451 AFTER   8 ITERATIONS
 ...... END OF RHF CALCULATION ......
 STEP CPU TIME =     0.00 TOTAL CPU TIME =        0.2 (    0.0 MIN)
 TOTAL WALL CLOCK TIME=        0.3 SECONDS, CPU UTILIZATION IS  92.00%

 -------------------------------   -----------------------------
 MP2 ENERGY GRADIENT CALCULATION   PROGRAM WRITTEN BY K.ISHIMURA
 -------------------------------   -----------------------------
 NUMBER OF OCCUPIED ORBITALS            =    5
 NUMBER OF VIRTUAL ORBITALS             =   16
 NUMBER OF ACTIVE OCCUPIED ORBITALS     =    4
 NUMBER OF ACTIVE VIRTUAL ORBITALS      =   16
 NUMBER OF BASIS FUNCTIONS              =   21
 NUMBER OF BASIS SHELLS                 =   10
 AO INTEGRAL THRESHOLD                  = 1.00E-09
 HALF-TRANSFORMED INTEGRAL THRESHOLD    = 6.07E-11
   REQUIRED DISK =         0 MBYTES/PROCESSOR

 MAXIMUM MEMORY USED DURING MP2 GRADIENT=      148155 WORDS, OR       1 MWORDS.
 BEGINNING    1ST SHELL LOOP...
 .... DONE WITH 1ST THREE INDEX TRANSFORMATIONS ....
 STEP CPU TIME =     0.02 TOTAL CPU TIME =        0.3 (    0.0 MIN)
 TOTAL WALL CLOCK TIME=        0.3 SECONDS, CPU UTILIZATION IS  96.15%

 RESULTS OF MOLLER-PLESSET 2ND ORDER CORRECTION ARE
               E(0)=       -56.1837651451
               E(1)=         0.0
               E(2)=        -0.1704425946
             E(MP2)=       -56.3542077397
 .... DONE WITH 4TH INDEX TRANSFORMATION AND ENERGY ....
 STEP CPU TIME =     0.00 TOTAL CPU TIME =        0.3 (    0.0 MIN)
 TOTAL WALL CLOCK TIME=        0.3 SECONDS, CPU UTILIZATION IS  96.15%
 .... DONE WITH 1ST THREE INDEX TRANSFORMATIONS FOR GRADIENT ....
 STEP CPU TIME =     0.01 TOTAL CPU TIME =        0.3 (    0.0 MIN)
 TOTAL WALL CLOCK TIME=        0.3 SECONDS, CPU UTILIZATION IS  96.30%
 .... DONE WITH 4TH INDEX TRANSFORMATION FOR GRADIENT ....
 STEP CPU TIME =     0.00 TOTAL CPU TIME =        0.3 (    0.0 MIN)
 TOTAL WALL CLOCK TIME=        0.3 SECONDS, CPU UTILIZATION IS  96.30%
 CYCLE  1  Z-VECTOR ERROR= -0.272882E-02
 CYCLE  2  Z-VECTOR ERROR=  0.614581E-03
 CYCLE  3  Z-VECTOR ERROR= -0.799425E-04
 CYCLE  4  Z-VECTOR ERROR=  0.141740E-04
 CYCLE  5  Z-VECTOR ERROR= -0.177989E-05
 CYCLE  6  Z-VECTOR ERROR=  0.175687E-06
 CYCLE  7  Z-VECTOR ERROR= -0.120338E-07
 CYCLE  8  Z-VECTOR ERROR=  0.172163E-08
 CYCLE  9  Z-VECTOR ERROR= -0.200367E-09
 CYCLE 10  Z-VECTOR ERROR=  0.290420E-10
 .... DONE WITH RESPONSE EQUATIONS AND DENSITY ....
 STEP CPU TIME =     0.00 TOTAL CPU TIME =        0.3 (    0.0 MIN)
 TOTAL WALL CLOCK TIME=        0.3 SECONDS, CPU UTILIZATION IS  96.30%
 ..... END OF 1-ELECTRON GRADIENT ......
 STEP CPU TIME =     0.00 TOTAL CPU TIME =        0.3 (    0.0 MIN)
 TOTAL WALL CLOCK TIME=        0.3 SECONDS, CPU UTILIZATION IS  96.30%
 THE COARSE/FINE SCHWARZ SCREENINGS SKIPPED          0/         0 BLOCKS.
 THE NUMBER OF GRADIENT INTEGRAL BLOCKS COMPUTED WAS      5304
 MAXIMUM MEMORY USED DURING MP2 GRADIENT=      148155 WORDS, OR       1 MWORDS.
 ..... DONE WITH MP2 ENERGY .....
 STEP CPU TIME =     0.03 TOTAL CPU TIME =        0.3 (    0.0 MIN)
 TOTAL WALL CLOCK TIME=        0.3 SECONDS, CPU UTILIZATION IS  96.67%

 UNITS ARE HARTREE/BOHR    E'X               E'Y               E'Z 
    1 N                0.001831121       0.000000000       0.000816117
    2 H               -0.000198512       0.000025891      -0.000016940
    3 H               -0.000198512      -0.000025891      -0.000016940
    4 H               -0.001434097       0.000000000      -0.000782237
  $VIB   
          IVIB=   2 IATOM=   4 ICOORD=   3 E=      -56.3542077397
  1.831121353E-03 0.000000000E+00 8.161172488E-04-1.985123498E-04 2.589092556E-05
 -1.693989307E-05-1.985123506E-04-2.589092497E-05-1.693989295E-05-1.434096653E-03
  0.000000000E+00-7.822374628E-04
  4.695306485E-03 4.843089914E-13-1.971151063E+00
 ...... END OF NUMERICAL HESSIAN CALCULATION ......
 STEP CPU TIME =     0.00 TOTAL CPU TIME =        0.3 (    0.0 MIN)
 TOTAL WALL CLOCK TIME=        0.3 SECONDS, CPU UTILIZATION IS  96.67%

          ---------------
          ENERGY GRADIENT
          ---------------

 UNITS ARE HARTREE/BOHR    E'X               E'Y               E'Z 
    1 N               -0.000000022       0.000000000       0.000000973
    2 H                0.000000504      -0.000000874      -0.000000327
    3 H                0.000000504       0.000000874      -0.000000327
    4 H               -0.000000987       0.000000000      -0.000000318

          -------------------------------
          CARTESIAN FORCE CONSTANT MATRIX
          -------------------------------

                                   1                          2
                               N                          H         
                          X        Y        Z        X        Y        Z
  1   N            X 0.666353 0.000000 0.000022-0.144456 0.134511 0.091846
                   Y 0.000000 0.666354 0.000000 0.134527-0.299790-0.159094
                   Z 0.000022 0.000000 0.242530 0.059638-0.103296-0.080845
  2   H            X-0.144456 0.134527 0.059638 0.151337-0.150464-0.071909
                   Y 0.134511-0.299790-0.103296-0.150464 0.325078 0.124550
                   Z 0.091846-0.159094-0.080845-0.071909 0.124550 0.077587
  3   H            X-0.144456-0.134527 0.059638 0.010372 0.020601-0.007676
                   Y-0.134511-0.299790 0.103296-0.020601-0.026443 0.018601
                   Z 0.091846 0.159094-0.080845-0.007676-0.018601 0.001629
  4   H            X-0.377470-0.000000-0.119276-0.017239-0.004660-0.012271
                   Y-0.000000-0.066802-0.000000 0.036542 0.001168 0.015948
                   Z-0.183713 0.000000-0.080845 0.019947-0.002653 0.001629

                                   3                          4
                               H                          H         
                          X        Y        Z        X        Y        Z
  3   H            X 0.151337 0.150464-0.071909-0.017239-0.036542 0.019947
                   Y 0.150464 0.325078-0.124550 0.004660 0.001168 0.002653
                   Z-0.071909-0.124550 0.077587-0.012271-0.015948 0.001629
  4   H            X-0.017239 0.004660-0.012271 0.411949 0.000000 0.143818
                   Y-0.036542 0.001168-0.015948 0.000000 0.064466 0.000000
                   Z 0.019947 0.002653 0.001629 0.143818 0.000000 0.077587

          ------------------------          ----------------
          DIPOLE DERIVATIVE TENSOR          (DEBYE/ANGSTROM)
          ------------------------          ----------------

        ATOM                 MU-X           MU-Y           MU-Z
     N          D/DX    -1.854764496    0.000000000    0.000004913
                D/DY     0.000000000   -1.854764506    0.000000000
                D/DZ     0.000000000    0.000000000   -3.102755563
     H          D/DX     0.746835053    0.222720348    0.216321918
                D/DY     0.222720348    0.489659748   -0.374680550
                D/DZ     0.441489656   -0.764682515    1.034249269
     H          D/DX     0.746835053   -0.222720348    0.216321916
                D/DY    -0.222720348    0.489659748    0.374680551
                D/DZ     0.441489656    0.764682515    1.034249269
     H          D/DX     0.361072095   -0.000000000   -0.432643834
                D/DY    -0.000000000    0.875422706   -0.000000001
                D/DZ    -0.882979312   -0.000000000    1.034249269

          --------------------------------------------------------
          NORMAL COORDINATE ANALYSIS IN THE HARMONIC APPROXIMATION
          --------------------------------------------------------

          ATOMIC WEIGHTS (AMU)

    1     N                14.00307
    2     H                 1.00782
    3     H                 1.00782
    4     H                 1.00782

 MODES    1 TO    6 ARE TAKEN AS ROTATIONS AND TRANSLATIONS.

 ANALYZING SYMMETRY OF NORMAL MODES...
 WATCH OUT!! THE COUNTING OF DEGENERATE MODES COUNTS INDIVIDUAL MODES,
 E.G. 2*E MEANS ONE (1) SET OF DEGENERATE E MODES

 --- SYMMETRY FOR NORMAL MODES ---
 INCLUDING TRANSLATION AND ROTATION
    3*A1     2*A2     8*E   
 EXCLUDING TRANSLATION AND ROTATION (SAYVETZ < 0.01)
    2*A1     0*A2     4*E   

     FREQUENCIES IN CM**-1, IR INTENSITIES IN DEBYE**2/AMU-ANGSTROM**2,
     REDUCED MASSES IN AMU.

                            1           2           3           4           5
       FREQUENCY:        13.53       13.48        5.27        0.01        0.97  
        SYMMETRY:         E           E           E           A1          E   
    REDUCED MASS:      1.08931     1.07650     2.52006     4.25677     3.81210
    IR INTENSITY:      2.22622     2.24652     0.03059     0.00000     0.01169

  1   N            X -0.00000062  0.07006418  0.00000018  0.00045655  0.23792234
                   Y  0.07587222  0.00000063  0.21488796  0.00000061 -0.00000011
                   Z -0.00000003 -0.00004284 -0.00000057  0.24234728 -0.00045648
  2   H            X -0.03441705 -0.22627295 -0.19586876  0.00044433  0.25929240
                   Y -0.23900655  0.00000592  0.13638344  0.00000247 -0.00000489
                   Z  0.61784584 -0.35836788 -0.07244014  0.24232694  0.02542501
  3   H            X  0.03441967 -0.22627242  0.19586948  0.00044436  0.25929180
                   Y -0.23900655 -0.00000880  0.13638344 -0.00000117  0.00000455
                   Z -0.61784121 -0.35837593  0.07243944  0.24232712  0.02542404
  4   H            X  0.00000131 -0.22628510  0.00000036  0.00044765  0.25930142
                   Y -0.17936799 -0.00000098  0.47561898  0.00000067 -0.00000069
                   Z -0.00000470  0.71663385 -0.00000102  0.24236729 -0.05215546

 TRANS. SAYVETZ    X -0.00000473  0.29697132  0.00000354  0.00773987  4.11561576
                   Y  0.39991896  0.00000497  3.76333317  0.00001059 -0.00000260
                   Z -0.00000044 -0.00071078 -0.00000978  4.12631616 -0.00770871
               TOTAL  0.39991896  0.29697217  3.76333317  4.12632342  4.11562298

   ROT. SAYVETZ    X -2.45429688 -0.00001599  0.28773219  0.00000035 -0.00000193
                   Y -0.00001609  2.46546348 -0.00000153  0.00009234 -0.17790112
                   Z -0.21346169 -0.00000166 -1.21449272 -0.00000009  0.00000188
               TOTAL  2.46356227  2.46546348  1.24811152  0.00009234  0.17790112

                            6           7           8           9          10
       FREQUENCY:        12.50     1162.02     1755.04     1755.04     3502.65  
        SYMMETRY:         A2          A1          E           E           A1  
    REDUCED MASS:      1.15118     1.18049     1.06514     1.06514     1.02684
    IR INTENSITY:      0.00140     4.42688     0.46799     0.46799     0.00190

  1   N            X  0.00000009 -0.00000750 -0.06434844 -0.00000685 -0.00000018
                   Y -0.09789179 -0.00000000  0.00000685 -0.06434845 -0.00000000
                   Z  0.00000024 -0.10609087 -0.00000052 -0.00000000 -0.03775216
  2   H            X -0.45663034  0.09639129  0.51730692  0.37987945 -0.27091868
                   Y -0.35412050 -0.16697319  0.37981588  0.07879743  0.46924787
                   Z -0.01550907  0.49137353 -0.12325623  0.21343788  0.17485376
  3   H            X  0.45663044  0.09639129  0.51738774 -0.37976937 -0.27091868
                   Y -0.35412050  0.16697319 -0.37983264  0.07871662 -0.46924787
                   Z  0.01550946  0.49137353 -0.12321082 -0.21346410  0.17485376
  4   H            X  0.00000005 -0.19280748 -0.14053823 -0.00001495  0.54179091
                   Y  0.43678668  0.00000000 -0.00007837  0.73664235  0.00000000
                   Z  0.00000033  0.49136322  0.24647445  0.00002622  0.17483455

 TRANS. SAYVETZ    X  0.00000140 -0.00013014  0.00007744  0.00000001 -0.00004931
                   Y -1.64436410  0.00000000 -0.00000001  0.00007736 -0.00000000
                   Z  0.00000409  0.00004728  0.00000016  0.00000000  0.00000043
               TOTAL  1.64436410  0.00013847  0.00007744  0.00007736  0.00004931

   ROT. SAYVETZ    X  0.06161179  0.00000000 -0.00000001  0.00008408  0.00000000
                   Y  0.00000031 -0.00001699 -0.00008407 -0.00000001 -0.00000643
                   Z -2.83143381 -0.00000000  0.00000000 -0.00001818 -0.00000000
               TOTAL  2.83210407  0.00001699  0.00008407  0.00008602  0.00000643

                           11          12
       FREQUENCY:      3658.58     3658.58  
        SYMMETRY:         E           E   
    REDUCED MASS:      1.08931     1.08931
    IR INTENSITY:      0.01453     0.01453

  1   N            X -0.07586798 -0.00000342
                   Y  0.00000342 -0.07586800
                   Z -0.00000169 -0.00000000
  2   H            X  0.16539131 -0.32215810
                   Y -0.32216983  0.53737669
                   Z -0.14530542  0.25166361
  3   H            X  0.16536227  0.32217300
                   Y  0.32212139  0.53740572
                   Z -0.14528274 -0.25167670
  4   H            X  0.72341570  0.00003260
                   Y  0.00000093 -0.02061314
                   Z  0.29061142  0.00001310

 TRANS. SAYVETZ    X  0.00003346  0.00000000
                   Y -0.00000000  0.00003316
                   Z -0.00000027 -0.00000000
               TOTAL  0.00003346  0.00003316

   ROT. SAYVETZ    X -0.00000000  0.00004079
                   Y -0.00004075 -0.00000000
                   Z  0.00000000 -0.00000493
               TOTAL  0.00004075  0.00004109

 REFERENCE ON SAYVETZ CONDITIONS - A. SAYVETZ, J.CHEM.PHYS., 7, 383-389(1939).

 NOTE - THE MODES J,K ARE ORTHONORMALIZED ACCORDING TO
 SUM ON I   M(I) * (X(I,J)*X(I,K) + Y(I,J)*Y(I,K) + Z(I,J)*Z(I,K)) = DELTA(J,K)

  MODE FREQ(CM**-1)  SYMMETRY  RED. MASS  IR INTENS.
     1      13.530    E        1.089315    2.226217
     2      13.479    E        1.076499    2.246519
     3       5.269    E        2.520062    0.030591
     4       0.013    A1       4.256774    0.000000
     5       0.970    E        3.812105    0.011693
     6      12.500    A2       1.151183    0.001403
     7    1162.024    A1       1.180489    4.426878
     8    1755.041    E        1.065140    0.467990
     9    1755.041    E        1.065140    0.467990
    10    3502.651    A1       1.026843    0.001902
    11    3658.583    E        1.089305    0.014532
    12    3658.583    E        1.089305    0.014532

     -------------------------------
     THERMOCHEMISTRY AT T=  298.15 K
     -------------------------------

 USING IDEAL GAS, RIGID ROTOR, HARMONIC NORMAL MODE APPROXIMATIONS.
 P=  1.01325E+05 PASCAL.
 ALL FREQUENCIES ARE SCALED BY   1.00000
 THE MOMENTS OF INERTIA ARE (IN AMU*BOHR**2)
      6.11016     6.11016     9.53758
 THE ROTATIONAL SYMMETRY NUMBER IS  3.0
 THE ROTATIONAL CONSTANTS ARE (IN GHZ)
    295.09678   295.09678   189.05100
      7 -     12 VIBRATIONAL MODES ARE USED IN THERMOCHEMISTRY.
 THE HARMONIC ZERO POINT ENERGY IS (SCALED BY   1.000)
        0.035293 HARTREE/MOLECULE     7745.960900 CM**-1/MOLECULE 
       22.146836 KCAL/MOL               92.662361 KJ/MOL

               Q               LN Q
 ELEC.     1.00000E+00       0.000000
 TRANS.    2.76149E+06      14.831281
 ROT.      7.12019E+01       4.265520
 VIB.      1.00410E+00       0.004096
 TOT.      1.97431E+08      19.100897

              E         H         G         CV        CP        S
           KJ/MOL    KJ/MOL    KJ/MOL   J/MOL-K   J/MOL-K   J/MOL-K
 ELEC.      0.000     0.000     0.000     0.000     0.000     0.000
 TRANS.     3.718     6.197   -36.766    12.472    20.786   144.099
 ROT.       3.718     3.718   -10.574    12.472    12.472    47.937
 VIB.      92.722    92.722    92.652     1.217     1.217     0.235
 TOTAL    100.159   102.638    45.312    26.160    34.475   192.272
 VIB. THERMAL CORRECTION E(T)-E(0) = H(T)-H(0) =    60.018 J/MOL

              E         H         G         CV        CP        S
         KCAL/MOL  KCAL/MOL  KCAL/MOL CAL/MOL-K CAL/MOL-K CAL/MOL-K
 ELEC.      0.000     0.000     0.000     0.000     0.000     0.000
 TRANS.     0.889     1.481    -8.787     2.981     4.968    34.441
 ROT.       0.889     0.889    -2.527     2.981     2.981    11.457
 VIB.      22.161    22.161    22.144     0.291     0.291     0.056
 TOTAL     23.939    24.531    10.830     6.252     8.240    45.954
 VIB. THERMAL CORRECTION E(T)-E(0) = H(T)-H(0) =    14.345 CAL/MOL
 ......END OF NORMAL COORDINATE ANALYSIS......
 STEP CPU TIME =     0.00 TOTAL CPU TIME =        0.3 (    0.0 MIN)
 TOTAL WALL CLOCK TIME=        0.3 SECONDS, CPU UTILIZATION IS  96.67%
               580000  WORDS OF DYNAMIC MEMORY USED
 EXECUTION OF GAMESS TERMINATED NORMALLY Wed Aug  9 20:32:12 2017
 DDI: 263640 bytes (0.3 MB / 0 MWords) used by master data server.

 ----------------------------------------
 CPU timing information for all processes
 ========================================
 0: 0.274 + 0.28 = 0.303
 ----------------------------------------
 ddikick.x: exited gracefully.
unset echo
----- accounting info -----
Files used on the master node compute-1-7.local were:
-rw-rw-r-- 1 sarom sarom 5.0K Aug  9 20:32 /scratch/nh3-mp2-seminum-ims.F05
-rw-rw-r-- 1 sarom sarom 352K Aug  9 20:32 /scratch/nh3-mp2-seminum-ims.F08
-rw-rw-r-- 1 sarom sarom 1.9M Aug  9 20:32 /scratch/nh3-mp2-seminum-ims.F10
rm: cannot remove `/scratch/tmp': Is a directory
ls: No match.
ls: No match.
ls: No match.
Wed Aug  9 20:32:15 CDT 2017
0.285u 0.150s 0:03.81 11.2%	0+0k 16+368io 0pf+0w
/opt/gridengine/default/spool/compute-1-7/active_jobs/35870.1/pe_hostfile compute-1-7.local
