-catch_rsh /opt/gridengine/default/spool/compute-0-5/active_jobs/36199.1/pe_hostfile
compute-0-5
The primary node assigned by SGE to this run is compute-0-5
Warning: no access to tty (Bad file descriptor).
Thus no job control in this shell.
source /home/sarom/dir.git.branch.saromleang-travis-ci/install.info
setenv GMS_PATH /home/sarom/dir.git.branch.saromleang-travis-ci
setenv GMS_BUILD_DIR /home/sarom/dir.git.branch.saromleang-travis-ci
setenv GMS_TARGET linux64
setenv GMS_FORTRAN gfortran
setenv GMS_GFORTRAN_VERNO 4.4
setenv GMS_MATHLIB mkl-so
setenv GMS_MATHLIB none
setenv GMS_MATHLIB_PATH /share/apps/intel/compilers_and_libraries_2017.1.132/linux/mkl/lib/intel64
setenv GMS_MKL_VERNO 12
setenv GMS_DDI_COMM sockets
setenv GMS_LIBCCHEM false
setenv GMS_EIGEN_PATH
setenv GMS_PHI false
setenv GMS_SHMTYPE sysv
setenv GMS_OPENMP false
unset echo
gvb-c2h4-hess
/home/sarom/dir.git.branch.saromleang-travis-ci/tests/gvb
----- GAMESS execution script 'rungms' -----
This job is running on host compute-0-5.local
under operating system Linux at Wed Aug 9 22:17:41 CDT 2017
Available scratch disk space (Kbyte units) at beginning of the job is
Filesystem           1K-blocks      Used Available Use% Mounted on
/dev/sda1             16126920   3962036  11345684  26% /
GAMESS temporary binary files will be written to /scratch
GAMESS supplementary output files will be written to /home/sarom/restart
Copying input file gvb-c2h4-hess.inp to your run's scratch directory...
cp /home/sarom/dir.git.branch.saromleang-travis-ci/tests/gvb/gvb-c2h4-hess.inp /scratch/gvb-c2h4-hess.F05
unset echo
The generated host list is
compute-0-5.local
/home/sarom/dir.git.branch.saromleang-travis-ci/ddikick.x /home/sarom/dir.git.branch.saromleang-travis-ci/gamess.00.x gvb-c2h4-hess -ddi 1 1 compute-0-5.local -scr /scratch

 Distributed Data Interface kickoff program.
 Initiating 1 compute processes on 1 nodes to run the following command:
 /home/sarom/dir.git.branch.saromleang-travis-ci/gamess.00.x gvb-c2h4-hess 

          ******************************************************
          *         GAMESS VERSION = 20 APR 2017 (R1)          *
          *             FROM IOWA STATE UNIVERSITY             *
          * M.W.SCHMIDT, K.K.BALDRIDGE, J.A.BOATZ, S.T.ELBERT, *
          *   M.S.GORDON, J.H.JENSEN, S.KOSEKI, N.MATSUNAGA,   *
          *          K.A.NGUYEN, S.J.SU, T.L.WINDUS,           *
          *       TOGETHER WITH M.DUPUIS, J.A.MONTGOMERY       *
          *         J.COMPUT.CHEM.  14, 1347-1363(1993)        *
          **************** 64 BIT LINUX VERSION ****************

  SINCE 1993, STUDENTS AND POSTDOCS WORKING AT IOWA STATE UNIVERSITY
  AND ALSO IN THEIR VARIOUS JOBS AFTER LEAVING ISU HAVE MADE IMPORTANT
  CONTRIBUTIONS TO THE CODE:
     IVANA ADAMOVIC, CHRISTINE AIKENS, YURI ALEXEEV, POOJA ARORA,
     ANDREY ASADCHEV, ROB BELL, PRADIPTA BANDYOPADHYAY, JONATHAN BENTZ,
     BRETT BODE, KURT BRORSEN, CALEB CARLIN, GALINA CHABAN, WEI CHEN,
     CHEOL HO CHOI, PAUL DAY, ALBERT DEFUSCO, NUWAN DESILVA, TIM DUDLEY,
     DMITRI FEDOROV, GRAHAM FLETCHER, MARK FREITAG, KURT GLAESEMANN,
     DAN KEMP, GRANT MERRILL, NORIYUKI MINEZAWA, JONATHAN MULLIN,
     TAKESHI NAGATA, SEAN NEDD, HEATHER NETZLOFF, BOSILJKA NJEGIC, RYAN OLSON,
     MIKE PAK, SPENCER PRUITT, LUKE ROSKOP, JIM SHOEMAKER, LYUDMILA SLIPCHENKO,
     TONY SMITH, SAROM SOK LEANG, JIE SONG, TETSUYA TAKETSUGU, SIMON WEBB,
     PENG XU, SOOHAENG YOO, FEDERICO ZAHARIEV

  ADDITIONAL CODE HAS BEEN PROVIDED BY COLLABORATORS IN OTHER GROUPS:
     IOWA STATE UNIVERSITY:
          JOE IVANIC, AARON WEST, LAIMUTIS BYTAUTAS, KLAUS RUEDENBERG
     UNIVERSITY OF TOKYO: KIMIHIKO HIRAO, TAKAHITO NAKAJIMA,
          TAKAO TSUNEDA, MUNEAKI KAMIYA, SUSUMU YANAGISAWA,
          KIYOSHI YAGI, MAHITO CHIBA, SEIKEN TOKURA, NAOAKI KAWAKAMI
     UNIVERSITY OF AARHUS: FRANK JENSEN
     UNIVERSITY OF IOWA: VISVALDAS KAIRYS, HUI LI
     NATIONAL INST. OF STANDARDS AND TECHNOLOGY: WALT STEVENS, DAVID GARMER
     UNIVERSITY OF PISA: BENEDETTA MENNUCCI, JACOPO TOMASI
     UNIVERSITY OF MEMPHIS: HENRY KURTZ, PRAKASHAN KORAMBATH
     UNIVERSITY OF ALBERTA: TOBY ZENG, MARIUSZ KLOBUKOWSKI
     UNIVERSITY OF NEW ENGLAND: MARK SPACKMAN
     MIE UNIVERSITY: HIROAKI UMEDA
     NAT. INST. OF ADVANCED INDUSTRIAL SCIENCE AND TECHNOLOGY: KAZUO KITAURA
     MICHIGAN STATE UNIVERSITY:
          KAROL KOWALSKI, MARTA WLOCH, JEFFREY GOUR, JESSE LUTZ,
          WEI LI, PIOTR PIECUCH
     UNIVERSITY OF SILESIA: MONIKA MUSIAL, STANISLAW KUCHARSKI
     FACULTES UNIVERSITAIRES NOTRE-DAME DE LA PAIX:
          OLIVIER QUINET, BENOIT CHAMPAGNE
     UNIVERSITY OF CALIFORNIA - SANTA BARBARA: BERNARD KIRTMAN
     INSTITUTE FOR MOLECULAR SCIENCE:
          KAZUYA ISHIMURA, MICHIO KATOUDA, AND SHIGERU NAGASE
     UNIVERSITY OF NOTRE DAME: ANNA POMOGAEVA, DAN CHIPMAN
     KYUSHU UNIVERSITY:
          HARUYUKI NAKANO,
          FENG LONG GU, JACEK KORCHOWIEC, MARCIN MAKOWSKI, AND YURIKO AOKI,
          HIROTOSHI MORI AND EISAKU MIYOSHI
     PENNSYLVANIA STATE UNIVERSITY:
          TZVETELIN IORDANOV, CHET SWALINA, JONATHAN SKONE,
          SHARON HAMMES-SCHIFFER
     WASEDA UNIVERSITY:
          MASATO KOBAYASHI, TOMOKO AKAMA, TSUGUKI TOUMA,
          TAKESHI YOSHIKAWA, YASUHIRO IKABATA, JUNJI SEINO,
          YUYA NAKAJIMA, HIROMI NAKAI
     NANJING UNIVERSITY: SHUHUA LI
     UNIVERSITY OF NEBRASKA:
          PEIFENG SU, DEJUN SI, NANDUN THELLAMUREGE, YALI WANG, HUI LI
     UNIVERSITY OF ZURICH: ROBERTO PEVERATI, KIM BALDRIDGE
     N. COPERNICUS UNIVERSITY AND JACKSON STATE UNIVERSITY:
          MARIA BARYSZ
     UNIVERSITY OF COPENHAGEN: Jimmy Kromann, CASPER STEINMANN
     TOKYO INSTITUTE OF TECHNOLOGY: HIROYA NAKATA
     NAGOYA UNIVERSITY: YOSHIO NISHIMOTO, STEPHAN IRLE
     MOSCOW STATE UNIVERSITY: VLADIMIR MIRONOV

 EXECUTION OF GAMESS BEGUN Wed Aug  9 22:17:41 2017

            ECHO OF THE FIRST FEW INPUT CARDS -
 INPUT CARD>!   single determinant triplet analytic hessians:                               
 INPUT CARD>!      change SCFTYP to ROHF, GVB, or MCSCF                                     
 INPUT CARD>!   you will need to comment out $SCF for the ROHF case.                        
 INPUT CARD>!      F.NAL  ROHF ENERGY IS  -77.9580115937 AFTER   8 ITERATIONS               
 INPUT CARD>!      FINAL   GVB ENERGY IS  -77.9580115937 AFTER   8 ITERATIONS               
 INPUT CARD>!      F.NAL MCSCF ENERGY IS  -77.9580115929 AFTER  15 ITERATIONS               
 INPUT CARD>!   Each run gives a doubly degenerate imaginary fr.quency,                     
 INPUT CARD>!   for a pucking motion at the carbon atoms:                                   
 INPUT CARD>!      imag FREQ: ROHF= 200.42i, GVB= 201.46i, MCSCF= 204.33i (e symmetry)      
 INPUT CARD>!                                                                               
 INPUT CARD>!   this run takes 1 seconds on 2.66 GHz Cloverton (10 Sep 2013)                
 INPUT CARD>!                                                                               
 INPUT CARD>!      answers updated 10 Sep 2013, old answers had been saved as               
 INPUT CARD>!      ROHF= 204.36i, GVB= 204.26i, MCSCF= 204.34i, 8/8/18 iters                
 INPUT CARD>!                                                                               
 INPUT CARD> $contrl scftyp=gvb mult=3 runtyp=hessian $end                                  
 INPUT CARD> $system mwords=10 $end                                                         
 INPUT CARD> $basis  gbasis=n31 ngauss=6 ndfunc=1 $end                                      
 INPUT CARD> $guess  guess=huckel $end                                                      
 INPUT CARD> $det    ncore=7 nact=2 nels=2 $end                                             
 INPUT CARD> $scf    nco=7 nseto=1 no=2 couple=.true.  f(1)=1.0,0.5                         
 INPUT CARD>         alpha(1)= 2.0, 1.0, 0.5                                                
 INPUT CARD>          beta(1)=-1.0,-0.5,-0.5  $end                                          
 INPUT CARD> $trans dirtrf=.t. $end                                                         
 INPUT CARD> $data                                                                          
 INPUT CARD>C2H4 at triplet geometry                                                        
 INPUT CARD>Dnd 2                                                                           
 INPUT CARD>                                                                                
 INPUT CARD>C           6.0   0.0000000000   0.0000000000   0.7324824456                    
 INPUT CARD>H           1.0   0.6492311967   0.6492311967   1.2925454191                    
 INPUT CARD> $end                                                                           
   10000000 WORDS OF MEMORY AVAILABLE

     BASIS OPTIONS
     -------------
     GBASIS=N31          IGAUSS=       6      POLAR=POPN31  
     NDFUNC=       1     NFFUNC=       0     DIFFSP=       F
     NPFUNC=       0      DIFFS=       F     BASNAM=        


     RUN TITLE
     ---------
 C2H4 at triplet geometry                                                        

 THE POINT GROUP OF THE MOLECULE IS DND     
 THE ORDER OF THE PRINCIPAL AXIS IS     2

 ATOM      ATOMIC                      COORDINATES (BOHR)
           CHARGE         X                   Y                   Z
 C           6.0     0.0000000000        0.0000000000       -1.3841911130
 C           6.0     0.0000000000        0.0000000000        1.3841911130
 H           1.0    -1.2268690644       -1.2268690644        2.4425566688
 H           1.0     1.2268690644       -1.2268690644       -2.4425566688
 H           1.0    -1.2268690644        1.2268690644       -2.4425566688
 H           1.0     1.2268690644        1.2268690644        2.4425566688

          INTERNUCLEAR DISTANCES (ANGS.)
          ------------------------------

                1 C          2 C          3 H          4 H          5 H     

   1 C       0.0000000    1.4649649 *  2.2234523 *  1.0754873 *  1.0754873 *
   2 C       1.4649649 *  0.0000000    1.0754873 *  2.2234523 *  2.2234523 *
   3 H       2.2234523 *  1.0754873 *  0.0000000    2.8928704 *  2.8928704 *
   4 H       1.0754873 *  2.2234523 *  2.8928704 *  0.0000000    1.8363031 *
   5 H       1.0754873 *  2.2234523 *  2.8928704 *  1.8363031 *  0.0000000  
   6 H       2.2234523 *  1.0754873 *  1.8363031 *  2.8928704 *  2.8928704 *

                6 H     

   1 C       2.2234523 *
   2 C       1.0754873 *
   3 H       1.8363031 *
   4 H       2.8928704 *
   5 H       2.8928704 *
   6 H       0.0000000  

  * ... LESS THAN  3.000


     ATOMIC BASIS SET
     ----------------
 THE CONTRACTED PRIMITIVE FUNCTIONS HAVE BEEN UNNORMALIZED
 THE CONTRACTED BASIS FUNCTIONS ARE NOW NORMALIZED TO UNITY

  SHELL TYPE  PRIMITIVE        EXPONENT          CONTRACTION COEFFICIENT(S)

 C         

      5   S       1          3047.5248800    0.001834737132
      5   S       2           457.3695180    0.014037322813
      5   S       3           103.9486850    0.068842622264
      5   S       4            29.2101553    0.232184443216
      5   S       5             9.2866630    0.467941348435
      5   S       6             3.1639270    0.362311985337

      6   L       7             7.8682723   -0.119332419775    0.068999066591
      6   L       8             1.8812885   -0.160854151696    0.316423960957
      6   L       9             0.5442493    1.143456437840    0.744308290898

      7   L      10             0.1687145    1.000000000000    1.000000000000

      8   D      11             0.8000000    1.000000000000

 H         

     15   S      12            18.7311370    0.033494604338
     15   S      13             2.8253944    0.234726953484
     15   S      14             0.6401217    0.813757326146

     16   S      15             0.1612778    1.000000000000

 TOTAL NUMBER OF BASIS SET SHELLS             =   16
 NUMBER OF CARTESIAN GAUSSIAN BASIS FUNCTIONS =   38
 NUMBER OF ELECTRONS                          =   16
 CHARGE OF MOLECULE                           =    0
 SPIN MULTIPLICITY                            =    3
 NUMBER OF OCCUPIED ORBITALS (ALPHA)          =    9
 NUMBER OF OCCUPIED ORBITALS (BETA )          =    7
 TOTAL NUMBER OF ATOMS                        =    6
 THE NUCLEAR REPULSION ENERGY IS       31.8328236560

     $CONTRL OPTIONS
     ---------------
 SCFTYP=GVB          RUNTYP=HESSIAN      EXETYP=RUN     
 MPLEVL=       0     CITYP =NONE         CCTYP =NONE         VBTYP =NONE    
 DFTTYP=NONE         TDDFT =NONE    
 MULT  =       3     ICHARG=       0     NZVAR =       0     COORD =UNIQUE  
 PP    =NONE         RELWFN=NONE         LOCAL =NONE         NUMGRD=       F
 ISPHER=      -1     NOSYM =       0     MAXIT =      30     UNITS =ANGS    
 PLTORB=       F     MOLPLT=       F     AIMPAC=       F     FRIEND=        
 NPRINT=       7     IREST =       0     GEOM  =INPUT   
 NORMF =       0     NORMP =       0     ITOL  =      20     ICUT  =       9
 INTTYP=BEST         GRDTYP=BEST         QMTTOL= 1.0E-06

     $SYSTEM OPTIONS
     ---------------
  REPLICATED MEMORY=    10000000 WORDS (ON EVERY NODE).
 DISTRIBUTED MEMDDI=           0 MILLION WORDS IN AGGREGATE,
 MEMDDI DISTRIBUTED OVER   1 PROCESSORS IS           0 WORDS/PROCESSOR.
 TOTAL MEMORY REQUESTED ON EACH PROCESSOR=    10000000 WORDS.
 TIMLIM=      525600.00 MINUTES, OR     365.0 DAYS.
 PARALL= F  BALTYP=  DLB     KDIAG=    0  COREFL= F
 MXSEQ2=     300 MXSEQ3=     150  mem10=         0

          ----------------
          PROPERTIES INPUT
          ----------------

     MOMENTS            FIELD           POTENTIAL          DENSITY
 IEMOM =       1   IEFLD =       0   IEPOT =       0   IEDEN =       0
 WHERE =COMASS     WHERE =NUCLEI     WHERE =NUCLEI     WHERE =NUCLEI  
 OUTPUT=BOTH       OUTPUT=BOTH       OUTPUT=BOTH       OUTPUT=BOTH    
 IEMINT=       0   IEFINT=       0                     IEDINT=       0
                                                       MORB  =       0
          EXTRAPOLATION IN EFFECT
          DIIS IN EFFECT
 ORBITAL PRINTING OPTION: NPREO=     1    38     2     1

          *************************
          ROHF-GVB INPUT PARAMETERS
          *************************

          NORB   =    9          NCO    =    7
          NPAIR  =    0          NSETO  =    1
          NO     =    2
          OPEN SHELL ORBITALS
          SET     1 HAS ORBS    8    9

          ----------------------------
          ROHF-GVB COUPLING PARAMETERS
          ----------------------------

          F VECTOR (OCCUPANCIES)
    1   1.0000000000
    2   0.5000000000
          ALPHA COUPLING COEFFICEINTS

             1           2

    1    2.0000000
    2    1.0000000   0.5000000
           BETA COUPLING COEFFICIENTS

             1           2

    1   -1.0000000
    2   -0.5000000  -0.5000000

     -------------------------------
     INTEGRAL TRANSFORMATION OPTIONS
     -------------------------------
     NWORD  =            0
     CUTOFF = 1.0E-09     MPTRAN =       0
     DIRTRF =       T     AOINTS =DUP     

          ----------------------
          INTEGRAL INPUT OPTIONS
          ----------------------
 NOPK  =       1 NORDER=       0 SCHWRZ=       T

     ------------------------------------------
     THE POINT GROUP IS DND, NAXIS= 2, ORDER= 8
     ------------------------------------------

     DIMENSIONS OF THE SYMMETRY SUBSPACES ARE
 A1  =   10     B2  =   10     B1  =    1     A2  =    1     E   =    8

 ..... DONE SETTING UP THE RUN .....
 STEP CPU TIME =     0.02 TOTAL CPU TIME =        0.0 (    0.0 MIN)
 TOTAL WALL CLOCK TIME=        0.0 SECONDS, CPU UTILIZATION IS  66.67%

     ---------------------------------
     HESSIAN MATRIX CONTROL PARAMETERS
     ---------------------------------
     METHOD=ANALYTIC   NVIB  =       2   VIBSIZ= 0.01000
     RDHESS=       F   PURIFY=       F   PRTIFC=       F
     VIBANL=       T   DECOMP=       F   PROJCT=       F
     SCLFAC= 1.00000   PRTSCN=       F   NPRT  =       0
     PULCOR=       F   NPUN  =       0   REDOVB=       T
     HSSTYP=GENERAL 
     THERMOCHEMISTRY WILL BE PRINTED FOR    1 TEMPERATURES:
      298.15000
 Old integral subroutine is used

     ------------------------------
     CPHF RESPONSE SOLUTION OPTIONS
     ------------------------------
     POLAR  =       F     NWORD  =       0
     CPHF   =MO      

          ********************
          1 ELECTRON INTEGRALS
          ********************
 ...... END OF ONE-ELECTRON INTEGRALS ......
 STEP CPU TIME =     0.00 TOTAL CPU TIME =        0.0 (    0.0 MIN)
 TOTAL WALL CLOCK TIME=        0.0 SECONDS, CPU UTILIZATION IS  66.67%

          -------------
          GUESS OPTIONS
          -------------
          GUESS =HUCKEL            NORB  =       0          NORDER=       0
          MIX   =       F          PRTMO =       F          PUNMO =       F
          TOLZ  = 1.0E-08          TOLE  = 1.0E-05
          SYMDEN=       F          PURIFY=       F

 INITIAL GUESS ORBITALS GENERATED BY HUCKEL   ROUTINE.
 HUCKEL GUESS REQUIRES     15726 WORDS.

 SYMMETRIES FOR INITIAL GUESS ORBITALS FOLLOW.   BOTH SET(S).
     9 ORBITALS ARE OCCUPIED (    2 CORE ORBITALS).
     3=A1       4=B2       5=E        6=E        7=A1       8=E        9=E   
    10=B2      11=E       12=E       13=A1      14=B2      15=A1      16=A1  
    17=A1      18=A1      19=A1  
 ...... END OF INITIAL ORBITAL SELECTION ......
 STEP CPU TIME =     0.00 TOTAL CPU TIME =        0.0 (    0.0 MIN)
 TOTAL WALL CLOCK TIME=        0.0 SECONDS, CPU UTILIZATION IS  66.67%

                    ----------------------
                    AO INTEGRAL TECHNOLOGY
                    ----------------------
     S,P,L SHELL ROTATED AXIS INTEGRALS, REPROGRAMMED BY
        KAZUYA ISHIMURA (IMS) AND JOSE SIERRA (SYNSTAR).
     S,P,D,L SHELL ROTATED AXIS INTEGRALS PROGRAMMED BY
        KAZUYA ISHIMURA (INSTITUTE FOR MOLECULAR SCIENCE).
     S,P,D,F,G SHELL TO TOTAL QUARTET ANGULAR MOMENTUM SUM 5,
        ERIC PROGRAM BY GRAHAM FLETCHER (ELORET AND NASA ADVANCED
        SUPERCOMPUTING DIVISION, AMES RESEARCH CENTER).
     S,P,D,F,G,L SHELL GENERAL RYS QUADRATURE PROGRAMMED BY
        MICHEL DUPUIS (PACIFIC NORTHWEST NATIONAL LABORATORY).

          --------------------
          2 ELECTRON INTEGRALS
          --------------------

 DIRECT SCF METHOD SKIPS INTEGRAL STORAGE ON DISK.
 DIRECT TRANSFORMATION SKIPS AO INTEGRAL STORAGE ON DISK.
  ...... END OF TWO-ELECTRON INTEGRALS .....
 STEP CPU TIME =     0.01 TOTAL CPU TIME =        0.0 (    0.0 MIN)
 TOTAL WALL CLOCK TIME=        0.0 SECONDS, CPU UTILIZATION IS  75.00%

          ------------------------
          ROHF-GVB SCF CALCULATION
          ------------------------
 GVB STEP WILL USE     62093 WORDS OF MEMORY.

     RSTRCT FORCED TRUE BY THE PRESENCE OF DEGENERATE OPEN SHELLS.

     MAXIT=  30   NPUNCH= 2   SQCDF TOL=2.0000E-05
     NUCLEAR ENERGY=       31.8328236560
     EXTRAP=T   DAMP=F   SHIFT=F   RSTRCT=T   DIIS=T  SOSCF=F

 DIRECT SCF CALCULATION, SCHWRZ=T   FDIFF=F
 SCHWARZ INEQUALITY OVERHEAD:       741 INTEGRALS, T=        0.00

                                                                           NONZERO    BLOCKS
 ITER EX     TOTAL ENERGY       E CHANGE        SQCDF       DIIS ERROR      INTEGRALS   SKIPPED
          * * *   INITIATING DIIS PROCEDURE   * * *
   0  0      -77.769084503   -77.769084503   0.395568245   0.241085707          53509         3
   1  1      -77.950088383    -0.181003880   0.071409749   0.023845278          53508         4
   2  2      -77.957331531    -0.007243148   0.020546967   0.005302111          53508         4
   3  3      -77.957959987    -0.000628456   0.007657639   0.002338158          53508         4
   4  4      -77.958009457    -0.000049470   0.001434219   0.000300012          53508         4
   5  5      -77.958011512    -0.000002055   0.000311691   0.000065585          53508         4
   6  6      -77.958011593    -0.000000082   0.000027921   0.000005901          53508         4
   7  7      -77.958011594    -0.000000000   0.000006424   0.000001247          53508         4

          -----------------
          DENSITY CONVERGED
          -----------------

 FINAL GVB ENERGY IS      -77.9580115936 AFTER   7 ITERATIONS

          ----------------------------
          SCF STATISTICS PER ITERATION
          ----------------------------
          NUMBER OF INTEGRAL PASSES       1
          FOCK FORMATION TIME         0.009
          GEMINAL OPT TIME            0.000
          MIXORB  OPT TIME            0.000
          OCBSE   OPT TIME            0.000

     THE MAXIMUM LAGRANGIAN ASYMMETRY IS 7.8505581E-07

          ------------
          EIGENVECTORS
          ------------

                      1          2          3          4          5
                  -11.2230   -11.2223    -0.9852    -0.7978    -0.5785
                     A1         B2         A1         B2         E   
    1  C  1  S    0.703890   0.704118  -0.150713  -0.123364   0.000000
    2  C  1  S    0.019519   0.019355   0.290032   0.237928   0.000000
    3  C  1  X    0.000000  -0.000000   0.000000  -0.000000  -0.037868
    4  C  1  Y    0.000000  -0.000000   0.000000  -0.000000   0.122109
    5  C  1  Z   -0.000038   0.000316   0.077049  -0.152321   0.000000
    6  C  1  S   -0.005757  -0.009287   0.241257   0.256740   0.000000
    7  C  1  X    0.000000  -0.000000   0.000000  -0.000000  -0.035956
    8  C  1  Y    0.000000  -0.000000   0.000000  -0.000000   0.042053
    9  C  1  Z    0.000689  -0.001443   0.008542  -0.050767   0.000000
   10  C  1 XX   -0.001651  -0.001503  -0.001696   0.007154   0.000000
   11  C  1 YY   -0.001651  -0.001503  -0.001696   0.007154   0.000000
   12  C  1 ZZ   -0.001726  -0.000937   0.018849  -0.002143   0.000000
   13  C  1 XY   -0.000228  -0.000150  -0.012638  -0.019019   0.000000
   14  C  1 XZ    0.000000  -0.000000   0.000000  -0.000000   0.012511
   15  C  1 YZ    0.000000  -0.000000   0.000000  -0.000000   0.001133
   16  C  2  S    0.703890  -0.704118  -0.150713   0.123364   0.000000
   17  C  2  S    0.019519  -0.019355   0.290032  -0.237928   0.000000
   18  C  2  X    0.000000  -0.000000   0.000000  -0.000000   0.289617
   19  C  2  Y    0.000000  -0.000000   0.000000  -0.000000   0.312016
   20  C  2  Z    0.000038   0.000316  -0.077049  -0.152321   0.000000
   21  C  2  S   -0.005757   0.009287   0.241257  -0.256740   0.000000
   22  C  2  X    0.000000  -0.000000   0.000000  -0.000000   0.145875
   23  C  2  Y    0.000000  -0.000000   0.000000  -0.000000   0.147496
   24  C  2  Z   -0.000689  -0.001443  -0.008542  -0.050767   0.000000
   25  C  2 XX   -0.001651   0.001503  -0.001696  -0.007154   0.000000
   26  C  2 YY   -0.001651   0.001503  -0.001696  -0.007154   0.000000
   27  C  2 ZZ   -0.001726   0.000937   0.018849   0.002143   0.000000
   28  C  2 XY    0.000228  -0.000150   0.012638  -0.019019   0.000000
   29  C  2 XZ    0.000000  -0.000000   0.000000  -0.000000   0.023210
   30  C  2 YZ    0.000000  -0.000000   0.000000  -0.000000   0.019582
   31  H  3  S   -0.000208   0.000020   0.090658  -0.143198  -0.231437
   32  H  3  S    0.001699  -0.001250   0.022482  -0.066059  -0.175613
   33  H  4  S   -0.000208  -0.000020   0.090658   0.143198  -0.061540
   34  H  4  S    0.001699   0.001250   0.022482   0.066059  -0.046697
   35  H  5  S   -0.000208  -0.000020   0.090658   0.143198   0.061540
   36  H  5  S    0.001699   0.001250   0.022482   0.066059   0.046697
   37  H  6  S   -0.000208   0.000020   0.090658  -0.143198   0.231437
   38  H  6  S    0.001699  -0.001250   0.022482  -0.066059   0.175613

                      6          7          8          9         10
                   -0.5785    -0.5542    -0.1802    -0.1802     0.2794
                     E          A1         E          E          B2  
    1  C  1  S   -0.000000  -0.012369  -0.000000   0.000000  -0.109297
    2  C  1  S   -0.000000   0.031614  -0.000000   0.000000   0.094410
    3  C  1  X    0.312016  -0.000000  -0.141041   0.396720  -0.000000
    4  C  1  Y   -0.289617  -0.000000  -0.085717   0.412228  -0.000000
    5  C  1  Z   -0.000000   0.399766  -0.000000   0.000000  -0.056046
    6  C  1  S   -0.000000   0.012229  -0.000000   0.000000   1.722980
    7  C  1  X    0.147496  -0.000000  -0.143404   0.363738  -0.000000
    8  C  1  Y   -0.145875  -0.000000  -0.066555   0.385279  -0.000000
    9  C  1  Z   -0.000000   0.172146  -0.000000   0.000000  -0.275608
   10  C  1 XX   -0.000000  -0.011503  -0.000000   0.000000  -0.005926
   11  C  1 YY   -0.000000  -0.011503  -0.000000   0.000000  -0.005926
   12  C  1 ZZ   -0.000000   0.017340  -0.000000   0.000000  -0.012565
   13  C  1 XY   -0.000000   0.013083  -0.000000   0.000000   0.004760
   14  C  1 XZ   -0.019582  -0.000000   0.022375   0.004801  -0.000000
   15  C  1 YZ    0.023210  -0.000000  -0.021610  -0.007529  -0.000000
   16  C  2  S   -0.000000  -0.012369  -0.000000   0.000000   0.109297
   17  C  2  S   -0.000000   0.031614  -0.000000   0.000000  -0.094410
   18  C  2  X    0.122109  -0.000000   0.412228   0.085717  -0.000000
   19  C  2  Y    0.037868  -0.000000  -0.396720  -0.141041  -0.000000
   20  C  2  Z   -0.000000  -0.399766  -0.000000   0.000000  -0.056046
   21  C  2  S   -0.000000   0.012229  -0.000000   0.000000  -1.722980
   22  C  2  X    0.042053  -0.000000   0.385279   0.066555  -0.000000
   23  C  2  Y    0.035956  -0.000000  -0.363738  -0.143404  -0.000000
   24  C  2  Z   -0.000000  -0.172146  -0.000000   0.000000  -0.275608
   25  C  2 XX   -0.000000  -0.011503  -0.000000   0.000000   0.005926
   26  C  2 YY   -0.000000  -0.011503  -0.000000   0.000000   0.005926
   27  C  2 ZZ   -0.000000   0.017340  -0.000000   0.000000   0.012565
   28  C  2 XY   -0.000000  -0.013083  -0.000000   0.000000   0.004760
   29  C  2 XZ   -0.001133  -0.000000   0.007529  -0.021610  -0.000000
   30  C  2 YZ    0.012511  -0.000000   0.004801  -0.022375  -0.000000
   31  H  3  S   -0.061540  -0.120434  -0.020485   0.073078   0.032063
   32  H  3  S   -0.046697  -0.097853  -0.030083   0.107320   1.035882
   33  H  4  S    0.231437  -0.120434  -0.073078  -0.020485  -0.032063
   34  H  4  S    0.175613  -0.097853  -0.107320  -0.030083  -1.035882
   35  H  5  S   -0.231437  -0.120434   0.073078   0.020485  -0.032063
   36  H  5  S   -0.175613  -0.097853   0.107320   0.030083  -1.035882
   37  H  6  S    0.061540  -0.120434   0.020485  -0.073078   0.032063
   38  H  6  S    0.046697  -0.097853   0.030083  -0.107320   1.035882

                     11         12         13         14         15
                    0.2928     0.3507     0.3507     0.4460     0.7157
                     A1         E          E          B2         A1  
    1  C  1  S   -0.081859  -0.000000  -0.000000  -0.078497  -0.017125
    2  C  1  S    0.108510  -0.000000  -0.000000   0.059077  -0.194580
    3  C  1  X    0.000000  -0.188436  -0.177408   0.000000   0.000000
    4  C  1  Y    0.000000   0.190744   0.174923   0.000000   0.000000
    5  C  1  Z   -0.145122  -0.000000  -0.000000   0.188584  -0.590431
    6  C  1  S    1.516128  -0.000000  -0.000000   1.962105  -0.224902
    7  C  1  X    0.000000  -0.663112  -1.073868   0.000000   0.000000
    8  C  1  Y    0.000000   1.119590   0.582605   0.000000   0.000000
    9  C  1  Z   -0.627705  -0.000000  -0.000000   2.357077   0.988185
   10  C  1 XX   -0.004821  -0.000000  -0.000000   0.010786   0.020822
   11  C  1 YY   -0.004821  -0.000000  -0.000000   0.010786   0.020822
   12  C  1 ZZ    0.008074  -0.000000  -0.000000  -0.007670  -0.116507
   13  C  1 XY   -0.005765  -0.000000  -0.000000  -0.020428  -0.019235
   14  C  1 XZ    0.000000  -0.009452   0.008985   0.000000   0.000000
   15  C  1 YZ    0.000000  -0.008268   0.010085   0.000000   0.000000
   16  C  2  S   -0.081859  -0.000000  -0.000000   0.078497  -0.017125
   17  C  2  S    0.108510  -0.000000  -0.000000  -0.059077  -0.194580
   18  C  2  X    0.000000  -0.174923   0.190744   0.000000   0.000000
   19  C  2  Y    0.000000  -0.177408   0.188436   0.000000   0.000000
   20  C  2  Z    0.145122  -0.000000  -0.000000   0.188584   0.590431
   21  C  2  S    1.516128  -0.000000  -0.000000  -1.962105  -0.224902
   22  C  2  X    0.000000  -0.582605   1.119590   0.000000   0.000000
   23  C  2  Y    0.000000  -1.073868   0.663112   0.000000   0.000000
   24  C  2  Z    0.627705  -0.000000  -0.000000   2.357077  -0.988185
   25  C  2 XX   -0.004821  -0.000000  -0.000000  -0.010786   0.020822
   26  C  2 YY   -0.004821  -0.000000  -0.000000  -0.010786   0.020822
   27  C  2 ZZ    0.008074  -0.000000  -0.000000   0.007670  -0.116507
   28  C  2 XY    0.005765  -0.000000  -0.000000  -0.020428   0.019235
   29  C  2 XZ    0.000000   0.010085   0.008268   0.000000   0.000000
   30  C  2 YZ    0.000000  -0.008985  -0.009452   0.000000   0.000000
   31  H  3  S   -0.000167   0.007115  -0.007657  -0.049177   0.113321
   32  H  3  S   -1.091734  -1.251444   1.346808  -0.481334   0.083731
   33  H  4  S   -0.000167  -0.007657  -0.007115   0.049177   0.113321
   34  H  4  S   -1.091734   1.346808   1.251444   0.481334   0.083731
   35  H  5  S   -0.000167   0.007657   0.007115   0.049177   0.113321
   36  H  5  S   -1.091734  -1.346808  -1.251444   0.481334   0.083731
   37  H  6  S   -0.000167  -0.007115   0.007657  -0.049177   0.113321
   38  H  6  S   -1.091734   1.251444  -1.346808  -0.481334   0.083731

                     16         17         18         19         20
                    0.8131     0.8131     0.8567     0.8872     0.9110
                     E          E          B2         A1         E   
    1  C  1  S    0.000000   0.000000   0.070590  -0.049604  -0.000000
    2  C  1  S    0.000000   0.000000   0.034294  -0.718736  -0.000000
    3  C  1  X    0.120166   0.724311  -0.000000  -0.000000   0.324827
    4  C  1  Y   -0.116073   0.724978  -0.000000  -0.000000  -0.516267
    5  C  1  Z    0.000000   0.000000  -0.665376  -0.085368  -0.000000
    6  C  1  S    0.000000   0.000000  -0.260560   1.590480  -0.000000
    7  C  1  X   -0.334175  -0.673563  -0.000000  -0.000000  -1.065291
    8  C  1  Y    0.330365  -0.675440  -0.000000  -0.000000   1.721875
    9  C  1  Z    0.000000   0.000000   0.898145  -0.396331  -0.000000
   10  C  1 XX    0.000000   0.000000  -0.012857  -0.053914  -0.000000
   11  C  1 YY    0.000000   0.000000  -0.012857  -0.053914  -0.000000
   12  C  1 ZZ    0.000000   0.000000   0.133419  -0.098582  -0.000000
   13  C  1 XY    0.000000   0.000000  -0.080180   0.097563  -0.000000
   14  C  1 XZ    0.001614   0.000220  -0.000000  -0.000000  -0.121813
   15  C  1 YZ   -0.001612   0.000229  -0.000000  -0.000000   0.060839
   16  C  2  S    0.000000   0.000000  -0.070590  -0.049604  -0.000000
   17  C  2  S    0.000000   0.000000  -0.034294  -0.718736  -0.000000
   18  C  2  X    0.724978   0.116073  -0.000000  -0.000000   0.033160
   19  C  2  Y   -0.724311   0.120166  -0.000000  -0.000000   0.402639
   20  C  2  Z    0.000000   0.000000  -0.665376   0.085368  -0.000000
   21  C  2  S    0.000000   0.000000   0.260560   1.590480  -0.000000
   22  C  2  X   -0.675440  -0.330365  -0.000000  -0.000000  -0.088459
   23  C  2  Y    0.673563  -0.334175  -0.000000  -0.000000  -1.355667
   24  C  2  Z    0.000000   0.000000   0.898145   0.396331  -0.000000
   25  C  2 XX    0.000000   0.000000   0.012857  -0.053914  -0.000000
   26  C  2 YY    0.000000   0.000000   0.012857  -0.053914  -0.000000
   27  C  2 ZZ    0.000000   0.000000  -0.133419  -0.098582  -0.000000
   28  C  2 XY    0.000000   0.000000  -0.080180  -0.097563  -0.000000
   29  C  2 XZ   -0.000229  -0.001612  -0.000000  -0.000000   0.106160
   30  C  2 YZ    0.000220  -0.001614  -0.000000  -0.000000  -0.011521
   31  H  3  S   -0.000464  -0.164374  -0.311334  -0.431276  -0.214078
   32  H  3  S   -0.000756  -0.267559  -0.113379  -0.297204  -0.285395
   33  H  4  S    0.164374  -0.000464   0.311334  -0.431276   0.413172
   34  H  4  S    0.267559  -0.000756   0.113379  -0.297204   0.550813
   35  H  5  S   -0.164374   0.000464   0.311334  -0.431276  -0.413172
   36  H  5  S   -0.267559   0.000756   0.113379  -0.297204  -0.550813
   37  H  6  S    0.000464   0.164374  -0.311334  -0.431276   0.214078
   38  H  6  S    0.000756   0.267559  -0.113379  -0.297204   0.285395

                     21         22         23         24         25
                    0.9110     1.1804     1.1804     1.2049     1.2364
                     E          E          E          B2         A1  
    1  C  1  S    0.000000   0.000000   0.000000  -0.029919   0.011725
    2  C  1  S    0.000000   0.000000   0.000000   0.506934  -1.026861
    3  C  1  X    0.402639   0.574093   0.399929   0.000000   0.000000
    4  C  1  Y   -0.033160  -0.605944  -0.349798   0.000000   0.000000
    5  C  1  Z    0.000000   0.000000   0.000000  -0.536081   0.361667
    6  C  1  S    0.000000   0.000000   0.000000  -0.783530   2.067383
    7  C  1  X   -1.355667  -0.880419  -0.733265   0.000000   0.000000
    8  C  1  Y    0.088459   1.037842   0.485487   0.000000   0.000000
    9  C  1  Z    0.000000   0.000000   0.000000   0.890162  -0.604875
   10  C  1 XX    0.000000   0.000000   0.000000   0.009620  -0.032397
   11  C  1 YY    0.000000   0.000000   0.000000   0.009620  -0.032397
   12  C  1 ZZ    0.000000   0.000000   0.000000   0.094432  -0.122765
   13  C  1 XY    0.000000   0.000000   0.000000   0.128749  -0.095844
   14  C  1 XZ    0.011521   0.179979   0.005594   0.000000   0.000000
   15  C  1 YZ    0.106160  -0.081528  -0.160552   0.000000   0.000000
   16  C  2  S    0.000000   0.000000   0.000000   0.029919   0.011725
   17  C  2  S    0.000000   0.000000   0.000000  -0.506934  -1.026861
   18  C  2  X   -0.516267   0.349798  -0.605944   0.000000   0.000000
   19  C  2  Y   -0.324827   0.399929  -0.574093   0.000000   0.000000
   20  C  2  Z    0.000000   0.000000   0.000000  -0.536081  -0.361667
   21  C  2  S    0.000000   0.000000   0.000000   0.783530   2.067383
   22  C  2  X    1.721875  -0.485487   1.037842   0.000000   0.000000
   23  C  2  Y    1.065291  -0.733265   0.880419   0.000000   0.000000
   24  C  2  Z    0.000000   0.000000   0.000000   0.890162   0.604875
   25  C  2 XX    0.000000   0.000000   0.000000  -0.009620  -0.032397
   26  C  2 YY    0.000000   0.000000   0.000000  -0.009620  -0.032397
   27  C  2 ZZ    0.000000   0.000000   0.000000  -0.094432  -0.122765
   28  C  2 XY    0.000000   0.000000   0.000000   0.128749   0.095844
   29  C  2 XZ   -0.060839  -0.160552   0.081528   0.000000   0.000000
   30  C  2 YZ   -0.121813  -0.005594   0.179979   0.000000   0.000000
   31  H  3  S    0.413172   0.340480  -0.535900   0.506776   0.410124
   32  H  3  S    0.550813  -0.773980   1.218210  -0.865902  -1.000989
   33  H  4  S    0.214078  -0.535900  -0.340480  -0.506776   0.410124
   34  H  4  S    0.285395   1.218210   0.773980   0.865902  -1.000989
   35  H  5  S   -0.214078   0.535900   0.340480  -0.506776   0.410124
   36  H  5  S   -0.285395  -1.218210  -0.773980   0.865902  -1.000989
   37  H  6  S   -0.413172  -0.340480   0.535900   0.506776   0.410124
   38  H  6  S   -0.550813   0.773980  -1.218210  -0.865902  -1.000989

                     26         27         28         29         30
                    1.2395     1.8645     2.0775     2.0945     2.0945
                     B2         B1         A2         E          E   
    1  C  1  S   -0.036802   0.000000   0.000000  -0.000000   0.000000
    2  C  1  S   -1.399788   0.000000   0.000000  -0.000000   0.000000
    3  C  1  X    0.000000   0.000000   0.000000   0.018418  -0.123539
    4  C  1  Y    0.000000   0.000000   0.000000   0.117422   0.042583
    5  C  1  Z   -0.271738   0.000000   0.000000  -0.000000   0.000000
    6  C  1  S    4.525080   0.000000   0.000000  -0.000000   0.000000
    7  C  1  X    0.000000   0.000000   0.000000  -0.624006  -0.468018
    8  C  1  Y    0.000000   0.000000   0.000000   0.114728   0.771532
    9  C  1  Z    1.713757   0.000000   0.000000  -0.000000   0.000000
   10  C  1 XX   -0.112763   0.598577   0.627168  -0.000000   0.000000
   11  C  1 YY   -0.112763  -0.598577  -0.627168  -0.000000   0.000000
   12  C  1 ZZ   -0.017022   0.000000   0.000000  -0.000000   0.000000
   13  C  1 XY    0.103235   0.000000   0.000000  -0.000000   0.000000
   14  C  1 XZ    0.000000   0.000000   0.000000  -0.393700   0.552346
   15  C  1 YZ    0.000000   0.000000   0.000000  -0.673142   0.083460
   16  C  2  S    0.036802   0.000000   0.000000  -0.000000   0.000000
   17  C  2  S    1.399788   0.000000   0.000000  -0.000000   0.000000
   18  C  2  X    0.000000   0.000000   0.000000   0.042583  -0.117422
   19  C  2  Y    0.000000   0.000000   0.000000   0.123539   0.018418
   20  C  2  Z   -0.271738   0.000000   0.000000  -0.000000   0.000000
   21  C  2  S   -4.525080   0.000000   0.000000  -0.000000   0.000000
   22  C  2  X    0.000000   0.000000   0.000000   0.771532  -0.114728
   23  C  2  Y    0.000000   0.000000   0.000000   0.468018  -0.624006
   24  C  2  Z    1.713757   0.000000   0.000000  -0.000000   0.000000
   25  C  2 XX    0.112763   0.598577  -0.627168  -0.000000   0.000000
   26  C  2 YY    0.112763  -0.598577   0.627168  -0.000000   0.000000
   27  C  2 ZZ    0.017022   0.000000   0.000000  -0.000000   0.000000
   28  C  2 XY    0.103235   0.000000   0.000000  -0.000000   0.000000
   29  C  2 XZ    0.000000   0.000000   0.000000  -0.083460  -0.673142
   30  C  2 YZ    0.000000   0.000000   0.000000   0.552346   0.393700
   31  H  3  S    0.126607   0.000000   0.000000   0.449443  -0.267855
   32  H  3  S    0.251089   0.000000   0.000000   0.235573  -0.140394
   33  H  4  S   -0.126607   0.000000   0.000000   0.267855   0.449443
   34  H  4  S   -0.251089   0.000000   0.000000   0.140394   0.235573
   35  H  5  S   -0.126607   0.000000   0.000000  -0.267855  -0.449443
   36  H  5  S   -0.251089   0.000000   0.000000  -0.140394  -0.235573
   37  H  6  S    0.126607   0.000000   0.000000  -0.449443   0.267855
   38  H  6  S    0.251089   0.000000   0.000000  -0.235573   0.140394

                     31         32         33         34         35
                    2.2259     2.3125     2.5266     2.7792     2.7792
                     A1         B2         A1         E          E   
    1  C  1  S   -0.009299  -0.043565   0.032303   0.000000   0.000000
    2  C  1  S   -0.384375  -0.310325  -0.097443   0.000000   0.000000
    3  C  1  X    0.000000   0.000000   0.000000   0.110009  -0.020699
    4  C  1  Y    0.000000   0.000000   0.000000  -0.007483   0.111689
    5  C  1  Z   -0.310219  -0.085947  -0.012696   0.000000   0.000000
    6  C  1  S    0.339160   1.277376  -0.363322   0.000000   0.000000
    7  C  1  X    0.000000   0.000000   0.000000   0.078397  -0.045545
    8  C  1  Y    0.000000   0.000000   0.000000  -0.035909   0.083253
    9  C  1  Z    0.292441   0.122835   0.298779   0.000000   0.000000
   10  C  1 XX   -0.377601  -0.010320  -0.047493   0.000000   0.000000
   11  C  1 YY   -0.377601  -0.010320  -0.047493   0.000000   0.000000
   12  C  1 ZZ    0.605724  -0.013829   0.165347   0.000000   0.000000
   13  C  1 XY   -0.145516  -0.739978   0.771800   0.000000   0.000000
   14  C  1 XZ    0.000000   0.000000   0.000000  -0.197400   0.849102
   15  C  1 YZ    0.000000   0.000000   0.000000   0.819637  -0.296878
   16  C  2  S   -0.009299   0.043565   0.032303   0.000000   0.000000
   17  C  2  S   -0.384375   0.310325  -0.097443   0.000000   0.000000
   18  C  2  X    0.000000   0.000000   0.000000   0.111689   0.007483
   19  C  2  Y    0.000000   0.000000   0.000000   0.020699   0.110009
   20  C  2  Z    0.310219  -0.085947   0.012696   0.000000   0.000000
   21  C  2  S    0.339160  -1.277376  -0.363322   0.000000   0.000000
   22  C  2  X    0.000000   0.000000   0.000000   0.083253   0.035909
   23  C  2  Y    0.000000   0.000000   0.000000   0.045545   0.078397
   24  C  2  Z   -0.292441   0.122835  -0.298779   0.000000   0.000000
   25  C  2 XX   -0.377601   0.010320  -0.047493   0.000000   0.000000
   26  C  2 YY   -0.377601   0.010320  -0.047493   0.000000   0.000000
   27  C  2 ZZ    0.605724   0.013829   0.165347   0.000000   0.000000
   28  C  2 XY    0.145516  -0.739978  -0.771800   0.000000   0.000000
   29  C  2 XZ    0.000000   0.000000   0.000000   0.296878   0.819637
   30  C  2 YZ    0.000000   0.000000   0.000000   0.849102   0.197400
   31  H  3  S    0.008514   0.435791   0.410855   0.409365   0.363304
   32  H  3  S   -0.060716   0.088980   0.017898  -0.122977  -0.109139
   33  H  4  S    0.008514  -0.435791   0.410855  -0.363304   0.409365
   34  H  4  S   -0.060716  -0.088980   0.017898   0.109139  -0.122977
   35  H  5  S    0.008514  -0.435791   0.410855   0.363304  -0.409365
   36  H  5  S   -0.060716  -0.088980   0.017898  -0.109139   0.122977
   37  H  6  S    0.008514   0.435791   0.410855  -0.409365  -0.363304
   38  H  6  S   -0.060716   0.088980   0.017898   0.122977   0.109139

                     36         37         38
                    2.9529     4.4988     4.6670
                     B2         A1         B2  
    1  C  1  S   -0.084353  -0.332334  -0.325086
    2  C  1  S    0.059027   2.173643   2.176156
    3  C  1  X    0.000000   0.000000   0.000000
    4  C  1  Y    0.000000   0.000000   0.000000
    5  C  1  Z    0.490045   0.084937  -0.200433
    6  C  1  S    1.877193   1.032314   1.550377
    7  C  1  X    0.000000   0.000000   0.000000
    8  C  1  Y    0.000000   0.000000   0.000000
    9  C  1  Z    1.127637  -0.131754   0.142019
   10  C  1 XX   -0.555976  -1.314201  -1.264289
   11  C  1 YY   -0.555976  -1.314201  -1.264289
   12  C  1 ZZ    0.981246  -1.192766  -1.612796
   13  C  1 XY    0.001860   0.049888   0.002878
   14  C  1 XZ    0.000000   0.000000   0.000000
   15  C  1 YZ    0.000000   0.000000   0.000000
   16  C  2  S    0.084353  -0.332334   0.325086
   17  C  2  S   -0.059027   2.173643  -2.176156
   18  C  2  X    0.000000   0.000000   0.000000
   19  C  2  Y    0.000000   0.000000   0.000000
   20  C  2  Z    0.490045  -0.084937  -0.200433
   21  C  2  S   -1.877193   1.032314  -1.550377
   22  C  2  X    0.000000   0.000000   0.000000
   23  C  2  Y    0.000000   0.000000   0.000000
   24  C  2  Z    1.127637   0.131754   0.142019
   25  C  2 XX    0.555976  -1.314201   1.264289
   26  C  2 YY    0.555976  -1.314201   1.264289
   27  C  2 ZZ   -0.981246  -1.192766   1.612796
   28  C  2 XY    0.001860  -0.049888   0.002878
   29  C  2 XZ    0.000000   0.000000   0.000000
   30  C  2 YZ    0.000000   0.000000   0.000000
   31  H  3  S   -0.015755   0.157977  -0.097177
   32  H  3  S   -0.024777  -0.356961   0.280356
   33  H  4  S    0.015755   0.157977   0.097177
   34  H  4  S    0.024777  -0.356961  -0.280356
   35  H  5  S    0.015755   0.157977   0.097177
   36  H  5  S    0.024777  -0.356961  -0.280356
   37  H  6  S   -0.015755   0.157977  -0.097177
   38  H  6  S   -0.024777  -0.356961   0.280356

 ... END OF ROHF-GVB SCF CALCULATION ...
 STEP CPU TIME =     0.07 TOTAL CPU TIME =        0.1 (    0.0 MIN)
 TOTAL WALL CLOCK TIME=        0.1 SECONDS, CPU UTILIZATION IS  90.91%

     ----------------------------------------------------------------
     PROPERTY VALUES FOR THE GVB   SELF-CONSISTENT FIELD WAVEFUNCTION
     ----------------------------------------------------------------

          -----------------
          ENERGY COMPONENTS
          -----------------

         WAVEFUNCTION NORMALIZATION =       1.0000000000

                ONE ELECTRON ENERGY =    -166.9820774504
                TWO ELECTRON ENERGY =      57.1912422008
           NUCLEAR REPULSION ENERGY =      31.8328236560
                                      ------------------
                       TOTAL ENERGY =     -77.9580115936

 ELECTRON-ELECTRON POTENTIAL ENERGY =      57.1912422008
  NUCLEUS-ELECTRON POTENTIAL ENERGY =    -244.9101695542
   NUCLEUS-NUCLEUS POTENTIAL ENERGY =      31.8328236560
                                      ------------------
             TOTAL POTENTIAL ENERGY =    -155.8861036974
               TOTAL KINETIC ENERGY =      77.9280921038
                 VIRIAL RATIO (V/T) =       2.0003839372

          ---------------------------------------
          MULLIKEN AND LOWDIN POPULATION ANALYSES
          ---------------------------------------

     ATOMIC MULLIKEN POPULATION IN EACH MOLECULAR ORBITAL

                      1          2          3          4          5

                  2.000000   2.000000   2.000000   2.000000   2.000000

    1             0.999479   0.999691   0.851753   0.646798   0.095270
    2             0.999479   0.999691   0.851753   0.646798   1.025213
    3             0.000261   0.000155   0.074123   0.176601   0.410719
    4             0.000261   0.000155   0.074123   0.176601   0.029040
    5             0.000261   0.000155   0.074123   0.176601   0.029040
    6             0.000261   0.000155   0.074123   0.176601   0.410719

                      6          7          8          9

                  2.000000   2.000000   1.000000   1.000000

    1             1.025213   0.769529   0.070470   0.900818
    2             0.095270   0.769529   0.900818   0.070470
    3             0.029040   0.115235   0.001046   0.013310
    4             0.410719   0.115235   0.013310   0.001046
    5             0.410719   0.115235   0.013310   0.001046
    6             0.029040   0.115235   0.001046   0.013310

               ----- POPULATIONS IN EACH AO -----
                             MULLIKEN      LOWDIN
              1  C  1  S      1.99633     1.98163
              2  C  1  S      0.65348     0.36061
              3  C  1  X      0.62861     0.58569
              4  C  1  Y      0.62861     0.58569
              5  C  1  Z      0.70217     0.62825
              6  C  1  S      0.62210     0.35339
              7  C  1  X      0.40690     0.46739
              8  C  1  Y      0.40690     0.46739
              9  C  1  Z      0.25308     0.39951
             10  C  1 XX      0.00400     0.13832
             11  C  1 YY      0.00400     0.13832
             12  C  1 ZZ      0.02541     0.17793
             13  C  1 XY      0.00669     0.00887
             14  C  1 XZ      0.01038     0.01944
             15  C  1 YZ      0.01038     0.01944
             16  C  2  S      1.99633     1.98163
             17  C  2  S      0.65348     0.36061
             18  C  2  X      0.62861     0.58569
             19  C  2  Y      0.62861     0.58569
             20  C  2  Z      0.70217     0.62825
             21  C  2  S      0.62210     0.35339
             22  C  2  X      0.40690     0.46739
             23  C  2  Y      0.40690     0.46739
             24  C  2  Z      0.25308     0.39951
             25  C  2 XX      0.00400     0.13832
             26  C  2 YY      0.00400     0.13832
             27  C  2 ZZ      0.02541     0.17793
             28  C  2 XY      0.00669     0.00887
             29  C  2 XZ      0.01038     0.01944
             30  C  2 YZ      0.01038     0.01944
             31  H  3  S      0.52270     0.47950
             32  H  3  S      0.29779     0.35458
             33  H  4  S      0.52270     0.47950
             34  H  4  S      0.29779     0.35458
             35  H  5  S      0.52270     0.47950
             36  H  5  S      0.29779     0.35458
             37  H  6  S      0.52270     0.47950
             38  H  6  S      0.29779     0.35458

          ----- MULLIKEN ATOMIC OVERLAP POPULATIONS -----
          (OFF-DIAGONAL ELEMENTS NEED TO BE MULTIPLIED BY 2)

             1           2           3           4           5

    1    5.3174155
    2    0.3432074   5.3174155
    3   -0.0431698   0.3923682   0.5013113
    4    0.3923682  -0.0431698   0.0012579   0.5013113
    5    0.3923682  -0.0431698   0.0012579  -0.0325354   0.5013113
    6   -0.0431698   0.3923682  -0.0325354   0.0012579   0.0012579

             6

    6    0.5013113

          TOTAL MULLIKEN AND LOWDIN ATOMIC POPULATIONS
       ATOM         MULL.POP.    CHARGE          LOW.POP.     CHARGE
    1 C             6.359020   -0.359020         6.331847   -0.331847
    2 C             6.359020   -0.359020         6.331847   -0.331847
    3 H             0.820490    0.179510         0.834077    0.165923
    4 H             0.820490    0.179510         0.834077    0.165923
    5 H             0.820490    0.179510         0.834077    0.165923
    6 H             0.820490    0.179510         0.834077    0.165923

          -----------------------------------------
          ATOMIC SPIN DENSITY AT THE NUCLEUS (A.U.)
          -----------------------------------------
                            SPIN DENS    ALPHA DENS     BETA DENS
    1  C            6.0    -0.0000000      59.03126      59.03126
    2  C            6.0    -0.0000000      59.03126      59.03126
    3  H            1.0     0.0101423       0.21510       0.20496
    4  H            1.0     0.0101423       0.21510       0.20496
    5  H            1.0     0.0101423       0.21510       0.20496
    6  H            1.0     0.0101423       0.21510       0.20496

          ---------------------
          ELECTROSTATIC MOMENTS
          ---------------------

 POINT   1           X           Y           Z (BOHR)    CHARGE
                 0.000000    0.000000    0.000000        0.00 (A.U.)
         DX          DY          DZ         /D/  (DEBYE)
    -0.000000   -0.000000   -0.000000    0.000000
 ...... END OF PROPERTY EVALUATION ......
 STEP CPU TIME =     0.00 TOTAL CPU TIME =        0.1 (    0.0 MIN)
 TOTAL WALL CLOCK TIME=        0.1 SECONDS, CPU UTILIZATION IS  90.91%

     --------------------------------------------
     PARTIAL TWO ELECTRON INTEGRAL TRANSFORMATION
     --------------------------------------------

 NUMBER OF CORE MOLECULAR ORBITALS     =    0
 NUMBER OF OCCUPIED MOLECULAR ORBITALS =    9
 TOTAL NUMBER OF MOLECULAR ORBITALS    =   38
 TOTAL NUMBER OF ATOMIC ORBITALS       =   38
 THRESHOLD FOR KEEPING TRANSFORMED 2E- INTEGRALS = 1.000E-09
 AO INTEGRALS WILL BE CALCULATED IN DIRECT MODE...

 PLAN A: REQUIREMENTS FOR FULLY IN-MEMORY TRANSFORMATION:
 # OF WORDS AVAILABLE =             10000000
 # OF WORDS NEEDED    =               366388

 CHOOSING IN MEMORY PARTIAL TRANSFORMATION...
 DIRECT TRANSFORMATION SKIPS AO INTEGRAL STORAGE ON DISK.
 TOTAL NUMBER OF TRANSFORMED 2E- INTEGRALS KEPT =        28174
 ... END OF INTEGRAL TRANSFORMATION ...
 STEP CPU TIME =     0.05 TOTAL CPU TIME =        0.2 (    0.0 MIN)
 TOTAL WALL CLOCK TIME=        0.2 SECONDS, CPU UTILIZATION IS  93.75%

     ---------------------------------------------
     1ST AND 2ND INTEGRAL DERIVATIVE CONTRIBUTIONS
     ---------------------------------------------
 ...... END OF 1-ELECTRON GRAD+HESS+FOCKDER ......
 STEP CPU TIME =     0.01 TOTAL CPU TIME =        0.2 (    0.0 MIN)
 TOTAL WALL CLOCK TIME=        0.2 SECONDS, CPU UTILIZATION IS  94.12%

     ----------------------------------------------
     TWO ELECTRON INTEGRAL DERIVATIVE CONTRIBUTIONS
     ----------------------------------------------

      81929 WORDS REQUIRED,  10000000 WORDS AVAILABLE
 THE COARSE/FINE SCHWARZ SCREENINGS SKIPPED          6/         8 BLOCKS.
 THE NUMBER OF DERIVATIVE INTEGRAL BLOCKS COMPUTED WAS      2047
 STEP CPU TIME =     0.25 TOTAL CPU TIME =        0.4 (    0.0 MIN)
 TOTAL WALL CLOCK TIME=        0.4 SECONDS, CPU UTILIZATION IS  97.62%
 ...... END OF 2-ELECTRON GRAD+HESS+FOCKDER ......
 STEP CPU TIME =     0.00 TOTAL CPU TIME =        0.4 (    0.0 MIN)
 TOTAL WALL CLOCK TIME=        0.4 SECONDS, CPU UTILIZATION IS  97.62%

     -----------------------------------------
     COUPLED-PERTURBED OPEN SHELL HARTREE-FOCK
     -----------------------------------------
 THE CPHF HAS     275 INDEPENDENT ORBITAL ROTATIONS.
 THE CPHF CODE HAS    10000000 WORDS OF MEMORY AVAILABLE.
 CHOOSING IN MEMORY CPHF ALGORITHM
 DS/DA TRANSFORM STEP WILL REQUIRE       32598 WORDS OF MEMORY.
  CPHF EQUATIONS STEP WILL REQUIRE      164379 WORDS OF MEMORY.
     TRANSFORMING DS/DA TO MO BASIS TOOK         0.0 SECONDS
      SETTING UP THE CPHF EQUATIONS TOOK         0.0 SECONDS
 BICONJUGATE GRADIENT SOLVER     CONV. TOLERANCE=1.00E-05
 ITER   1 IMPROVED    6 RESPONSES, MAX RESIDUE=  4.5275911E-02
 ITER   2 IMPROVED    6 RESPONSES, MAX RESIDUE=  1.6306321E-02
 ITER   3 IMPROVED    6 RESPONSES, MAX RESIDUE=  5.4639839E-03
 ITER   4 IMPROVED    6 RESPONSES, MAX RESIDUE=  1.9888446E-03
 ITER   5 IMPROVED    6 RESPONSES, MAX RESIDUE=  7.5702122E-04
 ITER   6 IMPROVED    5 RESPONSES, MAX RESIDUE=  2.1258161E-04
 ITER   7 IMPROVED    3 RESPONSES, MAX RESIDUE=  3.0268098E-05
 ITER   8 IMPROVED    3 RESPONSES, MAX RESIDUE=  3.8964426E-06
     SOLVING FOR THE CPHF RESPONSES TOOK         0.0 SECONDS
 SOLVING FOR ALL    6 UNIQUE RESPONSES TOOK   41 ITERATIONS.
 ...... DONE WITH CPHF CONTRIBUTIONS ......
 STEP CPU TIME =     0.01 TOTAL CPU TIME =        0.4 (    0.0 MIN)
 TOTAL WALL CLOCK TIME=        0.4 SECONDS, CPU UTILIZATION IS  97.67%

          ---------------
          ENERGY GRADIENT
          ---------------

 UNITS ARE HARTREE/BOHR    E'X               E'Y               E'Z 
    1 C               -0.000000000       0.000000000       0.000007721
    2 C               -0.000000000       0.000000000      -0.000007721
    3 H               -0.000001779      -0.000001779      -0.000002509
    4 H                0.000001779      -0.000001779       0.000002509
    5 H               -0.000001779       0.000001779       0.000002509
    6 H                0.000001779       0.000001779      -0.000002509

          -------------------------------
          CARTESIAN FORCE CONSTANT MATRIX
          -------------------------------

                                   1                          2
                               C                          C         
                          X        Y        Z        X        Y        Z
  1   C            X 0.330490-0.305659 0.000000-0.045246-0.000000 0.000000
                   Y-0.305659 0.330490 0.000000-0.000000-0.045246 0.000000
                   Z 0.000000 0.000000 0.627839 0.000000 0.000000-0.308636
  2   C            X-0.045246-0.000000 0.000000 0.330490 0.305659 0.000000
                   Y-0.000000-0.045246 0.000000 0.305659 0.330490 0.000000
                   Z 0.000000 0.000000-0.308636 0.000000 0.000000 0.627839
  3   H            X 0.004000 0.003932-0.000652-0.146695-0.148928 0.095619
                   Y 0.003932 0.004000-0.000652-0.148928-0.146695 0.095619
                   Z 0.014075 0.014075-0.014910 0.102168 0.102168-0.144694
  4   H            X-0.146695 0.148928 0.095619 0.004000-0.003932-0.000652
                   Y 0.148928-0.146695-0.095619-0.003932 0.004000 0.000652
                   Z 0.102168-0.102168-0.144694 0.014075-0.014075-0.014910
  5   H            X-0.146695 0.148928-0.095619 0.004000-0.003932 0.000652
                   Y 0.148928-0.146695 0.095619-0.003932 0.004000-0.000652
                   Z-0.102168 0.102168-0.144694-0.014075 0.014075-0.014910
  6   H            X 0.004000 0.003932 0.000652-0.146695-0.148928-0.095619
                   Y 0.003932 0.004000 0.000652-0.148928-0.146695-0.095619
                   Z-0.014075-0.014075-0.014910-0.102168-0.102168-0.144694

                                   3                          4
                               H                          H         
                          X        Y        Z        X        Y        Z
  3   H            X 0.155682 0.152026-0.106141-0.002446-0.002371 0.000556
                   Y 0.152026 0.155682-0.106141 0.002371 0.001350-0.000573
                   Z-0.106141-0.106141 0.150094 0.000556 0.000573-0.002007
  4   H            X-0.002446 0.002371 0.000556 0.155682-0.152026-0.106141
                   Y-0.002371 0.001350 0.000573-0.152026 0.155682 0.106141
                   Z 0.000556-0.000573-0.002007-0.106141 0.106141 0.150094
  5   H            X 0.001350-0.002371 0.000573-0.011820 0.007011-0.011195
                   Y 0.002371-0.002446 0.000556 0.007011-0.011820 0.011195
                   Z-0.000573 0.000556-0.002007 0.011195-0.011195 0.013527
  6   H            X-0.011820-0.007011-0.011195 0.001350 0.002371 0.000573
                   Y-0.007011-0.011820-0.011195-0.002371-0.002446-0.000556
                   Z 0.011195 0.011195 0.013527-0.000573-0.000556-0.002007

                                   5                          6
                               H                          H         
                          X        Y        Z        X        Y        Z
  5   H            X 0.155682-0.152026 0.106141-0.002446 0.002371-0.000556
                   Y-0.152026 0.155682-0.106141-0.002371 0.001350-0.000573
                   Z 0.106141-0.106141 0.150094-0.000556 0.000573-0.002007
  6   H            X-0.002446-0.002371-0.000556 0.155682 0.152026 0.106141
                   Y 0.002371 0.001350 0.000573 0.152026 0.155682 0.106141
                   Z-0.000556-0.000573-0.002007 0.106141 0.106141 0.150094

          ------------------------          ----------------
          DIPOLE DERIVATIVE TENSOR          (DEBYE/ANGSTROM)
          ------------------------          ----------------

        ATOM                 MU-X           MU-Y           MU-Z
     C          D/DX    -0.331680908   -1.524356739    0.000000000
                D/DY    -1.524356739   -0.331680908    0.000000000
                D/DZ     0.000000000    0.000000000    0.607970340
     C          D/DX    -0.331680908    1.524356739    0.000000000
                D/DY     1.524356739   -0.331680908    0.000000000
                D/DZ     0.000000000    0.000000000    0.607970340
     H          D/DX     0.167690235   -0.520313024    0.214516889
                D/DY    -0.520363092    0.167615058    0.214444250
                D/DZ     0.177652501    0.177652501   -0.303854927
     H          D/DX     0.167690235    0.520313024    0.214516889
                D/DY     0.520363092    0.167615058   -0.214444250
                D/DZ     0.177652501   -0.177652501   -0.303854927
     H          D/DX     0.167690235    0.520313024   -0.214516889
                D/DY     0.520363092    0.167615058    0.214444250
                D/DZ    -0.177652501    0.177652501   -0.303854927
     H          D/DX     0.167690235   -0.520313024   -0.214516889
                D/DY    -0.520363092    0.167615058   -0.214444250
                D/DZ    -0.177652501   -0.177652501   -0.303854927

          --------------------------------------------------------
          NORMAL COORDINATE ANALYSIS IN THE HARMONIC APPROXIMATION
          --------------------------------------------------------

          ATOMIC WEIGHTS (AMU)

    1     C                12.00000
    2     C                12.00000
    3     H                 1.00782
    4     H                 1.00782
    5     H                 1.00782
    6     H                 1.00782

 MODE(S)     1 TO     2 TREATED AS IMAGINARY.

 MODES    3 TO    8 ARE TAKEN AS ROTATIONS AND TRANSLATIONS.

 ANALYZING SYMMETRY OF NORMAL MODES...
 WATCH OUT!! THE COUNTING OF DEGENERATE MODES COUNTS INDIVIDUAL MODES,
 E.G. 2*E MEANS ONE (1) SET OF DEGENERATE E MODES

 --- SYMMETRY FOR NORMAL MODES ---
 INCLUDING TRANSLATION AND ROTATION
    3*A1     3*B2     1*B1     1*A2    10*E   
 EXCLUDING TRANSLATION AND ROTATION (SAYVETZ < 0.01)
    3*A1     2*B2     1*B1     0*A2     4*E   

     FREQUENCIES IN CM**-1, IR INTENSITIES IN DEBYE**2/AMU-ANGSTROM**2,
     REDUCED MASSES IN AMU.

                            1           2           3           4           5
       FREQUENCY:       202.77 I    202.77 I     43.87        4.77        4.77  
        SYMMETRY:         E           E           A2          E           E   
    REDUCED MASS:      1.26236     1.26236     1.00782     4.46306     4.46306
    IR INTENSITY:      1.22302     1.22310     0.00000     0.00019     0.00019

  1   C            X -0.02128015 -0.09337468 -0.00000000 -0.10595106  0.15488595
                   Y  0.00105935 -0.09576300 -0.00000000  0.12890003  0.13638206
                   Z -0.00000000 -0.00000000  0.00000000 -0.00000000 -0.00000000
  2   C            X  0.09576300  0.00105935 -0.00000000 -0.13638206  0.12890003
                   Y -0.09337468  0.02128015  0.00000000  0.15488595  0.10595106
                   Z -0.00000000 -0.00000000  0.00000000 -0.00000000 -0.00000000
  3   H            X -0.42752052  0.09032880  0.35217818 -0.15447516  0.11923149
                   Y  0.43695389 -0.00209255 -0.35217818  0.17124163  0.09356830
                   Z  0.00755148  0.07063369  0.00000000 -0.00201491 -0.02557324
  4   H            X  0.00209255  0.43695389  0.35217818 -0.09356830  0.17124163
                   Y  0.09032880  0.42752052  0.35217818  0.11923149  0.15447516
                   Z -0.07063369  0.00755148  0.00000000  0.02557324 -0.00201491
  5   H            X  0.00209255  0.43695389 -0.35217818 -0.09356830  0.17124163
                   Y  0.09032880  0.42752052 -0.35217818  0.11923149  0.15447516
                   Z  0.07063369 -0.00755148 -0.00000000 -0.02557324  0.00201491
  6   H            X -0.42752052  0.09032880 -0.35217818 -0.15447516  0.11923149
                   Y  0.43695389 -0.00209255  0.35217818  0.17124163  0.09356830
                   Z -0.00755148 -0.07063369 -0.00000000  0.00201491  0.02557324

 TRANS. SAYVETZ    X  0.03628039 -0.04496654 -0.00000000 -3.40796625  3.99092397
                   Y -0.04496654 -0.03628039  0.00000000  3.99092397  3.40796625
                   Z -0.00000000 -0.00000000  0.00000000 -0.00000000 -0.00000000
               TOTAL  0.05777764  0.05777764  0.00000000  5.24801945  5.24801945

   ROT. SAYVETZ    X  0.01802238 -0.02233725 -0.00000000 -0.74595560  0.87355679
                   Y  0.02233725  0.01802238 -0.00000000 -0.87355679 -0.74595560
                   Z  0.00000000  0.00000000  3.48366009 -0.00000000  0.00000000
               TOTAL  0.02870120  0.02870120  3.48366009  1.14871721  1.14871721

                            6           7           8           9          10
       FREQUENCY:         0.03       28.08       28.08      667.69     1020.73  
        SYMMETRY:         B2          E           E           B1          E   
    REDUCED MASS:      4.67210     2.27635     2.27635     1.00783     1.26172
    IR INTENSITY:      0.00000     0.00000     0.00000     0.00000     0.01587

  1   C            X  0.00000000 -0.11051304 -0.11460811 -0.00000000 -0.07121562
                   Y  0.00000000  0.14323352 -0.06951481 -0.00000000  0.08892706
                   Z  0.18887789 -0.00000000 -0.00000000 -0.00000000  0.00000000
  2   C            X  0.00000000  0.06951481  0.14323352 -0.00000000  0.03528681
                   Y  0.00000000 -0.11460811  0.11051304  0.00000000 -0.06388675
                   Z  0.18887789 -0.00000000 -0.00000000 -0.00000000 -0.00000000
  3   H            X -0.00000449  0.13933513  0.24171233 -0.35217818  0.04377945
                   Y -0.00000449 -0.21408327  0.17890635  0.35217818  0.01656139
                   Z  0.18886960 -0.03438636  0.19349707  0.00000000  0.10066501
  4   H            X -0.00000449 -0.17890635 -0.21408327  0.35217818  0.17136684
                   Y  0.00000449  0.24171233 -0.13933513  0.35217818 -0.16650596
                   Z  0.18886960 -0.19349707 -0.03438636  0.00000000  0.56366419
  5   H            X  0.00000449 -0.17890635 -0.21408327 -0.35217818  0.17136684
                   Y -0.00000449  0.24171233 -0.13933513 -0.35217818 -0.16650596
                   Z  0.18886960  0.19349707  0.03438636 -0.00000000 -0.56366419
  6   H            X  0.00000449  0.13933513  0.24171233  0.35217818  0.04377945
                   Y  0.00000449 -0.21408327  0.17890635 -0.35217818  0.01656139
                   Z  0.18886960  0.03438636 -0.19349707 -0.00000000 -0.10066501

 TRANS. SAYVETZ    X  0.00000000 -0.57174049  0.39919548 -0.00000000  0.00251391
                   Y  0.00000000  0.39919548  0.57174049  0.00000000 -0.00175205
                   Z  5.29445937 -0.00000000 -0.00000000 -0.00000000  0.00000000
               TOTAL  5.29445937  0.69731214  0.69731214  0.00000000  0.00306422

   ROT. SAYVETZ    X  0.00000000  7.09040314 -4.95059720 -0.00000000 -0.00586567
                   Y -0.00000000  4.95059720  7.09040314  0.00000000 -0.00408803
                   Z -0.00000000  0.00000000 -0.00000000  0.00000000 -0.00000000
               TOTAL  0.00000000  8.64767190  8.64767190  0.00000000  0.00714969

                           11          12          13          14          15
       FREQUENCY:      1020.73     1184.04     1583.04     1615.37     3311.82  
        SYMMETRY:         E           A1          B2          A1          B2  
    REDUCED MASS:      1.26172     3.47563     1.11319     1.20476     1.04663
    IR INTENSITY:      0.01587     0.00000     0.05476     0.00000     0.73845

  1   C            X  0.06388675  0.00000000  0.00000000 -0.00000000  0.00000000
                   Y  0.03528681 -0.00000000 -0.00000000  0.00000000 -0.00000000
                   Z  0.00000000  0.17971397 -0.06561421  0.08622879 -0.04106806
  2   C            X -0.08892706 -0.00000000 -0.00000000 -0.00000000 -0.00000000
                   Y -0.07121562  0.00000000 -0.00000000 -0.00000000 -0.00000000
                   Z  0.00000000 -0.17971397 -0.06561421 -0.08622879 -0.04106806
  3   H            X  0.16650596 -0.01831514  0.18683835  0.18933707 -0.29853124
                   Y  0.17136684 -0.01831514  0.18683835  0.18933707 -0.29853124
                   Z  0.56366419 -0.23475511  0.39065460  0.36344992  0.24449172
  4   H            X -0.01656139  0.01831514  0.18683835 -0.18933707 -0.29853124
                   Y  0.04377945 -0.01831514 -0.18683835  0.18933707  0.29853124
                   Z -0.10066501  0.23475511  0.39065460 -0.36344992  0.24449172
  5   H            X -0.01656139 -0.01831514 -0.18683835  0.18933707  0.29853124
                   Y  0.04377945  0.01831514  0.18683835 -0.18933707 -0.29853124
                   Z  0.10066501  0.23475511  0.39065460 -0.36344992  0.24449172
  6   H            X  0.16650596  0.01831514 -0.18683835 -0.18933707  0.29853124
                   Y  0.17136684  0.01831514 -0.18683835 -0.18933707  0.29853124
                   Z -0.56366419 -0.23475511  0.39065460  0.36344992  0.24449172

 TRANS. SAYVETZ    X  0.00175205  0.00000000  0.00000000 -0.00000000  0.00000000
                   Y  0.00251391  0.00000000 -0.00000000  0.00000000  0.00000000
                   Z  0.00000000  0.00000000  0.00010490  0.00000000 -0.00001392
               TOTAL  0.00306422  0.00000000  0.00010490  0.00000000  0.00001392

   ROT. SAYVETZ    X -0.00408803  0.00000000  0.00000000  0.00000000 -0.00000000
                   Y  0.00586567 -0.00000000 -0.00000000 -0.00000000  0.00000000
                   Z -0.00000000 -0.00000000  0.00000000 -0.00000000  0.00000000
               TOTAL  0.00714969  0.00000000  0.00000000  0.00000000  0.00000000

                           16          17          18
       FREQUENCY:      3314.06     3402.74     3402.74  
        SYMMETRY:         A1          E           E   
    REDUCED MASS:      1.05258     1.11698     1.11698
    IR INTENSITY:      0.00000     0.47790     0.47791

  1   C            X -0.00000000  0.06569960  0.01134043
                   Y  0.00000000 -0.06566255 -0.01155302
                   Z -0.04397900 -0.00000000  0.00000000
  2   C            X  0.00000000  0.01155302 -0.06566255
                   Y  0.00000000  0.01134043 -0.06569960
                   Z  0.04397900  0.00000000  0.00000000
  3   H            X  0.29638741 -0.06672499  0.39392111
                   Y  0.29638741 -0.07046450  0.39326940
                   Z -0.24668428  0.06044335 -0.34682270
  4   H            X -0.29638741 -0.39326940 -0.07046450
                   Y  0.29638741  0.39392111  0.06672499
                   Z  0.24668428  0.34682270  0.06044335
  5   H            X  0.29638741 -0.39326940 -0.07046450
                   Y -0.29638741  0.39392111  0.06672499
                   Z  0.24668428 -0.34682270 -0.06044335
  6   H            X -0.29638741 -0.06672499  0.39392111
                   Y -0.29638741 -0.07046450  0.39326940
                   Z -0.24668428 -0.06044335  0.34682270

 TRANS. SAYVETZ    X  0.00000000 -0.00015631  0.00010991
                   Y  0.00000000  0.00010991  0.00015631
                   Z -0.00000000 -0.00000000 -0.00000000
               TOTAL  0.00000000  0.00019109  0.00019109

   ROT. SAYVETZ    X -0.00000000  0.00014204 -0.00009988
                   Y  0.00000000  0.00009988  0.00014204
                   Z  0.00000000  0.00000000  0.00000000
               TOTAL  0.00000000  0.00017364  0.00017364

 REFERENCE ON SAYVETZ CONDITIONS - A. SAYVETZ, J.CHEM.PHYS., 7, 383-389(1939).

 NOTE - THE MODES J,K ARE ORTHONORMALIZED ACCORDING TO
 SUM ON I   M(I) * (X(I,J)*X(I,K) + Y(I,J)*Y(I,K) + Z(I,J)*Z(I,K)) = DELTA(J,K)

  MODE FREQ(CM**-1)  SYMMETRY  RED. MASS  IR INTENS.
     1     202.766    E        1.262359    1.223022
     2     202.766    E        1.262359    1.223096
     3      43.866    A2       1.007825    0.000000
     4       4.770    E        4.463059    0.000189
     5       4.770    E        4.463059    0.000190
     6       0.032    B2       4.672098    0.000000
     7      28.083    E        2.276349    0.000001
     8      28.083    E        2.276349    0.000001
     9     667.694    B1       1.007825    0.000000
    10    1020.735    E        1.261716    0.015872
    11    1020.735    E        1.261716    0.015873
    12    1184.038    A1       3.475630    0.000000
    13    1583.036    B2       1.113185    0.054759
    14    1615.366    A1       1.204758    0.000000
    15    3311.820    B2       1.046633    0.738447
    16    3314.059    A1       1.052582    0.000000
    17    3402.737    E        1.116978    0.477901
    18    3402.737    E        1.116978    0.477913

     -------------------------------
     THERMOCHEMISTRY AT T=  298.15 K
     -------------------------------

 USING IDEAL GAS, RIGID ROTOR, HARMONIC NORMAL MODE APPROXIMATIONS.
 P=  1.01325E+05 PASCAL.
 ALL FREQUENCIES ARE SCALED BY   1.00000
 THE MOMENTS OF INERTIA ARE (IN AMU*BOHR**2)
     12.13589    76.10266    76.10266
 THE ROTATIONAL SYMMETRY NUMBER IS  4.0
 THE ROTATIONAL CONSTANTS ARE (IN GHZ)
    148.57490    23.69284    23.69284
   2 IMAGINARY FREQUENCY VIBRATION(S) IS(ARE) EXCLUDED
     FROM THE FOLLOWING THERMOCHEMICAL ANALYSIS.
      9 -     18 VIBRATIONAL MODES ARE USED IN THERMOCHEMISTRY.
 THE HARMONIC ZERO POINT ENERGY IS (SCALED BY   1.000)
        0.046755 HARTREE/MOLECULE    10261.478243 CM**-1/MOLECULE 
       29.339068 KCAL/MOL              122.754660 KJ/MOL

               Q               LN Q
 ELEC.     3.00000E+00       1.098612
 TRANS.    5.83336E+06      15.579103
 ROT.      7.50269E+02       6.620432
 VIB.      1.06126E+00       0.059454
 TOT.      1.39341E+10      23.357601

              E         H         G         CV        CP        S
           KJ/MOL    KJ/MOL    KJ/MOL   J/MOL-K   J/MOL-K   J/MOL-K
 ELEC.      0.000     0.000    -2.723     0.000     0.000     9.134
 TRANS.     3.718     6.197   -38.620    12.472    20.786   150.317
 ROT.       3.718     3.718   -16.412    12.472    12.472    67.517
 VIB.     123.329   123.329   122.607     8.049     8.049     2.420
 TOTAL    130.766   133.245    64.853    32.992    41.306   229.388
 VIB. THERMAL CORRECTION E(T)-E(0) = H(T)-H(0) =   574.204 J/MOL

              E         H         G         CV        CP        S
         KCAL/MOL  KCAL/MOL  KCAL/MOL CAL/MOL-K CAL/MOL-K CAL/MOL-K
 ELEC.      0.000     0.000    -0.651     0.000     0.000     2.183
 TRANS.     0.889     1.481    -9.230     2.981     4.968    35.927
 ROT.       0.889     0.889    -3.922     2.981     2.981    16.137
 VIB.      29.476    29.476    29.304     1.924     1.924     0.578
 TOTAL     31.254    31.846    15.500     7.885     9.872    54.825
 VIB. THERMAL CORRECTION E(T)-E(0) = H(T)-H(0) =   137.238 CAL/MOL
 ......END OF NORMAL COORDINATE ANALYSIS......
 STEP CPU TIME =     0.00 TOTAL CPU TIME =        0.4 (    0.0 MIN)
 TOTAL WALL CLOCK TIME=        0.4 SECONDS, CPU UTILIZATION IS  97.67%
               580000  WORDS OF DYNAMIC MEMORY USED
 EXECUTION OF GAMESS TERMINATED NORMALLY Wed Aug  9 22:17:42 2017
 DDI: 263640 bytes (0.3 MB / 0 MWords) used by master data server.

 ----------------------------------------
 CPU timing information for all processes
 ========================================
 0: 0.416 + 0.19 = 0.436
 ----------------------------------------
 ddikick.x: exited gracefully.
unset echo
----- accounting info -----
Files used on the master node compute-0-5.local were:
-rw-rw-r-- 1 sarom sarom 1.2K Aug  9 22:17 /scratch/gvb-c2h4-hess.F05
-rw-rw-r-- 1 sarom sarom 358K Aug  9 22:17 /scratch/gvb-c2h4-hess.F09
-rw-rw-r-- 1 sarom sarom 2.1M Aug  9 22:17 /scratch/gvb-c2h4-hess.F10
-rw-rw-r-- 1 sarom sarom 204K Aug  9 22:17 /scratch/gvb-c2h4-hess.F18
-rw-rw-r-- 1 sarom sarom  29K Aug  9 22:17 /scratch/gvb-c2h4-hess.F23
rm: No match.
ls: No match.
ls: No match.
ls: No match.
Wed Aug  9 22:17:45 CDT 2017
0.261u 0.163s 0:03.93 10.6%	0+0k 8+360io 0pf+0w
/opt/gridengine/default/spool/compute-0-5/active_jobs/36199.1/pe_hostfile compute-0-5.local
