-catch_rsh /opt/gridengine/default/spool/compute-0-2/active_jobs/23583.1/pe_hostfile
compute-0-2
The primary node assigned by SGE to this run is compute-0-2
Warning: no access to tty (Bad file descriptor).
Thus no job control in this shell.
Deleting shmid=3964928.
Deleting shmid=3997697.
Deleting shmid=4227074.
source /home/sarom/gamess.github.2017-05-31.14.06/install.info
setenv GMS_PATH /home/sarom/gamess.github.2017-05-31.14.06
setenv GMS_BUILD_DIR /home/sarom/gamess.github.2017-05-31.14.06
setenv GMS_TARGET linux64
setenv GMS_FORTRAN gfortran
setenv GMS_GFORTRAN_VERNO 4.4
setenv GMS_MATHLIB mkl-so
setenv GMS_MATHLIB_PATH /share/apps/intel/compilers_and_libraries_2017.1.132/linux/mkl/lib/intel64
setenv GMS_MKL_VERNO 12
setenv GMS_DDI_COMM sockets
setenv GMS_LIBCCHEM false
setenv GMS_EIGEN_PATH
setenv GMS_PHI false
setenv GMS_SHMTYPE sysv
setenv GMS_OPENMP false
unset echo
gvb-gly-pp10
tests/gvb
----- GAMESS execution script 'rungms' -----
This job is running on host compute-0-2.local
under operating system Linux at Fri Jun 2 01:28:12 CDT 2017
Available scratch disk space (Kbyte units) at beginning of the job is
Filesystem           1K-blocks      Used Available Use% Mounted on
/dev/sda1             16126920   3867312  11440408  26% /
GAMESS temporary binary files will be written to /scratch
GAMESS supplementary output files will be written to /home/sarom/restart
Copying input file gvb-gly-pp10.inp to your run's scratch directory...
cp tests/gvb/gvb-gly-pp10.inp /scratch/gvb-gly-pp10.F05
unset echo
The generated host list is
compute-0-2.local
/home/sarom/gamess.github.2017-05-31.14.06/ddikick.x /home/sarom/gamess.github.2017-05-31.14.06/gamess.00.x gvb-gly-pp10 -ddi 1 1 compute-0-2.local -scr /scratch

 Distributed Data Interface kickoff program.
 Initiating 1 compute processes on 1 nodes to run the following command:
 /home/sarom/gamess.github.2017-05-31.14.06/gamess.00.x gvb-gly-pp10 

          ******************************************************
          *         GAMESS VERSION = 20 APR 2017 (R1)          *
          *             FROM IOWA STATE UNIVERSITY             *
          * M.W.SCHMIDT, K.K.BALDRIDGE, J.A.BOATZ, S.T.ELBERT, *
          *   M.S.GORDON, J.H.JENSEN, S.KOSEKI, N.MATSUNAGA,   *
          *          K.A.NGUYEN, S.J.SU, T.L.WINDUS,           *
          *       TOGETHER WITH M.DUPUIS, J.A.MONTGOMERY       *
          *         J.COMPUT.CHEM.  14, 1347-1363(1993)        *
          **************** 64 BIT LINUX VERSION ****************

  SINCE 1993, STUDENTS AND POSTDOCS WORKING AT IOWA STATE UNIVERSITY
  AND ALSO IN THEIR VARIOUS JOBS AFTER LEAVING ISU HAVE MADE IMPORTANT
  CONTRIBUTIONS TO THE CODE:
     IVANA ADAMOVIC, CHRISTINE AIKENS, YURI ALEXEEV, POOJA ARORA,
     ANDREY ASADCHEV, ROB BELL, PRADIPTA BANDYOPADHYAY, JONATHAN BENTZ,
     BRETT BODE, KURT BRORSEN, CALEB CARLIN, GALINA CHABAN, WEI CHEN,
     CHEOL HO CHOI, PAUL DAY, ALBERT DEFUSCO, NUWAN DESILVA, TIM DUDLEY,
     DMITRI FEDOROV, GRAHAM FLETCHER, MARK FREITAG, KURT GLAESEMANN,
     DAN KEMP, GRANT MERRILL, NORIYUKI MINEZAWA, JONATHAN MULLIN,
     TAKESHI NAGATA, SEAN NEDD, HEATHER NETZLOFF, BOSILJKA NJEGIC, RYAN OLSON,
     MIKE PAK, SPENCER PRUITT, LUKE ROSKOP, JIM SHOEMAKER, LYUDMILA SLIPCHENKO,
     TONY SMITH, SAROM SOK LEANG, JIE SONG, TETSUYA TAKETSUGU, SIMON WEBB,
     PENG XU, SOOHAENG YOO, FEDERICO ZAHARIEV

  ADDITIONAL CODE HAS BEEN PROVIDED BY COLLABORATORS IN OTHER GROUPS:
     IOWA STATE UNIVERSITY:
          JOE IVANIC, AARON WEST, LAIMUTIS BYTAUTAS, KLAUS RUEDENBERG
     UNIVERSITY OF TOKYO: KIMIHIKO HIRAO, TAKAHITO NAKAJIMA,
          TAKAO TSUNEDA, MUNEAKI KAMIYA, SUSUMU YANAGISAWA,
          KIYOSHI YAGI, MAHITO CHIBA, SEIKEN TOKURA, NAOAKI KAWAKAMI
     UNIVERSITY OF AARHUS: FRANK JENSEN
     UNIVERSITY OF IOWA: VISVALDAS KAIRYS, HUI LI
     NATIONAL INST. OF STANDARDS AND TECHNOLOGY: WALT STEVENS, DAVID GARMER
     UNIVERSITY OF PISA: BENEDETTA MENNUCCI, JACOPO TOMASI
     UNIVERSITY OF MEMPHIS: HENRY KURTZ, PRAKASHAN KORAMBATH
     UNIVERSITY OF ALBERTA: TOBY ZENG, MARIUSZ KLOBUKOWSKI
     UNIVERSITY OF NEW ENGLAND: MARK SPACKMAN
     MIE UNIVERSITY: HIROAKI UMEDA
     NAT. INST. OF ADVANCED INDUSTRIAL SCIENCE AND TECHNOLOGY: KAZUO KITAURA
     MICHIGAN STATE UNIVERSITY:
          KAROL KOWALSKI, MARTA WLOCH, JEFFREY GOUR, JESSE LUTZ,
          WEI LI, PIOTR PIECUCH
     UNIVERSITY OF SILESIA: MONIKA MUSIAL, STANISLAW KUCHARSKI
     FACULTES UNIVERSITAIRES NOTRE-DAME DE LA PAIX:
          OLIVIER QUINET, BENOIT CHAMPAGNE
     UNIVERSITY OF CALIFORNIA - SANTA BARBARA: BERNARD KIRTMAN
     INSTITUTE FOR MOLECULAR SCIENCE:
          KAZUYA ISHIMURA, MICHIO KATOUDA, AND SHIGERU NAGASE
     UNIVERSITY OF NOTRE DAME: ANNA POMOGAEVA, DAN CHIPMAN
     KYUSHU UNIVERSITY:
          HARUYUKI NAKANO,
          FENG LONG GU, JACEK KORCHOWIEC, MARCIN MAKOWSKI, AND YURIKO AOKI,
          HIROTOSHI MORI AND EISAKU MIYOSHI
     PENNSYLVANIA STATE UNIVERSITY:
          TZVETELIN IORDANOV, CHET SWALINA, JONATHAN SKONE,
          SHARON HAMMES-SCHIFFER
     WASEDA UNIVERSITY:
          MASATO KOBAYASHI, TOMOKO AKAMA, TSUGUKI TOUMA,
          TAKESHI YOSHIKAWA, YASUHIRO IKABATA, JUNJI SEINO,
          YUYA NAKAJIMA, HIROMI NAKAI
     NANJING UNIVERSITY: SHUHUA LI
     UNIVERSITY OF NEBRASKA:
          PEIFENG SU, DEJUN SI, NANDUN THELLAMUREGE, YALI WANG, HUI LI
     UNIVERSITY OF ZURICH: ROBERTO PEVERATI, KIM BALDRIDGE
     N. COPERNICUS UNIVERSITY AND JACKSON STATE UNIVERSITY:
          MARIA BARYSZ
     UNIVERSITY OF COPENHAGEN: Jimmy Kromann, CASPER STEINMANN
     TOKYO INSTITUTE OF TECHNOLOGY: HIROYA NAKATA
     NAGOYA UNIVERSITY: YOSHIO NISHIMOTO, STEPHAN IRLE
     MOSCOW STATE UNIVERSITY: VLADIMIR MIRONOV

 EXECUTION OF GAMESS BEGUN Fri Jun  2 01:28:12 2017

            ECHO OF THE FIRST FEW INPUT CARDS -
 INPUT CARD>!   glycine GVB-PP(10) energy calculation                                       
 INPUT CARD>!                                                                               
 INPUT CARD>!   This run reproduces section B.4 of the paper                                
 INPUT CARD>!   R.P.Muller, J.-M.Langlois, M.N.Ringnalda, R.A.Friesner, W.A.Goddard         
 INPUT CARD>!                 J.Chem.Phys. 100, 1226-1235(1994)                             
 INPUT CARD>!                                                                               
 INPUT CARD>!   The paper is about DIIS, which GAMESS has only for one pair,                
 INPUT CARD>!   so here we are using our SOSCF converger on the multi-pair case.            
 INPUT CARD>!                                                                               
 INPUT CARD>!      F.NAL RHF E= -282.8372630090, 12 iters (Cs or C1)                        
 INPUT CARD>!       literature= -282.837281                                                 
 INPUT CARD>!      F.NAL GVB E= -282.9928939886, 16 iters (Cs)                              
 INPUT CARD>!      FINAL GVB E= -283.0193925697, 25 iters (C1)    <-- this run's result.    
 INPUT CARD>!       literature= -283.019396                                                 
 INPUT CARD>!                                                                               
 INPUT CARD>!   This run takes 70 seconds on 2.66 GHz Cloverton (20 Dec 2013)               
 INPUT CARD>!                                                                               
 INPUT CARD>!   The starting geometry is a bit different from Table VI.                     
 INPUT CARD>!   For some reason, my optimized geometry's RHF energy is a bit                
 INPUT CARD>!   higher than the rounded off geometry given in that table?                   
 INPUT CARD>!                                                                               
 INPUT CARD>!   The GVB-PP(10) calculation in the paper must have beeen done by             
 INPUT CARD>!   reducing the symmetry from Cs to C1, e.g. the banana bonds for              
 INPUT CARD>!   the C=O group are used, as well as localized CH and NH bonds.               
 INPUT CARD>!                                                                               
 INPUT CARD>!   For the heck of it, the calculation was also done in Cs sym.                
 INPUT CARD>!   by using SYMLOC during the Boys localization orb. prep.                     
 INPUT CARD>!                                                                               
 INPUT CARD>!   The calculation proceeds by combining localized RHF occupied                
 INPUT CARD>!   with localized VVOs, using MacMolPlt to pair these up.                      
 INPUT CARD>!   Since they are put in pairs with no regard to energy, it is                 
 INPUT CARD>!   useful to RSTRCT them from moving around during the GVB.                    
 INPUT CARD>!   Oddly, although the Boys occupied orbitals for CO are the                   
 INPUT CARD>!   expected 'banana' bonds, the localization of the VVO partners               
 INPUT CARD>!   turned out sigma* and pi* (a' and a'').  These were arbitrarily             
 INPUT CARD>!   paired with the banana bonds!                                               
 INPUT CARD>!                                                                               
 INPUT CARD> $contrl scftyp=gvb runtyp=energy coord=zmt nosym=1 $end                        
 INPUT CARD> $system mwords=2 $end                                                          
 INPUT CARD> $basis  gbasis=n31 ngauss=6 ndfunc=1 npfunc=1 $end                             
 INPUT CARD>!   lone pairs are moved to occur first in the filled space,                    
 INPUT CARD>!   first 3 pairs are heavy atom sigma,                                         
 INPUT CARD>!   next 5 pairs are hydrogen sigma,                                            
 INPUT CARD>!   last two pairs are CO banana bonds, matched to pi* and sigma* antibonds.    
 INPUT CARD> $guess  guess=moread norb=100 norder=1                                         
 INPUT CARD>         iorder(6)=6,15,11,19,20                                                
 INPUT CARD>           10,28,  12,25,  16,27,                                               
 INPUT CARD>           14,22,  9,29,  17,24,  8,26,  13,23,                                 
 INPUT CARD>           7,21   18,30  $end                                                   
 INPUT CARD> $scf    nco=10 npair=10 rstrct=.true. $end                                     
    2000000 WORDS OF MEMORY AVAILABLE

     BASIS OPTIONS
     -------------
     GBASIS=N31          IGAUSS=       6      POLAR=POPN31  
     NDFUNC=       1     NFFUNC=       0     DIFFSP=       F
     NPFUNC=       1      DIFFS=       F     BASNAM=        


     RUN TITLE
     ---------
 glycine...tightly optimized RHF/STO-3G geometry                                 

 THE POINT GROUP OF THE MOLECULE IS CS      
 THE ORDER OF THE PRINCIPAL AXIS IS     0

 YOUR FULLY SUBSTITUTED Z-MATRIX IS
 H   
 O      1   0.9901198
 C      2   1.3890950  1  104.7643
 O      3   1.2166298  2  122.4435  1    0.0000  0
 C      3   1.5518978  2  111.8987  1  180.0000  0
 N      5   1.4820229  3  113.5868  2  180.0000  0
 H      5   1.0914929  3  108.4157  4  121.7734  0
 H      5   1.0914929  3  108.4157  4 -121.7734  0
 H      6   1.0334664  5  107.2335  3   55.7271  0
 H      6   1.0334664  5  107.2335  3  -55.7271  0

 THE MOMENTS OF INERTIA ARE (AMU-ANGSTROM**2)
 IXX=    50.071   IYY=   134.634   IZZ=   178.898

 ATOM      ATOMIC                      COORDINATES (BOHR)
           CHARGE         X                   Y                   Z
 H           1.0    -4.5322732541       -0.0720075979        0.0000000000
 O           8.0    -3.1244909355       -1.3044832344        0.0000000000
 C           6.0    -0.9491413291        0.1647090351        0.0000000000
 O           8.0    -1.0129696246        2.4629198036        0.0000000000
 C           6.0     1.4802297868       -1.4780508557        0.0000000000
 N           7.0     3.8462740716        0.0203786818        0.0000000000
 H           1.0     1.4427726248       -2.6966829689       -1.6637140094
 H           1.0     1.4427726248       -2.6966829689        1.6637140094
 H           1.0     3.7730838103        1.2173686699       -1.5414095457
 H           1.0     3.7730838103        1.2173686699        1.5414095457

          INTERNUCLEAR DISTANCES (ANGS.)
          ------------------------------

                1 H          2 O          3 C          4 O          5 C     

   1 H       0.0000000    0.9901198 *  1.9002452 *  2.2951507 *  3.2675206  
   2 O       0.9901198 *  0.0000000    1.3890950 *  2.2853993 *  2.4384439 *
   3 C       1.9002452 *  1.3890950 *  0.0000000    1.2166298 *  1.5518978 *
   4 O       2.2951507 *  2.2853993 *  1.2166298 *  0.0000000    2.4677648 *
   5 C       3.2675206    2.4384439 *  1.5518978 *  2.4677648 *  0.0000000  
   6 N       4.4340062    3.7548034    2.5387738 *  2.8779779 *  1.4820229 *
   7 H       3.5639229    2.6756732 *  2.1610112 *  3.1493879    1.0914929 *
   8 H       3.5639229    2.6756732 *  2.1610112 *  3.1493879    1.0914929 *
   9 H       4.5218309    3.9710237    2.6870246 *  2.7412019 *  2.0425426 *
  10 H       4.5218309    3.9710237    2.6870246 *  2.7412019 *  2.0425426 *

                6 N          7 H          8 H          9 H         10 H     

   1 H       4.4340062    3.5639229    3.5639229    4.5218309    4.5218309  
   2 O       3.7548034    2.6756732 *  2.6756732 *  3.9710237    3.9710237  
   3 C       2.5387738 *  2.1610112 *  2.1610112 *  2.6870246 *  2.6870246 *
   4 O       2.8779779 *  3.1493879    3.1493879    2.7412019 *  2.7412019 *
   5 C       1.4820229 *  1.0914929 *  1.0914929 *  2.0425426 *  2.0425426 *
   6 N       0.0000000    2.1118872 *  2.1118872 *  1.0334664 *  1.0334664 *
   7 H       2.1118872 *  0.0000000    1.7607992 *  2.4113945 *  2.9474255 *
   8 H       2.1118872 *  1.7607992 *  0.0000000    2.9474255 *  2.4113945 *
   9 H       1.0334664 *  2.4113945 *  2.9474255 *  0.0000000    1.6313577 *
  10 H       1.0334664 *  2.9474255 *  2.4113945 *  1.6313577 *  0.0000000  

  * ... LESS THAN  3.000


     ATOMIC BASIS SET
     ----------------
 THE CONTRACTED PRIMITIVE FUNCTIONS HAVE BEEN UNNORMALIZED
 THE CONTRACTED BASIS FUNCTIONS ARE NOW NORMALIZED TO UNITY

  SHELL TYPE  PRIMITIVE        EXPONENT          CONTRACTION COEFFICIENT(S)

 H         

      1   S       1            18.7311370    0.033494604338
      1   S       2             2.8253944    0.234726953484
      1   S       3             0.6401217    0.813757326146

      2   S       4             0.1612778    1.000000000000

      3   P       5             1.1000000    1.000000000000

 O         

      4   S       6          5484.6716600    0.001831074430
      4   S       7           825.2349460    0.013950172200
      4   S       8           188.0469580    0.068445078098
      4   S       9            52.9645000    0.232714335992
      4   S      10            16.8975704    0.470192897984
      4   S      11             5.7996353    0.358520852987

      5   L      12            15.5396162   -0.110777549525    0.070874268231
      5   L      13             3.5999336   -0.148026262701    0.339752839147
      5   L      14             1.0137618    1.130767015354    0.727158577316

      6   L      15             0.2700058    1.000000000000    1.000000000000

      7   D      16             0.8000000    1.000000000000

 C         

      8   S      17          3047.5248800    0.001834737132
      8   S      18           457.3695180    0.014037322813
      8   S      19           103.9486850    0.068842622264
      8   S      20            29.2101553    0.232184443216
      8   S      21             9.2866630    0.467941348435
      8   S      22             3.1639270    0.362311985337

      9   L      23             7.8682723   -0.119332419775    0.068999066591
      9   L      24             1.8812885   -0.160854151696    0.316423960957
      9   L      25             0.5442493    1.143456437840    0.744308290898

     10   L      26             0.1687145    1.000000000000    1.000000000000

     11   D      27             0.8000000    1.000000000000

 O         

     12   S      28          5484.6716600    0.001831074430
     12   S      29           825.2349460    0.013950172200
     12   S      30           188.0469580    0.068445078098
     12   S      31            52.9645000    0.232714335992
     12   S      32            16.8975704    0.470192897984
     12   S      33             5.7996353    0.358520852987

     13   L      34            15.5396162   -0.110777549525    0.070874268231
     13   L      35             3.5999336   -0.148026262701    0.339752839147
     13   L      36             1.0137618    1.130767015354    0.727158577316

     14   L      37             0.2700058    1.000000000000    1.000000000000

     15   D      38             0.8000000    1.000000000000

 C         

     16   S      39          3047.5248800    0.001834737132
     16   S      40           457.3695180    0.014037322813
     16   S      41           103.9486850    0.068842622264
     16   S      42            29.2101553    0.232184443216
     16   S      43             9.2866630    0.467941348435
     16   S      44             3.1639270    0.362311985337

     17   L      45             7.8682723   -0.119332419775    0.068999066591
     17   L      46             1.8812885   -0.160854151696    0.316423960957
     17   L      47             0.5442493    1.143456437840    0.744308290898

     18   L      48             0.1687145    1.000000000000    1.000000000000

     19   D      49             0.8000000    1.000000000000

 N         

     20   S      50          4173.5114600    0.001834772160
     20   S      51           627.4579110    0.013994627002
     20   S      52           142.9020930    0.068586551812
     20   S      53            40.2343293    0.232240873040
     20   S      54            12.8202129    0.469069948082
     20   S      55             4.3904370    0.360455199063

     21   L      56            11.6263619   -0.114961181702    0.067579743878
     21   L      57             2.7162798   -0.169117478561    0.323907295893
     21   L      58             0.7722184    1.145851947027    0.740895139755

     22   L      59             0.2120315    1.000000000000    1.000000000000

     23   D      60             0.8000000    1.000000000000

 H         

     27   S      61            18.7311370    0.033494604338
     27   S      62             2.8253944    0.234726953484
     27   S      63             0.6401217    0.813757326146

     28   S      64             0.1612778    1.000000000000

     29   P      65             1.1000000    1.000000000000

 H         

     33   S      66            18.7311370    0.033494604338
     33   S      67             2.8253944    0.234726953484
     33   S      68             0.6401217    0.813757326146

     34   S      69             0.1612778    1.000000000000

     35   P      70             1.1000000    1.000000000000

 TOTAL NUMBER OF BASIS SET SHELLS             =   35
 NUMBER OF CARTESIAN GAUSSIAN BASIS FUNCTIONS =  100
 NUMBER OF ELECTRONS                          =   40
 CHARGE OF MOLECULE                           =    0
 SPIN MULTIPLICITY                            =    1
 NUMBER OF OCCUPIED ORBITALS (ALPHA)          =   20
 NUMBER OF OCCUPIED ORBITALS (BETA )          =   20
 TOTAL NUMBER OF ATOMS                        =   10
 THE NUCLEAR REPULSION ENERGY IS      176.4385398274

     $CONTRL OPTIONS
     ---------------
 SCFTYP=GVB          RUNTYP=ENERGY       EXETYP=RUN     
 MPLEVL=       0     CITYP =NONE         CCTYP =NONE         VBTYP =NONE    
 DFTTYP=NONE         TDDFT =NONE    
 MULT  =       1     ICHARG=       0     NZVAR =       0     COORD =ZMT     
 PP    =NONE         RELWFN=NONE         LOCAL =NONE         NUMGRD=       F
 ISPHER=      -1     NOSYM =       1     MAXIT =      30     UNITS =ANGS    
 PLTORB=       F     MOLPLT=       F     AIMPAC=       F     FRIEND=        
 NPRINT=       7     IREST =       0     GEOM  =INPUT   
 NORMF =       0     NORMP =       0     ITOL  =      20     ICUT  =       9
 INTTYP=BEST         GRDTYP=BEST         QMTTOL= 1.0E-06

     $SYSTEM OPTIONS
     ---------------
  REPLICATED MEMORY=     2000000 WORDS (ON EVERY NODE).
 DISTRIBUTED MEMDDI=           0 MILLION WORDS IN AGGREGATE,
 MEMDDI DISTRIBUTED OVER   1 PROCESSORS IS           0 WORDS/PROCESSOR.
 TOTAL MEMORY REQUESTED ON EACH PROCESSOR=     2000000 WORDS.
 TIMLIM=      525600.00 MINUTES, OR     365.0 DAYS.
 PARALL= F  BALTYP=  DLB     KDIAG=    0  COREFL= F
 MXSEQ2=     300 MXSEQ3=     150  mem10=         0

          ----------------
          PROPERTIES INPUT
          ----------------

     MOMENTS            FIELD           POTENTIAL          DENSITY
 IEMOM =       1   IEFLD =       0   IEPOT =       0   IEDEN =       0
 WHERE =COMASS     WHERE =NUCLEI     WHERE =NUCLEI     WHERE =NUCLEI  
 OUTPUT=BOTH       OUTPUT=BOTH       OUTPUT=BOTH       OUTPUT=BOTH    
 IEMINT=       0   IEFINT=       0                     IEDINT=       0
                                                       MORB  =       0
          EXTRAPOLATION IN EFFECT
          RESTRICTION OF ORBITAL MIXING IN EFFECT
          SOSCF IN EFFECT
 ORBITAL PRINTING OPTION: NPREO=     1   100     2     1

          *************************
          ROHF-GVB INPUT PARAMETERS
          *************************

          NORB   =   30          NCO    =   10
          NPAIR  =   10          NSETO  =    0
          PAIR ORBITALS
          PAIR    1 HAS ORBS   11   12
          PAIR    2 HAS ORBS   13   14
          PAIR    3 HAS ORBS   15   16
          PAIR    4 HAS ORBS   17   18
          PAIR    5 HAS ORBS   19   20
          PAIR    6 HAS ORBS   21   22
          PAIR    7 HAS ORBS   23   24
          PAIR    8 HAS ORBS   25   26
          PAIR    9 HAS ORBS   27   28
          PAIR   10 HAS ORBS   29   30

          ----------------------------
          ROHF-GVB COUPLING PARAMETERS
          ----------------------------

          F VECTOR (OCCUPANCIES)
    1   1.0000000000
    2   0.9529411765
    3   0.0470588235
    4   0.9529411765
    5   0.0470588235
    6   0.9529411765
    7   0.0470588235
    8   0.9529411765
    9   0.0470588235
   10   0.9529411765
   11   0.0470588235
   12   0.9529411765
   13   0.0470588235
   14   0.9529411765
   15   0.0470588235
   16   0.9529411765
   17   0.0470588235
   18   0.9529411765
   19   0.0470588235
   20   0.9529411765
   21   0.0470588235
          ALPHA COUPLING COEFFICEINTS

             1           2           3           4           5

    1    2.0000000
    2    1.9058824   0.9529412
    3    0.0941176   0.0000000   0.0470588
    4    1.9058824   1.8161938   0.0896886   0.9529412
    5    0.0941176   0.0896886   0.0044291   0.0000000   0.0470588
    6    1.9058824   1.8161938   0.0896886   1.8161938   0.0896886
    7    0.0941176   0.0896886   0.0044291   0.0896886   0.0044291
    8    1.9058824   1.8161938   0.0896886   1.8161938   0.0896886
    9    0.0941176   0.0896886   0.0044291   0.0896886   0.0044291
   10    1.9058824   1.8161938   0.0896886   1.8161938   0.0896886
   11    0.0941176   0.0896886   0.0044291   0.0896886   0.0044291
   12    1.9058824   1.8161938   0.0896886   1.8161938   0.0896886
   13    0.0941176   0.0896886   0.0044291   0.0896886   0.0044291
   14    1.9058824   1.8161938   0.0896886   1.8161938   0.0896886
   15    0.0941176   0.0896886   0.0044291   0.0896886   0.0044291
   16    1.9058824   1.8161938   0.0896886   1.8161938   0.0896886
   17    0.0941176   0.0896886   0.0044291   0.0896886   0.0044291
   18    1.9058824   1.8161938   0.0896886   1.8161938   0.0896886
   19    0.0941176   0.0896886   0.0044291   0.0896886   0.0044291
   20    1.9058824   1.8161938   0.0896886   1.8161938   0.0896886
   21    0.0941176   0.0896886   0.0044291   0.0896886   0.0044291

             6           7           8           9          10

    6    0.9529412
    7    0.0000000   0.0470588
    8    1.8161938   0.0896886   0.9529412
    9    0.0896886   0.0044291   0.0000000   0.0470588
   10    1.8161938   0.0896886   1.8161938   0.0896886   0.9529412
   11    0.0896886   0.0044291   0.0896886   0.0044291   0.0000000
   12    1.8161938   0.0896886   1.8161938   0.0896886   1.8161938
   13    0.0896886   0.0044291   0.0896886   0.0044291   0.0896886
   14    1.8161938   0.0896886   1.8161938   0.0896886   1.8161938
   15    0.0896886   0.0044291   0.0896886   0.0044291   0.0896886
   16    1.8161938   0.0896886   1.8161938   0.0896886   1.8161938
   17    0.0896886   0.0044291   0.0896886   0.0044291   0.0896886
   18    1.8161938   0.0896886   1.8161938   0.0896886   1.8161938
   19    0.0896886   0.0044291   0.0896886   0.0044291   0.0896886
   20    1.8161938   0.0896886   1.8161938   0.0896886   1.8161938
   21    0.0896886   0.0044291   0.0896886   0.0044291   0.0896886

            11          12          13          14          15

   11    0.0470588
   12    0.0896886   0.9529412
   13    0.0044291   0.0000000   0.0470588
   14    0.0896886   1.8161938   0.0896886   0.9529412
   15    0.0044291   0.0896886   0.0044291   0.0000000   0.0470588
   16    0.0896886   1.8161938   0.0896886   1.8161938   0.0896886
   17    0.0044291   0.0896886   0.0044291   0.0896886   0.0044291
   18    0.0896886   1.8161938   0.0896886   1.8161938   0.0896886
   19    0.0044291   0.0896886   0.0044291   0.0896886   0.0044291
   20    0.0896886   1.8161938   0.0896886   1.8161938   0.0896886
   21    0.0044291   0.0896886   0.0044291   0.0896886   0.0044291

            16          17          18          19          20

   16    0.9529412
   17    0.0000000   0.0470588
   18    1.8161938   0.0896886   0.9529412
   19    0.0896886   0.0044291   0.0000000   0.0470588
   20    1.8161938   0.0896886   1.8161938   0.0896886   0.9529412
   21    0.0896886   0.0044291   0.0896886   0.0044291   0.0000000

            21

   21    0.0470588
           BETA COUPLING COEFFICIENTS

             1           2           3           4           5

    1   -1.0000000
    2   -0.9529412   0.0000000
    3   -0.0470588  -0.2117647   0.0000000
    4   -0.9529412  -0.9080969  -0.0448443   0.0000000
    5   -0.0470588  -0.0448443  -0.0022145  -0.2117647   0.0000000
    6   -0.9529412  -0.9080969  -0.0448443  -0.9080969  -0.0448443
    7   -0.0470588  -0.0448443  -0.0022145  -0.0448443  -0.0022145
    8   -0.9529412  -0.9080969  -0.0448443  -0.9080969  -0.0448443
    9   -0.0470588  -0.0448443  -0.0022145  -0.0448443  -0.0022145
   10   -0.9529412  -0.9080969  -0.0448443  -0.9080969  -0.0448443
   11   -0.0470588  -0.0448443  -0.0022145  -0.0448443  -0.0022145
   12   -0.9529412  -0.9080969  -0.0448443  -0.9080969  -0.0448443
   13   -0.0470588  -0.0448443  -0.0022145  -0.0448443  -0.0022145
   14   -0.9529412  -0.9080969  -0.0448443  -0.9080969  -0.0448443
   15   -0.0470588  -0.0448443  -0.0022145  -0.0448443  -0.0022145
   16   -0.9529412  -0.9080969  -0.0448443  -0.9080969  -0.0448443
   17   -0.0470588  -0.0448443  -0.0022145  -0.0448443  -0.0022145
   18   -0.9529412  -0.9080969  -0.0448443  -0.9080969  -0.0448443
   19   -0.0470588  -0.0448443  -0.0022145  -0.0448443  -0.0022145
   20   -0.9529412  -0.9080969  -0.0448443  -0.9080969  -0.0448443
   21   -0.0470588  -0.0448443  -0.0022145  -0.0448443  -0.0022145

             6           7           8           9          10

    6    0.0000000
    7   -0.2117647   0.0000000
    8   -0.9080969  -0.0448443   0.0000000
    9   -0.0448443  -0.0022145  -0.2117647   0.0000000
   10   -0.9080969  -0.0448443  -0.9080969  -0.0448443   0.0000000
   11   -0.0448443  -0.0022145  -0.0448443  -0.0022145  -0.2117647
   12   -0.9080969  -0.0448443  -0.9080969  -0.0448443  -0.9080969
   13   -0.0448443  -0.0022145  -0.0448443  -0.0022145  -0.0448443
   14   -0.9080969  -0.0448443  -0.9080969  -0.0448443  -0.9080969
   15   -0.0448443  -0.0022145  -0.0448443  -0.0022145  -0.0448443
   16   -0.9080969  -0.0448443  -0.9080969  -0.0448443  -0.9080969
   17   -0.0448443  -0.0022145  -0.0448443  -0.0022145  -0.0448443
   18   -0.9080969  -0.0448443  -0.9080969  -0.0448443  -0.9080969
   19   -0.0448443  -0.0022145  -0.0448443  -0.0022145  -0.0448443
   20   -0.9080969  -0.0448443  -0.9080969  -0.0448443  -0.9080969
   21   -0.0448443  -0.0022145  -0.0448443  -0.0022145  -0.0448443

            11          12          13          14          15

   11    0.0000000
   12   -0.0448443   0.0000000
   13   -0.0022145  -0.2117647   0.0000000
   14   -0.0448443  -0.9080969  -0.0448443   0.0000000
   15   -0.0022145  -0.0448443  -0.0022145  -0.2117647   0.0000000
   16   -0.0448443  -0.9080969  -0.0448443  -0.9080969  -0.0448443
   17   -0.0022145  -0.0448443  -0.0022145  -0.0448443  -0.0022145
   18   -0.0448443  -0.9080969  -0.0448443  -0.9080969  -0.0448443
   19   -0.0022145  -0.0448443  -0.0022145  -0.0448443  -0.0022145
   20   -0.0448443  -0.9080969  -0.0448443  -0.9080969  -0.0448443
   21   -0.0022145  -0.0448443  -0.0022145  -0.0448443  -0.0022145

            16          17          18          19          20

   16    0.0000000
   17   -0.2117647   0.0000000
   18   -0.9080969  -0.0448443   0.0000000
   19   -0.0448443  -0.0022145  -0.2117647   0.0000000
   20   -0.9080969  -0.0448443  -0.9080969  -0.0448443   0.0000000
   21   -0.0448443  -0.0022145  -0.0448443  -0.0022145  -0.2117647

            21

   21    0.0000000

          NATURAL ORBITAL COEFFICIENTS
          N.O.                PAIR CICOEF-S
            1        0.9761870602    -0.2169304578
            2        0.9761870602    -0.2169304578
            3        0.9761870602    -0.2169304578
            4        0.9761870602    -0.2169304578
            5        0.9761870602    -0.2169304578
            6        0.9761870602    -0.2169304578
            7        0.9761870602    -0.2169304578
            8        0.9761870602    -0.2169304578
            9        0.9761870602    -0.2169304578
           10        0.9761870602    -0.2169304578

     -------------------------------
     INTEGRAL TRANSFORMATION OPTIONS
     -------------------------------
     NWORD  =            0
     CUTOFF = 1.0E-09     MPTRAN =       0
     DIRTRF =       F     AOINTS =DUP     

          ----------------------
          INTEGRAL INPUT OPTIONS
          ----------------------
 NOPK  =       1 NORDER=       0 SCHWRZ=       T

   --- ENCODED Z MATRIX ---
 COORD  TYPE   I   J   K   L   M   N
    1      1    2   1
    2      1    3   2
    3      2    3   2   1
    4      1    4   3
    5      2    4   3   2
    6      3    4   3   2   1
    7      1    5   3
    8      2    5   3   2
    9      3    5   3   2   1
   10      1    6   5
   11      2    6   5   3
   12      3    6   5   3   2
   13      1    8   5
   14      2    8   5   3
   15      3    8   5   3   4
   16      1    7   5
   17      2    7   5   3
   18      3    7   5   3   4
   19      1   10   6
   20      2   10   6   5
   21      3   10   6   5   3
   22      1    9   6
   23      2    9   6   5
   24      3    9   6   5   3

 THE DETERMINANT OF THE G MATRIX IS 10**(   -17)

     ------------------------------------------
     THE POINT GROUP IS C1 , NAXIS= 1, ORDER= 1
     ------------------------------------------

     DIMENSIONS OF THE SYMMETRY SUBSPACES ARE
 A   =  100

 ..... DONE SETTING UP THE RUN .....
 STEP CPU TIME =     0.24 TOTAL CPU TIME =        0.2 (    0.0 MIN)
 TOTAL WALL CLOCK TIME=        0.3 SECONDS, CPU UTILIZATION IS  92.31%

          ********************
          1 ELECTRON INTEGRALS
          ********************
 ...... END OF ONE-ELECTRON INTEGRALS ......
 STEP CPU TIME =     0.01 TOTAL CPU TIME =        0.3 (    0.0 MIN)
 TOTAL WALL CLOCK TIME=        0.3 SECONDS, CPU UTILIZATION IS  92.59%

          -------------
          GUESS OPTIONS
          -------------
          GUESS =MOREAD            NORB  =     100          NORDER=       1
          MIX   =       F          PRTMO =       F          PUNMO =       F
          TOLZ  = 1.0E-08          TOLE  = 1.0E-05
          SYMDEN=       F          PURIFY=       F

 INITIAL GUESS ORBITALS GENERATED BY MOREAD   ROUTINE.

 SYMMETRIES FOR INITIAL GUESS ORBITALS FOLLOW.   BOTH SET(S).
    30 ORBITALS ARE OCCUPIED (    5 CORE ORBITALS).
     1=A        2=A        3=A        4=A        5=A        6=A        7=A   
     8=A        9=A       10=A       11=A       12=A       13=A       14=A   
    15=A       16=A       17=A       18=A       19=A       20=A       21=A   
    22=A       23=A       24=A       25=A       26=A       27=A       28=A   
    29=A       30=A       31=A       32=A       33=A       34=A       35=A   
    36=A       37=A       38=A       39=A       40=A       41=A       42=A   
    43=A       44=A       45=A       46=A       47=A       48=A       49=A   
    50=A       51=A       52=A       53=A       54=A       55=A       56=A   
    57=A       58=A       59=A       60=A       61=A       62=A       63=A   
    64=A       65=A       66=A       67=A       68=A       69=A       70=A   
    71=A       72=A       73=A       74=A       75=A       76=A       77=A   
    78=A       79=A       80=A       81=A       82=A       83=A       84=A   
    85=A       86=A       87=A       88=A       89=A       90=A       91=A   
    92=A       93=A       94=A       95=A       96=A       97=A       98=A   
    99=A      100=A   
 ...... END OF INITIAL ORBITAL SELECTION ......
 STEP CPU TIME =     0.02 TOTAL CPU TIME =        0.3 (    0.0 MIN)
 TOTAL WALL CLOCK TIME=        0.3 SECONDS, CPU UTILIZATION IS  90.00%

                    ----------------------
                    AO INTEGRAL TECHNOLOGY
                    ----------------------
     S,P,L SHELL ROTATED AXIS INTEGRALS, REPROGRAMMED BY
        KAZUYA ISHIMURA (IMS) AND JOSE SIERRA (SYNSTAR).
     S,P,D,L SHELL ROTATED AXIS INTEGRALS PROGRAMMED BY
        KAZUYA ISHIMURA (INSTITUTE FOR MOLECULAR SCIENCE).
     S,P,D,F,G SHELL TO TOTAL QUARTET ANGULAR MOMENTUM SUM 5,
        ERIC PROGRAM BY GRAHAM FLETCHER (ELORET AND NASA ADVANCED
        SUPERCOMPUTING DIVISION, AMES RESEARCH CENTER).
     S,P,D,F,G,L SHELL GENERAL RYS QUADRATURE PROGRAMMED BY
        MICHEL DUPUIS (PACIFIC NORTHWEST NATIONAL LABORATORY).

          --------------------
          2 ELECTRON INTEGRALS
          --------------------

 THE -PK- OPTION IS OFF, THE INTEGRALS ARE NOT IN SUPERMATRIX FORM.
 STORING   15000 INTEGRALS/RECORD ON DISK, USING 12 BYTES/INTEGRAL.
 TWO ELECTRON INTEGRAL EVALUATION REQUIRES   91026 WORDS OF MEMORY.
 SCHWARZ INEQUALITY OVERHEAD:      5012 INTEGRALS, T=        0.00
 II,JST,KST,LST =  1  1  1  1 NREC =         1 INTLOC =    1
 II,JST,KST,LST =  2  1  1  1 NREC =         1 INTLOC =    2
 II,JST,KST,LST =  3  1  1  1 NREC =         1 INTLOC =    7
 II,JST,KST,LST =  4  1  1  1 NREC =         1 INTLOC =   34
 II,JST,KST,LST =  5  1  1  1 NREC =         1 INTLOC =  109
 II,JST,KST,LST =  6  1  1  1 NREC =         1 INTLOC =  831
 II,JST,KST,LST =  7  1  1  1 NREC =         1 INTLOC = 2759
 II,JST,KST,LST =  8  1  1  1 NREC =         1 INTLOC = 9260
 II,JST,KST,LST =  9  1  1  1 NREC =         1 INTLOC =11929
 II,JST,KST,LST = 10  1  1  1 NREC =         2 INTLOC =11082
 II,JST,KST,LST = 11  1  1  1 NREC =         4 INTLOC = 3366
 II,JST,KST,LST = 12  1  1  1 NREC =         7 INTLOC =10547
 II,JST,KST,LST = 13  1  1  1 NREC =         8 INTLOC = 6693
 II,JST,KST,LST = 14  1  1  1 NREC =        12 INTLOC = 6461
 II,JST,KST,LST = 15  1  1  1 NREC =        17 INTLOC =12754
 II,JST,KST,LST = 16  1  1  1 NREC =        28 INTLOC =11839
 II,JST,KST,LST = 17  1  1  1 NREC =        30 INTLOC = 6913
 II,JST,KST,LST = 18  1  1  1 NREC =        40 INTLOC =13236
 II,JST,KST,LST = 19  1  1  1 NREC =        54 INTLOC = 2064
 II,JST,KST,LST = 20  1  1  1 NREC =        77 INTLOC = 9613
 II,JST,KST,LST = 21  1  1  1 NREC =        80 INTLOC =  779
 II,JST,KST,LST = 22  1  1  1 NREC =        95 INTLOC =13860
 II,JST,KST,LST = 23  1  1  1 NREC =       120 INTLOC = 9242
 II,JST,KST,LST = 24  1  1  1 NREC =       155 INTLOC = 4022
 II,JST,KST,LST = 25  1  1  1 NREC =       169 INTLOC =12086
 II,JST,KST,LST = 26  1  1  1 NREC =       186 INTLOC = 9947
 II,JST,KST,LST = 27  1  1  1 NREC =       232 INTLOC =  565
 II,JST,KST,LST = 28  1  1  1 NREC =       249 INTLOC = 6404
 II,JST,KST,LST = 29  1  1  1 NREC =       269 INTLOC = 7449
 II,JST,KST,LST = 30  1  1  1 NREC =       323 INTLOC = 6385
 II,JST,KST,LST = 31  1  1  1 NREC =       341 INTLOC = 6506
 II,JST,KST,LST = 32  1  1  1 NREC =       364 INTLOC =11371
 II,JST,KST,LST = 33  1  1  1 NREC =       420 INTLOC = 1795
 II,JST,KST,LST = 34  1  1  1 NREC =       441 INTLOC = 3487
 II,JST,KST,LST = 35  1  1  1 NREC =       468 INTLOC = 4458
 SCHWARZ INEQUALITY TEST SKIPPED       38977 INTEGRAL BLOCKS.
 TOTAL NUMBER OF NONZERO TWO-ELECTRON INTEGRALS =             7980063
        533 INTEGRAL RECORDS WERE STORED ON DISK FILE  8.
  ...... END OF TWO-ELECTRON INTEGRALS .....
 STEP CPU TIME =     0.64 TOTAL CPU TIME =        0.9 (    0.0 MIN)
 TOTAL WALL CLOCK TIME=        0.9 SECONDS, CPU UTILIZATION IS  98.91%

          ------------------------
          ROHF-GVB SCF CALCULATION
          ------------------------
 GVB STEP WILL USE    517240 WORDS OF MEMORY.

     MAXIT=  30   NPUNCH= 2   SQCDF TOL=1.0000E-05
     NUCLEAR ENERGY=      176.4385398274
     EXTRAP=T   DAMP=F   SHIFT=F   RSTRCT=T   DIIS=F  SOSCF=T
     SOSCF WILL OPTIMIZE    2490 ORBITAL ROTATIONS, SOGTOL=   0.250

 ITER EX     TOTAL ENERGY       E CHANGE        SQCDF       ORB. GRAD 
   0  0     -282.947525218  -282.947525218   1.589598114   0.000000000
          ---------------START SECOND ORDER SCF---------------
   1  1     -283.003262645    -0.055737427   0.604544787   0.005565137
   2  2     -283.011095405    -0.007832760   0.097550044   0.007243871
   3  3     -283.016522718    -0.005427313   0.022862549   0.004041078
   4  4     -283.017392766    -0.000870048   0.021396379   0.002971154
   5  5     -283.017914474    -0.000521708   0.010121795   0.001984719
   6  6     -283.018140869    -0.000226395   0.006545419   0.000642382
   7  7     -283.018286307    -0.000145439   0.020851468   0.000557444
   8  8     -283.018500050    -0.000213743   0.043827212   0.001572854
   9  9     -283.018734233    -0.000234183   0.018559193   0.001430526
  10 10     -283.018974223    -0.000239989   0.019711168   0.001285272
  11 11     -283.019218422    -0.000244199   0.006789565   0.001114066
  12 12     -283.019306831    -0.000088410   0.002264589   0.001059979
  13 13     -283.019363459    -0.000056627   0.003113776   0.000354316
  14 14     -283.019381676    -0.000018217   0.000246096   0.000712276
  15 15     -283.019389407    -0.000007732   0.000068269   0.000248935
  16 16     -283.019391429    -0.000002022   0.000060743   0.000079750
  17 17     -283.019392195    -0.000000766   0.000017167   0.000038982
  18 18     -283.019392427    -0.000000231   0.000004231   0.000027410
  19 19     -283.019392513    -0.000000087   0.000001489   0.000018085
  20 20     -283.019392545    -0.000000032   0.000000525   0.000015642
  21 21     -283.019392560    -0.000000014   0.000000264   0.000007577
  22 22     -283.019392566    -0.000000007   0.000000097   0.000004821
  23 23     -283.019392569    -0.000000002   0.000000024   0.000002529
  24 24     -283.019392570    -0.000000001   0.000000004   0.000001350
  25 25     -283.019392570    -0.000000000   0.000000002   0.000000847

          -----------------
          DENSITY CONVERGED
          -----------------

 FINAL GVB ENERGY IS     -283.0193925697 AFTER  25 ITERATIONS

          ----------------------------
          SCF STATISTICS PER ITERATION
          ----------------------------
          NUMBER OF INTEGRAL PASSES       1
          FOCK FORMATION TIME         1.115
          GEMINAL OPT TIME            0.000
          MIXORB  OPT TIME            0.000
          OCBSE   OPT TIME            0.001

          ----------------
          PAIR INFORMATION
          ----------------
      ORBITAL   CI COEFFICIENTS    OCCUPATION NUMBERS   GVB      ENERGY
 PAIR 1   2     ORB 1     ORB 2      ORB 1     ORB 2    OVERLAP  LOWERING
  1  11  12    0.995575 -0.093966   1.98234   0.01766   0.82751  -0.01960
  2  13  14    0.996376 -0.085064   1.98553   0.01447   0.84268  -0.01498
  3  15  16    0.995323 -0.096607   1.98133   0.01867   0.82305  -0.01825
  4  17  18    0.994878 -0.101081   1.97957   0.02043   0.81554  -0.02142
  5  19  20    0.996092 -0.088318   1.98440   0.01560   0.83711  -0.01536
  6  21  22    0.996092 -0.088318   1.98440   0.01560   0.83711  -0.01536
  7  23  24    0.995330 -0.096535   1.98136   0.01864   0.82317  -0.01849
  8  25  26    0.995330 -0.096535   1.98136   0.01864   0.82317  -0.01849
  9  27  28    0.985908 -0.167290   1.94403   0.05597   0.70987  -0.02942
 10  29  30    0.997596 -0.069294   1.99040   0.00960   0.87010  -0.01451

     THE MAXIMUM LAGRANGIAN ASYMMETRY IS 1.1858864E-06

          ------------
          EIGENVECTORS
          ------------

                      1          2          3          4          5
                  -20.6145   -20.5811   -15.5509   -11.3703   -11.2632
                     A          A          A          A          A   
    1  H  1  S   -0.000350  -0.000009   0.000026   0.000439  -0.000044
    2  H  1  S   -0.000583   0.000008   0.000131   0.000248   0.000222
    3  H  1  X   -0.000288  -0.000015   0.000008   0.000177   0.000052
    4  H  1  Y    0.000202   0.000022  -0.000034  -0.000053   0.000006
    5  H  1  Z   -0.000000  -0.000000   0.000000  -0.000000  -0.000000
    6  O  2  S    0.994892   0.000381  -0.000024   0.000096  -0.000167
    7  O  2  S    0.020671   0.000003  -0.000255   0.000225  -0.000097
    8  O  2  X   -0.000063   0.000052  -0.000078  -0.001578   0.000026
    9  O  2  Y   -0.000208   0.000051  -0.000021  -0.001505  -0.000030
   10  O  2  Z   -0.000000  -0.000000  -0.000000  -0.000000  -0.000000
   11  O  2  S    0.003651   0.000112   0.000932  -0.000735   0.001835
   12  O  2  X   -0.000259   0.000063   0.000340  -0.001242   0.000728
   13  O  2  Y   -0.001579   0.000125   0.000161  -0.002670   0.000288
   14  O  2  Z   -0.000000  -0.000000  -0.000000  -0.000000  -0.000000
   15  O  2 XX   -0.004047   0.000067  -0.000087  -0.000488  -0.000122
   16  O  2 YY   -0.004068  -0.000084  -0.000141  -0.000371  -0.000129
   17  O  2 ZZ   -0.003871  -0.000058  -0.000152   0.000506  -0.000278
   18  O  2 XY   -0.000173  -0.000038   0.000057  -0.000582   0.000052
   19  O  2 XZ    0.000000   0.000000   0.000000   0.000000  -0.000000
   20  O  2 YZ   -0.000000   0.000000  -0.000000  -0.000000   0.000000
   21  C  3  S    0.000146   0.000260  -0.000083   0.997655   0.001357
   22  C  3  S   -0.000005  -0.000136   0.000152   0.022356  -0.001046
   23  C  3  X    0.000264   0.000014   0.000108  -0.001335  -0.001189
   24  C  3  Y    0.000101  -0.000975  -0.000137   0.000671   0.000865
   25  C  3  Z   -0.000000   0.000000   0.000000  -0.000000   0.000000
   26  C  3  S   -0.000119  -0.000626  -0.000430  -0.008213   0.003968
   27  C  3  X   -0.000339   0.000103   0.000587  -0.003247   0.003285
   28  C  3  Y    0.000243  -0.000588   0.000299   0.003976  -0.000756
   29  C  3  Z   -0.000000  -0.000000   0.000000   0.000000   0.000000
   30  C  3 XX   -0.000107   0.000009  -0.000152  -0.001555  -0.000582
   31  C  3 YY    0.000043  -0.000881  -0.000038  -0.000827  -0.000401
   32  C  3 ZZ   -0.000031   0.000014  -0.000042  -0.002221  -0.000163
   33  C  3 XY   -0.000062   0.000017  -0.000033   0.000156   0.000368
   34  C  3 XZ    0.000000   0.000000   0.000000   0.000000   0.000000
   35  C  3 YZ   -0.000000   0.000000   0.000000   0.000000   0.000000
   36  O  4  S   -0.000426   0.994809  -0.000032  -0.000077  -0.000071
   37  O  4  S    0.000097   0.020714   0.000033   0.000342   0.000036
   38  O  4  X   -0.000184  -0.000093   0.000156  -0.000352   0.000241
   39  O  4  Y   -0.000069  -0.000296   0.000020   0.001882  -0.000083
   40  O  4  Z   -0.000000  -0.000000   0.000000   0.000000   0.000000
   41  O  4  S   -0.000098   0.004728   0.000131  -0.003153   0.000195
   42  O  4  X   -0.000102  -0.000081   0.000063   0.000547  -0.000288
   43  O  4  Y   -0.000015   0.000622  -0.000086   0.002953  -0.000199
   44  O  4  Z   -0.000000   0.000000   0.000000   0.000000   0.000000
   45  O  4 XX    0.000008  -0.003933  -0.000054   0.000296  -0.000017
   46  O  4 YY   -0.000030  -0.003724   0.000010  -0.000174   0.000084
   47  O  4 ZZ   -0.000011  -0.004198  -0.000054   0.000457  -0.000168
   48  O  4 XY   -0.000062  -0.000004   0.000001  -0.000151   0.000115
   49  O  4 XZ   -0.000000   0.000000  -0.000000  -0.000000   0.000000
   50  O  4 YZ    0.000000  -0.000000  -0.000000  -0.000000  -0.000000
   51  C  5  S   -0.000017  -0.000022   0.000186  -0.000726   0.997949
   52  C  5  S    0.000014   0.000028  -0.000333  -0.000884   0.024329
   53  C  5  X   -0.000048  -0.000068  -0.000504   0.001533   0.000284
   54  C  5  Y    0.000024   0.000034  -0.000525  -0.001131   0.000697
   55  C  5  Z    0.000000   0.000000   0.000000   0.000000  -0.000000
   56  C  5  S    0.000544   0.000113   0.001796   0.003032  -0.020990
   57  C  5  X    0.000131   0.000093   0.000338  -0.001994   0.001143
   58  C  5  Y    0.000253   0.000072   0.000373   0.000505  -0.001415
   59  C  5  Z    0.000000   0.000000   0.000000  -0.000000  -0.000000
   60  C  5 XX   -0.000056   0.000054  -0.000144  -0.000554  -0.001731
   61  C  5 YY    0.000007  -0.000056  -0.000173  -0.000330  -0.001672
   62  C  5 ZZ   -0.000022  -0.000016  -0.000039  -0.000143  -0.001467
   63  C  5 XY    0.000010   0.000032  -0.000185   0.000279   0.000078
   64  C  5 XZ   -0.000000  -0.000000  -0.000000  -0.000000   0.000000
   65  C  5 YZ   -0.000000  -0.000000  -0.000000   0.000000   0.000000
   66  N  6  S    0.000006   0.000004   0.995848  -0.000040   0.000009
   67  N  6  S    0.000032   0.000031   0.023285  -0.000161  -0.000278
   68  N  6  X    0.000010  -0.000022   0.000511  -0.000127   0.001495
   69  N  6  Y   -0.000001   0.000007  -0.000469   0.000002   0.000475
   70  N  6  Z   -0.000000   0.000000  -0.000000  -0.000000  -0.000000
   71  N  6  S   -0.000273  -0.000117  -0.004002   0.000682   0.003347
   72  N  6  X    0.000138   0.000083   0.003002  -0.000636  -0.000302
   73  N  6  Y    0.000099   0.000039  -0.001291  -0.000282  -0.000741
   74  N  6  Z   -0.000000   0.000000  -0.000000  -0.000000  -0.000000
   75  N  6 XX    0.000005   0.000008  -0.003356  -0.000042  -0.000578
   76  N  6 YY    0.000019   0.000003  -0.003045  -0.000030  -0.000288
   77  N  6 ZZ    0.000016   0.000024  -0.002961  -0.000164  -0.000111
   78  N  6 XY   -0.000009  -0.000011  -0.000128   0.000018  -0.000296
   79  N  6 XZ   -0.000000  -0.000000   0.000000  -0.000000   0.000000
   80  N  6 YZ   -0.000000   0.000000  -0.000000  -0.000000   0.000000
   81  H  7  S    0.000008  -0.000005  -0.000105  -0.000044  -0.001536
   82  H  7  S   -0.000031  -0.000057  -0.000098   0.000554   0.001965
   83  H  7  X   -0.000023   0.000005  -0.000032  -0.000005  -0.000020
   84  H  7  Y   -0.000011  -0.000004  -0.000036   0.000062  -0.000115
   85  H  7  Z    0.000001   0.000005  -0.000005   0.000049  -0.000276
   86  H  8  S    0.000008  -0.000005  -0.000105  -0.000044  -0.001536
   87  H  8  S   -0.000031  -0.000057  -0.000098   0.000554   0.001965
   88  H  8  X   -0.000023   0.000005  -0.000032  -0.000005  -0.000020
   89  H  8  Y   -0.000011  -0.000004  -0.000036   0.000062  -0.000115
   90  H  8  Z   -0.000001  -0.000005   0.000005  -0.000049   0.000276
   91  H  9  S    0.000006   0.000020  -0.000813  -0.000027   0.000065
   92  H  9  S   -0.000040  -0.000044   0.000116   0.000215   0.000435
   93  H  9  X    0.000000  -0.000005  -0.000005   0.000019  -0.000079
   94  H  9  Y    0.000001   0.000005   0.000252  -0.000010  -0.000112
   95  H  9  Z   -0.000005  -0.000007  -0.000378   0.000042   0.000048
   96  H 10  S    0.000006   0.000020  -0.000813  -0.000027   0.000065
   97  H 10  S   -0.000040  -0.000044   0.000116   0.000215   0.000435
   98  H 10  X    0.000000  -0.000005  -0.000005   0.000019  -0.000079
   99  H 10  Y    0.000001   0.000005   0.000252  -0.000010  -0.000112
  100  H 10  Z    0.000005   0.000007   0.000378  -0.000042  -0.000048

                      6          7          8          9         10
                   -1.1251    -1.1161    -0.6925    -0.5754    -0.5575
                     A          A          A          A          A   
    1  H  1  S    0.012703   0.013272   0.001593  -0.000003  -0.005179
    2  H  1  S   -0.005985  -0.033192   0.008020  -0.000003  -0.036469
    3  H  1  X    0.004025   0.004355  -0.000298  -0.000000  -0.002213
    4  H  1  Y   -0.007038  -0.010820   0.000228  -0.000000  -0.002534
    5  H  1  Z   -0.000000  -0.000000   0.000000   0.017835  -0.000001
    6  O  2  S   -0.119564  -0.172987   0.003002  -0.000001  -0.016740
    7  O  2  S    0.274112   0.389672  -0.000832   0.000003   0.029909
    8  O  2  X   -0.003361  -0.012477  -0.002067   0.000004   0.016018
    9  O  2  Y   -0.153834  -0.224701  -0.001928  -0.000004   0.006352
   10  O  2  Z   -0.000002  -0.000001   0.000000   0.616063  -0.000036
   11  O  2  S    0.292211   0.444505  -0.045748   0.000010   0.135697
   12  O  2  X    0.005728  -0.004578  -0.016195   0.000003   0.026653
   13  O  2  Y   -0.111939  -0.161996  -0.004705  -0.000000   0.039322
   14  O  2  Z   -0.000002  -0.000001   0.000000   0.465051  -0.000027
   15  O  2 XX    0.008835   0.007946   0.002395  -0.000000  -0.004715
   16  O  2 YY   -0.005732  -0.010240   0.001581  -0.000001  -0.004575
   17  O  2 ZZ    0.005360   0.004898   0.001909  -0.000000  -0.002702
   18  O  2 XY    0.000830   0.000028  -0.000718   0.000000  -0.001818
   19  O  2 XZ   -0.000000  -0.000000   0.000000   0.010243  -0.000001
   20  O  2 YZ   -0.000000  -0.000000   0.000000   0.028373  -0.000002
   21  C  3  S   -0.014706  -0.000480  -0.006473   0.000001   0.010167
   22  C  3  S    0.000850   0.004752   0.013896  -0.000002  -0.024592
   23  C  3  X   -0.003804  -0.000131   0.013808   0.000006   0.121753
   24  C  3  Y   -0.007484  -0.014815  -0.015500  -0.000001  -0.002832
   25  C  3  Z   -0.000001  -0.000000   0.000000   0.128643  -0.000004
   26  C  3  S   -0.052115  -0.004190   0.056018  -0.000002  -0.011332
   27  C  3  X    0.013671   0.027656   0.008954   0.000006   0.093241
   28  C  3  Y   -0.020155   0.006539  -0.069817  -0.000001   0.007062
   29  C  3  Z   -0.000000  -0.000000   0.000000   0.071951  -0.000003
   30  C  3 XX   -0.006476   0.003521  -0.000771  -0.000000  -0.001638
   31  C  3 YY    0.016970  -0.002581   0.001871   0.000000   0.000184
   32  C  3 ZZ   -0.006174   0.000006   0.001120   0.000000   0.000047
   33  C  3 XY    0.004441   0.010251  -0.000321   0.000003   0.041048
   34  C  3 XZ    0.000000   0.000000  -0.000000  -0.021978   0.000001
   35  C  3 YZ    0.000000   0.000000  -0.000000  -0.015497   0.000002
   36  O  4  S   -0.181597   0.124008  -0.003472  -0.000001  -0.005461
   37  O  4  S    0.406394  -0.275032   0.002563   0.000001   0.013771
   38  O  4  X   -0.038593  -0.009259   0.009533   0.000035   0.623217
   39  O  4  Y    0.171176  -0.131898   0.002798   0.000004   0.047245
   40  O  4  Z   -0.000000   0.000000  -0.000001  -0.010307   0.000011
   41  O  4  S    0.474413  -0.305405   0.047447   0.000004   0.022543
   42  O  4  X   -0.032746  -0.014174   0.005760   0.000025   0.447451
   43  O  4  Y    0.106169  -0.091100  -0.008627   0.000001   0.028401
   44  O  4  Z    0.000000   0.000000  -0.000001  -0.032068   0.000010
   45  O  4 XX    0.004424  -0.003206  -0.003146   0.000000   0.001483
   46  O  4 YY   -0.005529   0.004912  -0.000902  -0.000000  -0.002776
   47  O  4 ZZ    0.002644  -0.000366  -0.001158  -0.000000   0.000848
   48  O  4 XY    0.002278   0.000947  -0.001072  -0.000002  -0.031032
   49  O  4 XZ    0.000000  -0.000000  -0.000000  -0.000974   0.000000
   50  O  4 YZ    0.000000  -0.000000   0.000000  -0.002888  -0.000000
   51  C  5  S   -0.000469   0.001716  -0.005813   0.000001   0.006701
   52  C  5  S    0.002386  -0.000220   0.007420  -0.000001  -0.009082
   53  C  5  X   -0.004329   0.004333   0.028469   0.000002   0.026186
   54  C  5  Y    0.001105  -0.002657  -0.022154  -0.000001  -0.013567
   55  C  5  Z    0.000000  -0.000000  -0.000000   0.003878  -0.000000
   56  C  5  S   -0.010943  -0.034660  -0.037469  -0.000007  -0.103903
   57  C  5  X   -0.010330   0.001511   0.034324   0.000003   0.033921
   58  C  5  Y   -0.001135  -0.009180  -0.014185  -0.000003  -0.044833
   59  C  5  Z    0.000000  -0.000000  -0.000000  -0.026648   0.000001
   60  C  5 XX    0.001872   0.000500   0.020244   0.000000  -0.000985
   61  C  5 YY    0.000229   0.000457  -0.010169   0.000000   0.002713
   62  C  5 ZZ    0.000239   0.000096  -0.004343  -0.000000  -0.000344
   63  C  5 XY   -0.000042   0.000513   0.000911  -0.000000  -0.001370
   64  C  5 XZ    0.000000   0.000000  -0.000000  -0.003154   0.000000
   65  C  5 YZ    0.000000  -0.000000   0.000000   0.001407  -0.000000
   66  N  6  S   -0.000102  -0.000721  -0.169350   0.000000  -0.000419
   67  N  6  S   -0.000245   0.000365   0.365436  -0.000001  -0.004234
   68  N  6  X   -0.002327  -0.000168   0.318061  -0.000001   0.001446
   69  N  6  Y   -0.000435  -0.000197  -0.238967  -0.000000  -0.004128
   70  N  6  Z   -0.000000   0.000000   0.000000   0.000120   0.000000
   71  N  6  S    0.005199   0.015676   0.465821   0.000000   0.002558
   72  N  6  X   -0.006219  -0.002403   0.281870  -0.000002  -0.018142
   73  N  6  Y   -0.004505  -0.000567  -0.196733  -0.000000  -0.007222
   74  N  6  Z    0.000000  -0.000000   0.000000   0.005567  -0.000000
   75  N  6 XX    0.000479  -0.000681  -0.013004   0.000000   0.001241
   76  N  6 YY   -0.000055  -0.000237  -0.001436   0.000000  -0.000192
   77  N  6 ZZ   -0.000201   0.000079   0.005243  -0.000000  -0.002138
   78  N  6 XY    0.000031   0.000554   0.015913  -0.000000  -0.001592
   79  N  6 XZ   -0.000000  -0.000000   0.000000  -0.000197   0.000000
   80  N  6 YZ   -0.000000   0.000000   0.000000   0.000244  -0.000000
   81  H  7  S   -0.000850   0.000261  -0.005096   0.001086   0.002699
   82  H  7  S    0.000966   0.007889  -0.014851  -0.014282   0.010709
   83  H  7  X   -0.000342  -0.000425  -0.000308   0.001143   0.000677
   84  H  7  Y    0.000138   0.000253   0.000194  -0.000880  -0.000143
   85  H  7  Z    0.000093   0.000224   0.000770  -0.000313   0.000206
   86  H  8  S   -0.000850   0.000261  -0.005096  -0.001086   0.002699
   87  H  8  S    0.000965   0.007889  -0.014850   0.014283   0.010708
   88  H  8  X   -0.000342  -0.000425  -0.000308  -0.001143   0.000678
   89  H  8  Y    0.000138   0.000253   0.000194   0.000880  -0.000143
   90  H  8  Z   -0.000093  -0.000224  -0.000770  -0.000313  -0.000206
   91  H  9  S   -0.000530   0.000291   0.022671  -0.000726  -0.000851
   92  H  9  S    0.003374  -0.005580  -0.032999   0.005030   0.018796
   93  H  9  X   -0.000190   0.000296   0.009430  -0.000064  -0.001288
   94  H  9  Y    0.000011   0.000016  -0.010085  -0.000151   0.000425
   95  H  9  Z    0.000244  -0.000307   0.003787   0.000205   0.000892
   96  H 10  S   -0.000530   0.000291   0.022671   0.000726  -0.000851
   97  H 10  S    0.003374  -0.005579  -0.032999  -0.005028   0.018797
   98  H 10  X   -0.000190   0.000296   0.009430   0.000064  -0.001288
   99  H 10  Y    0.000011   0.000016  -0.010085   0.000151   0.000425
  100  H 10  Z   -0.000244   0.000307  -0.003787   0.000205  -0.000892

                     11         12         13         14         15
                   -0.8459    -0.0002    -0.7632    -0.0001    -0.7345
                     A          A          A          A          A   
    1  H  1  S   -0.020034   0.014368   0.012447   0.019240   0.005965
    2  H  1  S   -0.043453   0.036217   0.044940   0.013594   0.014926
    3  H  1  X    0.009674   0.005049  -0.002026   0.000143  -0.000705
    4  H  1  Y    0.007115  -0.004510   0.000504  -0.003196   0.000178
    5  H  1  Z    0.000000   0.000000   0.000000  -0.000000   0.000000
    6  O  2  S   -0.048615  -0.081147   0.020072   0.005883   0.006787
    7  O  2  S    0.106284   0.347841  -0.038961  -0.005312  -0.012478
    8  O  2  X    0.370208   0.612771  -0.028083  -0.026268  -0.013022
    9  O  2  Y    0.344888   0.475462  -0.007534   0.021762  -0.001659
   10  O  2  Z    0.000000   0.000001   0.000001  -0.000001   0.000000
   11  O  2  S    0.078181   0.198468  -0.136579  -0.010555  -0.051344
   12  O  2  X    0.231639   0.070395  -0.050804  -0.020461  -0.022852
   13  O  2  Y    0.233371  -0.039804  -0.007558  -0.003830  -0.001040
   14  O  2  Z    0.000000  -0.000003   0.000000  -0.000001   0.000000
   15  O  2 XX    0.003809  -0.022288   0.010658   0.005111   0.002853
   16  O  2 YY    0.015649  -0.021339   0.000449   0.000983   0.001124
   17  O  2 ZZ   -0.009919  -0.039564   0.001845  -0.000967   0.000734
   18  O  2 XY    0.029604   0.034236  -0.002103   0.003259  -0.001800
   19  O  2 XZ   -0.000000   0.000000   0.000000   0.000000   0.000000
   20  O  2 YZ   -0.000000   0.000000   0.000000  -0.000000   0.000000
   21  C  3  S   -0.084441   0.101435  -0.113683  -0.110077  -0.011011
   22  C  3  S    0.191452  -0.447339   0.260274   0.654729   0.020779
   23  C  3  X   -0.279481   0.656640   0.298887   0.667812   0.020938
   24  C  3  Y   -0.164459   0.366180  -0.217275  -0.446627  -0.023879
   25  C  3  Z   -0.000000   0.000002   0.000002   0.000007   0.000000
   26  C  3  S    0.071345  -0.174436   0.247265   0.071302   0.072985
   27  C  3  X   -0.021977   0.117081   0.082910   0.020575   0.028580
   28  C  3  Y    0.026646   0.031479  -0.095983   0.010822  -0.053487
   29  C  3  Z   -0.000000   0.000002   0.000002   0.000000   0.000000
   30  C  3 XX    0.024728  -0.073299   0.013152   0.004898  -0.008341
   31  C  3 YY   -0.006959   0.054940  -0.004313  -0.079148   0.005336
   32  C  3 ZZ   -0.013609   0.064139  -0.006770  -0.098692   0.000453
   33  C  3 XY    0.037053  -0.106605  -0.029204  -0.125497  -0.001686
   34  C  3 XZ    0.000000   0.000001   0.000000   0.000003  -0.000000
   35  C  3 YZ    0.000000   0.000000  -0.000000  -0.000003   0.000000
   36  O  4  S    0.010995  -0.009375   0.012421   0.004537  -0.003265
   37  O  4  S   -0.019900   0.009061  -0.033087   0.005752   0.002960
   38  O  4  X    0.073274  -0.125643  -0.048307  -0.089577   0.022631
   39  O  4  Y    0.030846  -0.032181   0.033480   0.001168  -0.004903
   40  O  4  Z    0.000002  -0.000002   0.000000  -0.000002   0.000000
   41  O  4  S   -0.058884   0.016087  -0.027419   0.015257   0.032906
   42  O  4  X    0.070265  -0.123520  -0.069363  -0.075368   0.013793
   43  O  4  Y    0.032387  -0.037606   0.027866  -0.007228  -0.010078
   44  O  4  Z    0.000001  -0.000001  -0.000000  -0.000002   0.000000
   45  O  4 XX    0.000916   0.001192  -0.001333  -0.001322  -0.002276
   46  O  4 YY    0.001444  -0.000602  -0.002432   0.005121  -0.001049
   47  O  4 ZZ    0.002719  -0.000760   0.000605   0.001943  -0.001319
   48  O  4 XY    0.003406  -0.002343  -0.003877  -0.003282  -0.001496
   49  O  4 XZ    0.000000  -0.000000  -0.000000  -0.000001   0.000000
   50  O  4 YZ   -0.000000  -0.000000  -0.000000  -0.000000  -0.000000
   51  C  5  S    0.011533  -0.006573  -0.084104   0.092857   0.085230
   52  C  5  S   -0.021677  -0.001370   0.175334  -0.451975  -0.179152
   53  C  5  X    0.033963  -0.039680  -0.287735   0.652414  -0.285541
   54  C  5  Y   -0.025453  -0.008853   0.214345  -0.448091  -0.216965
   55  C  5  Z    0.000000  -0.000000   0.000001  -0.000002  -0.000000
   56  C  5  S   -0.042251   0.028620   0.169832  -0.131166  -0.133191
   57  C  5  X    0.030171  -0.030425  -0.084953   0.108441  -0.060141
   58  C  5  Y   -0.022442   0.008739   0.103715  -0.083754  -0.097007
   59  C  5  Z    0.000000  -0.000002   0.000001   0.000000  -0.000000
   60  C  5 XX    0.005537  -0.009198   0.018262  -0.051645  -0.014133
   61  C  5 YY   -0.001390   0.001083  -0.001440   0.034023  -0.004195
   62  C  5 ZZ    0.000415   0.000696  -0.012667   0.088751   0.015167
   63  C  5 XY    0.001432  -0.001383  -0.024510   0.105688  -0.027074
   64  C  5 XZ    0.000000  -0.000000  -0.000000  -0.000000   0.000000
   65  C  5 YZ   -0.000000  -0.000000   0.000000   0.000000  -0.000000
   66  N  6  S    0.000225  -0.000250   0.000341   0.003493   0.063006
   67  N  6  S    0.003675   0.007249   0.001391  -0.024286  -0.136388
   68  N  6  X   -0.016575   0.013636   0.041394  -0.032255   0.401422
   69  N  6  Y   -0.002187  -0.003863  -0.000805   0.048429   0.167101
   70  N  6  Z   -0.000000  -0.000000   0.000000   0.000000   0.000000
   71  N  6  S   -0.011570   0.001900  -0.016758  -0.011828  -0.105085
   72  N  6  X   -0.015469   0.031566   0.073269  -0.066553   0.261637
   73  N  6  Y    0.000285  -0.004982  -0.011612   0.053469   0.072541
   74  N  6  Z   -0.000000   0.000000  -0.000000   0.000000   0.000000
   75  N  6 XX    0.000009  -0.000061   0.004998  -0.006600  -0.031556
   76  N  6 YY    0.001987   0.000597  -0.003253   0.000254   0.011626
   77  N  6 ZZ    0.001388   0.001377   0.000187  -0.001856   0.015877
   78  N  6 XY   -0.000178   0.000560  -0.000643  -0.003247  -0.012168
   79  N  6 XZ    0.000000  -0.000000  -0.000000  -0.000000  -0.000000
   80  N  6 YZ    0.000000  -0.000000  -0.000000   0.000000  -0.000000
   81  H  7  S   -0.000390   0.000570  -0.020897   0.001255   0.016704
   82  H  7  S    0.002141  -0.000438  -0.056621   0.018462   0.034328
   83  H  7  X    0.000230  -0.001515  -0.004110   0.002258  -0.003801
   84  H  7  Y   -0.000466   0.000631   0.003245  -0.003870  -0.002425
   85  H  7  Z   -0.000175   0.000750   0.000053  -0.002897  -0.000565
   86  H  8  S   -0.000390   0.000569  -0.020897   0.001255   0.016703
   87  H  8  S    0.002141  -0.000435  -0.056622   0.018462   0.034328
   88  H  8  X    0.000230  -0.001515  -0.004110   0.002258  -0.003801
   89  H  8  Y   -0.000466   0.000631   0.003245  -0.003870  -0.002425
   90  H  8  Z    0.000175  -0.000750  -0.000054   0.002897   0.000565
   91  H  9  S    0.001620   0.001098  -0.004667   0.011003   0.024106
   92  H  9  S    0.005964  -0.007087  -0.015134   0.003550   0.048317
   93  H  9  X   -0.000908   0.000910   0.001498  -0.000704   0.009079
   94  H  9  Y    0.000258  -0.000097  -0.000212  -0.000511   0.003651
   95  H  9  Z    0.000127  -0.000469  -0.000453   0.000865  -0.000829
   96  H 10  S    0.001620   0.001099  -0.004667   0.011005   0.024106
   97  H 10  S    0.005964  -0.007086  -0.015135   0.003548   0.048316
   98  H 10  X   -0.000908   0.000910   0.001498  -0.000704   0.009079
   99  H 10  Y    0.000258  -0.000098  -0.000212  -0.000511   0.003651
  100  H 10  Z   -0.000127   0.000469   0.000453  -0.000865   0.000829

                     16         17         18         19         20
                   -0.0001    -0.8158    -0.0002    -0.6919    -0.0001
                     A          A          A          A          A   
    1  H  1  S   -0.009997   0.313836   0.741598   0.000881  -0.000986
    2  H  1  S   -0.015293   0.134684   0.295531  -0.006417  -0.003019
    3  H  1  X    0.000412   0.022283   0.027190  -0.000262  -0.001149
    4  H  1  Y   -0.000330  -0.017707  -0.000659   0.000282   0.000249
    5  H  1  Z   -0.000000   0.000000   0.000001  -0.000968  -0.000227
    6  O  2  S   -0.005726  -0.049245   0.074121   0.002896   0.001606
    7  O  2  S    0.004447   0.113505  -0.369572  -0.005345  -0.001546
    8  O  2  X    0.015266  -0.346449   0.574264  -0.002235  -0.001680
    9  O  2  Y   -0.010426   0.369256  -0.526597   0.005303   0.000779
   10  O  2  Z   -0.000000   0.000005  -0.000006  -0.025006  -0.007549
   11  O  2  S    0.046045   0.030297  -0.143121  -0.007075  -0.011157
   12  O  2  X    0.033986  -0.183069   0.059480  -0.004101  -0.003706
   13  O  2  Y   -0.003503   0.241563   0.060066   0.005359   0.003281
   14  O  2  Z    0.000000   0.000004   0.000006  -0.020850  -0.010396
   15  O  2 XX   -0.001454  -0.003540   0.022058  -0.000296   0.002595
   16  O  2 YY   -0.003247   0.023906   0.005436   0.001648   0.001503
   17  O  2 ZZ   -0.001825  -0.007832   0.021560   0.000637   0.000966
   18  O  2 XY    0.003683  -0.020015   0.026479  -0.000716  -0.000285
   19  O  2 XZ    0.000000   0.000000   0.000000   0.000648   0.000581
   20  O  2 YZ    0.000000   0.000000  -0.000000  -0.001323   0.001606
   21  C  3  S    0.008271   0.008766   0.001917   0.008806  -0.001710
   22  C  3  S    0.000661  -0.019559  -0.015136  -0.020663   0.002186
   23  C  3  X   -0.033391   0.030511  -0.000326  -0.026448  -0.003078
   24  C  3  Y   -0.014770   0.024388   0.019504   0.014232  -0.013596
   25  C  3  Z   -0.000000   0.000001  -0.000001   0.025697   0.029990
   26  C  3  S   -0.093796  -0.031740  -0.079884  -0.064676  -0.044299
   27  C  3  X   -0.049814   0.016990   0.013166  -0.032389  -0.028984
   28  C  3  Y    0.033391   0.034521   0.006781   0.020366   0.009610
   29  C  3  Z   -0.000000   0.000001  -0.000000  -0.004125   0.011959
   30  C  3 XX    0.011763   0.016396  -0.009481  -0.001397  -0.004155
   31  C  3 YY   -0.005294  -0.015148  -0.001330   0.004599  -0.005314
   32  C  3 ZZ   -0.000592   0.001702  -0.002207  -0.000090   0.003497
   33  C  3 XY    0.000849  -0.008353  -0.002345  -0.003040   0.005826
   34  C  3 XZ    0.000000  -0.000000  -0.000000   0.006883  -0.005202
   35  C  3 YZ   -0.000000  -0.000000   0.000000  -0.006431   0.004670
   36  O  4  S    0.000262   0.006549   0.003156  -0.001661   0.000186
   37  O  4  S   -0.000258  -0.013513  -0.020073   0.005323  -0.002372
   38  O  4  X   -0.008422   0.030152   0.037783   0.008374  -0.009053
   39  O  4  Y    0.003480   0.019541   0.004220  -0.008210   0.003598
   40  O  4  Z   -0.000000   0.000000   0.000001  -0.018001  -0.008796
   41  O  4  S    0.006292  -0.037995   0.017102   0.006730   0.010850
   42  O  4  X    0.004823   0.020467   0.032636   0.015272  -0.000610
   43  O  4  Y    0.002589   0.020870  -0.013789  -0.007865  -0.000722
   44  O  4  Z    0.000000  -0.000001  -0.000001  -0.017673   0.010772
   45  O  4 XX   -0.000310   0.001700  -0.004251   0.000420  -0.001106
   46  O  4 YY   -0.001930   0.000015  -0.000706   0.000030  -0.000165
   47  O  4 ZZ   -0.001220   0.000089  -0.005471   0.000531  -0.001879
   48  O  4 XY    0.000325  -0.003232  -0.000721   0.000104  -0.000003
   49  O  4 XZ    0.000000  -0.000000  -0.000000   0.000156   0.000320
   50  O  4 YZ   -0.000000  -0.000000   0.000000   0.000088  -0.003766
   51  C  5  S   -0.099716  -0.008050  -0.000364  -0.095259   0.092742
   52  C  5  S    0.440128   0.011635  -0.005753   0.196375  -0.624394
   53  C  5  X    0.610928  -0.021918   0.014039   0.000867   0.004855
   54  C  5  Y    0.442009   0.011884  -0.002736  -0.214710   0.468329
   55  C  5  Z    0.000001  -0.000000   0.000000   0.318421  -0.680453
   56  C  5  S    0.311724   0.063256   0.033798   0.194180  -0.060316
   57  C  5  X    0.156873  -0.018107  -0.010735  -0.013454  -0.007765
   58  C  5  Y    0.141640   0.014318   0.000811  -0.085914   0.088576
   59  C  5  Z    0.000002  -0.000000  -0.000001   0.165460  -0.046785
   60  C  5 XX    0.011719  -0.000972  -0.006024  -0.016199   0.108510
   61  C  5 YY   -0.004683  -0.000039  -0.000299  -0.000666   0.044555
   62  C  5 ZZ   -0.077841   0.000492  -0.001317   0.012898  -0.018757
   63  C  5 XY    0.097218  -0.002318  -0.000982   0.001261  -0.001924
   64  C  5 XZ    0.000000  -0.000000   0.000000  -0.003669   0.004446
   65  C  5 YZ    0.000000   0.000000  -0.000000  -0.021652   0.096231
   66  N  6  S    0.087812   0.001317   0.000627   0.012387  -0.002977
   67  N  6  S   -0.387354  -0.001097  -0.001921  -0.026678   0.012792
   68  N  6  X    0.664503   0.013610  -0.002595  -0.001581   0.008498
   69  N  6  Y    0.376773   0.001505   0.000924   0.021080  -0.025383
   70  N  6  Z    0.000000   0.000000   0.000000  -0.002526   0.032034
   71  N  6  S   -0.257027  -0.016702  -0.005874  -0.069731  -0.026171
   72  N  6  X    0.130948   0.021205  -0.001221  -0.001278   0.026329
   73  N  6  Y    0.153184  -0.000197  -0.002782   0.033861  -0.002928
   74  N  6  Z   -0.000001   0.000000   0.000000  -0.022346  -0.001692
   75  N  6 XX   -0.053796   0.000266   0.000659   0.000148  -0.003384
   76  N  6 YY    0.055089   0.000203   0.000123   0.005026   0.000579
   77  N  6 ZZ    0.071766   0.000466  -0.000845   0.001071   0.003780
   78  N  6 XY   -0.047462  -0.000370   0.000622   0.002990  -0.004871
   79  N  6 XZ   -0.000000   0.000000  -0.000000  -0.004820   0.002398
   80  N  6 YZ   -0.000000   0.000000   0.000000  -0.006326   0.002914
   81  H  7  S    0.001548   0.002196   0.000254  -0.012765  -0.006043
   82  H  7  S   -0.006811  -0.006809  -0.006417  -0.041358   0.005241
   83  H  7  X    0.004667   0.000454   0.001490   0.000867   0.000309
   84  H  7  Y    0.003788   0.000203  -0.000223  -0.002334  -0.000100
   85  H  7  Z    0.002884  -0.000103  -0.000221   0.005955  -0.008467
   86  H  8  S    0.001547   0.002196   0.000253   0.328979   0.773748
   87  H  8  S   -0.006814  -0.006808  -0.006416   0.222059   0.383042
   88  H  8  X    0.004667   0.000454   0.001490  -0.000461  -0.005483
   89  H  8  Y    0.003788   0.000203  -0.000223   0.009304  -0.021910
   90  H  8  Z   -0.002884   0.000103   0.000221  -0.011472   0.036155
   91  H  9  S   -0.011773  -0.000062  -0.000545   0.014510  -0.020801
   92  H  9  S   -0.021959   0.001295   0.002867   0.040516  -0.020401
   93  H  9  X    0.002592   0.000235  -0.000178   0.000278  -0.001980
   94  H  9  Y    0.006016   0.000062   0.000049   0.001647   0.000997
   95  H  9  Z   -0.005861   0.000028   0.000353  -0.000305  -0.002102
   96  H 10  S   -0.011773  -0.000062  -0.000544  -0.007671   0.006956
   97  H 10  S   -0.021958   0.001294   0.002866  -0.009960  -0.005484
   98  H 10  X    0.002592   0.000235  -0.000177   0.000022  -0.000319
   99  H 10  Y    0.006016   0.000062   0.000049   0.000947  -0.001615
  100  H 10  Z    0.005861  -0.000028  -0.000353   0.000237   0.000283

                     21         22         23         24         25
                   -0.6919    -0.0001    -0.7193    -0.0001    -0.7193
                     A          A          A          A          A   
    1  H  1  S    0.000881  -0.000985  -0.000953  -0.001585   0.000953
    2  H  1  S   -0.006417  -0.003020  -0.002382  -0.000832   0.002382
    3  H  1  X   -0.000262  -0.001150   0.000059   0.000180  -0.000059
    4  H  1  Y    0.000282   0.000249   0.000168   0.000425  -0.000168
    5  H  1  Z    0.000968   0.000227   0.000129   0.000052   0.000129
    6  O  2  S    0.002896   0.001606  -0.000426   0.000156   0.000426
    7  O  2  S   -0.005346  -0.001546   0.000052   0.002605  -0.000052
    8  O  2  X   -0.002234  -0.001680   0.001627   0.000620  -0.001627
    9  O  2  Y    0.005303   0.000778   0.000350  -0.001363  -0.000350
   10  O  2  Z    0.025006   0.007549   0.002482   0.003078   0.002482
   11  O  2  S   -0.007076  -0.011156   0.008774  -0.009371  -0.008774
   12  O  2  X   -0.004101  -0.003707   0.003545  -0.004927  -0.003545
   13  O  2  Y    0.005358   0.003282   0.000305  -0.001497  -0.000305
   14  O  2  Z    0.020850   0.010396   0.002299   0.004706   0.002299
   15  O  2 XX   -0.000296   0.002595  -0.000547   0.000017   0.000547
   16  O  2 YY    0.001648   0.001503   0.000106   0.001321  -0.000106
   17  O  2 ZZ    0.000637   0.000966  -0.000162   0.001171   0.000162
   18  O  2 XY   -0.000716  -0.000285   0.000044  -0.000387  -0.000044
   19  O  2 XZ   -0.000648  -0.000581  -0.000256  -0.000201  -0.000256
   20  O  2 YZ    0.001323  -0.001606   0.000122  -0.000142   0.000122
   21  C  3  S    0.008805  -0.001711   0.005186   0.001154  -0.005186
   22  C  3  S   -0.020662   0.002186  -0.011626  -0.004844   0.011626
   23  C  3  X   -0.026448  -0.003078  -0.016867  -0.001360   0.016867
   24  C  3  Y    0.014231  -0.013596   0.008607  -0.000086  -0.008607
   25  C  3  Z   -0.025698  -0.029991  -0.004329  -0.013348  -0.004329
   26  C  3  S   -0.064677  -0.044295  -0.016721   0.007315   0.016720
   27  C  3  X   -0.032390  -0.028978  -0.006987   0.000486   0.006986
   28  C  3  Y    0.020365   0.009607   0.026716  -0.012323  -0.026715
   29  C  3  Z    0.004124  -0.011958  -0.003175  -0.011909  -0.003174
   30  C  3 XX   -0.001397  -0.004155  -0.000344   0.002387   0.000344
   31  C  3 YY    0.004599  -0.005316   0.000611  -0.000855  -0.000611
   32  C  3 ZZ   -0.000090   0.003498  -0.000272  -0.000146   0.000271
   33  C  3 XY   -0.003040   0.005826  -0.000433  -0.000314   0.000433
   34  C  3 XZ   -0.006883   0.005201  -0.000132   0.000130  -0.000132
   35  C  3 YZ    0.006431  -0.004670   0.000830  -0.000981   0.000830
   36  O  4  S   -0.001661   0.000186   0.002527   0.002060  -0.002527
   37  O  4  S    0.005323  -0.002373  -0.002709  -0.004454   0.002709
   38  O  4  X    0.008374  -0.009054  -0.015704  -0.015944   0.015703
   39  O  4  Y   -0.008210   0.003598  -0.003954  -0.001200   0.003954
   40  O  4  Z    0.018001   0.008795   0.000006   0.000042   0.000007
   41  O  4  S    0.006730   0.010852  -0.024535  -0.001947   0.024534
   42  O  4  X    0.015272  -0.000611  -0.011050  -0.017771   0.011050
   43  O  4  Y   -0.007865  -0.000723   0.002737  -0.003244  -0.002737
   44  O  4  Z    0.017674  -0.010772   0.000822  -0.006284   0.000822
   45  O  4 XX    0.000420  -0.001106   0.002120   0.000467  -0.002120
   46  O  4 YY    0.000030  -0.000164   0.000189   0.000548  -0.000189
   47  O  4 ZZ    0.000531  -0.001880   0.001028   0.000399  -0.001028
   48  O  4 XY    0.000104  -0.000003   0.001233   0.000918  -0.001233
   49  O  4 XZ   -0.000156  -0.000320   0.000379  -0.000539   0.000379
   50  O  4 YZ   -0.000088   0.003766   0.000125   0.001209   0.000125
   51  C  5  S   -0.095259   0.092742   0.006859   0.000206  -0.006859
   52  C  5  S    0.196375  -0.624390  -0.016092  -0.004109   0.016092
   53  C  5  X    0.000866   0.004856  -0.031421  -0.011913   0.031421
   54  C  5  Y   -0.214709   0.468325  -0.010653   0.003901   0.010653
   55  C  5  Z   -0.318422   0.680454  -0.000974   0.021460  -0.000974
   56  C  5  S    0.194181  -0.060334  -0.048376  -0.043984   0.048378
   57  C  5  X   -0.013455  -0.007766  -0.042554  -0.010373   0.042554
   58  C  5  Y   -0.085912   0.088577  -0.027287  -0.020196   0.027287
   59  C  5  Z   -0.165461   0.046786  -0.003361   0.011357  -0.003362
   60  C  5 XX   -0.016199   0.108508  -0.007661  -0.006025   0.007661
   61  C  5 YY   -0.000666   0.044556   0.007643  -0.007439  -0.007643
   62  C  5 ZZ    0.012898  -0.018758   0.001814  -0.000155  -0.001814
   63  C  5 XY    0.001261  -0.001924   0.005121  -0.007940  -0.005121
   64  C  5 XZ    0.003669  -0.004446   0.008448  -0.004891   0.008448
   65  C  5 YZ    0.021652  -0.096230   0.008205  -0.002183   0.008205
   66  N  6  S    0.012387  -0.002977  -0.067604   0.080286   0.067604
   67  N  6  S   -0.026678   0.012792   0.141538  -0.448303  -0.141538
   68  N  6  X   -0.001582   0.008498  -0.072571   0.060955   0.072570
   69  N  6  Y    0.021080  -0.025383   0.288067  -0.485294  -0.288066
   70  N  6  Z    0.002526  -0.032034   0.333715  -0.621150   0.333716
   71  N  6  S   -0.069731  -0.026169   0.119101  -0.147532  -0.119100
   72  N  6  X   -0.001277   0.026326  -0.095078  -0.075529   0.095078
   73  N  6  Y    0.033861  -0.002932   0.176308  -0.037663  -0.176308
   74  N  6  Z    0.022346   0.001691   0.184488  -0.107927   0.184489
   75  N  6 XX    0.000148  -0.003384  -0.008470   0.054386   0.008470
   76  N  6 YY    0.005026   0.000579   0.004526   0.008370  -0.004526
   77  N  6 ZZ    0.001071   0.003780   0.002558   0.001650  -0.002558
   78  N  6 XY    0.002990  -0.004871  -0.011654   0.022881   0.011654
   79  N  6 XZ    0.004820  -0.002398  -0.011524   0.022112  -0.011524
   80  N  6 YZ    0.006326  -0.002915   0.024616  -0.070228   0.024616
   81  H  7  S    0.328979   0.773747   0.023210  -0.013528   0.006685
   82  H  7  S    0.222059   0.383048   0.049941  -0.003895   0.014712
   83  H  7  X   -0.000461  -0.005485  -0.000228  -0.001567   0.000407
   84  H  7  Y    0.009304  -0.021910   0.000488  -0.001100   0.000763
   85  H  7  Z    0.011472  -0.036155   0.000109  -0.001350   0.000057
   86  H  8  S   -0.012766  -0.006044  -0.006684   0.002507  -0.023210
   87  H  8  S   -0.041357   0.005244  -0.014713  -0.012196  -0.049941
   88  H  8  X    0.000867   0.000310  -0.000407  -0.000165   0.000228
   89  H  8  Y   -0.002334  -0.000100  -0.000763   0.001091  -0.000488
   90  H  8  Z   -0.005955   0.008467   0.000057  -0.000139   0.000109
   91  H  9  S   -0.007671   0.006955  -0.022872  -0.021656  -0.324146
   92  H  9  S   -0.009960  -0.005483  -0.050348  -0.034165  -0.182114
   93  H  9  X    0.000022  -0.000319  -0.001568   0.001458   0.001975
   94  H  9  Y    0.000947  -0.001614   0.005742   0.001092   0.011200
   95  H  9  Z   -0.000237  -0.000283   0.009168  -0.010880  -0.016125
   96  H 10  S    0.014510  -0.020801   0.324145   0.757431   0.022872
   97  H 10  S    0.040516  -0.020399   0.182113   0.390697   0.050348
   98  H 10  X    0.000278  -0.001979  -0.001975  -0.019034   0.001568
   99  H 10  Y    0.001647   0.000997  -0.011200   0.011628  -0.005742
  100  H 10  Z    0.000305   0.002102  -0.016125   0.002797   0.009168

                     26         27         28         29         30
                   -0.0001    -0.5259    -0.0008    -0.9673    -0.0001
                     A          A          A          A          A   
    1  H  1  S   -0.001586  -0.000000   0.000001   0.008529  -0.016236
    2  H  1  S   -0.000832   0.000001  -0.000002   0.017849  -0.012119
    3  H  1  X    0.000180   0.000000  -0.000000   0.000904  -0.001889
    4  H  1  Y    0.000425   0.000000  -0.000000   0.000063  -0.001385
    5  H  1  Z   -0.000052  -0.002236   0.002844  -0.000000   0.000000
    6  O  2  S    0.000156   0.000000  -0.000000  -0.002760  -0.003907
    7  O  2  S    0.002605  -0.000001   0.000000   0.009123   0.015696
    8  O  2  X    0.000620  -0.000001   0.000001   0.018931   0.028971
    9  O  2  Y   -0.001363  -0.000001   0.000000   0.021562  -0.022793
   10  O  2  Z   -0.003078  -0.102591   0.162261  -0.000000  -0.000001
   11  O  2  S   -0.009371  -0.000004   0.000006   0.000002   0.054442
   12  O  2  X   -0.004928  -0.000001   0.000000   0.019598   0.016106
   13  O  2  Y   -0.001496  -0.000001   0.000003   0.013512  -0.035270
   14  O  2  Z   -0.004706  -0.114948   0.202294   0.000000  -0.000001
   15  O  2 XX    0.000017   0.000000   0.000000   0.001500  -0.002980
   16  O  2 YY    0.001320   0.000000   0.000000  -0.003253   0.004178
   17  O  2 ZZ    0.001171   0.000000   0.000000   0.000887  -0.001281
   18  O  2 XY   -0.000386  -0.000000   0.000000  -0.004624   0.009243
   19  O  2 XZ    0.000202   0.003404  -0.001833  -0.000000   0.000000
   20  O  2 YZ    0.000143   0.000058   0.001490  -0.000000   0.000000
   21  C  3  S    0.001154   0.000002  -0.000002   0.114974  -0.113814
   22  C  3  S   -0.004844  -0.000003   0.000009  -0.257130   0.723464
   23  C  3  X   -0.001360  -0.000002   0.000004   0.011549  -0.007081
   24  C  3  Y   -0.000086  -0.000004   0.000009  -0.360610   0.910997
   25  C  3  Z    0.013349   0.317645  -0.571713  -0.000004   0.000010
   26  C  3  S    0.007310  -0.000004   0.000007  -0.075173   0.229134
   27  C  3  X    0.000485  -0.000003   0.000013  -0.013560   0.053063
   28  C  3  Y   -0.012325  -0.000004  -0.000001   0.013888   0.114341
[...]
   79  N  6 XZ    0.000085  -0.000176
   80  N  6 YZ   -0.000471  -0.000279
   81  H  7  S    0.002036  -0.026846
   82  H  7  S    0.014647  -0.056096
   83  H  7  X    0.000220   0.000276
   84  H  7  Y   -0.000289  -0.001190
   85  H  7  Z   -0.000490  -0.001013
   86  H  8  S   -0.002036   0.026847
   87  H  8  S   -0.014647   0.056095
   88  H  8  X   -0.000220  -0.000276
   89  H  8  Y    0.000289   0.001190
   90  H  8  Z   -0.000490  -0.001013
   91  H  9  S    0.000870  -0.004062
   92  H  9  S   -0.007079   0.023835
   93  H  9  X    0.000551  -0.001252
   94  H  9  Y   -0.000146  -0.000132
   95  H  9  Z   -0.000022   0.000647
   96  H 10  S   -0.000870   0.004062
   97  H 10  S    0.007079  -0.023835
   98  H 10  X   -0.000551   0.001252
   99  H 10  Y    0.000146   0.000132
  100  H 10  Z   -0.000022   0.000647


                    PAIR  10

                      1          2

    1  H  1  S    0.004110  -0.012385
    2  H  1  S    0.014171  -0.020348
    3  H  1  X    0.000393  -0.001355
    4  H  1  Y   -0.000292  -0.000414
    5  H  1  Z    0.000000   0.000000
    6  O  2  S   -0.003664   0.001673
    7  O  2  S    0.012822  -0.004822
    8  O  2  X    0.025690  -0.010923
    9  O  2  Y    0.015041  -0.026659
   10  O  2  Z   -0.000000  -0.000000
   11  O  2  S    0.013877   0.013872
   12  O  2  X    0.023056  -0.014846
   13  O  2  Y    0.004077  -0.022054
   14  O  2  Z    0.000000  -0.000001
   15  O  2 XX    0.000691  -0.002210
   16  O  2 YY   -0.002081   0.004210
   17  O  2 ZZ    0.000531  -0.001184
   18  O  2 XY   -0.002116   0.006827
   19  O  2 XZ   -0.000000   0.000000
   20  O  2 YZ   -0.000000   0.000000
   21  C  3  S    0.082172  -0.140184
   22  C  3  S   -0.064263   0.433016
   23  C  3  X    0.009363  -0.012972
   24  C  3  Y   -0.116533   0.580873
   25  C  3  Z   -0.000002   0.000007
   26  C  3  S   -0.014295   0.131086
   27  C  3  X    0.000411   0.026635
   28  C  3  Y    0.042570   0.015710
   29  C  3  Z   -0.000002   0.000002
   30  C  3 XX   -0.011841  -0.066207
   31  C  3 YY   -0.005483   0.054150
   32  C  3 ZZ   -0.013125  -0.049026
   33  C  3 XY    0.002355  -0.002072
   34  C  3 XZ    0.000000   0.000000
   35  C  3 YZ    0.000001   0.000002
   36  O  4  S    0.073632  -0.025098
   37  O  4  S   -0.213473  -0.000142
   38  O  4  X   -0.059899   0.029212
   39  O  4  Y    0.698064  -0.255576
   40  O  4  Z   -0.000009   0.000004
   41  O  4  S   -0.106042  -0.127373
   42  O  4  X   -0.026627   0.029986
   43  O  4  Y    0.290556  -0.226293
   44  O  4  Z   -0.000004   0.000005
   45  O  4 XX    0.029522   0.007295
   46  O  4 YY   -0.045557   0.025844
   47  O  4 ZZ    0.027958   0.010005
   48  O  4 XY    0.003466  -0.000473
   49  O  4 XZ   -0.000000  -0.000000
   50  O  4 YZ    0.000000  -0.000001
   51  C  5  S   -0.005911   0.009186
   52  C  5  S    0.017346  -0.011756
   53  C  5  X   -0.028708   0.020996
   54  C  5  Y    0.008144  -0.025579
   55  C  5  Z    0.000000  -0.000000
   56  C  5  S    0.031650  -0.072833
   57  C  5  X   -0.040409   0.042263
   58  C  5  Y   -0.001795  -0.028563
   59  C  5  Z   -0.000000  -0.000001
   60  C  5 XX    0.001844  -0.000613
   61  C  5 YY   -0.003201   0.006759
   62  C  5 ZZ   -0.000225   0.002038
   63  C  5 XY    0.000557  -0.005081
   64  C  5 XZ    0.000000  -0.000000
   65  C  5 YZ   -0.000000  -0.000000
   66  N  6  S   -0.001130   0.000827
   67  N  6  S    0.001894  -0.000472
   68  N  6  X   -0.003968   0.003822
   69  N  6  Y   -0.000760   0.000295
   70  N  6  Z    0.000000  -0.000000
   71  N  6  S    0.016653  -0.000673
   72  N  6  X   -0.006068   0.003876
   73  N  6  Y   -0.009737   0.007763
   74  N  6  Z    0.000001   0.000000
   75  N  6 XX   -0.000163  -0.000745
   76  N  6 YY   -0.001139   0.000846
   77  N  6 ZZ   -0.000817   0.000790
   78  N  6 XY    0.000599  -0.000187
   79  N  6 XZ   -0.000000  -0.000000
   80  N  6 YZ   -0.000000  -0.000000
   81  H  7  S   -0.003562   0.006074
   82  H  7  S   -0.011131   0.013254
   83  H  7  X   -0.000402   0.000694
   84  H  7  Y    0.001155  -0.001056
   85  H  7  Z   -0.000093   0.000266
   86  H  8  S   -0.003562   0.006073
   87  H  8  S   -0.011131   0.013256
   88  H  8  X   -0.000402   0.000694
   89  H  8  Y    0.001155  -0.001056
   90  H  8  Z    0.000093  -0.000266
   91  H  9  S   -0.001034   0.000741
   92  H  9  S    0.002949  -0.003791
   93  H  9  X    0.000272  -0.000007
   94  H  9  Y   -0.000170   0.000148
   95  H  9  Z    0.000317  -0.000474
   96  H 10  S   -0.001034   0.000741
   97  H 10  S    0.002947  -0.003791
   98  H 10  X    0.000272  -0.000007
   99  H 10  Y   -0.000170   0.000148
  100  H 10  Z   -0.000317   0.000474

 ... END OF ROHF-GVB SCF CALCULATION ...
 STEP CPU TIME =    29.11 TOTAL CPU TIME =       30.0 (    0.5 MIN)
 TOTAL WALL CLOCK TIME=       30.1 SECONDS, CPU UTILIZATION IS  99.63%

     ----------------------------------------------------------------
     PROPERTY VALUES FOR THE GVB   SELF-CONSISTENT FIELD WAVEFUNCTION
     ----------------------------------------------------------------

          -----------------
          ENERGY COMPONENTS
          -----------------

         WAVEFUNCTION NORMALIZATION =       1.0000000000

                ONE ELECTRON ENERGY =    -736.6009286927
                TWO ELECTRON ENERGY =     277.1429962956
           NUCLEAR REPULSION ENERGY =     176.4385398274
                                      ------------------
                       TOTAL ENERGY =    -283.0193925697

 ELECTRON-ELECTRON POTENTIAL ENERGY =     277.1429962956
  NUCLEUS-ELECTRON POTENTIAL ENERGY =   -1018.8563846119
   NUCLEUS-NUCLEUS POTENTIAL ENERGY =     176.4385398274
                                      ------------------
             TOTAL POTENTIAL ENERGY =    -565.2748484889
               TOTAL KINETIC ENERGY =     282.2554559192
                 VIRIAL RATIO (V/T) =       2.0027065434

          ---------------------------------------
          MULLIKEN AND LOWDIN POPULATION ANALYSES
          ---------------------------------------

     ATOMIC MULLIKEN POPULATION IN EACH MOLECULAR ORBITAL

                      1          2          3          4          5

                  2.000000   2.000000   2.000000   2.000000   2.000000

    1            -0.000140   0.000000   0.000000   0.000012   0.000000
    2             2.000142   0.000002   0.000000  -0.000738   0.000010
    3            -0.000003  -0.000389   0.000012   2.001503   0.000943
    4             0.000001   2.000386   0.000000  -0.001418   0.000001
    5             0.000001   0.000001   0.000199   0.000596   1.998165
    6            -0.000000  -0.000000   1.999954   0.000013   0.000381
    7            -0.000000  -0.000000  -0.000002   0.000014   0.000235
    8            -0.000000  -0.000000  -0.000002   0.000014   0.000235
    9            -0.000000  -0.000000  -0.000080   0.000001   0.000015
   10            -0.000000  -0.000000  -0.000080   0.000001   0.000015

                      6          7          8          9         10

                  2.000000   2.000000   2.000000   2.000000   2.000000

    1             0.001407  -0.010566   0.000031   0.008117   0.010282
    2             0.654289   1.373966  -0.000384   1.855287  -0.019544
    3            -0.049835  -0.012565   0.005330   0.143793   0.170350
    4             1.391812   0.648745  -0.000648  -0.004463   1.848892
    5             0.001606  -0.001031   0.030077  -0.004969  -0.018875
    6             0.000252  -0.000284   1.991553   0.000048   0.002324
    7             0.000069   0.000619  -0.003400   0.001126   0.000309
    8             0.000069   0.000619  -0.003400   0.001126   0.000309
    9             0.000166   0.000249  -0.009579  -0.000032   0.002977
   10             0.000166   0.000249  -0.009579  -0.000032   0.002977

                     11         12         13         14         15

                  1.982341   0.017659   1.985528   0.014472   1.981334

    1            -0.003543  -0.000033   0.004248   0.000014   0.000284
    2             1.386240   0.008003  -0.034235   0.000014  -0.001449
    3             0.616986   0.009355   1.144338   0.006998  -0.014648
    4            -0.008484   0.000313  -0.017908   0.000161  -0.000377
    5            -0.009905   0.000007   0.952924   0.007209   0.848244
    6             0.000765   0.000012  -0.025650   0.000058   1.180836
    7             0.000129   0.000000  -0.017110   0.000005  -0.007316
    8             0.000129   0.000000  -0.017111   0.000005  -0.007316
    9             0.000011   0.000000  -0.001983   0.000004  -0.008462
   10             0.000011   0.000000  -0.001983   0.000004  -0.008462

                     16         17         18         19         20

                  0.018666   1.979565   0.020435   1.984400   0.015600

    1             0.000008   0.636753   0.011037   0.000028  -0.000000
    2            -0.000008   1.339827   0.009444   0.000965  -0.000001
    3            -0.000009   0.005196  -0.000094  -0.022632   0.000001
    4             0.000004  -0.001633   0.000038   0.001144   0.000006
    5             0.009910  -0.001363   0.000008   1.152868   0.007766
    6             0.008767   0.000083   0.000000  -0.020914   0.000030
    7             0.000009   0.000326   0.000000  -0.013560   0.000010
    8             0.000009   0.000326   0.000000   0.887345   0.007774
    9            -0.000012   0.000025   0.000000   0.000345   0.000013
   10            -0.000012   0.000025   0.000000  -0.001189   0.000000

                     21         22         23         24         25

                  1.984400   0.015600   1.981362   0.018638   1.981362

    1             0.000028  -0.000000  -0.000006   0.000000  -0.000006
    2             0.000965  -0.000001   0.000026   0.000000   0.000026
    3            -0.022632   0.000001  -0.000013  -0.000001  -0.000012
    4             0.001144   0.000006  -0.000239   0.000003  -0.000239
    5             1.152869   0.007766  -0.018334  -0.000034  -0.018334
    6            -0.020914   0.000030   1.247292   0.008699   1.247292
    7             0.887344   0.007774   0.000103   0.000007  -0.001089
    8            -0.013560   0.000010  -0.001089  -0.000004   0.000103
    9            -0.001189   0.000000  -0.011323  -0.000031   0.764944
   10             0.000345   0.000013   0.764944   0.009998  -0.011323

                     26         27         28         29         30

                  0.018638   1.944028   0.055972   1.990397   0.009603

    1             0.000000   0.000134   0.000008  -0.002409   0.000005
    2             0.000000   0.023259   0.001872  -0.003531   0.000016
    3            -0.000001   0.556652   0.030695   0.763930   0.005282
    4             0.000003   1.361934   0.023073   1.248284   0.004331
    5            -0.000034   0.000200  -0.000088  -0.016173  -0.000034
    6             0.008699  -0.000106   0.000003  -0.000418   0.000001
    7            -0.000004   0.000077   0.000184   0.000512   0.000001
    8             0.000007   0.000077   0.000184   0.000512   0.000001
    9             0.009998   0.000901   0.000020  -0.000156  -0.000000
   10            -0.000031   0.000901   0.000020  -0.000156  -0.000000

               ----- POPULATIONS IN EACH AO -----
                             MULLIKEN      LOWDIN
              1  H  1  S      0.47922     0.43464
              2  H  1  S      0.14059     0.22309
              3  H  1  X      0.01470     0.03671
              4  H  1  Y      0.01288     0.03282
              5  H  1  Z      0.00830     0.02571
              6  O  2  S      1.99544     1.97720
              7  O  2  S      0.90549     0.70993
              8  O  2  X      0.80645     0.73366
              9  O  2  Y      0.96985     0.91306
             10  O  2  Z      1.09948     1.06666
             11  O  2  S      0.92537     0.44469
             12  O  2  X      0.45034     0.50170
             13  O  2  Y      0.62057     0.65201
             14  O  2  Z      0.77940     0.76878
             15  O  2 XX      0.01620     0.18224
             16  O  2 YY      0.00394     0.17102
             17  O  2 ZZ      0.00245     0.16582
             18  O  2 XY      0.01512     0.02308
             19  O  2 XZ      0.00127     0.00306
             20  O  2 YZ      0.00308     0.00307
             21  C  3  S      1.99670     1.97299
             22  C  3  S      0.70139     0.35799
             23  C  3  X      0.66474     0.58739
             24  C  3  Y      0.72044     0.63459
             25  C  3  Z      0.44043     0.39319
             26  C  3  S      0.30274     0.26159
             27  C  3  X      0.10121     0.28118
             28  C  3  Y      0.02652     0.26959
             29  C  3  Z      0.26422     0.33015
             30  C  3 XX      0.01779     0.16848
             31  C  3 YY      0.03838     0.21415
             32  C  3 ZZ     -0.02621     0.09521
             33  C  3 XY      0.05659     0.11582
             34  C  3 XZ      0.00882     0.01811
             35  C  3 YZ      0.02478     0.04604
             36  O  4  S      1.99556     1.97769
             37  O  4  S      0.91192     0.71819
             38  O  4  X      1.12200     1.08274
             39  O  4  Y      0.91355     0.85101
             40  O  4  Z      0.79978     0.75601
             41  O  4  S      0.96772     0.46807
             42  O  4  X      0.72807     0.72645
             43  O  4  Y      0.44811     0.53154
             44  O  4  Z      0.56954     0.59651
             45  O  4 XX      0.00312     0.17322
             46  O  4 YY      0.01634     0.19703
             47  O  4 ZZ     -0.00047     0.17094
             48  O  4 XY      0.00642     0.01237
             49  O  4 XZ      0.00005     0.00007
             50  O  4 YZ      0.01316     0.01620
             51  C  5  S      1.99676     1.97854
             52  C  5  S      0.65054     0.34502
             53  C  5  X      0.62738     0.56093
             54  C  5  Y      0.67928     0.60156
             55  C  5  Z      0.72805     0.63416
             56  C  5  S      0.56611     0.30524
             57  C  5  X      0.14370     0.31867
             58  C  5  Y      0.25207     0.38741
             59  C  5  Z      0.38031     0.46493
             60  C  5 XX      0.01447     0.15444
             61  C  5 YY      0.00170     0.14197
             62  C  5 ZZ      0.00513     0.14876
             63  C  5 XY      0.01799     0.03140
             64  C  5 XZ      0.00328     0.00625
             65  C  5 YZ      0.01449     0.02465
             66  N  6  S      1.99574     1.97808
             67  N  6  S      0.77445     0.51365
             68  N  6  X      0.86140     0.81688
             69  N  6  Y      0.81007     0.74217
             70  N  6  Z      0.74394     0.66050
             71  N  6  S      0.87545     0.40434
             72  N  6  X      0.61570     0.63820
             73  N  6  Y      0.50397     0.56513
             74  N  6  Z      0.42387     0.51141
             75  N  6 XX      0.00121     0.16714
             76  N  6 YY     -0.00204     0.16828
             77  N  6 ZZ      0.00195     0.17841
             78  N  6 XY      0.00540     0.00842
             79  N  6 XZ      0.00211     0.00401
             80  N  6 YZ      0.01559     0.02538
             81  H  7  S      0.54063     0.50548
             82  H  7  S      0.30467     0.34553
             83  H  7  X      0.00132     0.00503
             84  H  7  Y      0.00390     0.01220
             85  H  7  Z      0.00586     0.01639
             86  H  8  S      0.54063     0.50548
             87  H  8  S      0.30467     0.34553
             88  H  8  X      0.00132     0.00503
             89  H  8  Y      0.00390     0.01220
             90  H  8  Z      0.00586     0.01639
             91  H  9  S      0.52056     0.47965
             92  H  9  S      0.20320     0.28187
             93  H  9  X      0.00524     0.01734
             94  H  9  Y      0.00790     0.02080
             95  H  9  Z      0.00993     0.02602
             96  H 10  S      0.52056     0.47965
             97  H 10  S      0.20320     0.28187
             98  H 10  X      0.00524     0.01734
             99  H 10  Y      0.00790     0.02080
            100  H 10  Z      0.00993     0.02602

          ----- MULLIKEN ATOMIC OVERLAP POPULATIONS -----
          (OFF-DIAGONAL ELEMENTS NEED TO BE MULTIPLIED BY 2)

             1           2           3           4           5

    1    0.3826864
    2    0.2778316   8.2247786
    3   -0.0154040   0.2249408   4.3901267
    4    0.0060497  -0.0738266   0.5541799   8.0697971
    5    0.0052796  -0.0676811   0.3199412  -0.0640135   4.9183857
    6   -0.0001537   0.0019303  -0.0484538  -0.0051646   0.2731907
    7   -0.0002907   0.0031704  -0.0413931   0.0008464   0.3913087
    8   -0.0002907   0.0031705  -0.0413929   0.0008464   0.3913084
    9   -0.0000071   0.0000747  -0.0020055   0.0030789  -0.0432392
   10   -0.0000071   0.0000747  -0.0020057   0.0030789  -0.0432389

             6           7           8           9          10

    6    6.7942494
    7   -0.0341103   0.5588007
    8   -0.0341102  -0.0229385   0.5588011
    9    0.3407141  -0.0036861   0.0046644   0.4773169
   10    0.3407141   0.0046644  -0.0036862  -0.0300887   0.4773164

          TOTAL MULLIKEN AND LOWDIN ATOMIC POPULATIONS
       ATOM         MULL.POP.    CHARGE          LOW.POP.     CHARGE
    1 H             0.655694    0.344306         0.752973    0.247027
    2 O             8.594464   -0.594464         8.315980   -0.315980
    3 C             5.338534    0.661466         5.746473    0.253527
    4 O             8.494873   -0.494873         8.278032   -0.278032
    5 C             6.081241   -0.081241         6.103919   -0.103919
    6 N             7.628806   -0.628806         7.381986   -0.381986
    7 H             0.856372    0.143628         0.884632    0.115368
    8 H             0.856372    0.143628         0.884632    0.115368
    9 H             0.746822    0.253178         0.825687    0.174313
   10 H             0.746822    0.253178         0.825687    0.174313

          ---------------------
          ELECTROSTATIC MOMENTS
          ---------------------

 POINT   1           X           Y           Z (BOHR)    CHARGE
                -0.000000   -0.000000    0.000000        0.00 (A.U.)
         DX          DY          DZ         /D/  (DEBYE)
    -1.134336   -0.253768    0.000003    1.162376
 ...... END OF PROPERTY EVALUATION ......
 STEP CPU TIME =     0.02 TOTAL CPU TIME =       30.0 (    0.5 MIN)
 TOTAL WALL CLOCK TIME=       30.1 SECONDS, CPU UTILIZATION IS  99.67%
               580000  WORDS OF DYNAMIC MEMORY USED
 EXECUTION OF GAMESS TERMINATED NORMALLY Fri Jun  2 01:28:42 2017
 DDI: 263640 bytes (0.3 MB / 0 MWords) used by master data server.

 ----------------------------------------
 CPU timing information for all processes
 ========================================
 0: 29.447 + 0.602 = 30.50
 ----------------------------------------
 ddikick.x: exited gracefully.
unset echo
----- accounting info -----
Files used on the master node compute-0-2.local were:
-rw-rw-r-- 1 sarom sarom   327813 Jun  2 01:28 /scratch/gvb-gly-pp10.F05
-rw-rw-r-- 1 sarom sarom 95948528 Jun  2 01:28 /scratch/gvb-gly-pp10.F08
-rw-rw-r-- 1 sarom sarom  3010240 Jun  2 01:28 /scratch/gvb-gly-pp10.F10
-rw-rw-r-- 1 sarom sarom  1434816 Jun  2 01:28 /scratch/gvb-gly-pp10.F15
-rw-rw-r-- 1 sarom sarom  2505296 Jun  2 01:28 /scratch/gvb-gly-pp10.F23
rm: cannot remove `/scratch/sarom': Is a directory
rm: cannot remove `/scratch/tmp': Is a directory
ls: No match.
ls: No match.
ls: No match.
Fri Jun  2 01:28:45 CDT 2017
0.145u 0.047s 0:33.44 0.5%	0+0k 648+1016io 0pf+0w
Deleting shmid=3964928.
Deleting shmid=3997697.
Deleting shmid=4227074.
/opt/gridengine/default/spool/compute-0-2/active_jobs/23583.1/pe_hostfile compute-0-2.local
