-catch_rsh /opt/gridengine/default/spool/compute-0-2/active_jobs/23604.1/pe_hostfile
compute-0-2
The primary node assigned by SGE to this run is compute-0-2
Warning: no access to tty (Bad file descriptor).
Thus no job control in this shell.
Deleting shmid=3964928.
Deleting shmid=3997697.
Deleting shmid=4227074.
source /home/sarom/gamess.github.2017-05-31.14.06/install.info
setenv GMS_PATH /home/sarom/gamess.github.2017-05-31.14.06
setenv GMS_BUILD_DIR /home/sarom/gamess.github.2017-05-31.14.06
setenv GMS_TARGET linux64
setenv GMS_FORTRAN gfortran
setenv GMS_GFORTRAN_VERNO 4.4
setenv GMS_MATHLIB mkl-so
setenv GMS_MATHLIB_PATH /share/apps/intel/compilers_and_libraries_2017.1.132/linux/mkl/lib/intel64
setenv GMS_MKL_VERNO 12
setenv GMS_DDI_COMM sockets
setenv GMS_LIBCCHEM false
setenv GMS_EIGEN_PATH
setenv GMS_PHI false
setenv GMS_SHMTYPE sysv
setenv GMS_OPENMP false
unset echo
gvb-ti2h6
tests/gvb
----- GAMESS execution script 'rungms' -----
This job is running on host compute-0-2.local
under operating system Linux at Fri Jun 2 01:33:27 CDT 2017
Available scratch disk space (Kbyte units) at beginning of the job is
Filesystem           1K-blocks      Used Available Use% Mounted on
/dev/sda1             16126920   3867312  11440408  26% /
GAMESS temporary binary files will be written to /scratch
GAMESS supplementary output files will be written to /home/sarom/restart
Copying input file gvb-ti2h6.inp to your run's scratch directory...
cp tests/gvb/gvb-ti2h6.inp /scratch/gvb-ti2h6.F05
unset echo
The generated host list is
compute-0-2.local
/home/sarom/gamess.github.2017-05-31.14.06/ddikick.x /home/sarom/gamess.github.2017-05-31.14.06/gamess.00.x gvb-ti2h6 -ddi 1 1 compute-0-2.local -scr /scratch

 Distributed Data Interface kickoff program.
 Initiating 1 compute processes on 1 nodes to run the following command:
 /home/sarom/gamess.github.2017-05-31.14.06/gamess.00.x gvb-ti2h6 

          ******************************************************
          *         GAMESS VERSION = 20 APR 2017 (R1)          *
          *             FROM IOWA STATE UNIVERSITY             *
          * M.W.SCHMIDT, K.K.BALDRIDGE, J.A.BOATZ, S.T.ELBERT, *
          *   M.S.GORDON, J.H.JENSEN, S.KOSEKI, N.MATSUNAGA,   *
          *          K.A.NGUYEN, S.J.SU, T.L.WINDUS,           *
          *       TOGETHER WITH M.DUPUIS, J.A.MONTGOMERY       *
          *         J.COMPUT.CHEM.  14, 1347-1363(1993)        *
          **************** 64 BIT LINUX VERSION ****************

  SINCE 1993, STUDENTS AND POSTDOCS WORKING AT IOWA STATE UNIVERSITY
  AND ALSO IN THEIR VARIOUS JOBS AFTER LEAVING ISU HAVE MADE IMPORTANT
  CONTRIBUTIONS TO THE CODE:
     IVANA ADAMOVIC, CHRISTINE AIKENS, YURI ALEXEEV, POOJA ARORA,
     ANDREY ASADCHEV, ROB BELL, PRADIPTA BANDYOPADHYAY, JONATHAN BENTZ,
     BRETT BODE, KURT BRORSEN, CALEB CARLIN, GALINA CHABAN, WEI CHEN,
     CHEOL HO CHOI, PAUL DAY, ALBERT DEFUSCO, NUWAN DESILVA, TIM DUDLEY,
     DMITRI FEDOROV, GRAHAM FLETCHER, MARK FREITAG, KURT GLAESEMANN,
     DAN KEMP, GRANT MERRILL, NORIYUKI MINEZAWA, JONATHAN MULLIN,
     TAKESHI NAGATA, SEAN NEDD, HEATHER NETZLOFF, BOSILJKA NJEGIC, RYAN OLSON,
     MIKE PAK, SPENCER PRUITT, LUKE ROSKOP, JIM SHOEMAKER, LYUDMILA SLIPCHENKO,
     TONY SMITH, SAROM SOK LEANG, JIE SONG, TETSUYA TAKETSUGU, SIMON WEBB,
     PENG XU, SOOHAENG YOO, FEDERICO ZAHARIEV

  ADDITIONAL CODE HAS BEEN PROVIDED BY COLLABORATORS IN OTHER GROUPS:
     IOWA STATE UNIVERSITY:
          JOE IVANIC, AARON WEST, LAIMUTIS BYTAUTAS, KLAUS RUEDENBERG
     UNIVERSITY OF TOKYO: KIMIHIKO HIRAO, TAKAHITO NAKAJIMA,
          TAKAO TSUNEDA, MUNEAKI KAMIYA, SUSUMU YANAGISAWA,
          KIYOSHI YAGI, MAHITO CHIBA, SEIKEN TOKURA, NAOAKI KAWAKAMI
     UNIVERSITY OF AARHUS: FRANK JENSEN
     UNIVERSITY OF IOWA: VISVALDAS KAIRYS, HUI LI
     NATIONAL INST. OF STANDARDS AND TECHNOLOGY: WALT STEVENS, DAVID GARMER
     UNIVERSITY OF PISA: BENEDETTA MENNUCCI, JACOPO TOMASI
     UNIVERSITY OF MEMPHIS: HENRY KURTZ, PRAKASHAN KORAMBATH
     UNIVERSITY OF ALBERTA: TOBY ZENG, MARIUSZ KLOBUKOWSKI
     UNIVERSITY OF NEW ENGLAND: MARK SPACKMAN
     MIE UNIVERSITY: HIROAKI UMEDA
     NAT. INST. OF ADVANCED INDUSTRIAL SCIENCE AND TECHNOLOGY: KAZUO KITAURA
     MICHIGAN STATE UNIVERSITY:
          KAROL KOWALSKI, MARTA WLOCH, JEFFREY GOUR, JESSE LUTZ,
          WEI LI, PIOTR PIECUCH
     UNIVERSITY OF SILESIA: MONIKA MUSIAL, STANISLAW KUCHARSKI
     FACULTES UNIVERSITAIRES NOTRE-DAME DE LA PAIX:
          OLIVIER QUINET, BENOIT CHAMPAGNE
     UNIVERSITY OF CALIFORNIA - SANTA BARBARA: BERNARD KIRTMAN
     INSTITUTE FOR MOLECULAR SCIENCE:
          KAZUYA ISHIMURA, MICHIO KATOUDA, AND SHIGERU NAGASE
     UNIVERSITY OF NOTRE DAME: ANNA POMOGAEVA, DAN CHIPMAN
     KYUSHU UNIVERSITY:
          HARUYUKI NAKANO,
          FENG LONG GU, JACEK KORCHOWIEC, MARCIN MAKOWSKI, AND YURIKO AOKI,
          HIROTOSHI MORI AND EISAKU MIYOSHI
     PENNSYLVANIA STATE UNIVERSITY:
          TZVETELIN IORDANOV, CHET SWALINA, JONATHAN SKONE,
          SHARON HAMMES-SCHIFFER
     WASEDA UNIVERSITY:
          MASATO KOBAYASHI, TOMOKO AKAMA, TSUGUKI TOUMA,
          TAKESHI YOSHIKAWA, YASUHIRO IKABATA, JUNJI SEINO,
          YUYA NAKAJIMA, HIROMI NAKAI
     NANJING UNIVERSITY: SHUHUA LI
     UNIVERSITY OF NEBRASKA:
          PEIFENG SU, DEJUN SI, NANDUN THELLAMUREGE, YALI WANG, HUI LI
     UNIVERSITY OF ZURICH: ROBERTO PEVERATI, KIM BALDRIDGE
     N. COPERNICUS UNIVERSITY AND JACKSON STATE UNIVERSITY:
          MARIA BARYSZ
     UNIVERSITY OF COPENHAGEN: Jimmy Kromann, CASPER STEINMANN
     TOKYO INSTITUTE OF TECHNOLOGY: HIROYA NAKATA
     NAGOYA UNIVERSITY: YOSHIO NISHIMOTO, STEPHAN IRLE
     MOSCOW STATE UNIVERSITY: VLADIMIR MIRONOV

 EXECUTION OF GAMESS BEGUN Fri Jun  2 01:33:27 2017

            ECHO OF THE FIRST FEW INPUT CARDS -
 INPUT CARD>!   This is taken from "Molecular Electronic Structure and                      
 INPUT CARD>!   Energetics of the isomers of Ti2H6"                                         
 INPUT CARD>!   S.P.Webb, M.S.Gordon  J.Am.Chem.Soc. 120, 3846-3857(1998)                   
 INPUT CARD>!                                                                               
 INPUT CARD>!   The response equation convergence is slow, 83 iters required.               
 INPUT CARD>!                                                                               
 INPUT CARD>!   The molecule is the Cs 1A'' lowest single state, 140 AOs.                   
 INPUT CARD>!   The run reproduces the top part of Table 2, after applying                  
 INPUT CARD>!   a scale factor of 0.948 to the frequencies and multiplying                  
 INPUT CARD>!   by 42.255 to convert the intensities to km/mole.                            
 INPUT CARD>!                                                                               
 INPUT CARD>!           FINAL E=-1700.2175540467 after 26 iterations                        
 INPUT CARD>!     FREQ= 126.98, 224.35, 299.88, 330.93, 342.06, 371.43,                     
 INPUT CARD>!     FREQ= 624.93, 743.67, 831.35, 922.72, 994.72, 1204.26,                    
 INPUT CARD>!     FREQ= 1376.68, 1452.41, 1556.80, 1656.70, 1706.91, 1734.07                
 INPUT CARD>!     IR INTENSITY: 0.78846, 3.13893, 0.16296, 0.39545, 9.78040, 1.25609,       
 INPUT CARD>!     IR INTENSITY: 7.00407, 9.51620, 8.97026, 0.54426, 2.47700, 17.68787,      
 INPUT CARD>!     IR INTENSITY: 9.35857, 1.48104, 43.61504, 22.04351, 8.30571, 1.75834      
 INPUT CARD>!                                                                               
 INPUT CARD>!   This run takes 150 seconds on 2.66 GHz Cloverton (10 Sep 2013)              
 INPUT CARD>!                                                                               
 INPUT CARD> $contrl scftyp=gvb mult=1 runtyp=hessian coord=zmt nzvar=18 maxit=40 $end      
 INPUT CARD> $system mwords=5 $end                                                          
 INPUT CARD> $basis  gbasis=tzv npfunc=1 $end                                               
 INPUT CARD> $scf    nco=24 nseto=2 no(1)=1,1 $end                                          
 INPUT CARD> $guess  guess=huckel tolz=1.0d-4 $end                                          
 INPUT CARD> $data                                                                          
 INPUT CARD>Ti2H6...1A'' state of the Cs triply bridged isomer                              
 INPUT CARD>Cs                                                                              
 INPUT CARD>                                                                                
 INPUT CARD>H                                                                               
 INPUT CARD>Ti 1 ra                                                                         
 INPUT CARD>H  2 rb  1 a1                                                                   
 INPUT CARD>H  2 rc  1 a2  3  w1                                                            
 INPUT CARD>H  2 rc  1 a2  3 -w1                                                            
 INPUT CARD>Ti 3 rd  2 a3  1 180.0                                                          
 INPUT CARD>H  6 rf  3 a5  2  w2                                                            
 INPUT CARD>H  6 rf  3 a5  2 -w2                                                            
 INPUT CARD>                                                                                
 INPUT CARD>ra=1.7954740                                                                    
 INPUT CARD>rb=1.8651082                                                                    
 INPUT CARD>a1=127.5378811                                                                  
 INPUT CARD>rc=1.8359213                                                                    
 INPUT CARD>a2=136.4144970                                                                  
 INPUT CARD>w1=117.3248684                                                                  
 INPUT CARD>rd=1.9945702                                                                    
 INPUT CARD>a3=93.5609954                                                                   
 INPUT CARD>rf=1.7711732                                                                    
 INPUT CARD>a5=113.6267618                                                                  
 INPUT CARD>w2=114.2796949                                                                  
    5000000 WORDS OF MEMORY AVAILABLE

     BASIS OPTIONS
     -------------
     GBASIS=TZV          IGAUSS=       0      POLAR=HONDO7  
     NDFUNC=       0     NFFUNC=       0     DIFFSP=       F
     NPFUNC=       1      DIFFS=       F     BASNAM=        


     RUN TITLE
     ---------
 Ti2H6...1A'' state of the Cs triply bridged isomer                              

 THE POINT GROUP OF THE MOLECULE IS CS      
 THE ORDER OF THE PRINCIPAL AXIS IS     0

 YOUR FULLY SUBSTITUTED Z-MATRIX IS
 H   
 TI     1   1.7954740
 H      2   1.8651082  1  127.5379
 H      2   1.8359213  1  136.4145  3  117.3249  0
 H      2   1.8359213  1  136.4145  3 -117.3249  0
 TI     3   1.9945702  2   93.5610  1  180.0000  0
 H      6   1.7711732  3  113.6268  2  114.2797  0
 H      6   1.7711732  3  113.6268  2 -114.2797  0

 THE MOMENTS OF INERTIA ARE (AMU-ANGSTROM**2)
 IXX=     9.897   IYY=   214.313   IZZ=   218.334

 ATOM      ATOMIC                      COORDINATES (BOHR)
           CHARGE         X                   Y                   Z
 H           1.0     6.0459610948        0.4233308223        0.0000000000
 TI         22.0     2.6805671672       -0.0082473636        0.0000000000
 H           1.0     0.1950633471        2.4906878473        0.0000000000
 H           1.0     0.3276020486       -1.4169596880       -2.1250268621
 H           1.0     0.3276020486       -1.4169596880        2.1250268621
 TI         22.0    -2.6372627818        0.0037759954        0.0000000000
 H           1.0    -4.4772016909        0.0662081553        2.7952370939
 H           1.0    -4.4772016909        0.0662081553       -2.7952370939

          INTERNUCLEAR DISTANCES (ANGS.)
          ------------------------------

                1 H          2 TI         3 H          4 H          5 H     

   1 H       0.0000000    1.7954740 *  3.2837557    3.3719031    3.3719031  
   2 TI      1.7954740 *  0.0000000    1.8651082 *  1.8359213 *  1.8359213 *
   3 H       3.2837557    1.8651082 *  0.0000000    2.3548694 *  2.3548694 *
   4 H       3.3719031    1.8359213 *  2.3548694 *  0.0000000    2.2490317 *
   5 H       3.3719031    1.8359213 *  2.3548694 *  2.2490317 *  0.0000000  
   6 TI      4.6003251    2.8140818 *  1.9945702 *  2.0715551 *  2.0715551 *
   7 H       5.7648231    4.0664973    3.1538925    3.7229010    2.6845046 *
   8 H       5.7648231    4.0664973    3.1538925    2.6845046 *  3.7229010  

                6 TI         7 H          8 H     

   1 H       4.6003251    5.7648231    5.7648231  
   2 TI      2.8140818 *  4.0664973    4.0664973  
   3 H       1.9945702 *  3.1538925    3.1538925  
   4 H       2.0715551 *  3.7229010    2.6845046 *
   5 H       2.0715551 *  2.6845046 *  3.7229010  
   6 TI      0.0000000    1.7711732 *  1.7711732 *
   7 H       1.7711732 *  0.0000000    2.9583518 *
   8 H       1.7711732 *  2.9583518 *  0.0000000  

  * ... LESS THAN  3.000


     ATOMIC BASIS SET
     ----------------
 THE CONTRACTED PRIMITIVE FUNCTIONS HAVE BEEN UNNORMALIZED
 THE CONTRACTED BASIS FUNCTIONS ARE NOW NORMALIZED TO UNITY

  SHELL TYPE  PRIMITIVE        EXPONENT          CONTRACTION COEFFICIENT(S)

 H         

      1   S       1            33.6400000    0.025373656982
      1   S       2             5.0580000    0.189681435760
      1   S       3             1.1470000    0.852921469637

      2   S       4             0.3211000    1.000000000000

      3   S       5             0.1013000    1.000000000000

      4   P       6             1.0000000    1.000000000000

 TI        

      5   S       7        206082.0000000    0.001497489231
      5   S       8         31226.8000000    0.011560616865
      5   S       9          7199.3200000    0.059180774417
      5   S      10          2048.7500000    0.239238879575
      5   S      11           670.7900000    0.762940813506

      6   S      12           243.6500000    1.000000000000

      7   S      13            95.9250000    1.000000000000

      8   S      14            39.8101000    1.000000000000

      9   S      15            12.2205000    1.000000000000

     10   S      16             5.0088200    1.000000000000

     11   S      17             1.2856900    1.000000000000

     12   S      18             0.5128060    1.000000000000

     13   S      19             0.2090000    1.000000000000

     14   S      20             0.0855760    1.000000000000

     15   P      21          1264.7000000    0.006796738994
     15   P      22           301.2300000    0.054786797965
     15   P      23            96.9777000    0.257799674830
     15   P      24            36.3727000    0.766792848273

     16   P      25            14.7814000    1.000000000000

     17   P      26             6.2746500    1.000000000000

     18   P      27             2.4787800    1.000000000000

     19   P      28             1.0161800    1.000000000000

     20   P      29             0.3981620    1.000000000000

     21   P      30             0.1560000    1.000000000000

     22   P      31             0.0611000    1.000000000000

     23   D      32            28.1100000    0.025746526973
     23   D      33             7.6300000    0.141260425854
     23   D      34             2.5280000    0.400613606114
     23   D      35             0.8543000    0.634526225312

     24   D      36             0.2673000    1.000000000000

     25   D      37             0.0743000    1.000000000000

 H         

     26   S      38            33.6400000    0.025373656982
     26   S      39             5.0580000    0.189681435760
     26   S      40             1.1470000    0.852921469637

     27   S      41             0.3211000    1.000000000000

     28   S      42             0.1013000    1.000000000000

     29   P      43             1.0000000    1.000000000000

 H         

     34   S      44            33.6400000    0.025373656982
     34   S      45             5.0580000    0.189681435760
     34   S      46             1.1470000    0.852921469637

     35   S      47             0.3211000    1.000000000000

     36   S      48             0.1013000    1.000000000000

     37   P      49             1.0000000    1.000000000000

 TI        

     38   S      50        206082.0000000    0.001497489231
     38   S      51         31226.8000000    0.011560616865
     38   S      52          7199.3200000    0.059180774417
     38   S      53          2048.7500000    0.239238879575
     38   S      54           670.7900000    0.762940813506

     39   S      55           243.6500000    1.000000000000

     40   S      56            95.9250000    1.000000000000

     41   S      57            39.8101000    1.000000000000

     42   S      58            12.2205000    1.000000000000

     43   S      59             5.0088200    1.000000000000

     44   S      60             1.2856900    1.000000000000

     45   S      61             0.5128060    1.000000000000

     46   S      62             0.2090000    1.000000000000

     47   S      63             0.0855760    1.000000000000

     48   P      64          1264.7000000    0.006796738994
     48   P      65           301.2300000    0.054786797965
     48   P      66            96.9777000    0.257799674830
     48   P      67            36.3727000    0.766792848273

     49   P      68            14.7814000    1.000000000000

     50   P      69             6.2746500    1.000000000000

     51   P      70             2.4787800    1.000000000000

     52   P      71             1.0161800    1.000000000000

     53   P      72             0.3981620    1.000000000000

     54   P      73             0.1560000    1.000000000000

     55   P      74             0.0611000    1.000000000000

     56   D      75            28.1100000    0.025746526973
     56   D      76             7.6300000    0.141260425854
     56   D      77             2.5280000    0.400613606114
     56   D      78             0.8543000    0.634526225312

     57   D      79             0.2673000    1.000000000000

     58   D      80             0.0743000    1.000000000000

 H         

     63   S      81            33.6400000    0.025373656982
     63   S      82             5.0580000    0.189681435760
     63   S      83             1.1470000    0.852921469637

     64   S      84             0.3211000    1.000000000000

     65   S      85             0.1013000    1.000000000000

     66   P      86             1.0000000    1.000000000000

 TOTAL NUMBER OF BASIS SET SHELLS             =   66
 NUMBER OF CARTESIAN GAUSSIAN BASIS FUNCTIONS =  140
 NUMBER OF ELECTRONS                          =   50
 CHARGE OF MOLECULE                           =    0
 SPIN MULTIPLICITY                            =    1
 NUMBER OF OCCUPIED ORBITALS (ALPHA)          =   25
 NUMBER OF OCCUPIED ORBITALS (BETA )          =   25
 TOTAL NUMBER OF ATOMS                        =    8
 THE NUCLEAR REPULSION ENERGY IS      157.4379385662

     $CONTRL OPTIONS
     ---------------
 SCFTYP=GVB          RUNTYP=HESSIAN      EXETYP=RUN     
 MPLEVL=       0     CITYP =NONE         CCTYP =NONE         VBTYP =NONE    
 DFTTYP=NONE         TDDFT =NONE    
 MULT  =       1     ICHARG=       0     NZVAR =      18     COORD =ZMT     
 PP    =NONE         RELWFN=NONE         LOCAL =NONE         NUMGRD=       F
 ISPHER=      -1     NOSYM =       0     MAXIT =      40     UNITS =ANGS    
 PLTORB=       F     MOLPLT=       F     AIMPAC=       F     FRIEND=        
 NPRINT=       7     IREST =       0     GEOM  =INPUT   
 NORMF =       0     NORMP =       0     ITOL  =      20     ICUT  =       9
 INTTYP=BEST         GRDTYP=BEST         QMTTOL= 1.0E-06

     $SYSTEM OPTIONS
     ---------------
  REPLICATED MEMORY=     5000000 WORDS (ON EVERY NODE).
 DISTRIBUTED MEMDDI=           0 MILLION WORDS IN AGGREGATE,
 MEMDDI DISTRIBUTED OVER   1 PROCESSORS IS           0 WORDS/PROCESSOR.
 TOTAL MEMORY REQUESTED ON EACH PROCESSOR=     5000000 WORDS.
 TIMLIM=      525600.00 MINUTES, OR     365.0 DAYS.
 PARALL= F  BALTYP=  DLB     KDIAG=    0  COREFL= F
 MXSEQ2=     300 MXSEQ3=     150  mem10=         0

          ----------------
          PROPERTIES INPUT
          ----------------

     MOMENTS            FIELD           POTENTIAL          DENSITY
 IEMOM =       1   IEFLD =       0   IEPOT =       0   IEDEN =       0
 WHERE =COMASS     WHERE =NUCLEI     WHERE =NUCLEI     WHERE =NUCLEI  
 OUTPUT=BOTH       OUTPUT=BOTH       OUTPUT=BOTH       OUTPUT=BOTH    
 IEMINT=       0   IEFINT=       0                     IEDINT=       0
                                                       MORB  =       0
          EXTRAPOLATION IN EFFECT
          SOSCF IN EFFECT
 ORBITAL PRINTING OPTION: NPREO=     1   140     2     1

          *************************
          ROHF-GVB INPUT PARAMETERS
          *************************

          NORB   =   26          NCO    =   24
          NPAIR  =    0          NSETO  =    2
          NO     =    1    1
          OPEN SHELL ORBITALS
          SET     1 HAS ORBS   25
          SET     2 HAS ORBS   26

          ----------------------------
          ROHF-GVB COUPLING PARAMETERS
          ----------------------------

          F VECTOR (OCCUPANCIES)
    1   1.0000000000
    2   0.5000000000
    3   0.5000000000
          ALPHA COUPLING COEFFICEINTS

             1           2           3

    1    2.0000000
    2    1.0000000   0.0000000
    3    1.0000000   0.5000000   0.0000000
           BETA COUPLING COEFFICIENTS

             1           2           3

    1   -1.0000000
    2   -0.5000000   0.0000000
    3   -0.5000000   0.5000000   0.0000000

     -------------------------------
     INTEGRAL TRANSFORMATION OPTIONS
     -------------------------------
     NWORD  =            0
     CUTOFF = 1.0E-09     MPTRAN =       0
     DIRTRF =       F     AOINTS =DUP     

          ----------------------
          INTEGRAL INPUT OPTIONS
          ----------------------
 NOPK  =       1 NORDER=       0 SCHWRZ=       T

     ------------------------------------------
     THE POINT GROUP IS CS , NAXIS= 0, ORDER= 2
     ------------------------------------------

     DIMENSIONS OF THE SYMMETRY SUBSPACES ARE
 A'  =   98     A'' =   42

 ..... DONE SETTING UP THE RUN .....
 STEP CPU TIME =     0.00 TOTAL CPU TIME =        0.0 (    0.0 MIN)
 TOTAL WALL CLOCK TIME=        0.0 SECONDS, CPU UTILIZATION IS   0.00%

     ---------------------------------
     HESSIAN MATRIX CONTROL PARAMETERS
     ---------------------------------
     METHOD=ANALYTIC   NVIB  =       2   VIBSIZ= 0.01000
     RDHESS=       F   PURIFY=       F   PRTIFC=       F
     VIBANL=       T   DECOMP=       F   PROJCT=       F
     SCLFAC= 1.00000   PRTSCN=       F   NPRT  =       0
     PULCOR=       F   NPUN  =       0   REDOVB=       T
     HSSTYP=GENERAL 
     THERMOCHEMISTRY WILL BE PRINTED FOR    1 TEMPERATURES:
      298.15000

   --- ENCODED Z MATRIX ---
 COORD  TYPE   I   J   K   L   M   N
    1      1    2   1
    2      1    3   2
    3      2    3   2   1
    4      1    5   2
    5      2    5   2   1
    6      3    5   2   1   3
    7      1    4   2
    8      2    4   2   1
    9      3    4   2   1   3
   10      1    6   3
   11      2    6   3   2
   12      3    6   3   2   1
   13      1    8   6
   14      2    8   6   3
   15      3    8   6   3   2
   16      1    7   6
   17      2    7   6   3
   18      3    7   6   3   2

 THE DETERMINANT OF THE G MATRIX IS 10**(   -11)


                     --------------------
                     INTERNAL COORDINATES
                     --------------------

                 - - ATOMS - -         COORDINATE      COORDINATE
 NO.   TYPE    I  J  K  L  M  N        (BOHR,RAD)       (ANG,DEG)
 ----------------------------------------------------------------
   1 STRETCH   2  1                     3.3929539       1.7954740
   2 STRETCH   3  2                     3.5245434       1.8651082
   3 BEND      3  2  1                  2.2259559     127.5378811
   4 STRETCH   5  2                     3.4693882       1.8359213
   5 BEND      5  2  1                  2.3808821     136.4144970
   6 TORSION   5  2  1  3              -2.0477052    -117.3248684
   7 STRETCH   4  2                     3.4693882       1.8359213
   8 BEND      4  2  1                  2.3808821     136.4144970
   9 TORSION   4  2  1  3               2.0477052     117.3248684
  10 STRETCH   6  3                     3.7691911       1.9945702
  11 BEND      6  3  2                  1.6329474      93.5609954
  12 TORSION   6  3  2  1               3.1415927     180.0000000
  13 STRETCH   8  6                     3.3470320       1.7711732
  14 BEND      8  6  3                  1.9831611     113.6267618
  15 TORSION   8  6  3  2              -1.9945569    -114.2796949
  16 STRETCH   7  6                     3.3470320       1.7711732
  17 BEND      7  6  3                  1.9831611     113.6267618
  18 TORSION   7  6  3  2               1.9945569     114.2796949
 Old integral subroutine is used

     ------------------------------
     CPHF RESPONSE SOLUTION OPTIONS
     ------------------------------
     POLAR  =       F     NWORD  =       0
     CPHF   =MO      

          ********************
          1 ELECTRON INTEGRALS
          ********************
 ...... END OF ONE-ELECTRON INTEGRALS ......
 STEP CPU TIME =     0.02 TOTAL CPU TIME =        0.0 (    0.0 MIN)
 TOTAL WALL CLOCK TIME=        0.0 SECONDS, CPU UTILIZATION IS 100.00%

          -------------
          GUESS OPTIONS
          -------------
          GUESS =HUCKEL            NORB  =       0          NORDER=       0
          MIX   =       F          PRTMO =       F          PUNMO =       F
          TOLZ  = 1.0E-04          TOLE  = 1.0E-05
          SYMDEN=       F          PURIFY=       F

 INITIAL GUESS ORBITALS GENERATED BY HUCKEL   ROUTINE.
 HUCKEL GUESS REQUIRES    154332 WORDS.

 SYMMETRIES FOR INITIAL GUESS ORBITALS FOLLOW.   BOTH SET(S).
    26 ORBITALS ARE OCCUPIED (   18 CORE ORBITALS).
    19=A'      20=A''     21=A'      22=A'      23=A''     24=A'      25=A'  
    26=A''     27=A'      28=A''     29=A'      30=A'      31=A'      32=A'  
    33=A'      34=A'      35=A'      36=A'  
 ...... END OF INITIAL ORBITAL SELECTION ......
 STEP CPU TIME =     0.05 TOTAL CPU TIME =        0.1 (    0.0 MIN)
 TOTAL WALL CLOCK TIME=        0.1 SECONDS, CPU UTILIZATION IS 100.00%

                    ----------------------
                    AO INTEGRAL TECHNOLOGY
                    ----------------------
     S,P,L SHELL ROTATED AXIS INTEGRALS, REPROGRAMMED BY
        KAZUYA ISHIMURA (IMS) AND JOSE SIERRA (SYNSTAR).
     S,P,D,L SHELL ROTATED AXIS INTEGRALS PROGRAMMED BY
        KAZUYA ISHIMURA (INSTITUTE FOR MOLECULAR SCIENCE).
     S,P,D,F,G SHELL TO TOTAL QUARTET ANGULAR MOMENTUM SUM 5,
        ERIC PROGRAM BY GRAHAM FLETCHER (ELORET AND NASA ADVANCED
        SUPERCOMPUTING DIVISION, AMES RESEARCH CENTER).
     S,P,D,F,G,L SHELL GENERAL RYS QUADRATURE PROGRAMMED BY
        MICHEL DUPUIS (PACIFIC NORTHWEST NATIONAL LABORATORY).

          --------------------
          2 ELECTRON INTEGRALS
          --------------------

 THE -PK- OPTION IS OFF, THE INTEGRALS ARE NOT IN SUPERMATRIX FORM.
 STORING   15000 INTEGRALS/RECORD ON DISK, USING 12 BYTES/INTEGRAL.
 TWO ELECTRON INTEGRAL EVALUATION REQUIRES   92607 WORDS OF MEMORY.
 SCHWARZ INEQUALITY OVERHEAD:      9300 INTEGRALS, T=        0.01
 II,JST,KST,LST =  1  1  1  1 NREC =         1 INTLOC =    1
 II,JST,KST,LST =  2  1  1  1 NREC =         1 INTLOC =    2
 II,JST,KST,LST =  3  1  1  1 NREC =         1 INTLOC =    7
 II,JST,KST,LST =  4  1  1  1 NREC =         1 INTLOC =   22
 II,JST,KST,LST =  5  1  1  1 NREC =         1 INTLOC =   67
 II,JST,KST,LST =  6  1  1  1 NREC =         1 INTLOC =  168
 II,JST,KST,LST =  7  1  1  1 NREC =         1 INTLOC =  328
 II,JST,KST,LST =  8  1  1  1 NREC =         1 INTLOC =  565
 II,JST,KST,LST =  9  1  1  1 NREC =         1 INTLOC =  909
 II,JST,KST,LST = 10  1  1  1 NREC =         1 INTLOC = 1389
 II,JST,KST,LST = 11  1  1  1 NREC =         1 INTLOC = 2036
 II,JST,KST,LST = 12  1  1  1 NREC =         1 INTLOC = 2905
 II,JST,KST,LST = 13  1  1  1 NREC =         1 INTLOC = 4024
 II,JST,KST,LST = 14  1  1  1 NREC =         1 INTLOC = 5423
 II,JST,KST,LST = 15  1  1  1 NREC =         1 INTLOC = 7141
 II,JST,KST,LST = 16  1  1  1 NREC =         1 INTLOC =10799
 II,JST,KST,LST = 17  1  1  1 NREC =         2 INTLOC = 1345
 II,JST,KST,LST = 18  1  1  1 NREC =         2 INTLOC = 9126
 II,JST,KST,LST = 19  1  1  1 NREC =         3 INTLOC = 4610
 II,JST,KST,LST = 20  1  1  1 NREC =         4 INTLOC = 3268
 II,JST,KST,LST = 21  1  1  1 NREC =         5 INTLOC = 5518
 II,JST,KST,LST = 22  1  1  1 NREC =         6 INTLOC =11859
 II,JST,KST,LST = 23  1  1  1 NREC =         8 INTLOC = 7805
 II,JST,KST,LST = 24  1  1  1 NREC =        13 INTLOC = 1129
 II,JST,KST,LST = 25  1  1  1 NREC =        19 INTLOC = 4594
 II,JST,KST,LST = 26  1  1  1 NREC =        27 INTLOC = 7420
 II,JST,KST,LST = 27  1  1  1 NREC =        30 INTLOC = 9928
 II,JST,KST,LST = 28  1  1  1 NREC =        34 INTLOC = 9504
 II,JST,KST,LST = 29  1  1  1 NREC =        38 INTLOC =13022
 II,JST,KST,LST = 30  1  1  1 NREC =        50 INTLOC = 4530
 II,JST,KST,LST = 31  1  1  1 NREC =        50 INTLOC = 4530
 II,JST,KST,LST = 32  1  1  1 NREC =        50 INTLOC = 4530
 II,JST,KST,LST = 33  1  1  1 NREC =        50 INTLOC = 4530
 II,JST,KST,LST = 34  1  1  1 NREC =        50 INTLOC = 4530
 II,JST,KST,LST = 35  1  1  1 NREC =        58 INTLOC =  147
 II,JST,KST,LST = 36  1  1  1 NREC =        67 INTLOC =12866
 II,JST,KST,LST = 37  1  1  1 NREC =        78 INTLOC =10887
 II,JST,KST,LST = 38  1  1  1 NREC =       114 INTLOC =  274
 II,JST,KST,LST = 39  1  1  1 NREC =       115 INTLOC =11426
 II,JST,KST,LST = 40  1  1  1 NREC =       117 INTLOC =14337
 II,JST,KST,LST = 41  1  1  1 NREC =       120 INTLOC = 8782
 II,JST,KST,LST = 42  1  1  1 NREC =       123 INTLOC = 9492
 II,JST,KST,LST = 43  1  1  1 NREC =       127 INTLOC = 4006
 II,JST,KST,LST = 44  1  1  1 NREC =       131 INTLOC = 8223
 II,JST,KST,LST = 45  1  1  1 NREC =       137 INTLOC = 1035
 II,JST,KST,LST = 46  1  1  1 NREC =       144 INTLOC = 8556
 II,JST,KST,LST = 47  1  1  1 NREC =       154 INTLOC =  239
 II,JST,KST,LST = 48  1  1  1 NREC =       164 INTLOC = 4123
 II,JST,KST,LST = 49  1  1  1 NREC =       175 INTLOC =11103
 II,JST,KST,LST = 50  1  1  1 NREC =       190 INTLOC = 5969
 II,JST,KST,LST = 51  1  1  1 NREC =       208 INTLOC = 7145
 II,JST,KST,LST = 52  1  1  1 NREC =       230 INTLOC = 9545
 II,JST,KST,LST = 53  1  1  1 NREC =       258 INTLOC = 1126
 II,JST,KST,LST = 54  1  1  1 NREC =       294 INTLOC =10982
 II,JST,KST,LST = 55  1  1  1 NREC =       339 INTLOC = 8865
 II,JST,KST,LST = 56  1  1  1 NREC =       389 INTLOC = 4025
 II,JST,KST,LST = 57  1  1  1 NREC =       475 INTLOC = 5145
 II,JST,KST,LST = 58  1  1  1 NREC =       595 INTLOC = 8570
 II,JST,KST,LST = 59  1  1  1 NREC =       740 INTLOC =13188
 II,JST,KST,LST = 60  1  1  1 NREC =       740 INTLOC =13188
 II,JST,KST,LST = 61  1  1  1 NREC =       740 INTLOC =13188
 II,JST,KST,LST = 62  1  1  1 NREC =       740 INTLOC =13188
 II,JST,KST,LST = 63  1  1  1 NREC =       740 INTLOC =13188
 II,JST,KST,LST = 64  1  1  1 NREC =       773 INTLOC = 6829
 II,JST,KST,LST = 65  1  1  1 NREC =       820 INTLOC =13020
 II,JST,KST,LST = 66  1  1  1 NREC =       882 INTLOC =11387
 SCHWARZ INEQUALITY TEST SKIPPED      476031 INTEGRAL BLOCKS.
 TOTAL NUMBER OF NONZERO TWO-ELECTRON INTEGRALS =            15128731
       1009 INTEGRAL RECORDS WERE STORED ON DISK FILE  8.
  ...... END OF TWO-ELECTRON INTEGRALS .....
 STEP CPU TIME =     1.85 TOTAL CPU TIME =        1.9 (    0.0 MIN)
 TOTAL WALL CLOCK TIME=        1.9 SECONDS, CPU UTILIZATION IS  98.97%

          ------------------------
          ROHF-GVB SCF CALCULATION
          ------------------------
 GVB STEP WILL USE    368991 WORDS OF MEMORY.

     MAXIT=  40   NPUNCH= 2   SQCDF TOL=1.0000E-05
     NUCLEAR ENERGY=      157.4379385662
     EXTRAP=T   DAMP=F   SHIFT=F   RSTRCT=F   DIIS=F  SOSCF=T
     SOSCF WILL OPTIMIZE    3013 ORBITAL ROTATIONS, SOGTOL=   0.250

 ITER EX     TOTAL ENERGY       E CHANGE        SQCDF       ORB. GRAD 
   0  0    -1698.064718352 -1698.064718352   0.704839409   0.000000000
          ---------------START SECOND ORDER SCF---------------
   1  1    -1699.925063932    -1.860345580   0.214409196   0.077307878
   2  2    -1700.091277262    -0.166213330   0.368234851   0.045836839
   3  3    -1700.157737561    -0.066460300   0.067649123   0.051265719
   4  4    -1700.205316945    -0.047579384   0.011009438   0.012536435
   5  5    -1700.212699264    -0.007382319   0.002638286   0.005339321
   6  6    -1700.214085699    -0.001386436   0.002099389   0.002427767
   7  7    -1700.214827354    -0.000741654   0.010954260   0.002115843
   8  8    -1700.215970150    -0.001142797   0.006106034   0.001879725
   9  9    -1700.216596255    -0.000626104   0.003149915   0.001551826
  10 10    -1700.216967828    -0.000371573   0.000713772   0.000769386
  11 11    -1700.217132892    -0.000165064   0.000755701   0.000698462
  12 12    -1700.217264907    -0.000132015   0.001168121   0.000804851
  13 13    -1700.217388970    -0.000124063   0.001081885   0.000763902
  14 14    -1700.217479798    -0.000090828   0.000283987   0.000750888
  15 15    -1700.217518360    -0.000038562   0.000030367   0.000436307
  16 16    -1700.217530001    -0.000011640   0.000014175   0.000148546
  17 17    -1700.217535267    -0.000005267   0.000027691   0.000125372
  18 18    -1700.217540425    -0.000005158   0.000057227   0.000204641
  19 19    -1700.217546024    -0.000005599   0.000072584   0.000273495
  20 20    -1700.217550942    -0.000004918   0.000027381   0.000220667
  21 21    -1700.217553394    -0.000002452   0.000001430   0.000095142
  22 22    -1700.217553972    -0.000000578   0.000000217   0.000026743
  23 23    -1700.217554039    -0.000000067   0.000000024   0.000008380
  24 24    -1700.217554046    -0.000000007   0.000000002   0.000002856
  25 25    -1700.217554047    -0.000000001   0.000000001   0.000001204
  26 26    -1700.217554047    -0.000000000   0.000000000   0.000000411

          -----------------
          DENSITY CONVERGED
          -----------------

 FINAL GVB ENERGY IS    -1700.2175540467 AFTER  26 ITERATIONS

          ----------------------------
          SCF STATISTICS PER ITERATION
          ----------------------------
          NUMBER OF INTEGRAL PASSES       1
          FOCK FORMATION TIME         0.501
          GEMINAL OPT TIME            0.000
          MIXORB  OPT TIME            0.000
          OCBSE   OPT TIME            0.000

     THE MAXIMUM LAGRANGIAN ASYMMETRY IS 1.3490377E-07

          ------------
          EIGENVECTORS
          ------------

                      1          2          3          4          5
                 -183.3947  -183.3652   -21.5675   -21.5391   -17.9439
                     A'         A'         A'         A'         A'  
    1  H  1  S    0.000003   0.000001  -0.000069  -0.000022   0.000018
    2  H  1  S    0.000001  -0.000007   0.000088   0.000130   0.000092
    3  H  1  S    0.000012  -0.000007  -0.000458   0.000181  -0.000099
    4  H  1  X    0.000000   0.000002  -0.000052  -0.000033   0.000082
    5  H  1  Y   -0.000000   0.000000   0.000005  -0.000008   0.000010
    6  H  1  Z    0.000000   0.000000   0.000000  -0.000000   0.000000
    7  TI 2  S    0.166950  -0.000000  -0.051646   0.000001  -0.000029
    8  TI 2  S    0.299755  -0.000000  -0.109811   0.000002  -0.000061
    9  TI 2  S    0.418387  -0.000000  -0.206138   0.000004  -0.000118
   10  TI 2  S    0.235738  -0.000000  -0.141164   0.000003  -0.000082
   11  TI 2  S    0.021715  -0.000000   0.523506  -0.000013   0.000302
   12  TI 2  S   -0.004282   0.000000   0.614062  -0.000013   0.000255
   13  TI 2  S    0.001702  -0.000001   0.043915   0.000010   0.000202
   14  TI 2  S   -0.019199   0.000023  -0.333910  -0.000460  -0.000377
   15  TI 2  S    0.011597  -0.000020   0.139393   0.000472   0.000336
   16  TI 2  S    0.000124   0.000048  -0.008072  -0.000836   0.000738
   17  TI 2  X    0.000004   0.000000  -0.000177  -0.000002   0.287997
   18  TI 2  Y   -0.000001  -0.000000  -0.000013   0.000000   0.127046
   19  TI 2  Z    0.000000   0.000000   0.000000  -0.000000   0.000000
   20  TI 2  X   -0.000004  -0.000001  -0.000229   0.000011   0.390184
   21  TI 2  Y    0.000000   0.000000  -0.000019  -0.000001   0.172119
   22  TI 2  Z    0.000000   0.000000   0.000000  -0.000000   0.000000
   23  TI 2  X    0.000001   0.000002  -0.000255  -0.000035   0.326863
   24  TI 2  Y   -0.000000  -0.000000  -0.000020   0.000003   0.144228
   25  TI 2  Z    0.000000   0.000000   0.000000  -0.000000   0.000000
   26  TI 2  X    0.000000  -0.000004  -0.000079   0.000084   0.067159
   27  TI 2  Y    0.000000   0.000000  -0.000007  -0.000007   0.029663
   28  TI 2  Z    0.000000   0.000000   0.000000  -0.000000   0.000000
   29  TI 2  X   -0.000002   0.000008   0.000109  -0.000155  -0.004552
   30  TI 2  Y    0.000000  -0.000001   0.000003   0.000012  -0.001934
   31  TI 2  Z    0.000000   0.000000   0.000000  -0.000000   0.000000
   32  TI 2  X    0.000004  -0.000010  -0.000152   0.000166   0.002932
   33  TI 2  Y   -0.000000   0.000001  -0.000023  -0.000022   0.001170
   34  TI 2  Z    0.000000   0.000000   0.000000  -0.000000   0.000000
   35  TI 2  X   -0.000013   0.000014   0.000357  -0.000184  -0.001571
   36  TI 2  Y    0.000000  -0.000001   0.000051   0.000030  -0.000557
   37  TI 2  Z    0.000000   0.000000   0.000000  -0.000000   0.000000
   38  TI 2  X    0.000104  -0.000122  -0.002236   0.002114   0.001066
   39  TI 2  Y    0.000002  -0.000008  -0.000119   0.000104   0.000122
   40  TI 2  Z    0.000000   0.000000   0.000000  -0.000000   0.000000
   41  TI 2 XX    0.004837   0.000000   0.107817   0.000010  -0.000160
   42  TI 2 YY    0.004838   0.000001   0.107447  -0.000025  -0.000036
   43  TI 2 ZZ    0.004837   0.000001   0.107352  -0.000021  -0.000029
   44  TI 2 XY    0.000000  -0.000000   0.000235   0.000003  -0.000032
   45  TI 2 XZ    0.000000   0.000000   0.000000  -0.000000   0.000000
   46  TI 2 YZ    0.000000   0.000000   0.000000  -0.000000   0.000000
   47  TI 2 XX   -0.002496   0.000024  -0.024029  -0.000512  -0.000184
   48  TI 2 YY   -0.002498   0.000016  -0.023651  -0.000316  -0.000383
   49  TI 2 ZZ   -0.002499   0.000017  -0.023615  -0.000329  -0.000386
   50  TI 2 XY   -0.000000   0.000000  -0.000170  -0.000017   0.000023
   51  TI 2 XZ    0.000000   0.000000   0.000000  -0.000000   0.000000
   52  TI 2 YZ    0.000000   0.000000   0.000000  -0.000000   0.000000
   53  TI 2 XX   -0.000116   0.000089   0.002914  -0.001627  -0.000513
   54  TI 2 YY   -0.000050   0.000026   0.001333  -0.000460  -0.000257
   55  TI 2 ZZ   -0.000051   0.000028   0.001352  -0.000501  -0.000217
   56  TI 2 XY   -0.000004   0.000007   0.000177  -0.000118   0.000030
   57  TI 2 XZ    0.000000   0.000000   0.000000  -0.000000   0.000000
   58  TI 2 YZ    0.000000   0.000000   0.000000  -0.000000   0.000000
   59  H  3  S    0.000004   0.000003  -0.000062  -0.000042  -0.000012
   60  H  3  S   -0.000001  -0.000002  -0.000023  -0.000045  -0.000068
   61  H  3  S   -0.000009   0.000016   0.000235  -0.000150   0.000300
   62  H  3  X    0.000001  -0.000003  -0.000017   0.000074   0.000011
   63  H  3  Y    0.000000  -0.000002   0.000005   0.000051  -0.000009
   64  H  3  Z    0.000000   0.000000   0.000000  -0.000000   0.000000
   65  H  4  S    0.000004   0.000002  -0.000072  -0.000035  -0.000026
   66  H  4  S   -0.000001  -0.000000   0.000078  -0.000007  -0.000089
   67  H  4  S   -0.000000  -0.000011  -0.000095   0.000198  -0.000014
   68  H  4  X    0.000000  -0.000003   0.000018   0.000068   0.000025
   69  H  4  Y   -0.000000   0.000001   0.000007  -0.000022   0.000016
   70  H  4  Z   -0.000000   0.000002   0.000026  -0.000038   0.000019
   71  H  5  S    0.000004   0.000002  -0.000072  -0.000035  -0.000026
   72  H  5  S   -0.000001  -0.000000   0.000078  -0.000007  -0.000089
   73  H  5  S   -0.000000  -0.000011  -0.000095   0.000198  -0.000014
   74  H  5  X    0.000000  -0.000003   0.000018   0.000068   0.000025
   75  H  5  Y   -0.000000   0.000001   0.000007  -0.000022   0.000016
   76  H  5  Z    0.000000  -0.000002  -0.000026   0.000038  -0.000019
   77  TI 6  S    0.000000   0.166949  -0.000001  -0.051646   0.000000
   78  TI 6  S    0.000000   0.299755  -0.000002  -0.109813  -0.000001
   79  TI 6  S    0.000000   0.418386  -0.000004  -0.206136   0.000003
   80  TI 6  S    0.000000   0.235738  -0.000001  -0.141161   0.000010
   81  TI 6  S   -0.000000   0.021714   0.000016   0.523546   0.000035
   82  TI 6  S    0.000000  -0.004285   0.000026   0.614109   0.000054
   83  TI 6  S   -0.000001   0.001713  -0.000054   0.043690  -0.000232
   84  TI 6  S    0.000018  -0.019190  -0.000222  -0.333684   0.000019
   85  TI 6  S   -0.000008   0.011639  -0.000290   0.138081  -0.000946
   86  TI 6  S    0.000029   0.000134  -0.000777  -0.008199   0.000051
   87  TI 6  X   -0.000000   0.000009   0.000001   0.000026  -0.000014
   88  TI 6  Y    0.000000  -0.000002  -0.000000  -0.000015   0.000008
   89  TI 6  Z    0.000000   0.000000   0.000000  -0.000000   0.000000
   90  TI 6  X    0.000001  -0.000006  -0.000010   0.000055  -0.000023
   91  TI 6  Y   -0.000000   0.000001   0.000001  -0.000026   0.000012
   92  TI 6  Z    0.000000   0.000000   0.000000  -0.000000   0.000000
   93  TI 6  X   -0.000002   0.000004   0.000029   0.000051  -0.000007
   94  TI 6  Y    0.000000  -0.000001  -0.000002  -0.000025   0.000009
   95  TI 6  Z    0.000000   0.000000   0.000000  -0.000000   0.000000
   96  TI 6  X    0.000004  -0.000003  -0.000072   0.000024  -0.000030
   97  TI 6  Y   -0.000000   0.000001   0.000005  -0.000014   0.000004
   98  TI 6  Z    0.000000   0.000000   0.000000  -0.000000   0.000000
   99  TI 6  X   -0.000007   0.000001   0.000140   0.000054   0.000059
  100  TI 6  Y    0.000000  -0.000001  -0.000011   0.000004  -0.000004
  101  TI 6  Z    0.000000   0.000000   0.000000  -0.000000   0.000000
  102  TI 6  X    0.000007   0.000002  -0.000172  -0.000145  -0.000082
  103  TI 6  Y   -0.000001   0.000001   0.000017  -0.000019   0.000002
  104  TI 6  Z    0.000000   0.000000   0.000000  -0.000000   0.000000
  105  TI 6  X   -0.000006  -0.000001   0.000217   0.000221  -0.000075
  106  TI 6  Y    0.000001  -0.000001  -0.000023   0.000030   0.000014
  107  TI 6  Z    0.000000   0.000000   0.000000  -0.000000   0.000000
  108  TI 6  X    0.000108  -0.000133  -0.002361   0.002168   0.000248
  109  TI 6  Y    0.000000  -0.000003   0.000023   0.000026  -0.000118
  110  TI 6  Z    0.000000   0.000000   0.000000  -0.000000   0.000000
  111  TI 6 XX    0.000000   0.004817   0.000053   0.107721   0.000358
  112  TI 6 YY   -0.000000   0.004817   0.000081   0.107583   0.000363
  113  TI 6 ZZ    0.000000   0.004817   0.000072   0.108143   0.000366
  114  TI 6 XY   -0.000000   0.000000   0.000000   0.000034  -0.000001
  115  TI 6 XZ    0.000000   0.000000   0.000000  -0.000000   0.000000
  116  TI 6 YZ    0.000000   0.000000   0.000000  -0.000000   0.000000
  117  TI 6 XX    0.000019  -0.002513  -0.000171  -0.023281   0.000293
  118  TI 6 YY    0.000015  -0.002514  -0.000181  -0.023348   0.000378
  119  TI 6 ZZ    0.000013  -0.002513  -0.000178  -0.023642   0.000372
  120  TI 6 XY    0.000000  -0.000000  -0.000005   0.000011   0.000014
  121  TI 6 XZ    0.000000   0.000000   0.000000  -0.000000   0.000000
  122  TI 6 YZ    0.000000   0.000000   0.000000  -0.000000   0.000000
  123  TI 6 XX    0.000070  -0.000116  -0.001482   0.002340   0.000232
  124  TI 6 YY    0.000029  -0.000061  -0.000600   0.001350   0.000140
  125  TI 6 ZZ    0.000025  -0.000044  -0.000475   0.001226   0.000335
  126  TI 6 XY    0.000000  -0.000003   0.000009   0.000035  -0.000080
  127  TI 6 XZ    0.000000   0.000000   0.000000  -0.000000   0.000000
  128  TI 6 YZ    0.000000   0.000000   0.000000  -0.000000   0.000000
  129  H  7  S   -0.000001   0.000004   0.000007  -0.000081  -0.000004
  130  H  7  S    0.000003  -0.000004  -0.000031   0.000145   0.000009
  131  H  7  S    0.000000  -0.000012  -0.000051   0.000087  -0.000157
  132  H  7  X    0.000001  -0.000001  -0.000007   0.000043  -0.000006
  133  H  7  Y   -0.000000   0.000000   0.000000  -0.000002   0.000001
  134  H  7  Z    0.000000   0.000001  -0.000004  -0.000037   0.000002
  135  H  8  S   -0.000001   0.000004   0.000007  -0.000081  -0.000004
  136  H  8  S    0.000003  -0.000004  -0.000031   0.000145   0.000009
  137  H  8  S    0.000000  -0.000012  -0.000051   0.000087  -0.000157
  138  H  8  X    0.000001  -0.000001  -0.000007   0.000043  -0.000006
  139  H  8  Y   -0.000000   0.000000   0.000000  -0.000002   0.000001
  140  H  8  Z   -0.000000  -0.000001   0.000004   0.000037  -0.000002

                      6          7          8          9         10
                  -17.9315   -17.9312   -17.9137   -17.9039   -17.9026
                     A'         A''        A''        A'         A'  
    1  H  1  S   -0.000011   0.000000   0.000000   0.000006  -0.000001
    2  H  1  S   -0.000008   0.000000   0.000000  -0.000027   0.000004
    3  H  1  S   -0.000046   0.000000   0.000000  -0.000703   0.000212
    4  H  1  X   -0.000030   0.000000   0.000000   0.000011  -0.000003
    5  H  1  Y   -0.000004   0.000000   0.000000   0.000006  -0.000003
    6  H  1  Z    0.000000   0.000001  -0.000001  -0.000000   0.000000
    7  TI 2  S    0.000010   0.000000   0.000000  -0.000000   0.000000
    8  TI 2  S    0.000020   0.000000   0.000000   0.000000  -0.000000
    9  TI 2  S    0.000040   0.000000   0.000000  -0.000002   0.000002
   10  TI 2  S    0.000028   0.000000   0.000000  -0.000006   0.000005
   11  TI 2  S   -0.000097   0.000000   0.000000  -0.000019   0.000016
   12  TI 2  S   -0.000077   0.000000   0.000000  -0.000029   0.000024
   13  TI 2  S   -0.000111   0.000000   0.000000   0.000129  -0.000105
   14  TI 2  S    0.000222   0.000000   0.000000   0.000057  -0.000009
   15  TI 2  S   -0.000309   0.000000   0.000000   0.000460  -0.000444
   16  TI 2  S   -0.000042   0.000000   0.000000   0.001309  -0.000331
   17  TI 2  X   -0.127086   0.000000   0.000000   0.000018  -0.000005
   18  TI 2  Y    0.288005   0.000000   0.000000  -0.000013  -0.000022
   19  TI 2  Z    0.000000   0.314795  -0.000048  -0.000000   0.000000
   20  TI 2  X   -0.172182   0.000000   0.000000   0.000022  -0.000004
   21  TI 2  Y    0.390192   0.000000   0.000000  -0.000017  -0.000029
   22  TI 2  Z    0.000000   0.426489  -0.000065  -0.000000   0.000000
   23  TI 2  X   -0.144088   0.000000   0.000000   0.000026  -0.000010
   24  TI 2  Y    0.326616   0.000000   0.000000  -0.000015  -0.000027
   25  TI 2  Z    0.000000   0.356985  -0.000052  -0.000000   0.000000
   26  TI 2  X   -0.029659   0.000000   0.000000  -0.000013   0.000011
   27  TI 2  Y    0.067304   0.000000   0.000000  -0.000002  -0.000001
   28  TI 2  Z    0.000000   0.073552  -0.000016  -0.000000   0.000000
   29  TI 2  X    0.001849   0.000000   0.000000   0.000043  -0.000029
   30  TI 2  Y   -0.004043   0.000000   0.000000  -0.000001  -0.000009
   31  TI 2  Z    0.000000  -0.004415   0.000010  -0.000000   0.000000
   32  TI 2  X   -0.001246   0.000000   0.000000  -0.000045   0.000048
   33  TI 2  Y    0.002610   0.000000   0.000000  -0.000006   0.000001
   34  TI 2  Z    0.000000   0.002857  -0.000026  -0.000000   0.000000
   35  TI 2  X    0.000606   0.000000   0.000000  -0.000067  -0.000032
   36  TI 2  Y   -0.001182   0.000000   0.000000   0.000029   0.000034
   37  TI 2  Z    0.000000  -0.001281   0.000063  -0.000000   0.000000
   38  TI 2  X   -0.000726   0.000000   0.000000  -0.000993   0.000194
   39  TI 2  Y    0.000329   0.000000   0.000000  -0.000182  -0.000195
   40  TI 2  Z    0.000000   0.000429  -0.000175  -0.000000   0.000000
   41  TI 2 XX    0.000090   0.000000   0.000000  -0.000202   0.000161
   42  TI 2 YY    0.000031   0.000000   0.000000  -0.000206   0.000170
   43  TI 2 ZZ    0.000038   0.000000   0.000000  -0.000208   0.000169
   44  TI 2 XY   -0.000060   0.000000   0.000000   0.000004   0.000001
   45  TI 2 XZ    0.000000  -0.000073   0.000003  -0.000000   0.000000
   46  TI 2 YZ    0.000000  -0.000005  -0.000005  -0.000000   0.000000
   47  TI 2 XX    0.000137   0.000000   0.000000  -0.000071   0.000143
   48  TI 2 YY    0.000223   0.000000   0.000000  -0.000170   0.000157
   49  TI 2 ZZ    0.000205   0.000000   0.000000  -0.000165   0.000152
   50  TI 2 XY    0.000018   0.000000   0.000000  -0.000026  -0.000027
   51  TI 2 XZ    0.000000   0.000024  -0.000029  -0.000000   0.000000
   52  TI 2 YZ    0.000000  -0.000012   0.000001  -0.000000   0.000000
   53  TI 2 XX    0.000472   0.000000   0.000000   0.001401  -0.000347
   54  TI 2 YY    0.000104   0.000000   0.000000  -0.000034   0.000011
   55  TI 2 ZZ    0.000172   0.000000   0.000000   0.000027   0.000055
   56  TI 2 XY    0.000015   0.000000   0.000000   0.000218   0.000078
   57  TI 2 XZ    0.000000  -0.000037   0.000090  -0.000000   0.000000
   58  TI 2 YZ    0.000000   0.000025   0.000015  -0.000000   0.000000
   59  H  3  S    0.000054   0.000000   0.000000   0.000049   0.000025
   60  H  3  S   -0.000004   0.000000   0.000000   0.000010  -0.000039
   61  H  3  S    0.000203   0.000000   0.000000   0.000254   0.000245
   62  H  3  X   -0.000035   0.000000   0.000000  -0.000012   0.000001
   63  H  3  Y    0.000039   0.000000   0.000000   0.000003   0.000019
   64  H  3  Z    0.000000   0.000014   0.000011  -0.000000   0.000000
   65  H  4  S   -0.000004  -0.000031  -0.000013   0.000014  -0.000030
   66  H  4  S    0.000006  -0.000009  -0.000040   0.000066  -0.000014
   67  H  4  S   -0.000195  -0.000085  -0.000025  -0.000236  -0.000006
   68  H  4  X   -0.000005   0.000021   0.000014  -0.000021   0.000009
   69  H  4  Y    0.000008   0.000015  -0.000005   0.000012   0.000006
   70  H  4  Z    0.000000   0.000025   0.000005   0.000008  -0.000004
   71  H  5  S   -0.000004   0.000031   0.000013   0.000014  -0.000030
   72  H  5  S    0.000006   0.000009   0.000040   0.000066  -0.000014
   73  H  5  S   -0.000195   0.000085   0.000025  -0.000236  -0.000006
   74  H  5  X   -0.000005  -0.000021  -0.000014  -0.000021   0.000009
   75  H  5  Y    0.000008  -0.000015   0.000005   0.000012   0.000006
   76  H  5  Z   -0.000000   0.000025   0.000005  -0.000008   0.000004
   77  TI 6  S   -0.000000   0.000000   0.000000   0.000007  -0.000007
   78  TI 6  S    0.000001   0.000000   0.000000   0.000015  -0.000015
   79  TI 6  S   -0.000003   0.000000   0.000000   0.000028  -0.000028
   80  TI 6  S   -0.000008   0.000000   0.000000   0.000023  -0.000022
   81  TI 6  S   -0.000026   0.000000   0.000000  -0.000091   0.000080
   82  TI 6  S   -0.000041   0.000000   0.000000  -0.000086   0.000072
   83  TI 6  S    0.000175   0.000000   0.000000   0.000080  -0.000025
   84  TI 6  S   -0.000000   0.000000   0.000000  -0.000098   0.000084
   85  TI 6  S    0.000709   0.000000   0.000000   0.000274  -0.000052
   86  TI 6  S    0.000006   0.000000   0.000000  -0.001672   0.000557
   87  TI 6  X    0.000011   0.000000   0.000000   0.294583  -0.111047
   88  TI 6  Y    0.000024   0.000000   0.000000   0.111026   0.294544
   89  TI 6  Z    0.000000   0.000048   0.314767  -0.000000   0.000000
   90  TI 6  X    0.000017   0.000000   0.000000   0.399126  -0.150456
   91  TI 6  Y    0.000033   0.000000   0.000000   0.150421   0.399058
   92  TI 6  Z    0.000000   0.000065   0.426450  -0.000000   0.000000
   93  TI 6  X    0.000006   0.000000   0.000000   0.334003  -0.125897
   94  TI 6  Y    0.000027   0.000000   0.000000   0.125944   0.334089
   95  TI 6  Z    0.000000   0.000056   0.357273  -0.000000   0.000000
   96  TI 6  X    0.000019   0.000000   0.000000   0.068856  -0.025943
   97  TI 6  Y    0.000005   0.000000   0.000000   0.025942   0.068800
   98  TI 6  Z    0.000000   0.000006   0.073397  -0.000000   0.000000
   99  TI 6  X   -0.000036   0.000000   0.000000  -0.004385   0.001633
  100  TI 6  Y   -0.000001   0.000000   0.000000  -0.001563  -0.004118
  101  TI 6  Z    0.000000   0.000007  -0.004804  -0.000000   0.000000
  102  TI 6  X    0.000061   0.000000   0.000000   0.003043  -0.001132
  103  TI 6  Y   -0.000013   0.000000   0.000000   0.000999   0.002673
  104  TI 6  Z    0.000000  -0.000028   0.002952  -0.000000   0.000000
  105  TI 6  X   -0.000022   0.000000   0.000000  -0.001805   0.000654
  106  TI 6  Y    0.000052   0.000000   0.000000  -0.000452  -0.001192
  107  TI 6  Z    0.000000   0.000072  -0.001373  -0.000000   0.000000
  108  TI 6  X   -0.000461   0.000000   0.000000  -0.000663  -0.000161
  109  TI 6  Y   -0.000195   0.000000   0.000000   0.000139   0.000400
  110  TI 6  Z    0.000000  -0.000265   0.000475  -0.000000   0.000000
  111  TI 6 XX   -0.000284   0.000000   0.000000   0.000091  -0.000075
  112  TI 6 YY   -0.000272   0.000000   0.000000  -0.000005  -0.000058
  113  TI 6 ZZ   -0.000287   0.000000   0.000000   0.000020  -0.000051
  114  TI 6 XY   -0.000006   0.000000   0.000000   0.000005   0.000027
  115  TI 6 XZ    0.000000  -0.000003   0.000003  -0.000000   0.000000
  116  TI 6 YZ    0.000000  -0.000001  -0.000008  -0.000000   0.000000
  117  TI 6 XX   -0.000270   0.000000   0.000000  -0.000033  -0.000021
  118  TI 6 YY   -0.000279   0.000000   0.000000   0.000096  -0.000061
  119  TI 6 ZZ   -0.000288   0.000000   0.000000   0.000083  -0.000065
  120  TI 6 XY    0.000033   0.000000   0.000000   0.000001  -0.000015
  121  TI 6 XZ    0.000000   0.000034  -0.000049  -0.000000   0.000000
  122  TI 6 YZ    0.000000  -0.000002   0.000007  -0.000000   0.000000
  123  TI 6 XX   -0.000262   0.000000   0.000000  -0.000561   0.000005
  124  TI 6 YY   -0.000181   0.000000   0.000000  -0.000084  -0.000069
  125  TI 6 ZZ   -0.000042   0.000000   0.000000   0.000112   0.000044
  126  TI 6 XY   -0.000114   0.000000   0.000000   0.000001   0.000027
  127  TI 6 XZ    0.000000  -0.000012   0.000114  -0.000000   0.000000
  128  TI 6 YZ    0.000000   0.000021   0.000008  -0.000000   0.000000
  129  H  7  S    0.000003   0.000003   0.000006  -0.000005   0.000003
  130  H  7  S   -0.000003  -0.000015   0.000110  -0.000089   0.000033
  131  H  7  S   -0.000072   0.000112  -0.000017  -0.000059  -0.000098
  132  H  7  X   -0.000001   0.000001  -0.000039   0.000012  -0.000009
  133  H  7  Y    0.000000  -0.000002  -0.000000  -0.000000  -0.000003
  134  H  7  Z   -0.000001  -0.000003   0.000049  -0.000017   0.000010
  135  H  8  S    0.000003  -0.000003  -0.000006  -0.000005   0.000003
  136  H  8  S   -0.000003   0.000015  -0.000110  -0.000089   0.000033
  137  H  8  S   -0.000072  -0.000112   0.000017  -0.000059  -0.000098
  138  H  8  X   -0.000001  -0.000001   0.000039   0.000012  -0.000009
  139  H  8  Y    0.000000   0.000002   0.000000  -0.000000  -0.000003
  140  H  8  Z    0.000001  -0.000003   0.000049   0.000017  -0.000010

                     11         12         13         14         15
                   -2.9904    -2.9596    -1.9125    -1.9067    -1.9066
                     A'         A'         A'         A''        A'  
    1  H  1  S    0.001490  -0.000039   0.006085   0.000000  -0.003265
    2  H  1  S    0.001893  -0.000134   0.008656   0.000000  -0.003823
    3  H  1  S   -0.000976   0.000530  -0.002610   0.000000  -0.001095
    4  H  1  X   -0.000837   0.000061  -0.001547   0.000000   0.000598
    5  H  1  Y   -0.000062   0.000009   0.000020   0.000000   0.000370
    6  H  1  Z    0.000000   0.000000   0.000000   0.000433  -0.000000
    7  TI 2  S    0.018631  -0.000445   0.000013   0.000000   0.000008
    8  TI 2  S    0.040848  -0.000974   0.000028   0.000000   0.000018
    9  TI 2  S    0.076974  -0.001839   0.000053   0.000000   0.000036
   10  TI 2  S    0.060894  -0.001457   0.000048   0.000000   0.000035
   11  TI 2  S   -0.287068   0.006833  -0.000195   0.000000  -0.000117
   12  TI 2  S   -0.492090   0.011746  -0.000139   0.000000  -0.000324
   13  TI 2  S    0.667743  -0.016041  -0.001108   0.000000   0.001266
   14  TI 2  S    0.852339  -0.018682  -0.000603   0.000000   0.003669
   15  TI 2  S   -0.233890   0.003360   0.003059   0.000000  -0.008777
   16  TI 2  S    0.000107  -0.000542   0.004753   0.000000   0.003459
   17  TI 2  X   -0.000002   0.000093  -0.092749   0.000000   0.064276
   18  TI 2  Y    0.000058  -0.000001  -0.065683   0.000000  -0.094052
   19  TI 2  Z    0.000000   0.000000   0.000000  -0.114710  -0.000000
   20  TI 2  X   -0.000065   0.000132  -0.140464   0.000000   0.097399
   21  TI 2  Y    0.000087  -0.000003  -0.099576   0.000000  -0.142648
   22  TI 2  Z    0.000000   0.000000   0.000000  -0.173966  -0.000000
   23  TI 2  X    0.000250   0.000114  -0.099693   0.000000   0.068780
   24  TI 2  Y    0.000065  -0.000000  -0.070298   0.000000  -0.100268
   25  TI 2  Z    0.000000   0.000000   0.000000  -0.122344  -0.000000
   26  TI 2  X   -0.000915  -0.000226   0.230656   0.000000  -0.159184
   27  TI 2  Y   -0.000108  -0.000002   0.162028   0.000000   0.231208
   28  TI 2  Z    0.000000   0.000000   0.000000   0.282205  -0.000000
   29  TI 2  X    0.000738  -0.000361   0.479069   0.000000  -0.331511
   30  TI 2  Y   -0.000251   0.000020   0.340970   0.000000   0.487126
   31  TI 2  Z    0.000000   0.000000   0.000000   0.593971  -0.000000
   32  TI 2  X    0.001075  -0.000079   0.216640   0.000000  -0.150736
   33  TI 2  Y   -0.000473  -0.000048   0.154481   0.000000   0.223569
   34  TI 2  Z    0.000000   0.000000   0.000000   0.272440  -0.000000
   35  TI 2  X   -0.000134  -0.001076   0.006044   0.000000  -0.006740
   36  TI 2  Y    0.000302   0.000122   0.001691   0.000000   0.003622
   37  TI 2  Z    0.000000   0.000000   0.000000   0.004548  -0.000000
   38  TI 2  X   -0.001641   0.001041   0.006324   0.000000  -0.010012
   39  TI 2  Y   -0.000430  -0.000325   0.001830   0.000000   0.002618
   40  TI 2  Z    0.000000   0.000000   0.000000   0.003622  -0.000000
   41  TI 2 XX   -0.056170   0.001225  -0.007582   0.000000   0.004070
   42  TI 2 YY   -0.054352   0.001082   0.002368   0.000000  -0.003983
   43  TI 2 ZZ   -0.056411   0.001139   0.005539   0.000000   0.000446
   44  TI 2 XY    0.003443  -0.000077   0.002383   0.000000   0.007253
   45  TI 2 XZ    0.000000   0.000000   0.000000   0.007796  -0.000000
   46  TI 2 YZ    0.000000   0.000000   0.000000   0.003837  -0.000000
   47  TI 2 XX    0.054234   0.000058  -0.001823   0.000000   0.003402
   48  TI 2 YY    0.056354  -0.000733  -0.003615   0.000000   0.004099
   49  TI 2 ZZ    0.056529  -0.000755  -0.003841   0.000000   0.003596
   50  TI 2 XY   -0.000959  -0.000087   0.000162   0.000000  -0.000484
   51  TI 2 XZ    0.000000   0.000000   0.000000  -0.000477  -0.000000
   52  TI 2 YZ    0.000000   0.000000   0.000000  -0.000717  -0.000000
   53  TI 2 XX    0.002469  -0.001184  -0.000407   0.000000   0.006937
   54  TI 2 YY    0.000587  -0.000059  -0.001975   0.000000   0.001637
   55  TI 2 ZZ    0.000619  -0.000073  -0.001888   0.000000   0.001766
   56  TI 2 XY    0.000484   0.000067   0.000525   0.000000  -0.000381
   57  TI 2 XZ    0.000000   0.000000   0.000000  -0.000576  -0.000000
   58  TI 2 YZ    0.000000   0.000000   0.000000  -0.000018  -0.000000
   59  H  3  S    0.001204   0.000744  -0.001566   0.000000   0.006782
   60  H  3  S    0.000961   0.000319  -0.001491   0.000000   0.008349
   61  H  3  S    0.000440   0.000940   0.000659   0.000000  -0.000088
   62  H  3  X    0.000388  -0.000221   0.000001   0.000000   0.000554
   63  H  3  Y   -0.000405  -0.000200   0.000337   0.000000  -0.001076
   64  H  3  Z    0.000000   0.000000   0.000000   0.000580  -0.000000
   65  H  4  S    0.001314   0.000435  -0.005458  -0.004127   0.000720
   66  H  4  S    0.001686   0.000812  -0.008981  -0.006633   0.000099
   67  H  4  S   -0.000560  -0.000246   0.000046   0.000496  -0.002209
   68  H  4  X    0.000537  -0.000256  -0.000775  -0.000621  -0.000249
   69  H  4  Y    0.000296   0.000136  -0.000596  -0.000536   0.000316
   70  H  4  Z    0.000515   0.000157  -0.001214  -0.000612  -0.000017
   71  H  5  S    0.001314   0.000435  -0.005458   0.004127   0.000720
   72  H  5  S    0.001686   0.000812  -0.008981   0.006633   0.000099
   73  H  5  S   -0.000560  -0.000246   0.000046  -0.000496  -0.002209
   74  H  5  X    0.000537  -0.000256  -0.000775   0.000621  -0.000249
   75  H  5  Y    0.000296   0.000136  -0.000596   0.000536   0.000316
   76  H  5  Z   -0.000515  -0.000157   0.001214  -0.000612   0.000017
   77  TI 6  S    0.000422   0.018646   0.000091   0.000000  -0.000067
   78  TI 6  S    0.000925   0.040883   0.000201   0.000000  -0.000144
   79  TI 6  S    0.001744   0.077041   0.000374   0.000000  -0.000282
   80  TI 6  S    0.001383   0.060963   0.000297   0.000000  -0.000251
   81  TI 6  S   -0.006500  -0.287330  -0.001474   0.000000   0.000973
   82  TI 6  S   -0.011110  -0.492552  -0.002544   0.000000   0.001672
   83  TI 6  S    0.014883   0.669108   0.004003   0.000000  -0.002069
   84  TI 6  S    0.021064   0.853100   0.005407   0.000000  -0.005866
   85  TI 6  S   -0.008648  -0.237776  -0.002096   0.000000   0.006868
   86  TI 6  S   -0.001162   0.000363   0.000642   0.000000  -0.001846
   87  TI 6  X   -0.000099  -0.000370   0.014460   0.000000  -0.012433
   88  TI 6  Y    0.000002   0.000091  -0.001443   0.000000  -0.003396
   89  TI 6  Z    0.000000   0.000000   0.000000  -0.003749  -0.000000
   90  TI 6  X   -0.000146  -0.000585   0.021894   0.000000  -0.018825
   91  TI 6  Y    0.000004   0.000145  -0.002185   0.000000  -0.005142
   92  TI 6  Z    0.000000   0.000000   0.000000  -0.005676  -0.000000
   93  TI 6  X   -0.000114  -0.000310   0.015521   0.000000  -0.013345
   94  TI 6  Y   -0.000000   0.000079  -0.001544   0.000000  -0.003644
   95  TI 6  Z    0.000000   0.000000   0.000000  -0.004030  -0.000000
   96  TI 6  X    0.000217   0.000226  -0.035807   0.000000   0.030809
   97  TI 6  Y    0.000004  -0.000072   0.003547   0.000000   0.008367
   98  TI 6  Z    0.000000   0.000000   0.000000   0.009282  -0.000000
   99  TI 6  X    0.000524   0.002351  -0.073912   0.000000   0.063561
  100  TI 6  Y   -0.000027  -0.000554   0.007341   0.000000   0.017387
  101  TI 6  Z    0.000000   0.000000   0.000000   0.019259  -0.000000
  102  TI 6  X   -0.000221   0.001880  -0.034467   0.000000   0.030050
  103  TI 6  Y    0.000002  -0.000612   0.003488   0.000000   0.008115
  104  TI 6  Z    0.000000   0.000000   0.000000   0.008734  -0.000000
  105  TI 6  X    0.001383   0.001295  -0.004237   0.000000   0.001083
  106  TI 6  Y   -0.000024   0.000137   0.000632   0.000000   0.001100
  107  TI 6  Z    0.000000   0.000000   0.000000   0.001110  -0.000000
  108  TI 6  X   -0.002404  -0.000457   0.002724   0.000000  -0.005849
  109  TI 6  Y    0.000064  -0.000255  -0.000375   0.000000  -0.001259
  110  TI 6  Z    0.000000   0.000000   0.000000  -0.001138  -0.000000
  111  TI 6 XX   -0.001344  -0.054769  -0.001118   0.000000  -0.000368
  112  TI 6 YY   -0.001108  -0.058810   0.000502   0.000000  -0.001343
  113  TI 6 ZZ   -0.001148  -0.052571  -0.000967   0.000000  -0.000552
  114  TI 6 XY    0.000003   0.001238   0.000387   0.000000   0.000284
  115  TI 6 XZ    0.000000   0.000000   0.000000   0.000999  -0.000000
  116  TI 6 YZ    0.000000   0.000000   0.000000  -0.000199  -0.000000
  117  TI 6 XX    0.002884   0.057216  -0.002846   0.000000  -0.000834
  118  TI 6 YY    0.002142   0.057064   0.000580   0.000000  -0.002342
  119  TI 6 ZZ    0.001821   0.054523   0.001130   0.000000  -0.002953
  120  TI 6 XY   -0.000011   0.000181   0.000601   0.000000   0.001009
  121  TI 6 XZ    0.000000   0.000000   0.000000   0.001306  -0.000000
  122  TI 6 YZ    0.000000   0.000000   0.000000  -0.000094  -0.000000
  123  TI 6 XX   -0.001179   0.000689   0.002268   0.000000  -0.003710
  124  TI 6 YY   -0.000321  -0.000093   0.000401   0.000000  -0.001520
  125  TI 6 ZZ   -0.000035   0.001437   0.001370   0.000000  -0.000671
  126  TI 6 XY    0.000046  -0.000127  -0.000222   0.000000  -0.000837
  127  TI 6 XZ    0.000000   0.000000   0.000000   0.000138  -0.000000
  128  TI 6 YZ    0.000000   0.000000   0.000000   0.000043  -0.000000
  129  H  7  S    0.000006   0.001572   0.000543   0.000174  -0.000426
  130  H  7  S    0.000209   0.002364   0.000676   0.000481  -0.000698
  131  H  7  S   -0.000312  -0.001306  -0.000595   0.000483  -0.000592
  132  H  7  X    0.000031   0.000573  -0.000007   0.000052  -0.000036
  133  H  7  Y   -0.000002  -0.000026   0.000006  -0.000013   0.000014
  134  H  7  Z   -0.000032  -0.000855  -0.000155  -0.000135   0.000139
  135  H  8  S    0.000006   0.001572   0.000543  -0.000174  -0.000426
  136  H  8  S    0.000209   0.002364   0.000676  -0.000481  -0.000698
  137  H  8  S   -0.000312  -0.001306  -0.000595  -0.000483  -0.000592
  138  H  8  X    0.000031   0.000573  -0.000007  -0.000052  -0.000036
  139  H  8  Y   -0.000002  -0.000026   0.000006   0.000013   0.000014
  140  H  8  Z    0.000032   0.000855   0.000155  -0.000135  -0.000139

                     16         17         18         19         20
                   -1.8778    -1.8758    -1.8740    -0.5644    -0.4565
                     A''        A'         A'         A'         A'  
    1  H  1  S    0.000000   0.001166  -0.000614  -0.035194  -0.019443
    2  H  1  S    0.000000   0.000976  -0.000531  -0.074919  -0.033469
    3  H  1  S    0.000000  -0.002778   0.001113  -0.012474   0.003122
    4  H  1  X    0.000000  -0.000088   0.000079   0.004477   0.001006
    5  H  1  Y    0.000000   0.000023  -0.000015   0.000602   0.000325
    6  H  1  Z    0.000006  -0.000000  -0.000000   0.000000   0.000000
    7  TI 2  S    0.000000  -0.000090   0.000049   0.003096   0.000042
    8  TI 2  S    0.000000  -0.000202   0.000106   0.006852   0.000102
    9  TI 2  S    0.000000  -0.000360   0.000202   0.012716   0.000147
   10  TI 2  S    0.000000  -0.000257   0.000170   0.010024   0.000039
   11  TI 2  S    0.000000   0.001588  -0.000754  -0.051682  -0.001049
   12  TI 2  S    0.000000   0.002762  -0.001298  -0.091755  -0.001843
   13  TI 2  S    0.000000  -0.004955   0.001782   0.158922   0.004953
   14  TI 2  S    0.000000  -0.006341   0.005267   0.255394  -0.002061
   15  TI 2  S    0.000000   0.000282  -0.005449  -0.079556   0.014528
   16  TI 2  S    0.000000   0.009940  -0.005114  -0.219236  -0.063353
   17  TI 2  X    0.000000  -0.018076   0.008932   0.013217  -0.003407
   18  TI 2  Y    0.000000   0.003572   0.002501   0.000886   0.014195
   19  TI 2  Z    0.004007  -0.000000  -0.000000   0.000000   0.000000
   20  TI 2  X    0.000000  -0.027404   0.013546   0.020343  -0.005302
   21  TI 2  Y    0.000000   0.005426   0.003806   0.001355   0.022062
   22  TI 2  Z    0.006074  -0.000000  -0.000000   0.000000   0.000000
   23  TI 2  X    0.000000  -0.019341   0.009552   0.013618  -0.003340
   24  TI 2  Y    0.000000   0.003771   0.002645   0.000950   0.014020
   25  TI 2  Z    0.004285  -0.000000  -0.000000   0.000000   0.000000
   26  TI 2  X    0.000000   0.044889  -0.022160  -0.036284   0.009087
   27  TI 2  Y    0.000000  -0.008730  -0.006112  -0.002534  -0.037898
   28  TI 2  Z   -0.009938  -0.000000  -0.000000   0.000000   0.000000
   29  TI 2  X    0.000000   0.094213  -0.046746  -0.083632   0.022803
   30  TI 2  Y    0.000000  -0.018493  -0.013426  -0.005765  -0.095660
   31  TI 2  Z   -0.020763  -0.000000  -0.000000   0.000000   0.000000
   32  TI 2  X    0.000000   0.041851  -0.020209  -0.035610   0.007557
   33  TI 2  Y    0.000000  -0.008803  -0.005401  -0.002810  -0.029495
   34  TI 2  Z   -0.009784  -0.000000  -0.000000   0.000000   0.000000
   35  TI 2  X    0.000000  -0.002529   0.000178   0.087262  -0.028068
   36  TI 2  Y    0.000000   0.000649   0.000567   0.009606   0.098360
   37  TI 2  Z    0.001163  -0.000000  -0.000000   0.000000   0.000000
   38  TI 2  X    0.000000  -0.007450   0.003440   0.049910   0.056512
   39  TI 2  Y    0.000000  -0.001242  -0.001275   0.005451   0.039590
   40  TI 2  Z   -0.000869  -0.000000  -0.000000   0.000000   0.000000
   41  TI 2 XX    0.000000   0.001410   0.000265  -0.085822  -0.015315
   42  TI 2 YY    0.000000   0.002223   0.000259   0.008571   0.053191
   43  TI 2 ZZ    0.000000   0.001849  -0.000200   0.008848  -0.049153
   44  TI 2 XY    0.000000  -0.000961  -0.000596  -0.015146  -0.166854
   45  TI 2 XZ   -0.000911  -0.000000  -0.000000   0.000000   0.000000
   46  TI 2 YZ   -0.000519  -0.000000  -0.000000   0.000000   0.000000
   47  TI 2 XX    0.000000   0.003824   0.000514  -0.078619  -0.016790
   48  TI 2 YY    0.000000   0.000084   0.001994   0.006086   0.039055
   49  TI 2 ZZ    0.000000  -0.000052   0.001753   0.008157  -0.045566
   50  TI 2 XY    0.000000  -0.000674  -0.000886  -0.016438  -0.139525
   51  TI 2 XZ   -0.001053  -0.000000  -0.000000   0.000000   0.000000
   52  TI 2 YZ    0.000005  -0.000000  -0.000000   0.000000   0.000000
   53  TI 2 XX    0.000000   0.008311  -0.003460  -0.065998  -0.076962
   54  TI 2 YY    0.000000   0.000460  -0.000032  -0.003715  -0.000760
   55  TI 2 ZZ    0.000000   0.000818   0.000052  -0.003453  -0.014242
   56  TI 2 XY    0.000000   0.001077   0.000679  -0.010024  -0.042609
   57  TI 2 XZ    0.000305  -0.000000  -0.000000   0.000000   0.000000
   58  TI 2 YZ   -0.000135  -0.000000  -0.000000   0.000000   0.000000
   59  H  3  S    0.000000   0.003675   0.001296  -0.088096   0.153033
   60  H  3  S    0.000000   0.004081   0.001847  -0.173507   0.349869
   61  H  3  S    0.000000   0.003046   0.001907  -0.094441   0.237691
   62  H  3  X    0.000000  -0.000602  -0.000253  -0.000368   0.001419
   63  H  3  Y    0.000000  -0.000524  -0.000071   0.008777  -0.014456
   64  H  3  Z    0.000259  -0.000000  -0.000000   0.000000   0.000000
   65  H  4  S   -0.001444   0.001121  -0.002269  -0.093594  -0.064139
   66  H  4  S   -0.004026   0.001776  -0.002372  -0.177970  -0.147325
   67  H  4  S    0.001224   0.000182   0.001434  -0.087560  -0.084138
   68  H  4  X    0.000604  -0.000392   0.000329  -0.001203  -0.000983
   69  H  4  Y   -0.000449   0.000258  -0.000055  -0.004546  -0.001350
   70  H  4  Z   -0.000386   0.000137  -0.000312  -0.007749  -0.006647
   71  H  5  S    0.001444   0.001121  -0.002269  -0.093594  -0.064139
   72  H  5  S    0.004026   0.001776  -0.002372  -0.177970  -0.147325
   73  H  5  S   -0.001224   0.000182   0.001434  -0.087560  -0.084138
   74  H  5  X   -0.000604  -0.000392   0.000329  -0.001203  -0.000983
   75  H  5  Y    0.000449   0.000258  -0.000055  -0.004546  -0.001350
   76  H  5  Z   -0.000386  -0.000137   0.000312   0.007749   0.006647
   77  TI 6  S    0.000000  -0.000070   0.000067   0.002415  -0.000031
   78  TI 6  S    0.000000  -0.000154   0.000149   0.005318  -0.000073
   79  TI 6  S    0.000000  -0.000292   0.000275   0.010006  -0.000116
   80  TI 6  S    0.000000  -0.000234   0.000209   0.008105  -0.000055
   81  TI 6  S    0.000000   0.001109  -0.001122  -0.039212   0.000667
   82  TI 6  S    0.000000   0.002062  -0.002046  -0.069761   0.001152
   83  TI 6  S    0.000000  -0.004787   0.004708   0.116147  -0.002477
   84  TI 6  S    0.000000   0.004867  -0.001817   0.194180  -0.001736
   85  TI 6  S    0.000000  -0.007372   0.004586  -0.090659   0.000531
   86  TI 6  S    0.000000  -0.009902   0.003150  -0.071606   0.050156
   87  TI 6  X    0.000000  -0.099528   0.054034  -0.011650   0.003350
   88  TI 6  Y    0.000000  -0.054588  -0.100928   0.000146   0.010574
   89  TI 6  Z   -0.114813  -0.000000  -0.000000   0.000000   0.000000
   90  TI 6  X    0.000000  -0.150883   0.081927  -0.018099   0.005165
   91  TI 6  Y    0.000000  -0.082797  -0.153084   0.000204   0.016449
   92  TI 6  Z   -0.173987  -0.000000  -0.000000   0.000000   0.000000
   93  TI 6  X    0.000000  -0.106380   0.057701  -0.011505   0.003429
   94  TI 6  Y    0.000000  -0.058215  -0.107591   0.000207   0.010400
   95  TI 6  Z   -0.123121  -0.000000  -0.000000   0.000000   0.000000
   96  TI 6  X    0.000000   0.246089  -0.133515   0.030392  -0.009355
   97  TI 6  Y    0.000000   0.134169   0.248074  -0.000562  -0.027818
   98  TI 6  Z    0.284646  -0.000000  -0.000000   0.000000   0.000000
   99  TI 6  X    0.000000   0.514715  -0.279490   0.076159  -0.021438
  100  TI 6  Y    0.000000   0.283091   0.523001  -0.000204  -0.070530
  101  TI 6  Z    0.594999  -0.000000  -0.000000   0.000000   0.000000
  102  TI 6  X    0.000000   0.234066  -0.126652   0.024864  -0.010794
  103  TI 6  Y    0.000000   0.129112   0.239178  -0.002456  -0.023125
  104  TI 6  Z    0.267256  -0.000000  -0.000000   0.000000   0.000000
  105  TI 6  X    0.000000   0.003250  -0.002288  -0.057332   0.034673
  106  TI 6  Y    0.000000   0.002797   0.005273   0.004471   0.072634
  107  TI 6  Z    0.003812  -0.000000  -0.000000   0.000000   0.000000
  108  TI 6  X    0.000000  -0.010276  -0.000838   0.028118   0.055645
  109  TI 6  Y    0.000000   0.001585   0.003919  -0.000455   0.004668
  110  TI 6  Z    0.005082  -0.000000  -0.000000   0.000000   0.000000
  111  TI 6 XX    0.000000  -0.001032   0.000179  -0.048308   0.013689
  112  TI 6 YY    0.000000  -0.005259   0.000557   0.021061   0.036818
  113  TI 6 ZZ    0.000000   0.006656  -0.002802   0.005564  -0.045016
  114  TI 6 XY    0.000000  -0.001548  -0.000910   0.000360   0.094082
  115  TI 6 XZ    0.012884  -0.000000  -0.000000   0.000000   0.000000
  116  TI 6 YZ    0.000237  -0.000000  -0.000000   0.000000   0.000000
  117  TI 6 XX    0.000000   0.006864  -0.003690  -0.038576   0.013339
  118  TI 6 YY    0.000000   0.001712  -0.001637   0.014266   0.032251
  119  TI 6 ZZ    0.000000   0.000782  -0.000679   0.003592  -0.039056
  120  TI 6 XY    0.000000   0.001065   0.001945   0.002764   0.092123
  121  TI 6 XZ   -0.000433  -0.000000  -0.000000   0.000000   0.000000
  122  TI 6 YZ   -0.000254  -0.000000  -0.000000   0.000000   0.000000
  123  TI 6 XX    0.000000  -0.008225   0.000308   0.010183   0.038553
  124  TI 6 YY    0.000000  -0.001278   0.000062   0.000948   0.009753
  125  TI 6 ZZ    0.000000   0.000249  -0.000017   0.004727   0.007210
  126  TI 6 XY    0.000000   0.000123   0.000918   0.001544   0.010046
  127  TI 6 XZ    0.000099  -0.000000  -0.000000   0.000000   0.000000
  128  TI 6 YZ   -0.000023  -0.000000  -0.000000   0.000000   0.000000
  129  H  7  S    0.006179  -0.003407   0.002008  -0.021914  -0.013611
  130  H  7  S    0.010278  -0.006341   0.003672  -0.045659  -0.019855
  131  H  7  S   -0.001002  -0.000601  -0.000448  -0.022810  -0.026503
  132  H  7  X    0.001105  -0.000441   0.000280  -0.001878  -0.000443
  133  H  7  Y   -0.000025   0.000182   0.000224   0.000188   0.000183
  134  H  7  Z   -0.001591   0.001258  -0.000708   0.002474   0.000204
  135  H  8  S   -0.006179  -0.003407   0.002008  -0.021914  -0.013611
  136  H  8  S   -0.010278  -0.006341   0.003672  -0.045659  -0.019855
  137  H  8  S    0.001002  -0.000601  -0.000448  -0.022810  -0.026503
  138  H  8  X   -0.001105  -0.000441   0.000280  -0.001878  -0.000443
  139  H  8  Y    0.000025   0.000182   0.000224   0.000188   0.000183
  140  H  8  Z   -0.001591  -0.001258   0.000708  -0.002474  -0.000204

                     21         22         23         24         25
                   -0.4454    -0.4341    -0.4027    -0.3957    -0.2388
                     A''        A'         A'         A''        A'  
    1  H  1  S    0.000000   0.158727  -0.063848  -0.000000   0.003588
    2  H  1  S    0.000000   0.317809  -0.124806  -0.000000   0.009275
    3  H  1  S    0.000000   0.159414  -0.047532  -0.000000  -0.008300
    4  H  1  X    0.000000  -0.015467   0.005313  -0.000000  -0.000661
    5  H  1  Y    0.000000  -0.001606   0.000476  -0.000000  -0.000179
    6  H  1  Z   -0.000233  -0.000000  -0.000000   0.000044   0.000000
    7  TI 2  S    0.000000  -0.001653  -0.000314  -0.000000   0.000106
    8  TI 2  S    0.000000  -0.003664  -0.000671  -0.000000   0.000251
    9  TI 2  S    0.000000  -0.006770  -0.001365  -0.000000   0.000381
   10  TI 2  S    0.000000  -0.005292  -0.001312  -0.000000   0.000135
   11  TI 2  S    0.000000   0.027921   0.004309  -0.000000  -0.002413
   12  TI 2  S    0.000000   0.049609   0.007581  -0.000000  -0.004336
   13  TI 2  S    0.000000  -0.088096  -0.007733  -0.000000   0.011216
   14  TI 2  S    0.000000  -0.134823  -0.054753  -0.000000  -0.002053
   15  TI 2  S    0.000000   0.036204   0.064811  -0.000000   0.030657
   16  TI 2  S    0.000000   0.180805  -0.089471  -0.000000   0.006634
   17  TI 2  X    0.000000   0.018875  -0.012612  -0.000000   0.002408
   18  TI 2  Y    0.000000   0.003220  -0.003881  -0.000000  -0.000326
   19  TI 2  Z   -0.014674  -0.000000  -0.000000   0.001619   0.000000
   20  TI 2  X    0.000000   0.029231  -0.019560  -0.000000   0.003627
   21  TI 2  Y    0.000000   0.004989  -0.006037  -0.000000  -0.000481
   22  TI 2  Z   -0.022800  -0.000000  -0.000000   0.002505   0.000000
   23  TI 2  X    0.000000   0.018981  -0.012616  -0.000000   0.002690
   24  TI 2  Y    0.000000   0.003250  -0.003841  -0.000000  -0.000382
   25  TI 2  Z   -0.014509  -0.000000  -0.000000   0.001632   0.000000
   26  TI 2  X    0.000000  -0.051511   0.034215  -0.000000  -0.007304
   27  TI 2  Y    0.000000  -0.008745   0.010384  -0.000000   0.001065
   28  TI 2  Z    0.039380  -0.000000  -0.000000  -0.004463   0.000000
   29  TI 2  X    0.000000  -0.126801   0.085668  -0.000000  -0.013610
   30  TI 2  Y    0.000000  -0.022068   0.026824  -0.000000   0.001408
   31  TI 2  Z    0.098978  -0.000000  -0.000000  -0.010634   0.000000
   32  TI 2  X    0.000000  -0.041039   0.023899  -0.000000  -0.008699
   33  TI 2  Y    0.000000  -0.006129   0.007051  -0.000000   0.003098
   34  TI 2  Z    0.030403  -0.000000  -0.000000  -0.003940   0.000000
   35  TI 2  X    0.000000   0.155839  -0.086830  -0.000000   0.029184
   36  TI 2  Y    0.000000   0.025827  -0.028537  -0.000000  -0.007001
   37  TI 2  Z   -0.105909  -0.000000  -0.000000   0.009921   0.000000
   38  TI 2  X    0.000000   0.018897   0.078111  -0.000000  -0.008487
   39  TI 2  Y    0.000000   0.010999  -0.004811  -0.000000  -0.007372
   40  TI 2  Z   -0.041311  -0.000000  -0.000000   0.020302   0.000000
   41  TI 2 XX    0.000000   0.160119  -0.056108  -0.000000  -0.020027
   42  TI 2 YY    0.000000  -0.053931   0.008108  -0.000000  -0.000421
   43  TI 2 ZZ    0.000000  -0.062507   0.024858  -0.000000  -0.002970
   44  TI 2 XY    0.000000   0.024576   0.019216  -0.000000   0.005830
   45  TI 2 XZ    0.176270  -0.000000  -0.000000  -0.019148   0.000000
   46  TI 2 YZ    0.095179  -0.000000  -0.000000  -0.012589   0.000000
   47  TI 2 XX    0.000000   0.139864  -0.070953  -0.000000  -0.027114
   48  TI 2 YY    0.000000  -0.033339  -0.010200  -0.000000  -0.003929
   49  TI 2 ZZ    0.000000  -0.041710   0.000470  -0.000000  -0.007475
   50  TI 2 XY    0.000000   0.020602   0.016330  -0.000000   0.006728
   51  TI 2 XZ    0.144579  -0.000000  -0.000000  -0.014003   0.000000
   52  TI 2 YZ    0.072320  -0.000000  -0.000000  -0.009492   0.000000
   53  TI 2 XX    0.000000   0.160372  -0.153555  -0.000000   0.022448
   54  TI 2 YY    0.000000   0.000494  -0.014330  -0.000000   0.001495
   55  TI 2 ZZ    0.000000  -0.001867  -0.013521  -0.000000   0.003864
[...]

 ANALYZING SYMMETRY OF NORMAL MODES...

 --- SYMMETRY FOR NORMAL MODES ---
 INCLUDING TRANSLATION AND ROTATION
   14*A'    10*A'' 
 EXCLUDING TRANSLATION AND ROTATION (SAYVETZ < 0.01)
    9*A'     3*A'' 

     FREQUENCIES IN CM**-1, IR INTENSITIES IN DEBYE**2/AMU-ANGSTROM**2,
     REDUCED MASSES IN AMU.

                            1           2           3           4           5
       FREQUENCY:        15.03        9.05        2.18        0.09        2.72  
        SYMMETRY:         A''         A'          A''         A'          A'  
    REDUCED MASS:      3.16524     8.00943    10.17623    12.72856    11.50248
    IR INTENSITY:      0.06717     0.03988     0.01314     0.00000     0.00356

  1   H            X  0.00000000 -0.01338625  0.00000000  0.09897618  0.00920568
                   Y -0.00000000  0.23946061  0.00000000 -0.00508902  0.03146643
                   Z -0.04907245 -0.00000000  0.21391428 -0.00000000 -0.00000000
  2   TI           X  0.00000000  0.00171764  0.00000000  0.09895462  0.00468287
                   Y -0.00000000  0.12121631  0.00000000 -0.00497896  0.06691159
                   Z -0.01713551 -0.00000000  0.13657302 -0.00000000 -0.00000000
  3   H            X  0.00000000 -0.08476164  0.00000000  0.09901013  0.03070018
                   Y  0.00000000  0.03520488  0.00000000 -0.00495726  0.09279233
                   Z  0.24708452  0.00000000  0.08292421 -0.00000000 -0.00000000
  4   H            X -0.05126951  0.05046255  0.04574962  0.09891993 -0.00995654
                   Y  0.17659322  0.03984465  0.00066971 -0.00496811  0.09132107
                   Z -0.07684791  0.00000985  0.08560411 -0.00001568 -0.00000430
  5   H            X  0.05126951  0.05046255 -0.04574962  0.09891993 -0.00995654
                   Y -0.17659322  0.03984465 -0.00066971 -0.00496811  0.09132107
                   Z -0.07684791 -0.00000985  0.08560411  0.00001568  0.00000430
  6   TI           X  0.00000000  0.00129246  0.00000000  0.09897046  0.00483944
                   Y  0.00000000 -0.06280222  0.00000000 -0.00500431  0.12220682
                   Z  0.11933883  0.00000000  0.02369201 -0.00000000 -0.00000000
  7   H            X  0.07471101 -0.00075059 -0.05946661  0.09901347  0.00538819
                   Y -0.20902274 -0.12648501  0.00299656 -0.00498467  0.14127558
                   Z  0.17313985  0.00008198 -0.01557812  0.00001773 -0.00007001
  8   H            X -0.07471101 -0.00075059  0.05946661  0.09901347  0.00538819
                   Y  0.20902274 -0.12648501 -0.00299656 -0.00498467  0.14127558
                   Z  0.17313985 -0.00008198 -0.01557812 -0.00001773  0.00007001

 TRANS. SAYVETZ    X  0.00000000  0.14546990  0.00000000 10.07911159  0.48712848
                   Y  0.00000000  2.90021307  0.00000000 -0.50838454  9.65283661
                   Z  5.28919111 -0.00000000  8.11700426 -0.00000000 -0.00000000
               TOTAL  5.28919111  2.90385904  8.11700426 10.09192476  9.66512021

   ROT. SAYVETZ    X  2.80431820  0.00000000 -0.01083530  0.00000000 -0.00000000
                   Y 19.77986871  0.00000000-16.59082963  0.00000000  0.00000000
                   Z -0.00000000 26.49449602  0.00000000  0.00233605 -7.96020185
               TOTAL 19.97767271 26.49449602 16.59083317  0.00233605  7.96020185

                            6           7           8           9          10
       FREQUENCY:        20.52      126.20      224.39      299.88      330.93  
        SYMMETRY:         A''         A''         A''         A'          A'' 
    REDUCED MASS:      1.25039     1.01467     1.03979     9.69594     1.08258
    IR INTENSITY:      0.00355     0.78695     3.14218     0.16289     0.39551

  1   H            X  0.00000000  0.00000000 -0.00000000  0.11192478  0.00000000
                   Y  0.00000000  0.00000000  0.00000000 -0.04538923 -0.00000000
                   Z -0.06014930  0.53979457  0.77525707  0.00000000 -0.05566628
  2   TI           X  0.00000000  0.00000000 -0.00000000  0.09851827 -0.00000000
                   Y -0.00000000 -0.00000000  0.00000000 -0.00075991  0.00000000
                   Z -0.00929463 -0.01196760 -0.02415688  0.00000000  0.02098748
  3   H            X  0.00000000 -0.00000000  0.00000000  0.02540694  0.00000000
                   Y -0.00000000 -0.00000000  0.00000000 -0.02945009  0.00000000
                   Z -0.34561133  0.12697791 -0.31633002 -0.00000000 -0.07163367
  4   H            X -0.02501704  0.07898020 -0.01485397  0.03996022 -0.04960224
                   Y -0.30180931  0.28733801 -0.19953403  0.04796340 -0.02591196
                   Z  0.21835325 -0.27137073  0.06930378  0.00412630  0.01622335
  5   H            X  0.02501704 -0.07898020  0.01485397  0.03996022  0.04960224
                   Y  0.30180931 -0.28733801  0.19953403  0.04796340  0.02591196
                   Z  0.21835325 -0.27137073  0.06930378 -0.00412630  0.01622335
  6   TI           X  0.00000000  0.00000000  0.00000000 -0.09688769  0.00000000
                   Y -0.00000000 -0.00000000  0.00000000  0.00390266  0.00000000
                   Z  0.06364466 -0.00078388  0.00848376 -0.00000000 -0.03212573
  7   H            X  0.03898321  0.08238828  0.00274326 -0.14689875  0.58905907
                   Y  0.43483854  0.41003044 -0.29132220 -0.08468794 -0.05048329
                   Z  0.07921841  0.03991310  0.01679632 -0.03602530  0.32260694
  8   H            X -0.03898321 -0.08238828 -0.00274326 -0.14689875 -0.58905907
                   Y -0.43483854 -0.41003044  0.29132220 -0.08468794  0.05048329
                   Z  0.07921841  0.03991310  0.01679632  0.03602530  0.32260694

 TRANS. SAYVETZ    X  0.00000000  0.00000000 -0.00000000  0.00096033  0.00000000
                   Y -0.00000000 -0.00000000  0.00000000  0.00108919  0.00000000
                   Z  2.79423142 -0.40534318 -0.11467655  0.00000000  0.02114501
               TOTAL  2.79423142  0.40534318  0.11467655  0.00145209  0.02114501

   ROT. SAYVETZ    X -5.23380934  0.25456625  0.13880182  0.00000000 -0.04750228
                   Y 10.56529148 -1.21118416 -0.30333519  0.00000000  0.03221281
                   Z  0.00000000  0.00000000 -0.00000000  0.00165285 -0.00000000
               TOTAL 11.79059559  1.23764738  0.33358385  0.00165285  0.05739453

                           11          12          13          14          15
       FREQUENCY:       342.05      371.42      624.92      743.69      831.34  
        SYMMETRY:         A'          A'          A'          A''         A'  
    REDUCED MASS:      1.04528     1.12943     1.05947     1.03124     1.03285
    IR INTENSITY:      9.78185     1.25878     7.00495     9.52209     8.96569

  1   H            X -0.08187415 -0.08201862  0.02180647 -0.00000000 -0.01396031
                   Y  0.74623158  0.58547190  0.00006741 -0.00000000  0.10434398
                   Z -0.00000000 -0.00000000  0.00000000  0.20589021  0.00000000
  2   TI           X  0.01364838 -0.00627956  0.00819320  0.00000000  0.00041654
                   Y -0.01682314 -0.02781033  0.00036406  0.00000000 -0.01433253
                   Z  0.00000000 -0.00000000 -0.00000000 -0.01556619 -0.00000000
  3   H            X -0.01388958 -0.00035856 -0.05325157  0.00000000  0.20950363
                   Y -0.10128730 -0.01177482 -0.01333840 -0.00000000  0.13722273
                   Z -0.00000000  0.00000000  0.00000000  0.65963021  0.00000000
  4   H            X  0.02919464  0.00424428  0.00431414 -0.36396055 -0.18460435
                   Y -0.09687346  0.00080630 -0.06614799 -0.08363477  0.59546769
                   Z -0.00553265 -0.01589518  0.07539243  0.31434889 -0.21435397
  5   H            X  0.02919464  0.00424428  0.00431414  0.36396055 -0.18460435
                   Y -0.09687346  0.00080630 -0.06614799  0.08363477  0.59546769
                   Z  0.00553265  0.01589518 -0.07539243  0.31434889  0.21435397
  6   TI           X -0.01355754  0.00955072 -0.03065488  0.00000000 -0.00000853
                   Y -0.01053797  0.03730998  0.00571262  0.00000000 -0.01763781
                   Z -0.00000000  0.00000000  0.00000000 -0.01555084 -0.00000000
  7   H            X  0.01698831 -0.04030257  0.54500161  0.01125786  0.07680852
                   Y  0.42462685 -0.51409831 -0.07110464  0.08604615  0.04374676
                   Z  0.00927749 -0.02321699  0.39687150 -0.00731509  0.06719823
  8   H            X  0.01698831 -0.04030257  0.54500161 -0.01125786  0.07680852
                   Y  0.42462685 -0.51409831 -0.07110464 -0.08604615  0.04374676
                   Z -0.00927749  0.02321699 -0.39687150 -0.00731509 -0.06719823

 TRANS. SAYVETZ    X  0.00092678  0.00098597 -0.00037712  0.00000000 -0.00066118
                   Y  0.00002981 -0.00139775  0.00104465  0.00000000  0.00051032
                   Z -0.00000000  0.00000000  0.00000000  0.00065991  0.00000000
               TOTAL  0.00092726  0.00171051  0.00111064  0.00065991  0.00083521

   ROT. SAYVETZ    X -0.00000000  0.00000000  0.00000000  0.00514426  0.00000000
                   Y -0.00000000  0.00000000  0.00000000 -0.00119769  0.00000000
                   Z -0.03903625 -0.02969451 -0.00637170 -0.00000000 -0.00827072
               TOTAL  0.03903625  0.02969451  0.00637170  0.00528185  0.00827072

                           16          17          18          19          20
       FREQUENCY:       922.79      994.72     1204.27     1376.68     1452.40  
        SYMMETRY:         A''         A'          A'          A'          A'' 
    REDUCED MASS:      1.01221     1.01580     1.02344     1.02711     1.02441
    IR INTENSITY:      0.53989     2.47713    17.68734     9.35726     1.47796

  1   H            X  0.00000000  0.01185364 -0.05958755 -0.02530944 -0.00000000
                   Y -0.00000000  0.06369225  0.00334858  0.04532001  0.00000000
                   Z  0.02003001  0.00000000 -0.00000000 -0.00000000  0.04522926
  2   TI           X  0.00000000  0.00697325 -0.00941523  0.00658729  0.00000000
                   Y -0.00000000  0.00611919  0.00014633 -0.01837268 -0.00000000
                   Z -0.00894780 -0.00000000  0.00000000  0.00000000 -0.01849969
  3   H            X -0.00000000  0.47074473  0.54579711 -0.56167000 -0.00000000
                   Y -0.00000000  0.26926783  0.55920652  0.72535554  0.00000000
                   Z  0.49802794  0.00000000 -0.00000000  0.00000000  0.00709961
  4   H            X  0.43648111 -0.40607868  0.26524757  0.10008311  0.38516163
                   Y -0.39602375 -0.09539452 -0.18097073  0.10390481  0.29115181
                   Z -0.13587086  0.40928228 -0.26714327  0.20486826  0.47939898
  5   H            X -0.43648111 -0.40607868  0.26524757  0.10008311 -0.38516163
                   Y  0.39602375 -0.09539452 -0.18097073  0.10390481 -0.29115181
                   Z -0.13587086 -0.40928228  0.26714327 -0.20486826  0.47939898
  6   TI           X -0.00000000  0.00155083 -0.01479778  0.00251800  0.00000000
                   Y -0.00000000 -0.00888049 -0.00420354 -0.00360831  0.00000000
                   Z  0.00351766  0.00000000  0.00000000  0.00000000  0.00172223
  7   H            X  0.06160643 -0.03802735  0.06690184 -0.02282639  0.11000049
                   Y -0.00596823 -0.00562659 -0.00406721  0.03307831 -0.01620023
                   Z  0.00788991  0.00008278 -0.04835684 -0.00719159 -0.10752479
  8   H            X -0.06160643 -0.03802735  0.06690184 -0.02282639 -0.11000049
                   Y  0.00596823 -0.00562659 -0.00406721  0.03307831  0.01620023
                   Z  0.00788991 -0.00008278  0.04835684  0.00719159 -0.10752479

 TRANS. SAYVETZ    X -0.00000000 -0.00048422 -0.00029236  0.00029330  0.00000000
                   Y -0.00000000 -0.00032404 -0.00035497 -0.00007335 -0.00000000
                   Z  0.00404310  0.00000000  0.00000000  0.00000000 -0.00133364
               TOTAL  0.00404310  0.00058264  0.00045987  0.00030233  0.00133364

   ROT. SAYVETZ    X -0.01069808  0.00000000 -0.00000000  0.00000000 -0.00045133
                   Y  0.01174541 -0.00000000  0.00000000  0.00000000 -0.00100100
                   Z  0.00000000 -0.00262044  0.00031726 -0.00264720  0.00000000
               TOTAL  0.01588721  0.00262044  0.00031726  0.00264720  0.00109804

                           21          22          23          24
       FREQUENCY:      1556.80     1656.70     1706.91     1734.07  
        SYMMETRY:         A'          A''         A'          A'  
    REDUCED MASS:      1.04708     1.04072     1.01231     1.02021
    IR INTENSITY:     43.61421    22.04085     8.30574     1.75790

  1   H            X  0.38216759  0.00000000  0.81849711  0.36773113
                   Y  0.05797941  0.00000000  0.09891280  0.04499331
                   Z  0.00000000  0.01059679 -0.00000000 -0.00000000
  2   TI           X -0.02696314 -0.00000000 -0.00921124 -0.00827914
                   Y -0.00659468 -0.00000000 -0.00007027 -0.00063330
                   Z -0.00000000 -0.00357222  0.00000000  0.00000000
  3   H            X  0.26596977 -0.00000000 -0.13971401  0.03887730
                   Y -0.16152067  0.00000000  0.09883849  0.06980397
                   Z  0.00000000  0.01864606 -0.00000000  0.00000000
  4   H            X  0.40582237  0.10256223 -0.19058626  0.02889407
                   Y  0.22634878  0.04686204 -0.09856788 -0.04389756
                   Z  0.36215992  0.09694479 -0.16630436 -0.06723452
  5   H            X  0.40582237 -0.10256223 -0.19058626  0.02889407
                   Y  0.22634878 -0.04686204 -0.09856788 -0.04389756
                   Z -0.36215992  0.09694479  0.16630436  0.06723452
  6   TI           X -0.00525758 -0.00000000 -0.00309002  0.01377332
                   Y -0.00114209  0.00000000  0.00032298 -0.00039452
                   Z  0.00000000 -0.02571569  0.00000000 -0.00000000
  7   H            X  0.03592142 -0.34010592  0.14339928 -0.36272509
                   Y  0.00935135  0.00946993 -0.00633538  0.01091334
                   Z -0.07439992  0.58480295 -0.21229114  0.52837427
  8   H            X  0.03592142  0.34010592  0.14339928 -0.36272509
                   Y  0.00935135 -0.00946993 -0.00633538  0.01091334
                   Z  0.07439992  0.58480295  0.21229114 -0.52837427

 TRANS. SAYVETZ    X  0.00023738  0.00000000 -0.00024828  0.00007465
                   Y  0.00014614  0.00000000 -0.00004480 -0.00002202
                   Z  0.00000000  0.00074556  0.00000000  0.00000000
               TOTAL  0.00027876  0.00074556  0.00025229  0.00007783

   ROT. SAYVETZ    X -0.00000000 -0.00338516 -0.00000000  0.00000000
                   Y -0.00000000 -0.00011209  0.00000000  0.00000000
                   Z -0.00197990 -0.00000000 -0.00065235 -0.00038218
               TOTAL  0.00197990  0.00338702  0.00065235  0.00038218

 REFERENCE ON SAYVETZ CONDITIONS - A. SAYVETZ, J.CHEM.PHYS., 7, 383-389(1939).

 NOTE - THE MODES J,K ARE ORTHONORMALIZED ACCORDING TO
 SUM ON I   M(I) * (X(I,J)*X(I,K) + Y(I,J)*Y(I,K) + Z(I,J)*Z(I,K)) = DELTA(J,K)

  MODE FREQ(CM**-1)  SYMMETRY  RED. MASS  IR INTENS.
     1      15.032    A''      3.165236    0.067166
     2       9.055    A'       8.009431    0.039875
     3       2.182    A''     10.176233    0.013145
     4       0.094    A'      12.728563    0.000000
     5       2.718    A'      11.502475    0.003561
     6      20.520    A''      1.250395    0.003546
     7     126.201    A''      1.014669    0.786953
     8     224.391    A''      1.039787    3.142178
     9     299.885    A'       9.695942    0.162889
    10     330.929    A''      1.082577    0.395513
    11     342.055    A'       1.045280    9.781850
    12     371.425    A'       1.129430    1.258784
    13     624.919    A'       1.059474    7.004952
    14     743.687    A''      1.031236    9.522093
    15     831.338    A'       1.032849    8.965691
    16     922.788    A''      1.012213    0.539893
    17     994.724    A'       1.015796    2.477127
    18    1204.265    A'       1.023437   17.687342
    19    1376.683    A'       1.027105    9.357261
    20    1452.405    A''      1.024407    1.477962
    21    1556.796    A'       1.047078   43.614214
    22    1656.697    A''      1.040720   22.040849
    23    1706.910    A'       1.012311    8.305740
    24    1734.069    A'       1.020206    1.757896

     -------------------------------
     THERMOCHEMISTRY AT T=  298.15 K
     -------------------------------

 USING IDEAL GAS, RIGID ROTOR, HARMONIC NORMAL MODE APPROXIMATIONS.
 P=  1.01325E+05 PASCAL.
 ALL FREQUENCIES ARE SCALED BY   1.00000
 THE MOMENTS OF INERTIA ARE (IN AMU*BOHR**2)
     35.34356   765.32567   779.68438
 THE ROTATIONAL SYMMETRY NUMBER IS  1.0
 THE ROTATIONAL CONSTANTS ARE (IN GHZ)
     51.01604     2.35598     2.31259
      7 -     24 VIBRATIONAL MODES ARE USED IN THERMOCHEMISTRY.
 THE HARMONIC ZERO POINT ENERGY IS (SCALED BY   1.000)
        0.037590 HARTREE/MOLECULE     8250.082771 CM**-1/MOLECULE 
       23.588194 KCAL/MOL               98.693004 KJ/MOL

               Q               LN Q
 ELEC.     1.00000E+00       0.000000
 TRANS.    4.03995E+07      17.514328
 ROT.      5.19851E+04      10.858713
 VIB.      9.12787E+00       2.211332
 TOT.      1.91701E+13      30.584373

              E         H         G         CV        CP        S
           KJ/MOL    KJ/MOL    KJ/MOL   J/MOL-K   J/MOL-K   J/MOL-K
 ELEC.      0.000     0.000     0.000     0.000     0.000     0.000
 TRANS.     3.718     6.197   -43.417    12.472    20.786   166.407
 ROT.       3.718     3.718   -26.918    12.472    12.472   102.755
 VIB.     106.994   106.994    93.211    58.151    58.151    46.227
 TOTAL    114.431   116.910    22.876    83.094    91.408   315.390
 VIB. THERMAL CORRECTION E(T)-E(0) = H(T)-H(0) =  8300.917 J/MOL

              E         H         G         CV        CP        S
         KCAL/MOL  KCAL/MOL  KCAL/MOL CAL/MOL-K CAL/MOL-K CAL/MOL-K
 ELEC.      0.000     0.000     0.000     0.000     0.000     0.000
 TRANS.     0.889     1.481   -10.377     2.981     4.968    39.772
 ROT.       0.889     0.889    -6.434     2.981     2.981    24.559
 VIB.      25.572    25.572    22.278    13.898    13.898    11.049
 TOTAL     27.350    27.942     5.468    19.860    21.847    75.380
 VIB. THERMAL CORRECTION E(T)-E(0) = H(T)-H(0) =  1983.967 CAL/MOL
 ......END OF NORMAL COORDINATE ANALYSIS......
 STEP CPU TIME =     0.01 TOTAL CPU TIME =      119.1 (    2.0 MIN)
 TOTAL WALL CLOCK TIME=      119.5 SECONDS, CPU UTILIZATION IS  99.68%
              4939266  WORDS OF DYNAMIC MEMORY USED
 EXECUTION OF GAMESS TERMINATED NORMALLY Fri Jun  2 01:35:26 2017
 DDI: 263640 bytes (0.3 MB / 0 MWords) used by master data server.

 ----------------------------------------
 CPU timing information for all processes
 ========================================
 0: 115.30 + 4.65 = 119.95
 ----------------------------------------
 ddikick.x: exited gracefully.
unset echo
----- accounting info -----
Files used on the master node compute-0-2.local were:
-rw-rw-r-- 1 sarom sarom      1580 Jun  2 01:33 /scratch/gvb-ti2h6.F05
-rw-rw-r-- 1 sarom sarom 181636144 Jun  2 01:33 /scratch/gvb-ti2h6.F08
-rw-rw-r-- 1 sarom sarom  48323256 Jun  2 01:35 /scratch/gvb-ti2h6.F09
-rw-rw-r-- 1 sarom sarom   4711680 Jun  2 01:35 /scratch/gvb-ti2h6.F10
-rw-rw-r-- 1 sarom sarom   1808400 Jun  2 01:35 /scratch/gvb-ti2h6.F15
-rw-rw-r-- 1 sarom sarom  72625376 Jun  2 01:35 /scratch/gvb-ti2h6.F16
-rw-rw-r-- 1 sarom sarom   3763392 Jun  2 01:35 /scratch/gvb-ti2h6.F18
-rw-rw-r-- 1 sarom sarom    631744 Jun  2 01:33 /scratch/gvb-ti2h6.F23
rm: cannot remove `/scratch/sarom': Is a directory
rm: cannot remove `/scratch/tmp': Is a directory
ls: No match.
ls: No match.
ls: No match.
Fri Jun  2 01:35:29 CDT 2017
0.147u 0.102s 2:02.81 0.1%	0+0k 8+376io 0pf+0w
Deleting shmid=3964928.
Deleting shmid=3997697.
Deleting shmid=4227074.
/opt/gridengine/default/spool/compute-0-2/active_jobs/23604.1/pe_hostfile compute-0-2.local
