-catch_rsh /opt/gridengine/default/spool/compute-0-7/active_jobs/23603.1/pe_hostfile
compute-0-7
The primary node assigned by SGE to this run is compute-0-7
Warning: no access to tty (Bad file descriptor).
Thus no job control in this shell.
Deleting shmid=2523136.
Deleting shmid=2555905.
Deleting shmid=2785282.
source /home/sarom/gamess.github.2017-05-31.14.06/install.info
setenv GMS_PATH /home/sarom/gamess.github.2017-05-31.14.06
setenv GMS_BUILD_DIR /home/sarom/gamess.github.2017-05-31.14.06
setenv GMS_TARGET linux64
setenv GMS_FORTRAN gfortran
setenv GMS_GFORTRAN_VERNO 4.4
setenv GMS_MATHLIB mkl-so
setenv GMS_MATHLIB_PATH /share/apps/intel/compilers_and_libraries_2017.1.132/linux/mkl/lib/intel64
setenv GMS_MKL_VERNO 12
setenv GMS_DDI_COMM sockets
setenv GMS_LIBCCHEM false
setenv GMS_EIGEN_PATH
setenv GMS_PHI false
setenv GMS_SHMTYPE sysv
setenv GMS_OPENMP false
unset echo
gvb-ti2f2h4
tests/gvb
----- GAMESS execution script 'rungms' -----
This job is running on host compute-0-7.local
under operating system Linux at Fri Jun 2 01:33:27 CDT 2017
Available scratch disk space (Kbyte units) at beginning of the job is
Filesystem           1K-blocks      Used Available Use% Mounted on
/dev/sda1             16126920   3867340  11440380  26% /
GAMESS temporary binary files will be written to /scratch
GAMESS supplementary output files will be written to /home/sarom/restart
Copying input file gvb-ti2f2h4.inp to your run's scratch directory...
cp tests/gvb/gvb-ti2f2h4.inp /scratch/gvb-ti2f2h4.F05
unset echo
The generated host list is
compute-0-7.local
/home/sarom/gamess.github.2017-05-31.14.06/ddikick.x /home/sarom/gamess.github.2017-05-31.14.06/gamess.00.x gvb-ti2f2h4 -ddi 1 1 compute-0-7.local -scr /scratch

 Distributed Data Interface kickoff program.
 Initiating 1 compute processes on 1 nodes to run the following command:
 /home/sarom/gamess.github.2017-05-31.14.06/gamess.00.x gvb-ti2f2h4 

          ******************************************************
          *         GAMESS VERSION = 20 APR 2017 (R1)          *
          *             FROM IOWA STATE UNIVERSITY             *
          * M.W.SCHMIDT, K.K.BALDRIDGE, J.A.BOATZ, S.T.ELBERT, *
          *   M.S.GORDON, J.H.JENSEN, S.KOSEKI, N.MATSUNAGA,   *
          *          K.A.NGUYEN, S.J.SU, T.L.WINDUS,           *
          *       TOGETHER WITH M.DUPUIS, J.A.MONTGOMERY       *
          *         J.COMPUT.CHEM.  14, 1347-1363(1993)        *
          **************** 64 BIT LINUX VERSION ****************

  SINCE 1993, STUDENTS AND POSTDOCS WORKING AT IOWA STATE UNIVERSITY
  AND ALSO IN THEIR VARIOUS JOBS AFTER LEAVING ISU HAVE MADE IMPORTANT
  CONTRIBUTIONS TO THE CODE:
     IVANA ADAMOVIC, CHRISTINE AIKENS, YURI ALEXEEV, POOJA ARORA,
     ANDREY ASADCHEV, ROB BELL, PRADIPTA BANDYOPADHYAY, JONATHAN BENTZ,
     BRETT BODE, KURT BRORSEN, CALEB CARLIN, GALINA CHABAN, WEI CHEN,
     CHEOL HO CHOI, PAUL DAY, ALBERT DEFUSCO, NUWAN DESILVA, TIM DUDLEY,
     DMITRI FEDOROV, GRAHAM FLETCHER, MARK FREITAG, KURT GLAESEMANN,
     DAN KEMP, GRANT MERRILL, NORIYUKI MINEZAWA, JONATHAN MULLIN,
     TAKESHI NAGATA, SEAN NEDD, HEATHER NETZLOFF, BOSILJKA NJEGIC, RYAN OLSON,
     MIKE PAK, SPENCER PRUITT, LUKE ROSKOP, JIM SHOEMAKER, LYUDMILA SLIPCHENKO,
     TONY SMITH, SAROM SOK LEANG, JIE SONG, TETSUYA TAKETSUGU, SIMON WEBB,
     PENG XU, SOOHAENG YOO, FEDERICO ZAHARIEV

  ADDITIONAL CODE HAS BEEN PROVIDED BY COLLABORATORS IN OTHER GROUPS:
     IOWA STATE UNIVERSITY:
          JOE IVANIC, AARON WEST, LAIMUTIS BYTAUTAS, KLAUS RUEDENBERG
     UNIVERSITY OF TOKYO: KIMIHIKO HIRAO, TAKAHITO NAKAJIMA,
          TAKAO TSUNEDA, MUNEAKI KAMIYA, SUSUMU YANAGISAWA,
          KIYOSHI YAGI, MAHITO CHIBA, SEIKEN TOKURA, NAOAKI KAWAKAMI
     UNIVERSITY OF AARHUS: FRANK JENSEN
     UNIVERSITY OF IOWA: VISVALDAS KAIRYS, HUI LI
     NATIONAL INST. OF STANDARDS AND TECHNOLOGY: WALT STEVENS, DAVID GARMER
     UNIVERSITY OF PISA: BENEDETTA MENNUCCI, JACOPO TOMASI
     UNIVERSITY OF MEMPHIS: HENRY KURTZ, PRAKASHAN KORAMBATH
     UNIVERSITY OF ALBERTA: TOBY ZENG, MARIUSZ KLOBUKOWSKI
     UNIVERSITY OF NEW ENGLAND: MARK SPACKMAN
     MIE UNIVERSITY: HIROAKI UMEDA
     NAT. INST. OF ADVANCED INDUSTRIAL SCIENCE AND TECHNOLOGY: KAZUO KITAURA
     MICHIGAN STATE UNIVERSITY:
          KAROL KOWALSKI, MARTA WLOCH, JEFFREY GOUR, JESSE LUTZ,
          WEI LI, PIOTR PIECUCH
     UNIVERSITY OF SILESIA: MONIKA MUSIAL, STANISLAW KUCHARSKI
     FACULTES UNIVERSITAIRES NOTRE-DAME DE LA PAIX:
          OLIVIER QUINET, BENOIT CHAMPAGNE
     UNIVERSITY OF CALIFORNIA - SANTA BARBARA: BERNARD KIRTMAN
     INSTITUTE FOR MOLECULAR SCIENCE:
          KAZUYA ISHIMURA, MICHIO KATOUDA, AND SHIGERU NAGASE
     UNIVERSITY OF NOTRE DAME: ANNA POMOGAEVA, DAN CHIPMAN
     KYUSHU UNIVERSITY:
          HARUYUKI NAKANO,
          FENG LONG GU, JACEK KORCHOWIEC, MARCIN MAKOWSKI, AND YURIKO AOKI,
          HIROTOSHI MORI AND EISAKU MIYOSHI
     PENNSYLVANIA STATE UNIVERSITY:
          TZVETELIN IORDANOV, CHET SWALINA, JONATHAN SKONE,
          SHARON HAMMES-SCHIFFER
     WASEDA UNIVERSITY:
          MASATO KOBAYASHI, TOMOKO AKAMA, TSUGUKI TOUMA,
          TAKESHI YOSHIKAWA, YASUHIRO IKABATA, JUNJI SEINO,
          YUYA NAKAJIMA, HIROMI NAKAI
     NANJING UNIVERSITY: SHUHUA LI
     UNIVERSITY OF NEBRASKA:
          PEIFENG SU, DEJUN SI, NANDUN THELLAMUREGE, YALI WANG, HUI LI
     UNIVERSITY OF ZURICH: ROBERTO PEVERATI, KIM BALDRIDGE
     N. COPERNICUS UNIVERSITY AND JACKSON STATE UNIVERSITY:
          MARIA BARYSZ
     UNIVERSITY OF COPENHAGEN: Jimmy Kromann, CASPER STEINMANN
     TOKYO INSTITUTE OF TECHNOLOGY: HIROYA NAKATA
     NAGOYA UNIVERSITY: YOSHIO NISHIMOTO, STEPHAN IRLE
     MOSCOW STATE UNIVERSITY: VLADIMIR MIRONOV

 EXECUTION OF GAMESS BEGUN Fri Jun  2 01:33:27 2017

            ECHO OF THE FIRST FEW INPUT CARDS -
 INPUT CARD>!   H2Ti(F)2TiH2...test file from Christine, not sure what year.                
 INPUT CARD>!   this has slow response equation convergence, more than 50 cycles on         
 INPUT CARD>!   the older convergence criteria, only 43 after that softened in 2012.        
 INPUT CARD>!                                                                               
 INPUT CARD>!   FINAL E=  -1898.2233630512, in just two iterations                          
 INPUT CARD>!   FREQ=  980.98i & 842.27i                                                    
 INPUT CARD>!   FREQ=  10.28, 0.17, 0.10, 1.22, 4.49, 6.09 (residuals)                      
 INPUT CARD>!   FREQ=  118.96,  254.97,  280.09,  335.27, 378.03, 399.17, 410.87,           
 INPUT CARD>!   FREQ=  480.12,  483.55,  493.16,  648.54, 657.46,                           
 INPUT CARD>!   FREQ= 1690.33, 1703.20, 1769.75, 1791.05                                    
 INPUT CARD>!                                                                               
 INPUT CARD>!   This run takes 75 seconds on 2.66 GHz Cloverton ( 9 Apr 2015)               
 INPUT CARD>!   results unchanged since 2013.                                               
 INPUT CARD>!                                                                               
 INPUT CARD> $CONTRL SCFTYP=GVB RUNTYP=hessian $END                                         
 INPUT CARD> $SYSTEM MWORDS=20 TIMLIM=1000 $END                                             
 INPUT CARD> $BASIS  GBASIS=TZV npfunc=1 $END                                               
 INPUT CARD> $SCF    nco=32 nseto=0 npair=1 $end                                            
 INPUT CARD>!  where is the energy of this open shell singlet?                              
 INPUT CARD>--- $scf    nco=32 nseto=2 no(1)=1,1 $end                                       
 INPUT CARD> $GUESS  guess=moread norb=156 $end                                             
 INPUT CARD> $DATA                                                                          
 INPUT CARD>Ti2F2H4 singlet...bridging F atoms, apparently                                  
 INPUT CARD>Dnh 2                                                                           
 INPUT CARD>                                                                                
 INPUT CARD>TI         22.0   0.0000000000   0.0000000000   1.6345580385                    
 INPUT CARD>F           9.0   1.2043277768   0.0000000000   0.0000000000                    
 INPUT CARD>H           1.0   0.0000000000   1.5374687716   2.4886591440                    
 INPUT CARD> $end                                                                           
 INPUT CARD> $SCF    CICOEF( 1)=  0.70598144, -0.70823033 $END                              
 INPUT CARD> $VEC                                                                           
 INPUT CARD> 1  1 1.18051161E-01 2.11958743E-01 2.95844287E-01 1.66690586E-01 1.53521475E-02
 INPUT CARD> 1  2-3.03052221E-03 1.21651170E-03-1.35663543E-02 8.24988964E-03 1.20055354E-04
 INPUT CARD> 1  3 0.00000000E+00 0.00000000E+00 3.85397905E-06 0.00000000E+00 0.00000000E+00
 INPUT CARD> 1  4-3.99281893E-06 0.00000000E+00 0.00000000E+00 2.56236758E-06 0.00000000E+00
 INPUT CARD> 1  5 0.00000000E+00-2.46622884E-06 0.00000000E+00 0.00000000E+00 1.42482143E-06
 INPUT CARD> 1  6 0.00000000E+00 0.00000000E+00 2.07993794E-06 0.00000000E+00 0.00000000E+00
 INPUT CARD> 1  7-3.04591610E-06 0.00000000E+00 0.00000000E+00-1.14097235E-04 3.39743222E-03
 INPUT CARD> 1  8 3.39589550E-03 3.39761037E-03 0.00000000E+00 0.00000000E+00 0.00000000E+00
 INPUT CARD> 1  9-1.79042826E-03-1.78175045E-03-1.78714276E-03 0.00000000E+00 0.00000000E+00
 INPUT CARD> 1 10 0.00000000E+00-4.85309847E-05-2.26400460E-05-9.65356476E-05 0.00000000E+00
 INPUT CARD> 1 11 0.00000000E+00 0.00000000E+00-1.18051161E-01-2.11958743E-01-2.95844287E-01
 INPUT CARD> 1 12-1.66690586E-01-1.53521475E-02 3.03052221E-03-1.21651170E-03 1.35663543E-02
 INPUT CARD> 1 13-8.24988964E-03-1.20055354E-04 0.00000000E+00 0.00000000E+00 3.85397905E-06
 INPUT CARD> 1 14 0.00000000E+00 0.00000000E+00-3.99281893E-06 0.00000000E+00 0.00000000E+00
 INPUT CARD> 1 15 2.56236758E-06 0.00000000E+00 0.00000000E+00-2.46622884E-06 0.00000000E+00
 INPUT CARD> 1 16 0.00000000E+00 1.42482143E-06 0.00000000E+00 0.00000000E+00 2.07993794E-06
 INPUT CARD> 1 17 0.00000000E+00 0.00000000E+00-3.04591610E-06 0.00000000E+00 0.00000000E+00
 INPUT CARD> 1 18-1.14097235E-04-3.39743222E-03-3.39589550E-03-3.39761037E-03 0.00000000E+00
 INPUT CARD> 1 19 0.00000000E+00 0.00000000E+00 1.79042826E-03 1.78175045E-03 1.78714276E-03
   20000000 WORDS OF MEMORY AVAILABLE

     BASIS OPTIONS
     -------------
     GBASIS=TZV          IGAUSS=       0      POLAR=HONDO7  
     NDFUNC=       0     NFFUNC=       0     DIFFSP=       F
     NPFUNC=       1      DIFFS=       F     BASNAM=        


     RUN TITLE
     ---------
 Ti2F2H4 singlet...bridging F atoms, apparently                                  

 THE POINT GROUP OF THE MOLECULE IS DNH     
 THE ORDER OF THE PRINCIPAL AXIS IS     2

 ATOM      ATOMIC                      COORDINATES (BOHR)
           CHARGE         X                   Y                   Z
 TI         22.0     0.0000000000        0.0000000000       -3.0888668038
 TI         22.0     0.0000000000        0.0000000000        3.0888668038
 F           9.0    -2.2758494976        0.0000000000        0.0000000000
 F           9.0     2.2758494976        0.0000000000        0.0000000000
 H           1.0    -0.0000000000       -2.9053946930        4.7028838590
 H           1.0     0.0000000000        2.9053946930       -4.7028838590
 H           1.0    -0.0000000000       -2.9053946930       -4.7028838590
 H           1.0     0.0000000000        2.9053946930        4.7028838590

          INTERNUCLEAR DISTANCES (ANGS.)
          ------------------------------

                1 TI         2 TI         3 F          4 F          5 H     

   1 TI      0.0000000    3.2691161    2.0303166 *  2.0303166 *  4.4005375  
   2 TI      3.2691161    0.0000000    2.0303166 *  2.0303166 *  1.7587777 *
   3 F       2.0303166 *  2.0303166 *  0.0000000    2.4086556 *  3.1634854  
   4 F       2.0303166 *  2.0303166 *  2.4086556 *  0.0000000    3.1634854  
   5 H       4.4005375    1.7587777 *  3.1634854    3.1634854    0.0000000  
   6 H       1.7587777 *  4.4005375    3.1634854    3.1634854    5.8505503  
   7 H       1.7587777 *  4.4005375    3.1634854    3.1634854    4.9773183  
   8 H       4.4005375    1.7587777 *  3.1634854    3.1634854    3.0749375  

                6 H          7 H          8 H     

   1 TI      1.7587777 *  1.7587777 *  4.4005375  
   2 TI      4.4005375    4.4005375    1.7587777 *
   3 F       3.1634854    3.1634854    3.1634854  
   4 F       3.1634854    3.1634854    3.1634854  
   5 H       5.8505503    4.9773183    3.0749375  
   6 H       0.0000000    3.0749375    4.9773183  
   7 H       3.0749375    0.0000000    5.8505503  
   8 H       4.9773183    5.8505503    0.0000000  

  * ... LESS THAN  3.000


     ATOMIC BASIS SET
     ----------------
 THE CONTRACTED PRIMITIVE FUNCTIONS HAVE BEEN UNNORMALIZED
 THE CONTRACTED BASIS FUNCTIONS ARE NOW NORMALIZED TO UNITY

  SHELL TYPE  PRIMITIVE        EXPONENT          CONTRACTION COEFFICIENT(S)

 TI        

     22   S       1        206082.0000000    0.001497489231
     22   S       2         31226.8000000    0.011560616865
     22   S       3          7199.3200000    0.059180774417
     22   S       4          2048.7500000    0.239238879575
     22   S       5           670.7900000    0.762940813506

     23   S       6           243.6500000    1.000000000000

     24   S       7            95.9250000    1.000000000000

     25   S       8            39.8101000    1.000000000000

     26   S       9            12.2205000    1.000000000000

     27   S      10             5.0088200    1.000000000000

     28   S      11             1.2856900    1.000000000000

     29   S      12             0.5128060    1.000000000000

     30   S      13             0.2090000    1.000000000000

     31   S      14             0.0855760    1.000000000000

     32   P      15          1264.7000000    0.006796738994
     32   P      16           301.2300000    0.054786797965
     32   P      17            96.9777000    0.257799674830
     32   P      18            36.3727000    0.766792848273

     33   P      19            14.7814000    1.000000000000

     34   P      20             6.2746500    1.000000000000

     35   P      21             2.4787800    1.000000000000

     36   P      22             1.0161800    1.000000000000

     37   P      23             0.3981620    1.000000000000

     38   P      24             0.1560000    1.000000000000

     39   P      25             0.0611000    1.000000000000

     40   D      26            28.1100000    0.025746526973
     40   D      27             7.6300000    0.141260425854
     40   D      28             2.5280000    0.400613606114
     40   D      29             0.8543000    0.634526225312

     41   D      30             0.2673000    1.000000000000

     42   D      31             0.0743000    1.000000000000

 F         

     51   S      32         23340.0000000    0.000756999452
     51   S      33          3431.0000000    0.006080995595
     51   S      34           757.7000000    0.032635976358
     51   S      35           209.2000000    0.131703904592
     51   S      36            66.7300000    0.396239712960
     51   S      37            23.3700000    0.543671606159

     52   S      38            23.3700000    0.264892875778
     52   S      39             8.6240000    0.767924639881

     53   S      40             2.6920000    1.000000000000

     54   S      41             1.0090000    1.000000000000

     55   S      42             0.3312000    1.000000000000

     56   P      43            65.6600000    0.016036995473
     56   P      44            15.2200000    0.105696970162
     56   P      45             4.7880000    0.350226901131
     56   P      46             1.7320000    0.658194814192

     57   P      47             0.6206000    1.000000000000

     58   P      48             0.2070000    1.000000000000

 H         

     71   S      49            33.6400000    0.025373656982
     71   S      50             5.0580000    0.189681435760
     71   S      51             1.1470000    0.852921469637

     72   S      52             0.3211000    1.000000000000

     73   S      53             0.1013000    1.000000000000

     74   P      54             1.0000000    1.000000000000

 TOTAL NUMBER OF BASIS SET SHELLS             =   74
 NUMBER OF CARTESIAN GAUSSIAN BASIS FUNCTIONS =  156
 NUMBER OF ELECTRONS                          =   66
 CHARGE OF MOLECULE                           =    0
 SPIN MULTIPLICITY                            =    1
 NUMBER OF OCCUPIED ORBITALS (ALPHA)          =   33
 NUMBER OF OCCUPIED ORBITALS (BETA )          =   33
 TOTAL NUMBER OF ATOMS                        =    8
 THE NUCLEAR REPULSION ENERGY IS      352.4077196179

     $CONTRL OPTIONS
     ---------------
 SCFTYP=GVB          RUNTYP=HESSIAN      EXETYP=RUN     
 MPLEVL=       0     CITYP =NONE         CCTYP =NONE         VBTYP =NONE    
 DFTTYP=NONE         TDDFT =NONE    
 MULT  =       1     ICHARG=       0     NZVAR =       0     COORD =UNIQUE  
 PP    =NONE         RELWFN=NONE         LOCAL =NONE         NUMGRD=       F
 ISPHER=      -1     NOSYM =       0     MAXIT =      30     UNITS =ANGS    
 PLTORB=       F     MOLPLT=       F     AIMPAC=       F     FRIEND=        
 NPRINT=       7     IREST =       0     GEOM  =INPUT   
 NORMF =       0     NORMP =       0     ITOL  =      20     ICUT  =       9
 INTTYP=BEST         GRDTYP=BEST         QMTTOL= 1.0E-06

     $SYSTEM OPTIONS
     ---------------
  REPLICATED MEMORY=    20000000 WORDS (ON EVERY NODE).
 DISTRIBUTED MEMDDI=           0 MILLION WORDS IN AGGREGATE,
 MEMDDI DISTRIBUTED OVER   1 PROCESSORS IS           0 WORDS/PROCESSOR.
 TOTAL MEMORY REQUESTED ON EACH PROCESSOR=    20000000 WORDS.
 TIMLIM=        1000.00 MINUTES, OR       0.7 DAYS.
 PARALL= F  BALTYP=  DLB     KDIAG=    0  COREFL= F
 MXSEQ2=     300 MXSEQ3=     150  mem10=         0

          ----------------
          PROPERTIES INPUT
          ----------------

     MOMENTS            FIELD           POTENTIAL          DENSITY
 IEMOM =       1   IEFLD =       0   IEPOT =       0   IEDEN =       0
 WHERE =COMASS     WHERE =NUCLEI     WHERE =NUCLEI     WHERE =NUCLEI  
 OUTPUT=BOTH       OUTPUT=BOTH       OUTPUT=BOTH       OUTPUT=BOTH    
 IEMINT=       0   IEFINT=       0                     IEDINT=       0
                                                       MORB  =       0
          EXTRAPOLATION IN EFFECT
          SOSCF IN EFFECT
 ORBITAL PRINTING OPTION: NPREO=     1   156     2     1

          *************************
          ROHF-GVB INPUT PARAMETERS
          *************************

          NORB   =   34          NCO    =   32
          NPAIR  =    1          NSETO  =    0
          PAIR ORBITALS
          PAIR    1 HAS ORBS   33   34

          ----------------------------
          ROHF-GVB COUPLING PARAMETERS
          ----------------------------

          F VECTOR (OCCUPANCIES)
    1   1.0000000000
    2   0.4984097966
    3   0.5015902034
          ALPHA COUPLING COEFFICEINTS

             1           2           3

    1    2.0000000
    2    0.9968196   0.4984098
    3    1.0031804   0.0000000   0.5015902
           BETA COUPLING COEFFICIENTS

             1           2           3

    1   -1.0000000
    2   -0.4984098   0.0000000
    3   -0.5015902  -0.4999975   0.0000000

          NATURAL ORBITAL COEFFICIENTS
          N.O.                PAIR CICOEF-S
            1        0.7059814421    -0.7082303321

     -------------------------------
     INTEGRAL TRANSFORMATION OPTIONS
     -------------------------------
     NWORD  =            0
     CUTOFF = 1.0E-09     MPTRAN =       0
     DIRTRF =       F     AOINTS =DUP     

          ----------------------
          INTEGRAL INPUT OPTIONS
          ----------------------
 NOPK  =       1 NORDER=       0 SCHWRZ=       T

     ------------------------------------------
     THE POINT GROUP IS DNH, NAXIS= 2, ORDER= 8
     ------------------------------------------

     DIMENSIONS OF THE SYMMETRY SUBSPACES ARE
 AG  =   40     AU  =    4     B3U =   20     B3G =   16     B1G =    7
 B1U =   35     B2U =   19     B2G =   15

 ..... DONE SETTING UP THE RUN .....
 STEP CPU TIME =     0.27 TOTAL CPU TIME =        0.3 (    0.0 MIN)
 TOTAL WALL CLOCK TIME=        0.3 SECONDS, CPU UTILIZATION IS 100.00%

     ---------------------------------
     HESSIAN MATRIX CONTROL PARAMETERS
     ---------------------------------
     METHOD=ANALYTIC   NVIB  =       2   VIBSIZ= 0.01000
     RDHESS=       F   PURIFY=       F   PRTIFC=       F
     VIBANL=       T   DECOMP=       F   PROJCT=       F
     SCLFAC= 1.00000   PRTSCN=       F   NPRT  =       0
     PULCOR=       F   NPUN  =       0   REDOVB=       T
     HSSTYP=GENERAL 
     THERMOCHEMISTRY WILL BE PRINTED FOR    1 TEMPERATURES:
      298.15000
 Old integral subroutine is used

     ------------------------------
     CPHF RESPONSE SOLUTION OPTIONS
     ------------------------------
     POLAR  =       F     NWORD  =       0
     CPHF   =MO      

          ********************
          1 ELECTRON INTEGRALS
          ********************
 ...... END OF ONE-ELECTRON INTEGRALS ......
 STEP CPU TIME =     0.02 TOTAL CPU TIME =        0.3 (    0.0 MIN)
 TOTAL WALL CLOCK TIME=        0.3 SECONDS, CPU UTILIZATION IS 100.00%

          -------------
          GUESS OPTIONS
          -------------
          GUESS =MOREAD            NORB  =     156          NORDER=       0
          MIX   =       F          PRTMO =       F          PUNMO =       F
          TOLZ  = 1.0E-08          TOLE  = 1.0E-05
          SYMDEN=       F          PURIFY=       F

 INITIAL GUESS ORBITALS GENERATED BY MOREAD   ROUTINE.

 SYMMETRIES FOR INITIAL GUESS ORBITALS FOLLOW.   BOTH SET(S).
    34 ORBITALS ARE OCCUPIED (   20 CORE ORBITALS).
     1=B1U      2=AG       3=B3U      4=AG       5=B1U      6=AG       7=B3G 
     8=B2U      9=B1U     10=AG      11=B2G     12=B3U     13=AG      14=B1U 
    15=AG      16=B2U     17=B3G     18=B3U     19=B1U     20=B2G     21=AG  
    22=B3U     23=AG      24=B1U     25=B2G     26=B2U     27=B1G     28=B3U 
    29=AG      30=B1U     31=B2U     32=B3G     33=AG      34=B1U     35=AG  
    36=B1U     37=B2G     38=B3U     39=B2U     40=AU      41=B1G     42=B3G 
    43=AG      44=B3U     45=B1U     46=B2U     47=AG      48=B2G     49=AG  
    50=B1U     51=B1U     52=B1G     53=AG      54=B2U     55=B3G     56=AU  
    57=B3U     58=B3G     59=B2G     60=B1U     61=B3G     62=B2U     63=AG  
    64=B3U     65=B1U     66=B2G     67=AG      68=B1U     69=AG      70=B2U 
    71=B1U     72=B3G     73=AG      74=B1U     75=B1G     76=B3U     77=AG  
    78=B2U     79=B1U     80=B2G     81=B1G     82=AU      83=AG      84=B3U 
    85=B2U     86=B3G     87=AG      88=B1U     89=B2G     90=B1U     91=B2U 
    92=B3U     93=B3G     94=AG      95=B2G     96=B3U     97=AG      98=B1U 
    99=B1U    100=AG     101=B3U    102=B2G    103=B2U    104=B3G    105=AU  
   106=B1G    107=AG     108=B1U    109=B2U    110=B3G    111=B1U    112=AG  
   113=B1U    114=AG     115=B2U    116=B3G    117=B3U    118=B1G    119=B2U 
   120=B2G    121=AG     122=B1U    123=AG     124=B1U    125=B3U    126=B2G 
   127=B2U    128=B3G    129=AG     130=B1U    131=B3U    132=AG     133=AG  
   134=B1U    135=B3U    136=B2G    137=B2U    138=B3G    139=AG     140=B1U 
   141=AG     142=B1U    143=B3U    144=AG     145=B3U    146=B2G    147=B2U 
   148=B3G    149=AG     150=B1U    151=B1U    152=AG     153=AG     154=B1U 
   155=AG     156=B1U 
 ...... END OF INITIAL ORBITAL SELECTION ......
 STEP CPU TIME =     0.04 TOTAL CPU TIME =        0.3 (    0.0 MIN)
 TOTAL WALL CLOCK TIME=        0.3 SECONDS, CPU UTILIZATION IS  97.06%

                    ----------------------
                    AO INTEGRAL TECHNOLOGY
                    ----------------------
     S,P,L SHELL ROTATED AXIS INTEGRALS, REPROGRAMMED BY
        KAZUYA ISHIMURA (IMS) AND JOSE SIERRA (SYNSTAR).
     S,P,D,L SHELL ROTATED AXIS INTEGRALS PROGRAMMED BY
        KAZUYA ISHIMURA (INSTITUTE FOR MOLECULAR SCIENCE).
     S,P,D,F,G SHELL TO TOTAL QUARTET ANGULAR MOMENTUM SUM 5,
        ERIC PROGRAM BY GRAHAM FLETCHER (ELORET AND NASA ADVANCED
        SUPERCOMPUTING DIVISION, AMES RESEARCH CENTER).
     S,P,D,F,G,L SHELL GENERAL RYS QUADRATURE PROGRAMMED BY
        MICHEL DUPUIS (PACIFIC NORTHWEST NATIONAL LABORATORY).

          --------------------
          2 ELECTRON INTEGRALS
          --------------------

 THE -PK- OPTION IS OFF, THE INTEGRALS ARE NOT IN SUPERMATRIX FORM.
 STORING   15000 INTEGRALS/RECORD ON DISK, USING 12 BYTES/INTEGRAL.
 TWO ELECTRON INTEGRAL EVALUATION REQUIRES   93171 WORDS OF MEMORY.
 SCHWARZ INEQUALITY OVERHEAD:     11358 INTEGRALS, T=        0.01
 II,JST,KST,LST =  1  1  1  1 NREC =         1 INTLOC =    1
 II,JST,KST,LST =  2  1  1  1 NREC =         1 INTLOC =    1
 II,JST,KST,LST =  3  1  1  1 NREC =         1 INTLOC =    1
 II,JST,KST,LST =  4  1  1  1 NREC =         1 INTLOC =    1
 II,JST,KST,LST =  5  1  1  1 NREC =         1 INTLOC =    1
 II,JST,KST,LST =  6  1  1  1 NREC =         1 INTLOC =    1
 II,JST,KST,LST =  7  1  1  1 NREC =         1 INTLOC =    1
 II,JST,KST,LST =  8  1  1  1 NREC =         1 INTLOC =    1
 II,JST,KST,LST =  9  1  1  1 NREC =         1 INTLOC =    1
 II,JST,KST,LST = 10  1  1  1 NREC =         1 INTLOC =    1
 II,JST,KST,LST = 11  1  1  1 NREC =         1 INTLOC =    1
 II,JST,KST,LST = 12  1  1  1 NREC =         1 INTLOC =    1
 II,JST,KST,LST = 13  1  1  1 NREC =         1 INTLOC =    1
 II,JST,KST,LST = 14  1  1  1 NREC =         1 INTLOC =    1
 II,JST,KST,LST = 15  1  1  1 NREC =         1 INTLOC =    1
 II,JST,KST,LST = 16  1  1  1 NREC =         1 INTLOC =    1
 II,JST,KST,LST = 17  1  1  1 NREC =         1 INTLOC =    1
 II,JST,KST,LST = 18  1  1  1 NREC =         1 INTLOC =    1
 II,JST,KST,LST = 19  1  1  1 NREC =         1 INTLOC =    1
 II,JST,KST,LST = 20  1  1  1 NREC =         1 INTLOC =    1
 II,JST,KST,LST = 21  1  1  1 NREC =         1 INTLOC =    1
 II,JST,KST,LST = 22  1  1  1 NREC =         1 INTLOC =    1
 II,JST,KST,LST = 23  1  1  1 NREC =         1 INTLOC =    3
 II,JST,KST,LST = 24  1  1  1 NREC =         1 INTLOC =   13
 II,JST,KST,LST = 25  1  1  1 NREC =         1 INTLOC =   43
 II,JST,KST,LST = 26  1  1  1 NREC =         1 INTLOC =  111
 II,JST,KST,LST = 27  1  1  1 NREC =         1 INTLOC =  241
 II,JST,KST,LST = 28  1  1  1 NREC =         1 INTLOC =  463
 II,JST,KST,LST = 29  1  1  1 NREC =         1 INTLOC =  813
 II,JST,KST,LST = 30  1  1  1 NREC =         1 INTLOC = 1579
 II,JST,KST,LST = 31  1  1  1 NREC =         1 INTLOC = 3185
 II,JST,KST,LST = 32  1  1  1 NREC =         1 INTLOC = 5726
 II,JST,KST,LST = 33  1  1  1 NREC =         1 INTLOC = 7975
 II,JST,KST,LST = 34  1  1  1 NREC =         1 INTLOC =12024
 II,JST,KST,LST = 35  1  1  1 NREC =         2 INTLOC = 3465
 II,JST,KST,LST = 36  1  1  1 NREC =         2 INTLOC =12953
 II,JST,KST,LST = 37  1  1  1 NREC =         3 INTLOC =11637
 II,JST,KST,LST = 38  1  1  1 NREC =         5 INTLOC =11092
 II,JST,KST,LST = 39  1  1  1 NREC =         9 INTLOC = 1048
 II,JST,KST,LST = 40  1  1  1 NREC =        13 INTLOC =13989
 II,JST,KST,LST = 41  1  1  1 NREC =        23 INTLOC =14804
 II,JST,KST,LST = 42  1  1  1 NREC =        45 INTLOC = 4499
 II,JST,KST,LST = 43  1  1  1 NREC =        80 INTLOC = 7682
 II,JST,KST,LST = 44  1  1  1 NREC =        80 INTLOC = 7682
 II,JST,KST,LST = 45  1  1  1 NREC =        80 INTLOC = 7682
 II,JST,KST,LST = 46  1  1  1 NREC =        80 INTLOC = 7682
 II,JST,KST,LST = 47  1  1  1 NREC =        80 INTLOC = 7682
 II,JST,KST,LST = 48  1  1  1 NREC =        80 INTLOC = 7682
 II,JST,KST,LST = 49  1  1  1 NREC =        80 INTLOC = 7682
 II,JST,KST,LST = 50  1  1  1 NREC =        80 INTLOC = 7682
 II,JST,KST,LST = 51  1  1  1 NREC =        80 INTLOC = 7682
 II,JST,KST,LST = 52  1  1  1 NREC =        85 INTLOC = 1831
 II,JST,KST,LST = 53  1  1  1 NREC =        90 INTLOC = 5719
 II,JST,KST,LST = 54  1  1  1 NREC =        96 INTLOC = 7655
 II,JST,KST,LST = 55  1  1  1 NREC =       105 INTLOC = 1134
 II,JST,KST,LST = 56  1  1  1 NREC =       115 INTLOC =14555
 II,JST,KST,LST = 57  1  1  1 NREC =       139 INTLOC =  646
 II,JST,KST,LST = 58  1  1  1 NREC =       175 INTLOC =14109
 II,JST,KST,LST = 59  1  1  1 NREC =       221 INTLOC =14328
 II,JST,KST,LST = 60  1  1  1 NREC =       221 INTLOC =14328
 II,JST,KST,LST = 61  1  1  1 NREC =       221 INTLOC =14328
 II,JST,KST,LST = 62  1  1  1 NREC =       221 INTLOC =14328
 II,JST,KST,LST = 63  1  1  1 NREC =       221 INTLOC =14328
 II,JST,KST,LST = 64  1  1  1 NREC =       221 INTLOC =14328
 II,JST,KST,LST = 65  1  1  1 NREC =       221 INTLOC =14328
 II,JST,KST,LST = 66  1  1  1 NREC =       221 INTLOC =14328
 II,JST,KST,LST = 67  1  1  1 NREC =       221 INTLOC =14328
 II,JST,KST,LST = 68  1  1  1 NREC =       221 INTLOC =14328
 II,JST,KST,LST = 69  1  1  1 NREC =       221 INTLOC =14328
 II,JST,KST,LST = 70  1  1  1 NREC =       221 INTLOC =14328
 II,JST,KST,LST = 71  1  1  1 NREC =       221 INTLOC =14328
 II,JST,KST,LST = 72  1  1  1 NREC =       241 INTLOC = 5341
 II,JST,KST,LST = 73  1  1  1 NREC =       270 INTLOC =11244
 II,JST,KST,LST = 74  1  1  1 NREC =       311 INTLOC = 4095
 SCHWARZ INEQUALITY TEST SKIPPED      354994 INTEGRAL BLOCKS.
 TOTAL NUMBER OF NONZERO TWO-ELECTRON INTEGRALS =             5867455
        392 INTEGRAL RECORDS WERE STORED ON DISK FILE  8.
  ...... END OF TWO-ELECTRON INTEGRALS .....
 STEP CPU TIME =     0.84 TOTAL CPU TIME =        1.2 (    0.0 MIN)
 TOTAL WALL CLOCK TIME=        1.2 SECONDS, CPU UTILIZATION IS  99.15%

          ------------------------
          ROHF-GVB SCF CALCULATION
          ------------------------
 GVB STEP WILL USE    432231 WORDS OF MEMORY.

     MAXIT=  30   NPUNCH= 2   SQCDF TOL=1.0000E-05
     NUCLEAR ENERGY=      352.4077196179
     EXTRAP=T   DAMP=F   SHIFT=F   RSTRCT=F   DIIS=F  SOSCF=T
     SOSCF WILL OPTIMIZE    4213 ORBITAL ROTATIONS, SOGTOL=   0.250

 ITER EX     TOTAL ENERGY       E CHANGE        SQCDF       ORB. GRAD 
          ---------------START SECOND ORDER SCF---------------
   0  0    -1898.223363051 -1898.223363051   0.000000000   0.000000524
   1  1    -1898.223363051     0.000000000   0.000000000   0.000000010
   2  2    -1898.223363051    -0.000000000   0.000000000   0.000000010

          -----------------
          DENSITY CONVERGED
          -----------------

 FINAL GVB ENERGY IS    -1898.2233630512 AFTER   2 ITERATIONS

          ----------------------------
          SCF STATISTICS PER ITERATION
          ----------------------------
          NUMBER OF INTEGRAL PASSES       1
          FOCK FORMATION TIME         0.190
          GEMINAL OPT TIME            0.000
          MIXORB  OPT TIME            0.000
          OCBSE   OPT TIME            0.000

          ----------------
          PAIR INFORMATION
          ----------------
      ORBITAL   CI COEFFICIENTS    OCCUPATION NUMBERS   GVB      ENERGY
 PAIR 1   2     ORB 1     ORB 2      ORB 1     ORB 2    OVERLAP  LOWERING
  1  33  34    0.705981 -0.708230   0.99682   1.00318   0.00159  -0.26803

     THE MAXIMUM LAGRANGIAN ASYMMETRY IS 1.2706860E-08

          ------------
          EIGENVECTORS
          ------------

                      1          2          3          4          5
                 -183.3943  -183.3943   -26.3028   -26.3028   -21.5674
                     B1U        AG         B3U        AG         B1U 
    1  TI 1  S    0.118051   0.118051  -0.000000  -0.000000  -0.036519
    2  TI 1  S    0.211959   0.211959  -0.000000   0.000002  -0.077650
    3  TI 1  S    0.295844   0.295845  -0.000000  -0.000012  -0.145758
    4  TI 1  S    0.166691   0.166692  -0.000000  -0.000027  -0.099802
    5  TI 1  S    0.015352   0.015356  -0.000000  -0.000116   0.370233
    6  TI 1  S   -0.003031  -0.003025  -0.000000  -0.000115   0.434280
    7  TI 1  S    0.001217   0.001195  -0.000000   0.000401   0.030724
    8  TI 1  S   -0.013566  -0.013570  -0.000000   0.002162  -0.236184
    9  TI 1  S    0.008250   0.008166  -0.000000   0.000257   0.096998
   10  TI 1  S    0.000120   0.000094  -0.000000  -0.000624  -0.006095
   11  TI 1  X    0.000000  -0.000000   0.000000   0.000000   0.000000
   12  TI 1  Y    0.000000  -0.000000  -0.000000   0.000000   0.000000
   13  TI 1  Z    0.000004   0.000004  -0.000000   0.000000  -0.000093
   14  TI 1  X    0.000000  -0.000000  -0.000011   0.000000   0.000000
   15  TI 1  Y    0.000000  -0.000000  -0.000000   0.000000   0.000000
   16  TI 1  Z   -0.000004  -0.000004  -0.000000   0.000010  -0.000116
   17  TI 1  X    0.000000  -0.000000   0.000023   0.000000   0.000000
   18  TI 1  Y    0.000000  -0.000000  -0.000000   0.000000   0.000000
   19  TI 1  Z    0.000003   0.000002  -0.000000  -0.000020  -0.000137
   20  TI 1  X    0.000000  -0.000000  -0.000044   0.000000   0.000000
   21  TI 1  Y    0.000000  -0.000000  -0.000000   0.000000   0.000000
   22  TI 1  Z   -0.000002  -0.000002  -0.000000   0.000036  -0.000032
   23  TI 1  X    0.000000  -0.000000   0.000060   0.000000   0.000000
   24  TI 1  Y    0.000000  -0.000000  -0.000000   0.000000   0.000000
   25  TI 1  Z    0.000001   0.000001  -0.000000  -0.000055   0.000083
   26  TI 1  X    0.000000  -0.000000  -0.000064   0.000000   0.000000
   27  TI 1  Y    0.000000  -0.000000  -0.000000   0.000000   0.000000
   28  TI 1  Z    0.000002  -0.000001  -0.000000   0.000185  -0.000209
   29  TI 1  X    0.000000  -0.000000   0.000344   0.000000   0.000000
   30  TI 1  Y    0.000000  -0.000000  -0.000000   0.000000   0.000000
   31  TI 1  Z   -0.000003  -0.000009  -0.000000  -0.000936   0.000356
   32  TI 1  X    0.000000  -0.000000  -0.000029   0.000000   0.000000
   33  TI 1  Y    0.000000  -0.000000  -0.000000   0.000000   0.000000
   34  TI 1  Z   -0.000114   0.000004  -0.000000  -0.000104   0.002204
   35  TI 1 XX    0.003397   0.003435  -0.000000  -0.001073   0.076399
   36  TI 1 YY    0.003396   0.003435  -0.000000  -0.001117   0.076881
   37  TI 1 ZZ    0.003398   0.003435  -0.000000  -0.001047   0.076469
   38  TI 1 XY    0.000000  -0.000000  -0.000000   0.000000   0.000000
   39  TI 1 XZ    0.000000  -0.000000  -0.000002   0.000000   0.000000
   40  TI 1 YZ    0.000000  -0.000000  -0.000000   0.000000   0.000000
   41  TI 1 XX   -0.001790  -0.001747  -0.000000  -0.000152  -0.016149
   42  TI 1 YY   -0.001782  -0.001744  -0.000000   0.000142  -0.016619
   43  TI 1 ZZ   -0.001787  -0.001749  -0.000000  -0.000441  -0.016147
   44  TI 1 XY    0.000000  -0.000000  -0.000000   0.000000   0.000000
   45  TI 1 XZ    0.000000  -0.000000   0.000195   0.000000   0.000000
   46  TI 1 YZ    0.000000  -0.000000  -0.000000   0.000000   0.000000
   47  TI 1 XX   -0.000049  -0.000015  -0.000000   0.000149   0.001119
   48  TI 1 YY   -0.000023  -0.000021  -0.000000   0.000279   0.000671
   49  TI 1 ZZ   -0.000097  -0.000020  -0.000000  -0.000119   0.002112
   50  TI 1 XY    0.000000  -0.000000  -0.000000   0.000000   0.000000
   51  TI 1 XZ    0.000000  -0.000000   0.000121   0.000000   0.000000
   52  TI 1 YZ    0.000000  -0.000000  -0.000000   0.000000   0.000000
   53  TI 2  S   -0.118051   0.118051  -0.000000  -0.000000   0.036519
   54  TI 2  S   -0.211959   0.211959  -0.000000   0.000002   0.077650
   55  TI 2  S   -0.295844   0.295845  -0.000000  -0.000012   0.145758
   56  TI 2  S   -0.166691   0.166692  -0.000000  -0.000027   0.099802
   57  TI 2  S   -0.015352   0.015356  -0.000000  -0.000116  -0.370233
   58  TI 2  S    0.003031  -0.003025  -0.000000  -0.000115  -0.434280
   59  TI 2  S   -0.001217   0.001195  -0.000000   0.000401  -0.030724
   60  TI 2  S    0.013566  -0.013570  -0.000000   0.002162   0.236184
   61  TI 2  S   -0.008250   0.008166  -0.000000   0.000257  -0.096998
   62  TI 2  S   -0.000120   0.000094  -0.000000  -0.000624   0.006095
   63  TI 2  X    0.000000  -0.000000   0.000000   0.000000   0.000000
   64  TI 2  Y    0.000000  -0.000000  -0.000000   0.000000   0.000000
   65  TI 2  Z    0.000004  -0.000004  -0.000000  -0.000000  -0.000093
   66  TI 2  X    0.000000  -0.000000  -0.000011   0.000000   0.000000
   67  TI 2  Y    0.000000  -0.000000  -0.000000   0.000000   0.000000
   68  TI 2  Z   -0.000004   0.000004  -0.000000  -0.000010  -0.000116
   69  TI 2  X    0.000000  -0.000000   0.000023   0.000000   0.000000
   70  TI 2  Y    0.000000  -0.000000  -0.000000   0.000000   0.000000
   71  TI 2  Z    0.000003  -0.000002  -0.000000   0.000020  -0.000137
   72  TI 2  X    0.000000  -0.000000  -0.000044   0.000000   0.000000
   73  TI 2  Y    0.000000  -0.000000  -0.000000   0.000000   0.000000
   74  TI 2  Z   -0.000002   0.000002  -0.000000  -0.000036  -0.000032
   75  TI 2  X    0.000000  -0.000000   0.000060   0.000000   0.000000
   76  TI 2  Y    0.000000  -0.000000  -0.000000   0.000000   0.000000
   77  TI 2  Z    0.000001  -0.000001  -0.000000   0.000055   0.000083
   78  TI 2  X    0.000000  -0.000000  -0.000064   0.000000   0.000000
   79  TI 2  Y    0.000000  -0.000000  -0.000000   0.000000   0.000000
   80  TI 2  Z    0.000002   0.000001  -0.000000  -0.000185  -0.000209
   81  TI 2  X    0.000000  -0.000000   0.000344   0.000000   0.000000
   82  TI 2  Y    0.000000  -0.000000  -0.000000   0.000000   0.000000
   83  TI 2  Z   -0.000003   0.000009  -0.000000   0.000936   0.000356
   84  TI 2  X    0.000000  -0.000000  -0.000029   0.000000   0.000000
   85  TI 2  Y    0.000000  -0.000000  -0.000000   0.000000   0.000000
   86  TI 2  Z   -0.000114  -0.000004  -0.000000   0.000104   0.002204
   87  TI 2 XX   -0.003397   0.003435  -0.000000  -0.001073  -0.076399
   88  TI 2 YY   -0.003396   0.003435  -0.000000  -0.001117  -0.076881
   89  TI 2 ZZ   -0.003398   0.003435  -0.000000  -0.001047  -0.076469
   90  TI 2 XY    0.000000  -0.000000  -0.000000   0.000000   0.000000
   91  TI 2 XZ    0.000000  -0.000000   0.000002   0.000000   0.000000
   92  TI 2 YZ    0.000000  -0.000000  -0.000000   0.000000   0.000000
   93  TI 2 XX    0.001790  -0.001747  -0.000000  -0.000152   0.016149
   94  TI 2 YY    0.001782  -0.001744  -0.000000   0.000142   0.016619
   95  TI 2 ZZ    0.001787  -0.001749  -0.000000  -0.000441   0.016147
   96  TI 2 XY    0.000000  -0.000000  -0.000000   0.000000   0.000000
   97  TI 2 XZ    0.000000  -0.000000  -0.000195   0.000000   0.000000
   98  TI 2 YZ    0.000000  -0.000000  -0.000000   0.000000   0.000000
   99  TI 2 XX    0.000049  -0.000015  -0.000000   0.000149  -0.001119
  100  TI 2 YY    0.000023  -0.000021  -0.000000   0.000279  -0.000671
  101  TI 2 ZZ    0.000097  -0.000020  -0.000000  -0.000119  -0.002112
  102  TI 2 XY    0.000000  -0.000000  -0.000000   0.000000   0.000000
  103  TI 2 XZ    0.000000  -0.000000  -0.000121   0.000000   0.000000
  104  TI 2 YZ    0.000000  -0.000000  -0.000000   0.000000   0.000000
  105  F  3  S    0.000000  -0.000000   0.380122   0.380129   0.000000
  106  F  3  S    0.000000   0.000000   0.345684   0.345656   0.000000
  107  F  3  S    0.000000  -0.000001   0.040565   0.040690   0.000000
  108  F  3  S    0.000000   0.000004  -0.005455  -0.005781   0.000000
  109  F  3  S    0.000000   0.000000   0.002541   0.003209   0.000000
  110  F  3  X    0.000000   0.000001   0.000493   0.000481   0.000000
  111  F  3  Y    0.000000  -0.000000  -0.000000   0.000000   0.000000
  112  F  3  Z   -0.000002  -0.000000  -0.000000   0.000000   0.000048
  113  F  3  X    0.000000   0.000001  -0.000358  -0.000320   0.000000
  114  F  3  Y    0.000000  -0.000000  -0.000000   0.000000   0.000000
  115  F  3  Z   -0.000000  -0.000000  -0.000000   0.000000   0.000015
  116  F  3  X    0.000000   0.000007   0.000476   0.000716   0.000000
  117  F  3  Y    0.000000  -0.000000  -0.000000   0.000000   0.000000
  118  F  3  Z   -0.000015  -0.000000  -0.000000   0.000000   0.000410
  119  F  4  S    0.000000  -0.000000  -0.380122   0.380129   0.000000
  120  F  4  S    0.000000   0.000000  -0.345684   0.345656   0.000000
  121  F  4  S    0.000000  -0.000001  -0.040565   0.040690   0.000000
  122  F  4  S    0.000000   0.000004   0.005455  -0.005781   0.000000
  123  F  4  S    0.000000   0.000000  -0.002541   0.003209   0.000000
  124  F  4  X    0.000000  -0.000001   0.000493  -0.000481   0.000000
  125  F  4  Y    0.000000  -0.000000  -0.000000   0.000000   0.000000
  126  F  4  Z   -0.000002  -0.000000  -0.000000   0.000000   0.000048
  127  F  4  X    0.000000  -0.000001  -0.000358   0.000320   0.000000
  128  F  4  Y    0.000000  -0.000000  -0.000000   0.000000   0.000000
  129  F  4  Z   -0.000000  -0.000000  -0.000000   0.000000   0.000015
  130  F  4  X    0.000000  -0.000007   0.000476  -0.000716   0.000000
  131  F  4  Y    0.000000  -0.000000  -0.000000   0.000000   0.000000
  132  F  4  Z   -0.000015  -0.000000  -0.000000   0.000000   0.000410
  133  H  5  S   -0.000003   0.000002  -0.000000   0.000005   0.000066
  134  H  5  S    0.000005  -0.000002  -0.000000  -0.000092  -0.000181
  135  H  5  S    0.000017   0.000002  -0.000000  -0.000107  -0.000262
  136  H  5  X    0.000000  -0.000000  -0.000001   0.000000   0.000000
  137  H  5  Y    0.000001  -0.000001  -0.000000  -0.000034  -0.000051
  138  H  5  Z   -0.000001   0.000000  -0.000000   0.000022   0.000046
  139  H  6  S    0.000003   0.000002  -0.000000   0.000005  -0.000066
  140  H  6  S   -0.000005  -0.000002  -0.000000  -0.000092   0.000181
  141  H  6  S   -0.000017   0.000002  -0.000000  -0.000107   0.000262
  142  H  6  X    0.000000  -0.000000  -0.000001   0.000000   0.000000
  143  H  6  Y    0.000001   0.000001  -0.000000   0.000034  -0.000051
  144  H  6  Z   -0.000001  -0.000000  -0.000000  -0.000022   0.000046
  145  H  7  S    0.000003   0.000002  -0.000000   0.000005  -0.000066
  146  H  7  S   -0.000005  -0.000002  -0.000000  -0.000092   0.000181
  147  H  7  S   -0.000017   0.000002  -0.000000  -0.000107   0.000262
  148  H  7  X    0.000000  -0.000000  -0.000001   0.000000   0.000000
  149  H  7  Y   -0.000001  -0.000001  -0.000000  -0.000034   0.000051
  150  H  7  Z   -0.000001  -0.000000  -0.000000  -0.000022   0.000046
  151  H  8  S   -0.000003   0.000002  -0.000000   0.000005   0.000066
  152  H  8  S    0.000005  -0.000002  -0.000000  -0.000092  -0.000181
  153  H  8  S    0.000017   0.000002  -0.000000  -0.000107  -0.000262
  154  H  8  X    0.000000  -0.000000  -0.000001   0.000000   0.000000
  155  H  8  Y   -0.000001   0.000001  -0.000000   0.000034   0.000051
  156  H  8  Z   -0.000001   0.000000  -0.000000   0.000022   0.000046

                      6          7          8          9         10
                  -21.5674   -17.9433   -17.9433   -17.9312   -17.9312
                     AG         B3G        B2U        B1U        AG  
    1  TI 1  S   -0.036519   0.000000  -0.000000  -0.000015  -0.000015
    2  TI 1  S   -0.077648   0.000000  -0.000000  -0.000032  -0.000032
    3  TI 1  S   -0.145765   0.000000  -0.000000  -0.000060  -0.000061
    4  TI 1  S   -0.099823   0.000000  -0.000000  -0.000035  -0.000039
    5  TI 1  S    0.370161   0.000000  -0.000000   0.000176   0.000160
    6  TI 1  S    0.434170   0.000000  -0.000000   0.000159   0.000136
    7  TI 1  S    0.031191   0.000000  -0.000000   0.000002   0.000084
    8  TI 1  S   -0.236210   0.000000  -0.000000  -0.000164   0.000015
    9  TI 1  S    0.098817   0.000000  -0.000000  -0.000028  -0.000130
   10  TI 1  S   -0.005649   0.000000  -0.000000  -0.000854  -0.000450
   11  TI 1  X   -0.000000   0.000000  -0.000000   0.000000   0.000000
   12  TI 1  Y   -0.000000   0.222566   0.222567   0.000000   0.000000
   13  TI 1  Z   -0.000094   0.000000  -0.000000   0.222610   0.222610
   14  TI 1  X   -0.000000   0.000000  -0.000000   0.000000   0.000000
   15  TI 1  Y   -0.000000   0.301531   0.301529   0.000000   0.000000
   16  TI 1  Z   -0.000112   0.000000  -0.000000   0.301603   0.301600
   17  TI 1  X   -0.000000   0.000000  -0.000000   0.000000   0.000000
   18  TI 1  Y   -0.000000   0.252656   0.252661   0.000000   0.000000
   19  TI 1  Z   -0.000150   0.000000  -0.000000   0.252379   0.252388
   20  TI 1  X   -0.000000   0.000000  -0.000000   0.000000   0.000000
   21  TI 1  Y   -0.000000   0.051906   0.051893   0.000000   0.000000
   22  TI 1  Z    0.000001   0.000000  -0.000000   0.052055   0.052030
   23  TI 1  X   -0.000000   0.000000  -0.000000   0.000000   0.000000
   24  TI 1  Y   -0.000000  -0.003425  -0.003399   0.000000   0.000000
   25  TI 1  Z    0.000009   0.000000  -0.000000  -0.003264  -0.003197
   26  TI 1  X   -0.000000   0.000000  -0.000000   0.000000   0.000000
   27  TI 1  Y   -0.000000   0.002109   0.002060   0.000000   0.000000
   28  TI 1  Z   -0.000077   0.000000  -0.000000   0.002278   0.002071
   29  TI 1  X   -0.000000   0.000000  -0.000000   0.000000   0.000000
   30  TI 1  Y   -0.000000  -0.000991  -0.000919   0.000000   0.000000
   31  TI 1  Z    0.000459   0.000000  -0.000000  -0.001401  -0.001013
   32  TI 1  X   -0.000000   0.000000  -0.000000   0.000000   0.000000
   33  TI 1  Y   -0.000000   0.000473   0.000157   0.000000   0.000000
   34  TI 1  Z   -0.000232   0.000000  -0.000000   0.000084   0.000446
   35  TI 1 XX    0.075669   0.000000  -0.000000   0.000212   0.000042
   36  TI 1 YY    0.076119   0.000000  -0.000000   0.000203   0.000073
   37  TI 1 ZZ    0.075730   0.000000  -0.000000   0.000192   0.000028
   38  TI 1 XY   -0.000000   0.000000  -0.000000   0.000000   0.000000
   39  TI 1 XZ   -0.000000   0.000000  -0.000000   0.000000   0.000000
   40  TI 1 YZ   -0.000000  -0.000040  -0.000042   0.000000   0.000000
   41  TI 1 XX   -0.017019   0.000000  -0.000000   0.000192   0.000095
   42  TI 1 YY   -0.017362   0.000000  -0.000000   0.000245   0.000059
   43  TI 1 ZZ   -0.016872   0.000000  -0.000000   0.000103   0.000118
   44  TI 1 XY   -0.000000   0.000000  -0.000000   0.000000   0.000000
   45  TI 1 XZ   -0.000000   0.000000  -0.000000   0.000000   0.000000
   46  TI 1 YZ   -0.000000  -0.000013  -0.000011   0.000000   0.000000
   47  TI 1 XX    0.000450   0.000000  -0.000000   0.000079   0.000052
   48  TI 1 YY    0.000717   0.000000  -0.000000   0.000383  -0.000076
   49  TI 1 ZZ    0.000573   0.000000  -0.000000  -0.000027   0.000113
   50  TI 1 XY   -0.000000   0.000000  -0.000000   0.000000   0.000000
   51  TI 1 XZ   -0.000000   0.000000  -0.000000   0.000000   0.000000
   52  TI 1 YZ   -0.000000   0.000048   0.000046   0.000000   0.000000
   53  TI 2  S   -0.036519   0.000000  -0.000000   0.000015  -0.000015
   54  TI 2  S   -0.077648   0.000000  -0.000000   0.000032  -0.000032
   55  TI 2  S   -0.145765   0.000000  -0.000000   0.000060  -0.000061
   56  TI 2  S   -0.099823   0.000000  -0.000000   0.000035  -0.000039
   57  TI 2  S    0.370161   0.000000  -0.000000  -0.000176   0.000160
   58  TI 2  S    0.434170   0.000000  -0.000000  -0.000159   0.000136
   59  TI 2  S    0.031191   0.000000  -0.000000  -0.000002   0.000084
   60  TI 2  S   -0.236210   0.000000  -0.000000   0.000164   0.000015
   61  TI 2  S    0.098817   0.000000  -0.000000   0.000028  -0.000130
   62  TI 2  S   -0.005649   0.000000  -0.000000   0.000854  -0.000450
   63  TI 2  X   -0.000000   0.000000  -0.000000   0.000000   0.000000
   64  TI 2  Y   -0.000000  -0.222566   0.222567   0.000000   0.000000
   65  TI 2  Z    0.000094   0.000000  -0.000000   0.222610  -0.222610
   66  TI 2  X   -0.000000   0.000000  -0.000000   0.000000   0.000000
   67  TI 2  Y   -0.000000  -0.301531   0.301529   0.000000   0.000000
   68  TI 2  Z    0.000112   0.000000  -0.000000   0.301603  -0.301600
   69  TI 2  X   -0.000000   0.000000  -0.000000   0.000000   0.000000
   70  TI 2  Y   -0.000000  -0.252656   0.252661   0.000000   0.000000
   71  TI 2  Z    0.000150   0.000000  -0.000000   0.252379  -0.252388
   72  TI 2  X   -0.000000   0.000000  -0.000000   0.000000   0.000000
   73  TI 2  Y   -0.000000  -0.051906   0.051893   0.000000   0.000000
   74  TI 2  Z   -0.000001   0.000000  -0.000000   0.052055  -0.052030
   75  TI 2  X   -0.000000   0.000000  -0.000000   0.000000   0.000000
   76  TI 2  Y   -0.000000   0.003425  -0.003399   0.000000   0.000000
   77  TI 2  Z   -0.000009   0.000000  -0.000000  -0.003264   0.003197
   78  TI 2  X   -0.000000   0.000000  -0.000000   0.000000   0.000000
   79  TI 2  Y   -0.000000  -0.002109   0.002060   0.000000   0.000000
   80  TI 2  Z    0.000077   0.000000  -0.000000   0.002278  -0.002071
   81  TI 2  X   -0.000000   0.000000  -0.000000   0.000000   0.000000
   82  TI 2  Y   -0.000000   0.000991  -0.000919   0.000000   0.000000
   83  TI 2  Z   -0.000459   0.000000  -0.000000  -0.001401   0.001013
   84  TI 2  X   -0.000000   0.000000  -0.000000   0.000000   0.000000
   85  TI 2  Y   -0.000000  -0.000473   0.000157   0.000000   0.000000
   86  TI 2  Z    0.000232   0.000000  -0.000000   0.000084  -0.000446
   87  TI 2 XX    0.075669   0.000000  -0.000000  -0.000212   0.000042
   88  TI 2 YY    0.076119   0.000000  -0.000000  -0.000203   0.000073
   89  TI 2 ZZ    0.075730   0.000000  -0.000000  -0.000192   0.000028
   90  TI 2 XY   -0.000000   0.000000  -0.000000   0.000000   0.000000
   91  TI 2 XZ   -0.000000   0.000000  -0.000000   0.000000   0.000000
   92  TI 2 YZ   -0.000000  -0.000040   0.000042   0.000000   0.000000
   93  TI 2 XX   -0.017019   0.000000  -0.000000  -0.000192   0.000095
   94  TI 2 YY   -0.017362   0.000000  -0.000000  -0.000245   0.000059
   95  TI 2 ZZ   -0.016872   0.000000  -0.000000  -0.000103   0.000118
   96  TI 2 XY   -0.000000   0.000000  -0.000000   0.000000   0.000000
   97  TI 2 XZ   -0.000000   0.000000  -0.000000   0.000000   0.000000
   98  TI 2 YZ   -0.000000  -0.000013   0.000011   0.000000   0.000000
   99  TI 2 XX    0.000450   0.000000  -0.000000  -0.000079   0.000052
  100  TI 2 YY    0.000717   0.000000  -0.000000  -0.000383  -0.000076
  101  TI 2 ZZ    0.000573   0.000000  -0.000000   0.000027   0.000113
  102  TI 2 XY   -0.000000   0.000000  -0.000000   0.000000   0.000000
  103  TI 2 XZ   -0.000000   0.000000  -0.000000   0.000000   0.000000
  104  TI 2 YZ   -0.000000   0.000048  -0.000046   0.000000   0.000000
  105  F  3  S   -0.000001   0.000000  -0.000000   0.000000  -0.000002
  106  F  3  S    0.000020   0.000000  -0.000000   0.000000   0.000002
  107  F  3  S   -0.000042   0.000000  -0.000000   0.000000  -0.000031
  108  F  3  S    0.000062   0.000000  -0.000000   0.000000   0.000117
  109  F  3  S   -0.000252   0.000000  -0.000000   0.000000  -0.000063
  110  F  3  X   -0.000035   0.000000  -0.000000   0.000000   0.000041
  111  F  3  Y   -0.000000   0.000000   0.000013   0.000000   0.000000
  112  F  3  Z   -0.000000   0.000000  -0.000000  -0.000046   0.000000
  113  F  3  X   -0.000027   0.000000  -0.000000   0.000000  -0.000092
  114  F  3  Y   -0.000000   0.000000  -0.000007   0.000000   0.000000
  115  F  3  Z   -0.000000   0.000000  -0.000000   0.000076   0.000000
  116  F  3  X   -0.000268   0.000000  -0.000000   0.000000   0.000110
  117  F  3  Y   -0.000000   0.000000   0.000058   0.000000   0.000000
  118  F  3  Z   -0.000000   0.000000  -0.000000  -0.000251   0.000000
  119  F  4  S   -0.000001   0.000000  -0.000000   0.000000  -0.000002
  120  F  4  S    0.000020   0.000000  -0.000000   0.000000   0.000002
  121  F  4  S   -0.000042   0.000000  -0.000000   0.000000  -0.000031
  122  F  4  S    0.000062   0.000000  -0.000000   0.000000   0.000117
  123  F  4  S   -0.000252   0.000000  -0.000000   0.000000  -0.000063
  124  F  4  X    0.000035   0.000000  -0.000000   0.000000  -0.000041
  125  F  4  Y   -0.000000   0.000000   0.000013   0.000000   0.000000
  126  F  4  Z   -0.000000   0.000000  -0.000000  -0.000046   0.000000
  127  F  4  X    0.000027   0.000000  -0.000000   0.000000   0.000092
  128  F  4  Y   -0.000000   0.000000  -0.000007   0.000000   0.000000
  129  F  4  Z   -0.000000   0.000000  -0.000000   0.000076   0.000000
  130  F  4  X    0.000268   0.000000  -0.000000   0.000000  -0.000110
  131  F  4  Y   -0.000000   0.000000   0.000058   0.000000   0.000000
  132  F  4  Z   -0.000000   0.000000  -0.000000  -0.000251   0.000000
  133  H  5  S   -0.000051   0.000003  -0.000007   0.000007  -0.000007
  134  H  5  S    0.000118   0.000094  -0.000066   0.000058  -0.000027
  135  H  5  S   -0.000176  -0.000108  -0.000057   0.000171   0.000128
  136  H  5  X   -0.000000   0.000000  -0.000000   0.000000   0.000000
  137  H  5  Y    0.000045  -0.000039   0.000039  -0.000008   0.000021
  138  H  5  Z   -0.000030   0.000028  -0.000025   0.000004  -0.000019
  139  H  6  S   -0.000051   0.000003   0.000007  -0.000007  -0.000007
  140  H  6  S    0.000118   0.000094   0.000066  -0.000058  -0.000027
  141  H  6  S   -0.000176  -0.000108   0.000057  -0.000171   0.000128
  142  H  6  X   -0.000000   0.000000  -0.000000   0.000000   0.000000
  143  H  6  Y   -0.000045   0.000039   0.000039  -0.000008  -0.000021
  144  H  6  Z    0.000030  -0.000028  -0.000025   0.000004   0.000019
  145  H  7  S   -0.000051  -0.000003  -0.000007  -0.000007  -0.000007
  146  H  7  S    0.000118  -0.000094  -0.000066  -0.000058  -0.000027
  147  H  7  S   -0.000176   0.000108  -0.000057  -0.000171   0.000128
  148  H  7  X   -0.000000   0.000000  -0.000000   0.000000   0.000000
  149  H  7  Y    0.000045   0.000039   0.000039   0.000008   0.000021
  150  H  7  Z    0.000030   0.000028   0.000025   0.000004   0.000019
  151  H  8  S   -0.000051  -0.000003   0.000007   0.000007  -0.000007
  152  H  8  S    0.000118  -0.000094   0.000066   0.000058  -0.000027
  153  H  8  S   -0.000176   0.000108   0.000057   0.000171   0.000128
  154  H  8  X   -0.000000   0.000000  -0.000000   0.000000   0.000000
  155  H  8  Y   -0.000045  -0.000039   0.000039   0.000008  -0.000021
  156  H  8  Z   -0.000030  -0.000028   0.000025   0.000004  -0.000019

                     11         12         13         14         15
                  -17.9308   -17.9308    -2.9908    -2.9905    -1.9173
                     B2G        B3U        AG         B1U        AG  
    1  TI 1  S   -0.000000  -0.000000   0.013177   0.013182  -0.000183
    2  TI 1  S   -0.000000  -0.000000   0.028891   0.028904  -0.000395
    3  TI 1  S   -0.000000  -0.000000   0.054441   0.054461  -0.000782
    4  TI 1  S   -0.000000  -0.000000   0.043066   0.043076  -0.000689
    5  TI 1  S   -0.000000  -0.000000  -0.203051  -0.203163   0.002612
    6  TI 1  S   -0.000000  -0.000000  -0.348071  -0.348251   0.004735
    7  TI 1  S   -0.000000  -0.000000   0.472385   0.472708  -0.007339
    8  TI 1  S   -0.000000  -0.000000   0.604470   0.605567  -0.002866
    9  TI 1  S   -0.000000  -0.000000  -0.168675  -0.169187   0.006503
   10  TI 1  S   -0.000000  -0.000000   0.000353   0.001917  -0.001511
   11  TI 1  X    0.222586   0.222586  -0.000000   0.000000  -0.000000
   12  TI 1  Y   -0.000000  -0.000000  -0.000000   0.000000  -0.000000
   13  TI 1  Z   -0.000000  -0.000000  -0.000193  -0.000163  -0.079340
   14  TI 1  X    0.301563   0.301561  -0.000000   0.000000  -0.000000
   15  TI 1  Y   -0.000000  -0.000000  -0.000000   0.000000  -0.000000
   16  TI 1  Z   -0.000000  -0.000000  -0.000311  -0.000265  -0.120228
   17  TI 1  X    0.252439   0.252444  -0.000000   0.000000  -0.000000
   18  TI 1  Y   -0.000000  -0.000000  -0.000000   0.000000  -0.000000
   19  TI 1  Z   -0.000000  -0.000000  -0.000102  -0.000067  -0.084883
   20  TI 1  X    0.052016   0.052004  -0.000000   0.000000  -0.000000
   21  TI 1  Y   -0.000000  -0.000000  -0.000000   0.000000  -0.000000
   22  TI 1  Z   -0.000000  -0.000000  -0.000069  -0.000148   0.195982
   23  TI 1  X   -0.003123  -0.003098  -0.000000   0.000000  -0.000000
   24  TI 1  Y   -0.000000  -0.000000  -0.000000   0.000000  -0.000000
   25  TI 1  Z   -0.000000  -0.000000   0.001254   0.001161   0.409061
   26  TI 1  X    0.002043   0.001986  -0.000000   0.000000  -0.000000
   27  TI 1  Y   -0.000000  -0.000000  -0.000000   0.000000  -0.000000
   28  TI 1  Z   -0.000000  -0.000000   0.001146   0.000830   0.187839
   29  TI 1  X   -0.001000  -0.000818  -0.000000   0.000000  -0.000000
   30  TI 1  Y   -0.000000  -0.000000  -0.000000   0.000000  -0.000000
   31  TI 1  Z   -0.000000  -0.000000   0.001607   0.002160   0.006041
   32  TI 1  X    0.000330   0.000221  -0.000000   0.000000  -0.000000
   33  TI 1  Y   -0.000000  -0.000000  -0.000000   0.000000  -0.000000
   34  TI 1  Z   -0.000000  -0.000000  -0.000975   0.004127   0.000522
   35  TI 1 XX   -0.000000  -0.000000  -0.041330  -0.041881  -0.006522
   36  TI 1 YY   -0.000000  -0.000000  -0.037640  -0.037842   0.003005
   37  TI 1 ZZ   -0.000000  -0.000000  -0.039373  -0.039476  -0.003564
   38  TI 1 XY   -0.000000  -0.000000  -0.000000   0.000000  -0.000000
   39  TI 1 XZ   -0.000019  -0.000031  -0.000000   0.000000  -0.000000
   40  TI 1 YZ   -0.000000  -0.000000  -0.000000   0.000000  -0.000000
   41  TI 1 XX   -0.000000  -0.000000   0.040577   0.041026  -0.000638
   42  TI 1 YY   -0.000000  -0.000000   0.038558   0.038550  -0.003905
   43  TI 1 ZZ   -0.000000  -0.000000   0.040972   0.041300   0.004972
   44  TI 1 XY   -0.000000  -0.000000  -0.000000   0.000000  -0.000000
   45  TI 1 XZ   -0.000028   0.000053  -0.000000   0.000000  -0.000000
   46  TI 1 YZ   -0.000000  -0.000000  -0.000000   0.000000  -0.000000
   47  TI 1 XX   -0.000000  -0.000000  -0.000153   0.000801   0.000744
   48  TI 1 YY   -0.000000  -0.000000   0.000824   0.000019   0.000932
   49  TI 1 ZZ   -0.000000  -0.000000   0.000008   0.002968  -0.000778
   50  TI 1 XY   -0.000000  -0.000000  -0.000000   0.000000  -0.000000
   51  TI 1 XZ    0.000011  -0.000029  -0.000000   0.000000  -0.000000
   52  TI 1 YZ   -0.000000  -0.000000  -0.000000   0.000000  -0.000000
   53  TI 2  S   -0.000000  -0.000000   0.013177  -0.013182  -0.000183
   54  TI 2  S   -0.000000  -0.000000   0.028891  -0.028904  -0.000395
   55  TI 2  S   -0.000000  -0.000000   0.054441  -0.054461  -0.000782
   56  TI 2  S   -0.000000  -0.000000   0.043066  -0.043076  -0.000689
   57  TI 2  S   -0.000000  -0.000000  -0.203051   0.203163   0.002612
   58  TI 2  S   -0.000000  -0.000000  -0.348071   0.348251   0.004735
   59  TI 2  S   -0.000000  -0.000000   0.472385  -0.472708  -0.007339
   60  TI 2  S   -0.000000  -0.000000   0.604470  -0.605567  -0.002866
   61  TI 2  S   -0.000000  -0.000000  -0.168675   0.169187   0.006503
   62  TI 2  S   -0.000000  -0.000000   0.000353  -0.001917  -0.001511
   63  TI 2  X   -0.222586   0.222586  -0.000000   0.000000  -0.000000
   64  TI 2  Y   -0.000000  -0.000000  -0.000000   0.000000  -0.000000
   65  TI 2  Z   -0.000000  -0.000000   0.000193  -0.000163   0.079340
   66  TI 2  X   -0.301563   0.301561  -0.000000   0.000000  -0.000000
   67  TI 2  Y   -0.000000  -0.000000  -0.000000   0.000000  -0.000000
   68  TI 2  Z   -0.000000  -0.000000   0.000311  -0.000265   0.120228
   69  TI 2  X   -0.252439   0.252444  -0.000000   0.000000  -0.000000
   70  TI 2  Y   -0.000000  -0.000000  -0.000000   0.000000  -0.000000
   71  TI 2  Z   -0.000000  -0.000000   0.000102  -0.000067   0.084883
   72  TI 2  X   -0.052016   0.052004  -0.000000   0.000000  -0.000000
   73  TI 2  Y   -0.000000  -0.000000  -0.000000   0.000000  -0.000000
   74  TI 2  Z   -0.000000  -0.000000   0.000069  -0.000148  -0.195982
   75  TI 2  X    0.003123  -0.003098  -0.000000   0.000000  -0.000000
   76  TI 2  Y   -0.000000  -0.000000  -0.000000   0.000000  -0.000000
   77  TI 2  Z   -0.000000  -0.000000  -0.001254   0.001161  -0.409061
   78  TI 2  X   -0.002043   0.001986  -0.000000   0.000000  -0.000000
   79  TI 2  Y   -0.000000  -0.000000  -0.000000   0.000000  -0.000000
   80  TI 2  Z   -0.000000  -0.000000  -0.001146   0.000830  -0.187839
   81  TI 2  X    0.001000  -0.000818  -0.000000   0.000000  -0.000000
   82  TI 2  Y   -0.000000  -0.000000  -0.000000   0.000000  -0.000000
   83  TI 2  Z   -0.000000  -0.000000  -0.001607   0.002160  -0.006041
   84  TI 2  X   -0.000330   0.000221  -0.000000   0.000000  -0.000000
   85  TI 2  Y   -0.000000  -0.000000  -0.000000   0.000000  -0.000000
   86  TI 2  Z   -0.000000  -0.000000   0.000975   0.004127  -0.000522
   87  TI 2 XX   -0.000000  -0.000000  -0.041330   0.041881  -0.006522
   88  TI 2 YY   -0.000000  -0.000000  -0.037640   0.037842   0.003005
   89  TI 2 ZZ   -0.000000  -0.000000  -0.039373   0.039476  -0.003564
   90  TI 2 XY   -0.000000  -0.000000  -0.000000   0.000000  -0.000000
   91  TI 2 XZ   -0.000019   0.000031  -0.000000   0.000000  -0.000000
   92  TI 2 YZ   -0.000000  -0.000000  -0.000000   0.000000  -0.000000
   93  TI 2 XX   -0.000000  -0.000000   0.040577  -0.041026  -0.000638
   94  TI 2 YY   -0.000000  -0.000000   0.038558  -0.038550  -0.003905
   95  TI 2 ZZ   -0.000000  -0.000000   0.040972  -0.041300   0.004972
   96  TI 2 XY   -0.000000  -0.000000  -0.000000   0.000000  -0.000000
   97  TI 2 XZ   -0.000028  -0.000053  -0.000000   0.000000  -0.000000
   98  TI 2 YZ   -0.000000  -0.000000  -0.000000   0.000000  -0.000000
   99  TI 2 XX   -0.000000  -0.000000  -0.000153  -0.000801   0.000744
  100  TI 2 YY   -0.000000  -0.000000   0.000824  -0.000019   0.000932
  101  TI 2 ZZ   -0.000000  -0.000000   0.000008  -0.002968  -0.000778
  102  TI 2 XY   -0.000000  -0.000000  -0.000000   0.000000  -0.000000
  103  TI 2 XZ    0.000011   0.000029  -0.000000   0.000000  -0.000000
  104  TI 2 YZ   -0.000000  -0.000000  -0.000000   0.000000  -0.000000
  105  F  3  S   -0.000000   0.000002  -0.001235   0.000000  -0.014104
  106  F  3  S   -0.000000  -0.000003  -0.002038   0.000000  -0.024961
  107  F  3  S   -0.000000   0.000029   0.000219   0.000000   0.008632
  108  F  3  S   -0.000000  -0.000100   0.005957   0.000000   0.063121
  109  F  3  S   -0.000000   0.000044   0.001899   0.000000   0.042755
  110  F  3  X   -0.000000  -0.000027   0.001920   0.000000   0.013374
  111  F  3  Y   -0.000000  -0.000000  -0.000000   0.000000  -0.000000
  112  F  3  Z    0.000046  -0.000000  -0.000000  -0.002597  -0.000000
  113  F  3  X   -0.000000   0.000030   0.001680   0.000000   0.011222
  114  F  3  Y   -0.000000  -0.000000  -0.000000   0.000000  -0.000000
  115  F  3  Z   -0.000088  -0.000000  -0.000000  -0.002379  -0.000000
  116  F  3  X   -0.000000   0.000048  -0.000494   0.000000   0.002812
  117  F  3  Y   -0.000000  -0.000000  -0.000000   0.000000  -0.000000
  118  F  3  Z    0.000156  -0.000000  -0.000000   0.001841  -0.000000
  119  F  4  S   -0.000000  -0.000002  -0.001235   0.000000  -0.014104
  120  F  4  S   -0.000000   0.000003  -0.002038   0.000000  -0.024961
  121  F  4  S   -0.000000  -0.000029   0.000219   0.000000   0.008632
  122  F  4  S   -0.000000   0.000100   0.005957   0.000000   0.063121
  123  F  4  S   -0.000000  -0.000044   0.001899   0.000000   0.042755
  124  F  4  X   -0.000000  -0.000027  -0.001920   0.000000  -0.013374
  125  F  4  Y   -0.000000  -0.000000  -0.000000   0.000000  -0.000000
  126  F  4  Z   -0.000046  -0.000000  -0.000000  -0.002597  -0.000000
  127  F  4  X   -0.000000   0.000030  -0.001680   0.000000  -0.011222
  128  F  4  Y   -0.000000  -0.000000  -0.000000   0.000000  -0.000000
  129  F  4  Z    0.000088  -0.000000  -0.000000  -0.002379  -0.000000
  130  F  4  X   -0.000000   0.000048   0.000494   0.000000  -0.002812
  131  F  4  Y   -0.000000  -0.000000  -0.000000   0.000000  -0.000000
  132  F  4  Z   -0.000156  -0.000000  -0.000000   0.001841  -0.000000
  133  H  5  S   -0.000000  -0.000000   0.001181  -0.001176  -0.002748
  134  H  5  S   -0.000000  -0.000000   0.001710  -0.001810  -0.003485
  135  H  5  S   -0.000000  -0.000000  -0.000871  -0.000170  -0.000689
  136  H  5  X    0.000001  -0.000003  -0.000000   0.000000  -0.000000
  137  H  5  Y   -0.000000  -0.000000   0.000636  -0.000666  -0.000767
  138  H  5  Z   -0.000000  -0.000000  -0.000366   0.000388   0.000029
  139  H  6  S   -0.000000  -0.000000   0.001181   0.001176  -0.002748
  140  H  6  S   -0.000000  -0.000000   0.001710   0.001810  -0.003485
  141  H  6  S   -0.000000  -0.000000  -0.000871   0.000170  -0.000689
  142  H  6  X   -0.000001  -0.000003  -0.000000   0.000000  -0.000000
  143  H  6  Y   -0.000000  -0.000000  -0.000636  -0.000666   0.000767
  144  H  6  Z   -0.000000  -0.000000   0.000366   0.000388  -0.000029
  145  H  7  S   -0.000000  -0.000000   0.001181   0.001176  -0.002748
  146  H  7  S   -0.000000  -0.000000   0.001710   0.001810  -0.003485
  147  H  7  S   -0.000000  -0.000000  -0.000871   0.000170  -0.000689
  148  H  7  X   -0.000001  -0.000003  -0.000000   0.000000  -0.000000
  149  H  7  Y   -0.000000  -0.000000   0.000636   0.000666  -0.000767
  150  H  7  Z   -0.000000  -0.000000   0.000366   0.000388  -0.000029
  151  H  8  S   -0.000000  -0.000000   0.001181  -0.001176  -0.002748
  152  H  8  S   -0.000000  -0.000000   0.001710  -0.001810  -0.003485
  153  H  8  S   -0.000000  -0.000000  -0.000871  -0.000170  -0.000689
  154  H  8  X    0.000001  -0.000003  -0.000000   0.000000  -0.000000
  155  H  8  Y   -0.000000  -0.000000  -0.000636   0.000666   0.000767
  156  H  8  Z   -0.000000  -0.000000  -0.000366   0.000388   0.000029

                     16         17         18         19         20
                   -1.9099    -1.9096    -1.9093    -1.9076    -1.9060
                     B2U        B3G        B3U        B1U        B2G 
    1  TI 1  S    0.000000   0.000000  -0.000000  -0.000063   0.000000
    2  TI 1  S    0.000000   0.000000  -0.000000  -0.000138   0.000000
    3  TI 1  S    0.000000   0.000000  -0.000000  -0.000267   0.000000
    4  TI 1  S    0.000000   0.000000  -0.000000  -0.000220   0.000000
    5  TI 1  S    0.000000   0.000000  -0.000000   0.000953   0.000000
    6  TI 1  S    0.000000   0.000000  -0.000000   0.001857   0.000000
    7  TI 1  S    0.000000   0.000000  -0.000000  -0.004286   0.000000
    8  TI 1  S    0.000000   0.000000  -0.000000   0.005527   0.000000
    9  TI 1  S    0.000000   0.000000  -0.000000  -0.005773   0.000000
   10  TI 1  S    0.000000   0.000000  -0.000000  -0.001284   0.000000
   11  TI 1  X    0.000000   0.000000  -0.080328  -0.000000  -0.081069
   12  TI 1  Y   -0.081105  -0.081145  -0.000000  -0.000000   0.000000
   13  TI 1  Z    0.000000   0.000000  -0.000000  -0.081161   0.000000
   14  TI 1  X    0.000000   0.000000  -0.121797  -0.000000  -0.122938
   15  TI 1  Y   -0.122900  -0.122954  -0.000000  -0.000000   0.000000
   16  TI 1  Z    0.000000   0.000000  -0.000000  -0.123038   0.000000
   17  TI 1  X    0.000000   0.000000  -0.085720  -0.000000  -0.086471
   18  TI 1  Y   -0.086984  -0.087048  -0.000000  -0.000000   0.000000
   19  TI 1  Z    0.000000   0.000000  -0.000000  -0.086708   0.000000
   20  TI 1  X    0.000000   0.000000   0.197541  -0.000000   0.199324
   21  TI 1  Y    0.200874   0.201046  -0.000000  -0.000000   0.000000
   22  TI 1  Z    0.000000   0.000000  -0.000000   0.200357   0.000000
   23  TI 1  X    0.000000   0.000000   0.415595  -0.000000   0.419797
   24  TI 1  Y    0.420328   0.420396  -0.000000  -0.000000   0.000000
   25  TI 1  Z    0.000000   0.000000  -0.000000   0.419685   0.000000
   26  TI 1  X    0.000000   0.000000   0.191059  -0.000000   0.192630
   27  TI 1  Y    0.189391   0.189856  -0.000000  -0.000000   0.000000
   28  TI 1  Z    0.000000   0.000000  -0.000000   0.191157   0.000000
   29  TI 1  X    0.000000   0.000000   0.005156  -0.000000   0.004296
   30  TI 1  Y    0.003641   0.002895  -0.000000  -0.000000   0.000000
   31  TI 1  Z    0.000000   0.000000  -0.000000   0.006263   0.000000
   32  TI 1  X    0.000000   0.000000   0.001087  -0.000000   0.002898
   33  TI 1  Y    0.001386   0.004308  -0.000000  -0.000000   0.000000
   34  TI 1  Z    0.000000   0.000000  -0.000000   0.006084   0.000000
   35  TI 1 XX    0.000000   0.000000  -0.000000  -0.003942   0.000000
   36  TI 1 YY    0.000000   0.000000  -0.000000   0.006126   0.000000
   37  TI 1 ZZ    0.000000   0.000000  -0.000000  -0.002920   0.000000
   38  TI 1 XY    0.000000   0.000000  -0.000000  -0.000000   0.000000
   39  TI 1 XZ    0.000000   0.000000  -0.001399  -0.000000  -0.002024
   40  TI 1 YZ    0.010336   0.010254  -0.000000  -0.000000   0.000000
   41  TI 1 XX    0.000000   0.000000  -0.000000   0.004193   0.000000
   42  TI 1 YY    0.000000   0.000000  -0.000000  -0.000144   0.000000
   43  TI 1 ZZ    0.000000   0.000000  -0.000000   0.006818   0.000000
   44  TI 1 XY    0.000000   0.000000  -0.000000  -0.000000   0.000000
   45  TI 1 XZ    0.000000   0.000000   0.003720  -0.000000   0.002629
   46  TI 1 YZ   -0.000203  -0.000429  -0.000000  -0.000000   0.000000
   47  TI 1 XX    0.000000   0.000000  -0.000000   0.001986   0.000000
   48  TI 1 YY    0.000000   0.000000  -0.000000  -0.000070   0.000000
   49  TI 1 ZZ    0.000000   0.000000  -0.000000   0.002385   0.000000
   50  TI 1 XY    0.000000   0.000000  -0.000000  -0.000000   0.000000
   51  TI 1 XZ    0.000000   0.000000  -0.001080  -0.000000   0.000490
   52  TI 1 YZ    0.000337  -0.000087  -0.000000  -0.000000   0.000000
   53  TI 2  S    0.000000   0.000000  -0.000000   0.000063   0.000000
   54  TI 2  S    0.000000   0.000000  -0.000000   0.000138   0.000000
   55  TI 2  S    0.000000   0.000000  -0.000000   0.000267   0.000000
   56  TI 2  S    0.000000   0.000000  -0.000000   0.000220   0.000000
   57  TI 2  S    0.000000   0.000000  -0.000000  -0.000953   0.000000
   58  TI 2  S    0.000000   0.000000  -0.000000  -0.001857   0.000000
   59  TI 2  S    0.000000   0.000000  -0.000000   0.004286   0.000000
   60  TI 2  S    0.000000   0.000000  -0.000000  -0.005527   0.000000
   61  TI 2  S    0.000000   0.000000  -0.000000   0.005773   0.000000
   62  TI 2  S    0.000000   0.000000  -0.000000   0.001284   0.000000
   63  TI 2  X    0.000000   0.000000  -0.080328  -0.000000   0.081069
   64  TI 2  Y   -0.081105   0.081145  -0.000000  -0.000000   0.000000
   65  TI 2  Z    0.000000   0.000000  -0.000000  -0.081161   0.000000
   66  TI 2  X    0.000000   0.000000  -0.121797  -0.000000   0.122938
   67  TI 2  Y   -0.122900   0.122954  -0.000000  -0.000000   0.000000
   68  TI 2  Z    0.000000   0.000000  -0.000000  -0.123038   0.000000
   69  TI 2  X    0.000000   0.000000  -0.085720  -0.000000   0.086471
   70  TI 2  Y   -0.086984   0.087048  -0.000000  -0.000000   0.000000
   71  TI 2  Z    0.000000   0.000000  -0.000000  -0.086708   0.000000
   72  TI 2  X    0.000000   0.000000   0.197541  -0.000000  -0.199324
   73  TI 2  Y    0.200874  -0.201046  -0.000000  -0.000000   0.000000
   74  TI 2  Z    0.000000   0.000000  -0.000000   0.200357   0.000000
   75  TI 2  X    0.000000   0.000000   0.415595  -0.000000  -0.419797
   76  TI 2  Y    0.420328  -0.420396  -0.000000  -0.000000   0.000000
   77  TI 2  Z    0.000000   0.000000  -0.000000   0.419685   0.000000
   78  TI 2  X    0.000000   0.000000   0.191059  -0.000000  -0.192630
   79  TI 2  Y    0.189391  -0.189856  -0.000000  -0.000000   0.000000
   80  TI 2  Z    0.000000   0.000000  -0.000000   0.191157   0.000000
   81  TI 2  X    0.000000   0.000000   0.005156  -0.000000  -0.004296
   82  TI 2  Y    0.003641  -0.002895  -0.000000  -0.000000   0.000000
   83  TI 2  Z    0.000000   0.000000  -0.000000   0.006263   0.000000
   84  TI 2  X    0.000000   0.000000   0.001087  -0.000000  -0.002898
   85  TI 2  Y    0.001386  -0.004308  -0.000000  -0.000000   0.000000
   86  TI 2  Z    0.000000   0.000000  -0.000000   0.006084   0.000000
   87  TI 2 XX    0.000000   0.000000  -0.000000   0.003942   0.000000
   88  TI 2 YY    0.000000   0.000000  -0.000000  -0.006126   0.000000
   89  TI 2 ZZ    0.000000   0.000000  -0.000000   0.002920   0.000000
   90  TI 2 XY    0.000000   0.000000  -0.000000  -0.000000   0.000000
   91  TI 2 XZ    0.000000   0.000000   0.001399  -0.000000  -0.002024
   92  TI 2 YZ   -0.010336   0.010254  -0.000000  -0.000000   0.000000
   93  TI 2 XX    0.000000   0.000000  -0.000000  -0.004193   0.000000
   94  TI 2 YY    0.000000   0.000000  -0.000000   0.000144   0.000000
   95  TI 2 ZZ    0.000000   0.000000  -0.000000  -0.006818   0.000000
   96  TI 2 XY    0.000000   0.000000  -0.000000  -0.000000   0.000000
   97  TI 2 XZ    0.000000   0.000000  -0.003720  -0.000000   0.002629
   98  TI 2 YZ    0.000203  -0.000429  -0.000000  -0.000000   0.000000
   99  TI 2 XX    0.000000   0.000000  -0.000000  -0.001986   0.000000
  100  TI 2 YY    0.000000   0.000000  -0.000000   0.000070   0.000000
  101  TI 2 ZZ    0.000000   0.000000  -0.000000  -0.002385   0.000000
  102  TI 2 XY    0.000000   0.000000  -0.000000  -0.000000   0.000000
  103  TI 2 XZ    0.000000   0.000000   0.001080  -0.000000   0.000490
  104  TI 2 YZ   -0.000337  -0.000087  -0.000000  -0.000000   0.000000
  105  F  3  S    0.000000   0.000000   0.010276  -0.000000   0.000000
  106  F  3  S    0.000000   0.000000   0.018132  -0.000000   0.000000
  107  F  3  S    0.000000   0.000000  -0.006023  -0.000000   0.000000
  108  F  3  S    0.000000   0.000000  -0.046793  -0.000000   0.000000
  109  F  3  S    0.000000   0.000000  -0.030367  -0.000000   0.000000
  110  F  3  X    0.000000   0.000000  -0.006649  -0.000000   0.000000
  111  F  3  Y    0.003662   0.000000  -0.000000  -0.000000   0.000000
  112  F  3  Z    0.000000   0.000000  -0.000000  -0.012384   0.011514
  113  F  3  X    0.000000   0.000000  -0.006350  -0.000000   0.000000
  114  F  3  Y    0.003170   0.000000  -0.000000  -0.000000   0.000000
  115  F  3  Z    0.000000   0.000000  -0.000000  -0.010023   0.008851
  116  F  3  X    0.000000   0.000000   0.000597  -0.000000   0.000000
  117  F  3  Y    0.001001   0.000000  -0.000000  -0.000000   0.000000
  118  F  3  Z    0.000000   0.000000  -0.000000   0.002213   0.000502
  119  F  4  S    0.000000   0.000000  -0.010276  -0.000000   0.000000
  120  F  4  S    0.000000   0.000000  -0.018132  -0.000000   0.000000
  121  F  4  S    0.000000   0.000000   0.006023  -0.000000   0.000000
  122  F  4  S    0.000000   0.000000   0.046793  -0.000000   0.000000
  123  F  4  S    0.000000   0.000000   0.030367  -0.000000   0.000000
  124  F  4  X    0.000000   0.000000  -0.006649  -0.000000   0.000000
  125  F  4  Y    0.003662   0.000000  -0.000000  -0.000000   0.000000
  126  F  4  Z    0.000000   0.000000  -0.000000  -0.012384  -0.011514
  127  F  4  X    0.000000   0.000000  -0.006350  -0.000000   0.000000
  128  F  4  Y    0.003170   0.000000  -0.000000  -0.000000   0.000000
  129  F  4  Z    0.000000   0.000000  -0.000000  -0.010023  -0.008851
  130  F  4  X    0.000000   0.000000   0.000597  -0.000000   0.000000
  131  F  4  Y    0.001001   0.000000  -0.000000  -0.000000   0.000000
  132  F  4  Z    0.000000   0.000000  -0.000000   0.002213  -0.000502
  133  H  5  S   -0.004789   0.004766  -0.000000   0.002786   0.000000
  134  H  5  S   -0.007514   0.007717  -0.000000   0.003776   0.000000
  135  H  5  S   -0.000438  -0.001296  -0.000000  -0.000819   0.000000
  136  H  5  X    0.000000   0.000000   0.000222  -0.000000  -0.000215
  137  H  5  Y   -0.001245   0.001228  -0.000000   0.000780   0.000000
  138  H  5  Z    0.000779  -0.000776  -0.000000  -0.000070   0.000000
  139  H  6  S    0.004789   0.004766  -0.000000  -0.002786   0.000000
  140  H  6  S    0.007514   0.007717  -0.000000  -0.003776   0.000000
  141  H  6  S    0.000438  -0.001296  -0.000000   0.000819   0.000000
  142  H  6  X    0.000000   0.000000   0.000222  -0.000000   0.000215
  143  H  6  Y   -0.001245  -0.001228  -0.000000   0.000780   0.000000
  144  H  6  Z    0.000779   0.000776  -0.000000  -0.000070   0.000000
  145  H  7  S   -0.004789  -0.004766  -0.000000  -0.002786   0.000000
  146  H  7  S   -0.007514  -0.007717  -0.000000  -0.003776   0.000000
  147  H  7  S   -0.000438   0.001296  -0.000000   0.000819   0.000000
  148  H  7  X    0.000000   0.000000   0.000222  -0.000000   0.000215
  149  H  7  Y   -0.001245  -0.001228  -0.000000  -0.000780   0.000000
  150  H  7  Z   -0.000779  -0.000776  -0.000000  -0.000070   0.000000
  151  H  8  S    0.004789  -0.004766  -0.000000   0.002786   0.000000
  152  H  8  S    0.007514  -0.007717  -0.000000   0.003776   0.000000
  153  H  8  S    0.000438   0.001296  -0.000000  -0.000819   0.000000
  154  H  8  X    0.000000   0.000000   0.000222  -0.000000  -0.000215
  155  H  8  Y   -0.001245   0.001228  -0.000000  -0.000780   0.000000
  156  H  8  Z   -0.000779   0.000776  -0.000000  -0.000070   0.000000

                     21         22         23         24         25
                   -1.5828    -1.5717    -0.7242    -0.7038    -0.7008
                     AG         B3U        AG         B1U        B2G 
    1  TI 1  S   -0.000780   0.000000  -0.000904   0.001489   0.000000
    2  TI 1  S   -0.001700   0.000000  -0.001987   0.003259   0.000000
    3  TI 1  S   -0.003274   0.000000  -0.003752   0.006226   0.000000
    4  TI 1  S   -0.002784   0.000000  -0.003052   0.005192   0.000000
    5  TI 1  S    0.011834   0.000000   0.014529  -0.023396   0.000000
    6  TI 1  S    0.020529   0.000000   0.025814  -0.041643   0.000000
    7  TI 1  S   -0.027675   0.000000  -0.041261   0.064914   0.000000
    8  TI 1  S   -0.055245   0.000000  -0.084281   0.123839   0.000000
    9  TI 1  S    0.061053   0.000000   0.062623  -0.110418   0.000000
   10  TI 1  S    0.001641   0.000000   0.023522  -0.010108   0.000000
   11  TI 1  X    0.000000  -0.013035  -0.000000   0.000000   0.011045
   12  TI 1  Y    0.000000   0.000000  -0.000000   0.000000   0.000000
   13  TI 1  Z    0.018196   0.000000   0.009468  -0.010169   0.000000
   14  TI 1  X    0.000000  -0.020024  -0.000000   0.000000   0.017348
   15  TI 1  Y    0.000000   0.000000  -0.000000   0.000000   0.000000
   16  TI 1  Z    0.027934   0.000000   0.014635  -0.015938   0.000000
   17  TI 1  X    0.000000  -0.013284  -0.000000   0.000000   0.010367
   18  TI 1  Y    0.000000   0.000000  -0.000000   0.000000   0.000000
   19  TI 1  Z    0.018591   0.000000   0.009523  -0.009642   0.000000
   20  TI 1  X    0.000000   0.031503  -0.000000   0.000000  -0.026804
   21  TI 1  Y    0.000000   0.000000  -0.000000   0.000000   0.000000
   22  TI 1  Z   -0.044137   0.000000  -0.024884   0.025068   0.000000
   23  TI 1  X    0.000000   0.074584  -0.000000   0.000000  -0.077079
   24  TI 1  Y    0.000000   0.000000  -0.000000   0.000000   0.000000
   25  TI 1  Z   -0.103684   0.000000  -0.060489   0.070056   0.000000
   26  TI 1  X    0.000000   0.023538  -0.000000   0.000000  -0.011554
   27  TI 1  Y    0.000000   0.000000  -0.000000   0.000000   0.000000
   28  TI 1  Z   -0.033595   0.000000  -0.021428   0.014849   0.000000
   29  TI 1  X    0.000000  -0.004281  -0.000000   0.000000   0.041224
   30  TI 1  Y    0.000000   0.000000  -0.000000   0.000000   0.000000
   31  TI 1  Z    0.010163   0.000000   0.043201  -0.043986   0.000000
   32  TI 1  X    0.000000  -0.004282  -0.000000   0.000000  -0.011620
   33  TI 1  Y    0.000000   0.000000  -0.000000   0.000000   0.000000
   34  TI 1  Z   -0.002328   0.000000  -0.014893   0.048241   0.000000
   35  TI 1 XX   -0.002652   0.000000  -0.016295  -0.015647   0.000000
   36  TI 1 YY   -0.014341   0.000000  -0.022133   0.041461   0.000000
   37  TI 1 ZZ    0.004870   0.000000   0.043744  -0.017464   0.000000
   38  TI 1 XY    0.000000   0.000000  -0.000000   0.000000   0.000000
   39  TI 1 XZ    0.000000  -0.014487  -0.000000   0.000000   0.067759
   40  TI 1 YZ    0.000000   0.000000  -0.000000   0.000000   0.000000
   41  TI 1 XX   -0.005953   0.000000  -0.028415  -0.014775   0.000000
   42  TI 1 YY   -0.016378   0.000000  -0.029073   0.043479   0.000000
   43  TI 1 ZZ    0.000478   0.000000   0.038437  -0.019174   0.000000
   44  TI 1 XY    0.000000   0.000000  -0.000000   0.000000   0.000000
[...]
 EXCLUDING TRANSLATION AND ROTATION (SAYVETZ < 0.01)
    4*AG     1*AU     2*B3U    1*B3G    0*B1G    3*B1U    3*B2U    2*B2G 

     FREQUENCIES IN CM**-1, IR INTENSITIES IN DEBYE**2/AMU-ANGSTROM**2,
     REDUCED MASSES IN AMU.

                            1           2           3           4           5
       FREQUENCY:       980.98 I    842.27 I     10.29        0.17        0.11  
        SYMMETRY:         B1G         AU          B1G         B3U         B2U 
    REDUCED MASS:      1.15825     1.00783     5.50969    17.26786    17.25340
    IR INTENSITY:      0.00000     0.00000     0.00000     0.00000     0.00000

  1   TI           X  0.00000000 -0.00000000  0.00000000  0.08518324 -0.00000000
                   Y  0.00000000 -0.00000000  0.00000000  0.00000000  0.08515661
                   Z  0.00000000 -0.00000000 -0.00000000  0.00000000 -0.00000000
  2   TI           X  0.00000000  0.00000000  0.00000000  0.08518324 -0.00000000
                   Y -0.00000000  0.00000000  0.00000000  0.00000000  0.08515661
                   Z -0.00000000  0.00000000 -0.00000000  0.00000000 -0.00000000
  3   F            X  0.00000000 -0.00000000  0.00000000  0.08518869 -0.00000000
                   Y -0.06007836  0.00000000  0.15069372  0.00000000  0.08525009
                   Z -0.00000000  0.00000000 -0.00000000  0.00000000 -0.00000000
  4   F            X  0.00000000  0.00000000  0.00000000  0.08518869 -0.00000000
                   Y  0.06007836  0.00000000 -0.15069372  0.00000000  0.08525009
                   Z -0.00000000 -0.00000000 -0.00000000  0.00000000 -0.00000000
  5   H            X -0.46264311 -0.49805516 -0.18444592  0.08497715 -0.00000000
                   Y  0.00000000  0.00000000  0.00000000  0.00000000  0.08503076
                   Z -0.00000000  0.00000000 -0.00000000  0.00000000 -0.00023532
  6   H            X  0.46264311 -0.49805516  0.18444592  0.08497715 -0.00000000
                   Y -0.00000000  0.00000000  0.00000000  0.00000000  0.08503076
                   Z -0.00000000  0.00000000 -0.00000000  0.00000000 -0.00023532
  7   H            X -0.46264311  0.49805516 -0.18444592  0.08497715 -0.00000000
                   Y -0.00000000  0.00000000  0.00000000  0.00000000  0.08503076
                   Z -0.00000000 -0.00000000 -0.00000000  0.00000000  0.00023532
  8   H            X  0.46264311  0.49805516  0.18444592  0.08497715 -0.00000000
                   Y -0.00000000 -0.00000000  0.00000000  0.00000000  0.08503076
                   Z -0.00000000 -0.00000000 -0.00000000  0.00000000  0.00023532

 TRANS. SAYVETZ    X  0.00000000  0.00000000  0.00000000 11.74002030 -0.00000001
                   Y -0.00000000  0.00000000  0.00000000  0.00000001 11.74001806
                   Z -0.00000000  0.00000000 -0.00000000  0.00000000 -0.00000000
               TOTAL  0.00000000  0.00000000  0.00000000 11.74002030 11.74001806

   ROT. SAYVETZ    X  0.00000000 -0.00000000 -0.00000000  0.00000000 -0.00000000
                   Y  0.00000000  0.00000000  0.00000000 -0.00000000  0.00000000
                   Z -0.22343921  0.00000000-15.19156485  0.00000000  0.00000000
               TOTAL  0.22343921  0.00000000 15.19156485  0.00000000  0.00000000

                            6           7           8           9          10
       FREQUENCY:         1.17        4.49        6.09      118.96      254.98  
        SYMMETRY:         B1U         B3G         B2G         B2U         AG  
    REDUCED MASS:     17.22263     7.38706    10.17158     2.83039    10.46463
    IR INTENSITY:      0.00000     0.00000     0.00000     0.05006     0.00000

  1   TI           X -0.00000000  0.00000000 -0.08917309 -0.00000000  0.00000000
                   Y  0.00000000  0.09595846  0.00000000 -0.03968134 -0.00000000
                   Z  0.08517776 -0.00000000  0.00000000 -0.00000000 -0.08884954
  2   TI           X -0.00000000 -0.00000000  0.08917309  0.00000000  0.00000000
                   Y  0.00000000 -0.09595846 -0.00000000 -0.03968134 -0.00000000
                   Z  0.08517776 -0.00000000  0.00000000 -0.00000000  0.08884954
  3   F            X -0.00000000 -0.00000000  0.00000000 -0.00000000  0.06737570
                   Y  0.00000000  0.00000000 -0.00000000  0.11743946  0.00000000
                   Z  0.08517796 -0.00000000  0.06566767 -0.00000000  0.00000000
  4   F            X -0.00000000 -0.00000000  0.00000000 -0.00000000 -0.06737570
                   Y  0.00000000  0.00000000 -0.00000000  0.11743946 -0.00000000
                   Z  0.08517796 -0.00000000 -0.06566767 -0.00000000  0.00000000
  5   H            X -0.00000000 -0.00000000  0.13581694 -0.00000000  0.00000000
                   Y  0.00002867 -0.14569564 -0.00000000 -0.16602722  0.02256080
                   Z  0.08520866 -0.08950837 -0.00000000 -0.23038844  0.13101202
  6   H            X -0.00000000  0.00000000 -0.13581694  0.00000000  0.00000000
                   Y  0.00002867  0.14569564  0.00000000 -0.16602722 -0.02256080
                   Z  0.08520866  0.08950837  0.00000000 -0.23038844 -0.13101202
  7   H            X -0.00000000  0.00000000 -0.13581694 -0.00000000 -0.00000000
                   Y -0.00002867  0.14569564  0.00000000 -0.16602722  0.02256080
                   Z  0.08520866 -0.08950837 -0.00000000  0.23038844 -0.13101202
  8   H            X -0.00000000 -0.00000000  0.13581694  0.00000000  0.00000000
                   Y -0.00002867 -0.14569564 -0.00000000 -0.16602722 -0.02256080
                   Z  0.08520866  0.08950837  0.00000000  0.23038844  0.13101202

 TRANS. SAYVETZ    X -0.00000000 -0.00000000  0.00000000 -0.00000000  0.00000000
                   Y  0.00000000  0.00000000 -0.00000000 -0.00845423  0.00000000
                   Z 11.74002125 -0.00000000  0.00000000 -0.00000000  0.00000000
               TOTAL 11.74002125  0.00000000  0.00000000  0.00845423  0.00000000

   ROT. SAYVETZ    X  0.00000000 32.20597234  0.00000000  0.00000000  0.00000000
                   Y -0.00000000 -0.00000000 34.64104435  0.00000000 -0.00000000
                   Z -0.00000000 -0.00000000  0.00000000 -0.00000000 -0.00000000
               TOTAL  0.00000000 32.20597234 34.64104435  0.00000000  0.00000000

                           11          12          13          14          15
       FREQUENCY:       280.09      335.25      378.03      399.17      410.87  
        SYMMETRY:         B3G         B3U         B2U         B2G         B2G 
    REDUCED MASS:      1.09882     2.02707     1.45122     1.26174     5.71818
    IR INTENSITY:      0.00000     3.33559     2.92816     0.00000     0.00000

  1   TI           X  0.00000000 -0.02876146 -0.00000000  0.00671676  0.04941112
                   Y -0.02971457  0.00000000 -0.03524859 -0.00000000  0.00000000
                   Z  0.00000000 -0.00000000  0.00000000  0.00000000  0.00000000
  2   TI           X -0.00000000 -0.02876146 -0.00000000 -0.00671676 -0.04941112
                   Y  0.02971457  0.00000000 -0.03524859 -0.00000000 -0.00000000
                   Z  0.00000000  0.00000000 -0.00000000  0.00000000 -0.00000000
  3   F            X  0.00000000  0.10871207  0.00000000 -0.00000000  0.00000000
                   Y  0.00000000 -0.00000000  0.07247753  0.00000000 -0.00000000
                   Z  0.00000000 -0.00000000  0.00000000 -0.07399620  0.12857031
  4   F            X -0.00000000  0.10871207  0.00000000  0.00000000 -0.00000000
                   Y  0.00000000 -0.00000000  0.07247753  0.00000000 -0.00000000
                   Z  0.00000000 -0.00000000 -0.00000000  0.07399620 -0.12857031
  5   H            X -0.00000000 -0.34206422 -0.00000000  0.44201627  0.18502516
                   Y -0.19910347 -0.00000000  0.15504759  0.00000000 -0.00000000
                   Z -0.43293665 -0.00000000  0.38076428  0.00000000 -0.00000000
  6   H            X  0.00000000 -0.34206422  0.00000000 -0.44201627 -0.18502516
                   Y  0.19910347  0.00000000  0.15504759  0.00000000 -0.00000000
                   Z  0.43293665  0.00000000  0.38076428  0.00000000 -0.00000000
  7   H            X  0.00000000 -0.34206422  0.00000000 -0.44201627 -0.18502516
                   Y  0.19910347 -0.00000000  0.15504759  0.00000000 -0.00000000
                   Z -0.43293665  0.00000000 -0.38076428 -0.00000000  0.00000000
  8   H            X -0.00000000 -0.34206422 -0.00000000  0.44201627  0.18502516
                   Y -0.19910347 -0.00000000  0.15504759 -0.00000000 -0.00000000
                   Z  0.43293665  0.00000000 -0.38076428 -0.00000000  0.00000000

 TRANS. SAYVETZ    X  0.00000000 -0.00360032 -0.00000000 -0.00000000  0.00000000
                   Y -0.00000000 -0.00000000  0.00214222 -0.00000000 -0.00000000
                   Z  0.00000000  0.00000000  0.00000000  0.00000000  0.00000000
               TOTAL  0.00000000  0.00360032  0.00214222  0.00000000  0.00000000

   ROT. SAYVETZ    X  0.05258685  0.00000000 -0.00000000  0.00000000  0.00000000
                   Y -0.00000000 -0.00000000 -0.00000000 -0.00633033  0.00454655
                   Z  0.00000000 -0.00000000 -0.00000000  0.00000000 -0.00000000
               TOTAL  0.05258685  0.00000000  0.00000000  0.00633033  0.00454655

                           16          17          18          19          20
       FREQUENCY:       480.12      483.52      493.15      648.54      657.46  
        SYMMETRY:         B1U         AG          B3U         B1U         AG  
    REDUCED MASS:      4.69003    11.06101     1.94358     1.24550     1.12258
    IR INTENSITY:      1.19629     0.00000    21.44395    19.03038     0.00000

  1   TI           X -0.00000000 -0.00000000 -0.04852842 -0.00000000  0.00000000
                   Y  0.00000000 -0.00000000  0.00000000  0.00000000 -0.00000000
                   Z -0.04371560 -0.03772929  0.00000000 -0.03446349  0.03169183
  2   TI           X -0.00000000 -0.00000000 -0.04852842  0.00000000  0.00000000
                   Y -0.00000000  0.00000000  0.00000000 -0.00000000  0.00000000
                   Z -0.04371560  0.03772929  0.00000000 -0.03446349 -0.03169183
  3   F            X  0.00000000 -0.14679816  0.08510334 -0.00000000  0.01493792
                   Y  0.00000000 -0.00000000 -0.00000000  0.00000000 -0.00000000
                   Z  0.12976517  0.00000000 -0.00000000  0.04698592  0.00000000
  4   F            X -0.00000000  0.14679816  0.08510334  0.00000000 -0.01493792
                   Y  0.00000000  0.00000000 -0.00000000  0.00000000 -0.00000000
                   Z  0.12976517  0.00000000 -0.00000000  0.04698592  0.00000000
  5   H            X  0.00000000  0.00000000  0.35189472  0.00000000 -0.00000000
                   Y -0.10011441  0.04356310  0.00000000  0.24024287  0.25892468
                   Z -0.18413744  0.09600815  0.00000000  0.37591042  0.39375855
  6   H            X  0.00000000  0.00000000  0.35189472 -0.00000000 -0.00000000
                   Y -0.10011441 -0.04356310  0.00000000  0.24024287 -0.25892468
                   Z -0.18413744 -0.09600815  0.00000000  0.37591042 -0.39375855
  7   H            X  0.00000000  0.00000000  0.35189472 -0.00000000 -0.00000000
                   Y  0.10011441  0.04356310 -0.00000000 -0.24024287  0.25892468
                   Z -0.18413744 -0.09600815  0.00000000  0.37591042 -0.39375855
  8   H            X  0.00000000  0.00000000  0.35189472  0.00000000 -0.00000000
                   Y  0.10011441 -0.04356310 -0.00000000 -0.24024287 -0.25892468
                   Z -0.18413744  0.09600815  0.00000000  0.37591042  0.39375855

 TRANS. SAYVETZ    X -0.00000000 -0.00000000  0.00322523 -0.00000000 -0.00000000
                   Y  0.00000000  0.00000000 -0.00000000  0.00000000 -0.00000000
                   Z  0.00039368 -0.00000000 -0.00000000 -0.00087986 -0.00000000
               TOTAL  0.00039368  0.00000000  0.00322523  0.00087986  0.00000000

   ROT. SAYVETZ    X -0.00000000 -0.00000000 -0.00000000  0.00000000 -0.00000000
                   Y  0.00000000  0.00000000  0.00000000 -0.00000000  0.00000000
                   Z -0.00000000  0.00000000  0.00000000 -0.00000000 -0.00000000
               TOTAL  0.00000000  0.00000000  0.00000000  0.00000000  0.00000000

                           21          22          23          24
       FREQUENCY:      1690.33     1703.20     1769.75     1791.05  
        SYMMETRY:         B3G         B2U         B1U         AG  
    REDUCED MASS:      1.04177     1.04423     1.01646     1.01915
    IR INTENSITY:      0.00000    45.75005    11.90099     0.00000

  1   TI           X -0.00000000 -0.00000000  0.00000000 -0.00000000
                   Y -0.01863950 -0.01922742 -0.00000000  0.00000000
                   Z  0.00000000  0.00000000 -0.00918567  0.01078426
  2   TI           X  0.00000000 -0.00000000 -0.00000000 -0.00000000
                   Y  0.01863950 -0.01922742 -0.00000000 -0.00000000
                   Z -0.00000000  0.00000000 -0.00918567 -0.01078426
  3   F            X -0.00000000 -0.00000000  0.00000000 -0.00238306
                   Y  0.00000000  0.00232599 -0.00000000  0.00000000
                   Z -0.00000000 -0.00000000 -0.00400548 -0.00000000
  4   F            X  0.00000000  0.00000000 -0.00000000  0.00238306
                   Y  0.00000000  0.00232599 -0.00000000  0.00000000
                   Z -0.00000000  0.00000000 -0.00400548 -0.00000000
  5   H            X  0.00000000  0.00000000  0.00000000 -0.00000000
                   Y -0.43265405  0.43499876 -0.42464033 -0.42262302
                   Z  0.22937534 -0.22360369  0.25609214  0.25813065
  6   H            X  0.00000000  0.00000000 -0.00000000  0.00000000
                   Y  0.43265405  0.43499876 -0.42464033  0.42262302
                   Z -0.22937534 -0.22360369  0.25609214 -0.25813065
  7   H            X  0.00000000  0.00000000 -0.00000000 -0.00000000
                   Y  0.43265405  0.43499876  0.42464033 -0.42262302
                   Z  0.22937534  0.22360369  0.25609214 -0.25813065
  8   H            X  0.00000000 -0.00000000  0.00000000 -0.00000000
                   Y -0.43265405  0.43499876  0.42464033  0.42262302
                   Z -0.22937534  0.22360369  0.25609214  0.25813065

 TRANS. SAYVETZ    X  0.00000000  0.00000000 -0.00000000 -0.00000000
                   Y  0.00000000  0.00000353  0.00000000  0.00000000
                   Z -0.00000000 -0.00000000  0.00020205  0.00000000
               TOTAL  0.00000000  0.00000353  0.00020205  0.00000000

   ROT. SAYVETZ    X  0.00033224  0.00000000 -0.00000000  0.00000000
                   Y -0.00000000 -0.00000000  0.00000000 -0.00000000
                   Z -0.00000000 -0.00000000  0.00000000 -0.00000000
               TOTAL  0.00033224  0.00000000  0.00000000  0.00000000

 REFERENCE ON SAYVETZ CONDITIONS - A. SAYVETZ, J.CHEM.PHYS., 7, 383-389(1939).

 NOTE - THE MODES J,K ARE ORTHONORMALIZED ACCORDING TO
 SUM ON I   M(I) * (X(I,J)*X(I,K) + Y(I,J)*Y(I,K) + Z(I,J)*Z(I,K)) = DELTA(J,K)

  MODE FREQ(CM**-1)  SYMMETRY  RED. MASS  IR INTENS.
     1     980.977    B1G      1.158247    0.000000
     2     842.273    AU       1.007825    0.000000
     3      10.292    B1G      5.509691    0.000000
     4       0.168    B3U     17.267858    0.000004
     5       0.106    B2U     17.253399    0.000000
     6       1.167    B1U     17.222631    0.000000
     7       4.490    B3G      7.387056    0.000000
     8       6.092    B2G     10.171581    0.000000
     9     118.956    B2U      2.830386    0.050065
    10     254.982    AG      10.464628    0.000000
    11     280.089    B3G      1.098815    0.000000
    12     335.254    B3U      2.027070    3.335589
    13     378.031    B2U      1.451219    2.928164
    14     399.166    B2G      1.261743    0.000000
    15     410.871    B2G      5.718180    0.000000
    16     480.117    B1U      4.690034    1.196286
    17     483.519    AG      11.061013    0.000000
    18     493.153    B3U      1.943579   21.443953
    19     648.542    B1U      1.245498   19.030376
    20     657.456    AG       1.122579    0.000000
    21    1690.326    B3G      1.041770    0.000000
    22    1703.197    B2U      1.044233   45.750052
    23    1769.751    B1U      1.016455   11.900986
    24    1791.049    AG       1.019149    0.000000

     -------------------------------
     THERMOCHEMISTRY AT T=  298.15 K
     -------------------------------

 USING IDEAL GAS, RIGID ROTOR, HARMONIC NORMAL MODE APPROXIMATIONS.
 P=  1.01325E+05 PASCAL.
 ALL FREQUENCIES ARE SCALED BY   1.00000
 THE MOMENTS OF INERTIA ARE (IN AMU*BOHR**2)
    230.83357  1037.22742  1200.00201
 THE ROTATIONAL SYMMETRY NUMBER IS  4.0
 THE ROTATIONAL CONSTANTS ARE (IN GHZ)
      7.81120     1.73837     1.50257
   2 IMAGINARY FREQUENCY VIBRATION(S) IS(ARE) EXCLUDED
     FROM THE FOLLOWING THERMOCHEMICAL ANALYSIS.
      9 -     24 VIBRATIONAL MODES ARE USED IN THERMOCHEMISTRY.
 THE HARMONIC ZERO POINT ENERGY IS (SCALED BY   1.000)
        0.027098 HARTREE/MOLECULE     5947.229710 CM**-1/MOLECULE 
       17.004000 KCAL/MOL               71.144736 KJ/MOL

               Q               LN Q
 ELEC.     1.00000E+00       0.000000
 TRANS.    6.36005E+07      17.968132
 ROT.      4.79688E+04      10.778306
 VIB.      1.30316E+01       2.567375
 TOT.      3.97572E+13      31.313813

              E         H         G         CV        CP        S
           KJ/MOL    KJ/MOL    KJ/MOL   J/MOL-K   J/MOL-K   J/MOL-K
 ELEC.      0.000     0.000     0.000     0.000     0.000     0.000
 TRANS.     3.718     6.197   -44.542    12.472    20.786   170.180
 ROT.       3.718     3.718   -26.719    12.472    12.472   102.087
 VIB.      81.439    81.439    64.780    72.203    72.203    55.874
 TOTAL     88.876    91.355    -6.480    97.147   105.461   328.141
 VIB. THERMAL CORRECTION E(T)-E(0) = H(T)-H(0) = 10294.321 J/MOL

              E         H         G         CV        CP        S
         KCAL/MOL  KCAL/MOL  KCAL/MOL CAL/MOL-K CAL/MOL-K CAL/MOL-K
 ELEC.      0.000     0.000     0.000     0.000     0.000     0.000
 TRANS.     0.889     1.481   -10.646     2.981     4.968    40.674
 ROT.       0.889     0.889    -6.386     2.981     2.981    24.399
 VIB.      19.464    19.464    15.483    17.257    17.257    13.354
 TOTAL     21.242    21.834    -1.549    23.219    25.206    78.428
 VIB. THERMAL CORRECTION E(T)-E(0) = H(T)-H(0) =  2460.402 CAL/MOL
 ......END OF NORMAL COORDINATE ANALYSIS......
 STEP CPU TIME =     0.00 TOTAL CPU TIME =       56.0 (    0.9 MIN)
 TOTAL WALL CLOCK TIME=       56.2 SECONDS, CPU UTILIZATION IS  99.63%
             19061359  WORDS OF DYNAMIC MEMORY USED
 EXECUTION OF GAMESS TERMINATED NORMALLY Fri Jun  2 01:34:24 2017
 DDI: 263640 bytes (0.3 MB / 0 MWords) used by master data server.

 ----------------------------------------
 CPU timing information for all processes
 ========================================
 0: 55.902 + 0.147 = 56.50
 ----------------------------------------
 ddikick.x: exited gracefully.
unset echo
----- accounting info -----
Files used on the master node compute-0-7.local were:
-rw-rw-r-- 1 sarom sarom   396214 Jun  2 01:33 /scratch/gvb-ti2f2h4.F05
-rw-rw-r-- 1 sarom sarom 70566272 Jun  2 01:33 /scratch/gvb-ti2f2h4.F08
-rw-rw-r-- 1 sarom sarom 25660248 Jun  2 01:34 /scratch/gvb-ti2f2h4.F09
-rw-rw-r-- 1 sarom sarom  5137040 Jun  2 01:34 /scratch/gvb-ti2f2h4.F10
-rw-rw-r-- 1 sarom sarom   202272 Jun  2 01:34 /scratch/gvb-ti2f2h4.F15
-rw-rw-r-- 1 sarom sarom  4672704 Jun  2 01:34 /scratch/gvb-ti2f2h4.F18
-rw-rw-r-- 1 sarom sarom   783808 Jun  2 01:33 /scratch/gvb-ti2f2h4.F23
rm: cannot remove `/scratch/sarom': Is a directory
rm: cannot remove `/scratch/tmp': Is a directory
ls: No match.
ls: No match.
ls: No match.
Fri Jun  2 01:34:27 CDT 2017
0.252u 0.185s 0:59.80 0.7%	0+0k 776+1152io 0pf+0w
Deleting shmid=2523136.
Deleting shmid=2555905.
Deleting shmid=2785282.
/opt/gridengine/default/spool/compute-0-7/active_jobs/23603.1/pe_hostfile compute-0-7.local
