----- GAMESS execution script 'rungms' -----
This job is running on host compute-3-0
under operating system Linux at Mon Nov 28 20:16:47 CST 2016
Available scratch disk space (Kbyte units) at beginning of the job is
Filesystem            1K-blocks       Used  Available Use% Mounted on
bolt.local:/export/home/sarom
                     9590469632 1552936960 7550364672  18% /home/sarom
Copying input file gvb-o-cation.inp to your run's scratch directory...
cp gvb-o-cation.inp .//gvb-o-cation.F05
unset echo
/home/sarom/gamessGH/ddikick.x /home/sarom/gamessGH/gamess.00.x gvb-o-cation -ddi 1 1 localhost -scr ./

 Distributed Data Interface kickoff program.
 Initiating 1 compute processes on 1 nodes to run the following command:
 /home/sarom/gamessGH/gamess.00.x gvb-o-cation 

          ******************************************************
          *         GAMESS VERSION = 18 AUG 2016 (R1)          *
          *             FROM IOWA STATE UNIVERSITY             *
          * M.W.SCHMIDT, K.K.BALDRIDGE, J.A.BOATZ, S.T.ELBERT, *
          *   M.S.GORDON, J.H.JENSEN, S.KOSEKI, N.MATSUNAGA,   *
          *          K.A.NGUYEN, S.J.SU, T.L.WINDUS,           *
          *       TOGETHER WITH M.DUPUIS, J.A.MONTGOMERY       *
          *         J.COMPUT.CHEM.  14, 1347-1363(1993)        *
          **************** 64 BIT LINUX VERSION ****************

  SINCE 1993, STUDENTS AND POSTDOCS WORKING AT IOWA STATE UNIVERSITY
  AND ALSO IN THEIR VARIOUS JOBS AFTER LEAVING ISU HAVE MADE IMPORTANT
  CONTRIBUTIONS TO THE CODE:
     IVANA ADAMOVIC, CHRISTINE AIKENS, YURI ALEXEEV, POOJA ARORA,
     ANDREY ASADCHEV, ROB BELL, PRADIPTA BANDYOPADHYAY, JONATHAN BENTZ,
     BRETT BODE, KURT BRORSEN, CALEB CARLIN, GALINA CHABAN, WEI CHEN,
     CHEOL HO CHOI, PAUL DAY, ALBERT DEFUSCO, NUWAN DESILVA, TIM DUDLEY,
     DMITRI FEDOROV, GRAHAM FLETCHER, MARK FREITAG, KURT GLAESEMANN,
     DAN KEMP, GRANT MERRILL, NORIYUKI MINEZAWA, JONATHAN MULLIN,
     TAKESHI NAGATA, SEAN NEDD, HEATHER NETZLOFF, BOSILJKA NJEGIC, RYAN OLSON,
     MIKE PAK, SPENCER PRUITT, LUKE ROSKOP, JIM SHOEMAKER, LYUDMILA SLIPCHENKO,
     TONY SMITH, SAROM SOK LEANG, JIE SONG, TETSUYA TAKETSUGU, SIMON WEBB,
     PENG XU, SOOHAENG YOO, FEDERICO ZAHARIEV

  ADDITIONAL CODE HAS BEEN PROVIDED BY COLLABORATORS IN OTHER GROUPS:
     IOWA STATE UNIVERSITY:
          JOE IVANIC, AARON WEST, LAIMUTIS BYTAUTAS, KLAUS RUEDENBERG
     UNIVERSITY OF TOKYO: KIMIHIKO HIRAO, TAKAHITO NAKAJIMA,
          TAKAO TSUNEDA, MUNEAKI KAMIYA, SUSUMU YANAGISAWA,
          KIYOSHI YAGI, MAHITO CHIBA, SEIKEN TOKURA, NAOAKI KAWAKAMI
     UNIVERSITY OF AARHUS: FRANK JENSEN
     UNIVERSITY OF IOWA: VISVALDAS KAIRYS, HUI LI
     NATIONAL INST. OF STANDARDS AND TECHNOLOGY: WALT STEVENS, DAVID GARMER
     UNIVERSITY OF PISA: BENEDETTA MENNUCCI, JACOPO TOMASI
     UNIVERSITY OF MEMPHIS: HENRY KURTZ, PRAKASHAN KORAMBATH
     UNIVERSITY OF ALBERTA: TOBY ZENG, MARIUSZ KLOBUKOWSKI
     UNIVERSITY OF NEW ENGLAND: MARK SPACKMAN
     MIE UNIVERSITY: HIROAKI UMEDA
     NAT. INST. OF ADVANCED INDUSTRIAL SCIENCE AND TECHNOLOGY: KAZUO KITAURA
     MICHIGAN STATE UNIVERSITY:
          KAROL KOWALSKI, MARTA WLOCH, JEFFREY GOUR, JESSE LUTZ,
          WEI LI, PIOTR PIECUCH
     UNIVERSITY OF SILESIA: MONIKA MUSIAL, STANISLAW KUCHARSKI
     FACULTES UNIVERSITAIRES NOTRE-DAME DE LA PAIX:
          OLIVIER QUINET, BENOIT CHAMPAGNE
     UNIVERSITY OF CALIFORNIA - SANTA BARBARA: BERNARD KIRTMAN
     INSTITUTE FOR MOLECULAR SCIENCE:
          KAZUYA ISHIMURA, MICHIO KATOUDA, AND SHIGERU NAGASE
     UNIVERSITY OF NOTRE DAME: ANNA POMOGAEVA, DAN CHIPMAN
     KYUSHU UNIVERSITY:
          HARUYUKI NAKANO,
          FENG LONG GU, JACEK KORCHOWIEC, MARCIN MAKOWSKI, AND YURIKO AOKI,
          HIROTOSHI MORI AND EISAKU MIYOSHI
     PENNSYLVANIA STATE UNIVERSITY:
          TZVETELIN IORDANOV, CHET SWALINA, JONATHAN SKONE,
          SHARON HAMMES-SCHIFFER
     WASEDA UNIVERSITY:
          MASATO KOBAYASHI, TOMOKO AKAMA, TSUGUKI TOUMA,
          TAKESHI YOSHIKAWA, YASUHIRO IKABATA, JUNJI SEINO,
          YUYA NAKAJIMA, HIROMI NAKAI
     NANJING UNIVERSITY: SHUHUA LI
     UNIVERSITY OF NEBRASKA:
          PEIFENG SU, DEJUN SI, NANDUN THELLAMUREGE, YALI WANG, HUI LI
     UNIVERSITY OF ZURICH: ROBERTO PEVERATI, KIM BALDRIDGE
     N. COPERNICUS UNIVERSITY AND JACKSON STATE UNIVERSITY:
          MARIA BARYSZ
     UNIVERSITY OF COPENHAGEN: Jimmy Kromann, CASPER STEINMANN
     TOKYO INSTITUTE OF TECHNOLOGY: HIROYA NAKATA
     NAGOYA UNIVERSITY: YOSHIO NISHIMOTO, STEPHAN IRLE
     MOSCOW STATE UNIVERSITY: VLADIMIR MIRONOV

 EXECUTION OF GAMESS BEGUN Mon Nov 28 20:16:47 2016

            ECHO OF THE FIRST FEW INPUT CARDS -
 INPUT CARD>!    cation O+ in an excited 2-P state arising from the s1,p4 configuration     
 INPUT CARD>!    Coupling constant information provided by Boris Plakhutin                  
 INPUT CARD>!                                                                               
 INPUT CARD>!    FINAL E= -73.3040238107 by either GVB or MCSCF.                            
 INPUT CARD>!                                                                               
 INPUT CARD>!    this takes 0 seconds on 2.66 GHz Cloverton (22 Feb 2014)                   
 INPUT CARD>!                                                                               
 INPUT CARD> $contrl icharg=1 mult=2 ispher=1 $end                                          
 INPUT CARD> $system mwords=5 $end                                                          
 INPUT CARD> $basis  gbasis=acct $end                                                       
 INPUT CARD> $guess  guess=huckel $end                                                      
 INPUT CARD>                                                                                
 INPUT CARD>!            these data are due to Boris' assistance:                           
 INPUT CARD>!     a)  the target 2-P has as its parent state the 3-P of p**4,               
 INPUT CARD>!         which has Roothaan couplings App=15/16 and Bpp=18/16.                 
 INPUT CARD>!     b)  for s1,pN, we always have Asp=1.0, and the Roothaan/Bagus             
 INPUT CARD>!         coupling K101 gives Bsp from -3*K101+1, or 0.0 for this case.         
 INPUT CARD>!     c)  Since there is no other electron, s**1 has Ass=Bss=0.0 always.        
 INPUT CARD>!     d)  Filled shell c's Acc=Bcc=Aco=Bco=1.0 for o=open s or open p, always.  
 INPUT CARD>!                                                                               
 INPUT CARD>!         The full Roothaan A,B matrices for 2-P from s1,p4 are thus            
 INPUT CARD>!                1                  1                                           
 INPUT CARD>!             A= 1 0             B= 1 0                                         
 INPUT CARD>!                1 1 15/16          1 0 18/16                                   
 INPUT CARD>!         and then ALPHA = +2*Fi*Fj*Aij                                         
 INPUT CARD>!                   BETA = -1*Fi*Fj*Bij generates the input below.              
 INPUT CARD>!                                                                               
 INPUT CARD> $contrl scftyp=gvb $end                                                        
 INPUT CARD> $scf    nco=1 nseto=2 no(1)=1,3 couple=.true.                                  
 INPUT CARD>             f(1)=1.0,0.5,0.666666666666666                                     
 INPUT CARD>         alpha(1)= 2.0, 1.0, 0.0,                                               
 INPUT CARD>               1.333333333333333, 0.666666666666666, 0.833333333333333          
 INPUT CARD>          beta(1)=-1.0,-0.5, 0.0,                                               
 INPUT CARD>              -0.666666666666666, 0.0,              -0.5   $end                 
 INPUT CARD>                                                                                
 INPUT CARD>!   The order of states in MCSCF is 4-P, 2-D, 2-S, 2-P.                         
 INPUT CARD>!   There are 3 + 5 + 1 + 3 = 12 determinants with Sz=0.5, for NSTATE,          
 INPUT CARD>!   but only nine roots will be found to have S=0.5, for WSTATE input.          
 INPUT CARD>!    STATE   1  ENERGY=  -73.8025200978  S=  1.50  SZ=  0.50  SPACE SYM=A       
 INPUT CARD>!    STATE   2  ENERGY=  -73.8025200978  S=  1.50  SZ=  0.50  SPACE SYM=A       
 INPUT CARD>!    STATE   3  ENERGY=  -73.8025200978  S=  1.50  SZ=  0.50  SPACE SYM=A       
 INPUT CARD>!    STATE   4  ENERGY=  -73.5464806955  S=  0.50  SZ=  0.50  SPACE SYM=A       
 INPUT CARD>!    STATE   5  ENERGY=  -73.5464806955  S=  0.50  SZ=  0.50  SPACE SYM=A       
 INPUT CARD>!    STATE   6  ENERGY=  -73.5464806955  S=  0.50  SZ=  0.50  SPACE SYM=A       
 INPUT CARD>!    STATE   7  ENERGY=  -73.5464806955  S=  0.50  SZ=  0.50  SPACE SYM=A       
 INPUT CARD>!    STATE   8  ENERGY=  -73.5464806955  S=  0.50  SZ=  0.50  SPACE SYM=A       
 INPUT CARD>!    STATE   9  ENERGY=  -73.4116697356  S=  0.50  SZ=  0.50  SPACE SYM=A       
 INPUT CARD>!    STATE  10  ENERGY=  -73.3040238107  S=  0.50  SZ=  0.50  SPACE SYM=A       
 INPUT CARD>!    STATE  11  ENERGY=  -73.3040238107  S=  0.50  SZ=  0.50  SPACE SYM=A       
 INPUT CARD>!    STATE  12  ENERGY=  -73.3040238107  S=  0.50  SZ=  0.50  SPACE SYM=A       
    5000000 WORDS OF MEMORY AVAILABLE

     BASIS OPTIONS
     -------------
     GBASIS=ACCT         IGAUSS=       0      POLAR=NONE    
     NDFUNC=       0     NFFUNC=       0     DIFFSP=       F
     NPFUNC=       0      DIFFS=       F     BASNAM=        


     RUN TITLE
     ---------
 oxygen cation                                                                   

 THE POINT GROUP OF THE MOLECULE IS DNH     
 THE ORDER OF THE PRINCIPAL AXIS IS     2

 ATOM      ATOMIC                      COORDINATES (BOHR)
           CHARGE         X                   Y                   Z
 O           8.0     0.0000000000        0.0000000000        0.0000000000

          INTERNUCLEAR DISTANCES (ANGS.)
          ------------------------------

                1 O     

   1 O       0.0000000  

  * ... LESS THAN  3.000


     ATOMIC BASIS SET
     ----------------
 THE CONTRACTED PRIMITIVE FUNCTIONS HAVE BEEN UNNORMALIZED
 THE CONTRACTED BASIS FUNCTIONS ARE NOW NORMALIZED TO UNITY

  SHELL TYPE  PRIMITIVE        EXPONENT          CONTRACTION COEFFICIENT(S)

 O         

      1   S       1         15330.0000000    0.000520198307
      1   S       2          2299.0000000    0.004023344781
      1   S       3           522.4000000    0.020729083329
      1   S       4           147.3000000    0.081082327080
      1   S       5            47.5500000    0.236226352118
      1   S       6            16.7600000    0.443518209420
      1   S       7             6.2070000    0.358670588689
      1   S       8             0.6882000   -0.008349797237

      2   S       9         15330.0000000   -0.000197236012
      2   S      10          2299.0000000   -0.001535010700
      2   S      11           522.4000000   -0.007951183914
      2   S      12           147.3000000   -0.032113452892
      2   S      13            47.5500000   -0.100269643049
      2   S      14            16.7600000   -0.234047111838
      2   S      15             6.2070000   -0.301410927756
      2   S      16             0.6882000    1.034919649508

      3   S      17             1.7520000    1.000000000000

      4   S      18             0.2384000    1.000000000000

      5   P      19            34.4600000    0.041163489568
      5   P      20             7.7490000    0.257762835858
      5   P      21             2.2800000    0.802419274427

      6   P      22             0.7156000    1.000000000000

      7   P      23             0.2140000    1.000000000000

      8   D      24             2.3140000    1.000000000000

      9   D      25             0.6450000    1.000000000000

     10   F      26             1.4280000    1.000000000000

     11   S      27             0.0737600    1.000000000000

     12   P      28             0.0597400    1.000000000000

     13   D      29             0.2140000    1.000000000000

     14   F      30             0.5000000    1.000000000000

 TOTAL NUMBER OF BASIS SET SHELLS             =   14
 NUMBER OF CARTESIAN GAUSSIAN BASIS FUNCTIONS =   55
 NOTE: THIS RUN WILL RESTRICT THE MO VARIATION SPACE TO SPHERICAL HARMONICS.
 THE NUMBER OF ORBITALS KEPT IN THE VARIATIONAL SPACE WILL BE PRINTED LATER.
 NUMBER OF ELECTRONS                          =    7
 CHARGE OF MOLECULE                           =    1
 SPIN MULTIPLICITY                            =    2
 NUMBER OF OCCUPIED ORBITALS (ALPHA)          =    4
 NUMBER OF OCCUPIED ORBITALS (BETA )          =    3
 TOTAL NUMBER OF ATOMS                        =    1
 THE NUCLEAR REPULSION ENERGY IS        0.0000000000

 THIS MOLECULE IS RECOGNIZED AS BEING LINEAR,
 ORBITAL LZ DEGENERACY TOLERANCE ETOLLZ= 1.00E-06

     $CONTRL OPTIONS
     ---------------
 SCFTYP=GVB          RUNTYP=ENERGY       EXETYP=RUN     
 MPLEVL=       0     CITYP =NONE         CCTYP =NONE         VBTYP =NONE    
 DFTTYP=NONE         TDDFT =NONE    
 MULT  =       2     ICHARG=       1     NZVAR =       0     COORD =UNIQUE  
 PP    =NONE         RELWFN=NONE         LOCAL =NONE         NUMGRD=       F
 ISPHER=       1     NOSYM =       0     MAXIT =      30     UNITS =ANGS    
 PLTORB=       F     MOLPLT=       F     AIMPAC=       F     FRIEND=        
 NPRINT=       7     IREST =       0     GEOM  =INPUT   
 NORMF =       0     NORMP =       0     ITOL  =      20     ICUT  =       9
 INTTYP=BEST         GRDTYP=BEST         QMTTOL= 1.0E-06

     $SYSTEM OPTIONS
     ---------------
  REPLICATED MEMORY=     5000000 WORDS (ON EVERY NODE).
 DISTRIBUTED MEMDDI=           0 MILLION WORDS IN AGGREGATE,
 MEMDDI DISTRIBUTED OVER   1 PROCESSORS IS           0 WORDS/PROCESSOR.
 TOTAL MEMORY REQUESTED ON EACH PROCESSOR=     5000000 WORDS.
 TIMLIM=      525600.00 MINUTES, OR     365.0 DAYS.
 PARALL= F  BALTYP=  DLB     KDIAG=    0  COREFL= F
 MXSEQ2=     300 MXSEQ3=     150  mem10=         0

          ----------------
          PROPERTIES INPUT
          ----------------

     MOMENTS            FIELD           POTENTIAL          DENSITY
 IEMOM =       1   IEFLD =       0   IEPOT =       0   IEDEN =       0
 WHERE =COMASS     WHERE =NUCLEI     WHERE =NUCLEI     WHERE =NUCLEI  
 OUTPUT=BOTH       OUTPUT=BOTH       OUTPUT=BOTH       OUTPUT=BOTH    
 IEMINT=       0   IEFINT=       0                     IEDINT=       0
                                                       MORB  =       0
          EXTRAPOLATION IN EFFECT
          SOSCF IN EFFECT
 ORBITAL PRINTING OPTION: NPREO=     1    55     2     1

          *************************
          ROHF-GVB INPUT PARAMETERS
          *************************

          NORB   =    5          NCO    =    1
          NPAIR  =    0          NSETO  =    2
          NO     =    1    3
          OPEN SHELL ORBITALS
          SET     1 HAS ORBS    2
          SET     2 HAS ORBS    3    4    5

          ----------------------------
          ROHF-GVB COUPLING PARAMETERS
          ----------------------------

          F VECTOR (OCCUPANCIES)
    1   1.0000000000
    2   0.5000000000
    3   0.6666666667
          ALPHA COUPLING COEFFICEINTS

             1           2           3

    1    2.0000000
    2    1.0000000   0.0000000
    3    1.3333333   0.6666667   0.8333333
           BETA COUPLING COEFFICIENTS

             1           2           3

    1   -1.0000000
    2   -0.5000000   0.0000000
    3   -0.6666667   0.0000000  -0.5000000

     -------------------------------
     INTEGRAL TRANSFORMATION OPTIONS
     -------------------------------
     NWORD  =            0
     CUTOFF = 1.0E-09     MPTRAN =       0
     DIRTRF =       F     AOINTS =DUP     

          ----------------------
          INTEGRAL INPUT OPTIONS
          ----------------------
 NOPK  =       1 NORDER=       0 SCHWRZ=       F

     ------------------------------------------
     THE POINT GROUP IS DNH, NAXIS= 2, ORDER= 8
     ------------------------------------------

 -- VARIATIONAL SPACE WILL BE RESTRICTED TO PURE SPHERICAL HARMONICS ONLY --
 AFTER EXCLUDING CONTAMINANT COMBINATIONS FROM THE CARTESIAN GAUSSIAN BASIS
 SET, THE NUMBER OF SPHERICAL HARMONICS KEPT IN THE VARIATION SPACE IS   46

     DIMENSIONS OF THE SYMMETRY SUBSPACES ARE
 AG  =   11     AU  =    2     B3U =    8     B3G =    3     B1G =    3
 B1U =    8     B2U =    8     B2G =    3

 ..... DONE SETTING UP THE RUN .....
 STEP CPU TIME =     0.03 TOTAL CPU TIME =        0.0 (    0.0 MIN)
 TOTAL WALL CLOCK TIME=        0.1 SECONDS, CPU UTILIZATION IS  23.08%

          ********************
          1 ELECTRON INTEGRALS
          ********************
 ...... END OF ONE-ELECTRON INTEGRALS ......
 STEP CPU TIME =     0.00 TOTAL CPU TIME =        0.0 (    0.0 MIN)
 TOTAL WALL CLOCK TIME=        0.1 SECONDS, CPU UTILIZATION IS  23.08%

          -------------
          GUESS OPTIONS
          -------------
          GUESS =HUCKEL            NORB  =       0          NORDER=       0
          MIX   =       F          PRTMO =       F          PUNMO =       F
          TOLZ  = 1.0E-08          TOLE  = 1.0E-05
          SYMDEN=       F          PURIFY=       F

 INITIAL GUESS ORBITALS GENERATED BY HUCKEL   ROUTINE.
 HUCKEL GUESS REQUIRES     22988 WORDS.

 STATISTICS FOR GENERATION OF SYMMETRY ORBITAL -Q- MATRIX
 NUMBER OF CARTESIAN ATOMIC ORBITALS=         55
 NUMBER OF SPHERICAL CONTAMINANTS DROPPED=     9
 NUMBER OF LINEARLY DEPENDENT MOS DROPPED=     0
 TOTAL NUMBER OF MOS IN VARIATION SPACE=      46

 SYMMETRIES FOR INITIAL GUESS ORBITALS FOLLOW.   BOTH SET(S).
     5 ORBITALS ARE OCCUPIED (    1 CORE ORBITALS).
     2=AG       3=B3U      4=B2U      5=B1U      6=AG       7=AG       8=AG  
     9=AG      10=AG      11=AG      12=AG      13=AG      14=AG      15=AU  
 ...... END OF INITIAL ORBITAL SELECTION ......
 STEP CPU TIME =     0.00 TOTAL CPU TIME =        0.0 (    0.0 MIN)
 TOTAL WALL CLOCK TIME=        0.1 SECONDS, CPU UTILIZATION IS  23.08%

                    ----------------------
                    AO INTEGRAL TECHNOLOGY
                    ----------------------
     S,P,L SHELL ROTATED AXIS INTEGRALS, REPROGRAMMED BY
        KAZUYA ISHIMURA (IMS) AND JOSE SIERRA (SYNSTAR).
     S,P,D,L SHELL ROTATED AXIS INTEGRALS PROGRAMMED BY
        KAZUYA ISHIMURA (INSTITUTE FOR MOLECULAR SCIENCE).
     S,P,D,F,G SHELL TO TOTAL QUARTET ANGULAR MOMENTUM SUM 5,
        ERIC PROGRAM BY GRAHAM FLETCHER (ELORET AND NASA ADVANCED
        SUPERCOMPUTING DIVISION, AMES RESEARCH CENTER).
     S,P,D,F,G,L SHELL GENERAL RYS QUADRATURE PROGRAMMED BY
        MICHEL DUPUIS (PACIFIC NORTHWEST NATIONAL LABORATORY).

          --------------------
          2 ELECTRON INTEGRALS
          --------------------

 THE -PK- OPTION IS OFF, THE INTEGRALS ARE NOT IN SUPERMATRIX FORM.
 STORING   15000 INTEGRALS/RECORD ON DISK, USING 12 BYTES/INTEGRAL.
 TWO ELECTRON INTEGRAL EVALUATION REQUIRES   99205 WORDS OF MEMORY.
 II,JST,KST,LST =  1  1  1  1 NREC =         1 INTLOC =    1
 II,JST,KST,LST =  2  1  1  1 NREC =         1 INTLOC =    2
 II,JST,KST,LST =  3  1  1  1 NREC =         1 INTLOC =    7
 II,JST,KST,LST =  4  1  1  1 NREC =         1 INTLOC =   22
 II,JST,KST,LST =  5  1  1  1 NREC =         1 INTLOC =   56
 II,JST,KST,LST =  6  1  1  1 NREC =         1 INTLOC =  125
 II,JST,KST,LST =  7  1  1  1 NREC =         1 INTLOC =  329
 II,JST,KST,LST =  8  1  1  1 NREC =         1 INTLOC =  776
 II,JST,KST,LST =  9  1  1  1 NREC =         1 INTLOC = 2864
 II,JST,KST,LST = 10  1  1  1 NREC =         1 INTLOC = 7967
 II,JST,KST,LST = 11  1  1  1 NREC =         2 INTLOC =12194
 II,JST,KST,LST = 12  1  1  1 NREC =         3 INTLOC =  731
 II,JST,KST,LST = 13  1  1  1 NREC =         3 INTLOC =11855
 II,JST,KST,LST = 14  1  1  1 NREC =         5 INTLOC =12962
 TOTAL NUMBER OF NONZERO TWO-ELECTRON INTEGRALS =              157588
         11 INTEGRAL RECORDS WERE STORED ON DISK FILE  8.
  ...... END OF TWO-ELECTRON INTEGRALS .....
 STEP CPU TIME =     0.07 TOTAL CPU TIME =        0.1 (    0.0 MIN)
 TOTAL WALL CLOCK TIME=        0.3 SECONDS, CPU UTILIZATION IS  37.04%

          ------------------------
          ROHF-GVB SCF CALCULATION
          ------------------------
 GVB STEP WILL USE    156774 WORDS OF MEMORY.

     RSTRCT FORCED TRUE BY THE PRESENCE OF DEGENERATE OPEN SHELLS.

     MAXIT=  30   NPUNCH= 2   SQCDF TOL=1.0000E-05
     NUCLEAR ENERGY=        0.0000000000
     EXTRAP=T   DAMP=F   SHIFT=F   RSTRCT=T   DIIS=F  SOSCF=T
     SOSCF WILL OPTIMIZE     212 ORBITAL ROTATIONS, SOGTOL=   0.250

 ITER EX     TOTAL ENERGY       E CHANGE        SQCDF       ORB. GRAD 
   0  0      -73.218403372   -73.218403372   0.112828315   0.000000000
          ---------------START SECOND ORDER SCF---------------
   1  1      -73.297197644    -0.078794272   0.001024003   0.158682470
   2  2      -73.303979893    -0.006782249   0.000016188   0.002764063
   3  3      -73.304022831    -0.000042938   0.000000620   0.000568709
   4  4      -73.304023776    -0.000000945   0.000000016   0.000125280
   5  5      -73.304023810    -0.000000033   0.000000000   0.000020845
   6  6      -73.304023811    -0.000000001   0.000000000   0.000000813
   7  7      -73.304023811    -0.000000000   0.000000000   0.000000049

          -----------------
          DENSITY CONVERGED
          -----------------

 FINAL GVB ENERGY IS      -73.3040238107 AFTER   7 ITERATIONS

          ----------------------------
          SCF STATISTICS PER ITERATION
          ----------------------------
          NUMBER OF INTEGRAL PASSES       1
          FOCK FORMATION TIME         0.014
          GEMINAL OPT TIME            0.000
          MIXORB  OPT TIME            0.000
          OCBSE   OPT TIME            0.000

     THE MAXIMUM LAGRANGIAN ASYMMETRY IS 2.1833025E-08

 LZ VALUE ANALYSIS FOR THE MOS
 ----------------------------------------
 MO     1 (    1) HAS LZ(WEIGHT)= 0.00(100.0%) 
 MO     2 (    2) HAS LZ(WEIGHT)= 0.00(100.0%) 
 MO     3 (    3) HAS LZ(WEIGHT)= 0.00(100.0%) 
 MO     4 (    3) HAS LZ(WEIGHT)=-1.00( 50.0%)  1.00( 50.0%) 
 MO     5 (    3) HAS LZ(WEIGHT)=-1.00( 50.0%)  1.00( 50.0%) 
 MO     6 (    4) HAS LZ(WEIGHT)= 0.00(100.0%) 
 MO     7 (    5) HAS LZ(WEIGHT)= 0.00(100.0%) 
 MO     8 (    5) HAS LZ(WEIGHT)=-1.00( 50.0%)  1.00( 50.0%) 
 MO     9 (    5) HAS LZ(WEIGHT)=-1.00( 50.0%)  1.00( 50.0%) 
 MO    10 (    6) HAS LZ(WEIGHT)=-2.00( 50.0%)  2.00( 50.0%) 
 MO    11 (    6) HAS LZ(WEIGHT)=-2.00( 50.0%)  2.00( 50.0%) 
 MO    12 (    6) HAS LZ(WEIGHT)=-1.00( 50.0%)  1.00( 50.0%) 
 MO    13 (    6) HAS LZ(WEIGHT)=-1.00( 50.0%)  1.00( 50.0%) 
 MO    14 (    6) HAS LZ(WEIGHT)= 0.00(100.0%) 
 MO    15 (    7) HAS LZ(WEIGHT)= 0.00(100.0%) 
 MO    16 (    7) HAS LZ(WEIGHT)=-1.00( 50.0%)  1.00( 50.0%) 
 MO    17 (    7) HAS LZ(WEIGHT)=-1.00( 50.0%)  1.00( 50.0%) 
 MO    18 (    8) HAS LZ(WEIGHT)= 0.00(100.0%) 
 MO    19 (    9) HAS LZ(WEIGHT)=-1.00( 50.0%)  1.00( 50.0%) 
 MO    20 (    9) HAS LZ(WEIGHT)=-1.00( 50.0%)  1.00( 50.0%) 
 MO    21 (    9) HAS LZ(WEIGHT)= 0.00(100.0%) 
 MO    22 (    9) HAS LZ(WEIGHT)=-2.00( 50.0%)  2.00( 50.0%) 
 MO    23 (    9) HAS LZ(WEIGHT)=-2.00( 50.0%)  2.00( 50.0%) 
 MO    24 (    9) HAS LZ(WEIGHT)=-3.00( 50.0%)  3.00( 50.0%) 
 MO    25 (    9) HAS LZ(WEIGHT)=-3.00( 50.0%)  3.00( 50.0%) 
 MO    26 (   10) HAS LZ(WEIGHT)=-0.00(100.0%) 
 MO    27 (   10) HAS LZ(WEIGHT)=-1.00( 50.0%)  1.00( 50.0%) 
 MO    28 (   10) HAS LZ(WEIGHT)=-1.00( 50.0%)  1.00( 50.0%) 
 MO    29 (   10) HAS LZ(WEIGHT)=-2.00( 50.0%)  2.00( 50.0%) 
 MO    30 (   10) HAS LZ(WEIGHT)=-2.00( 50.0%)  2.00( 50.0%) 
 MO    31 (   11) HAS LZ(WEIGHT)= 0.00(100.0%) 
 MO    32 (   11) HAS LZ(WEIGHT)=-1.00( 50.0%)  1.00( 50.0%) 
 MO    33 (   11) HAS LZ(WEIGHT)=-1.00( 50.0%)  1.00( 50.0%) 
 MO    34 (   12) HAS LZ(WEIGHT)=-3.00( 50.0%)  3.00( 50.0%) 
 MO    35 (   12) HAS LZ(WEIGHT)=-3.00( 50.0%)  3.00( 50.0%) 
 MO    36 (   12) HAS LZ(WEIGHT)=-2.00( 50.0%)  2.00( 50.0%) 
 MO    37 (   12) HAS LZ(WEIGHT)=-2.00( 50.0%)  2.00( 50.0%) 
 MO    38 (   12) HAS LZ(WEIGHT)=-1.00( 50.0%)  1.00( 50.0%) 
 MO    39 (   12) HAS LZ(WEIGHT)= 0.00(100.0%) 
 MO    40 (   12) HAS LZ(WEIGHT)=-1.00( 50.0%)  1.00( 50.0%) 
 MO    41 (   13) HAS LZ(WEIGHT)=-2.00( 50.0%)  2.00( 50.0%) 
 MO    42 (   13) HAS LZ(WEIGHT)=-2.00( 50.0%)  2.00( 50.0%) 
 MO    43 (   13) HAS LZ(WEIGHT)= 0.00(100.0%) 
 MO    44 (   13) HAS LZ(WEIGHT)=-1.00( 50.0%)  1.00( 50.0%) 
 MO    45 (   13) HAS LZ(WEIGHT)=-1.00( 50.0%)  1.00( 50.0%) 
 MO    46 (   14) HAS LZ(WEIGHT)= 0.00(100.0%) 

          ------------
          EIGENVECTORS
          ------------

                      1          2          3          4          5
                  -21.4183    -0.7953    -0.7675    -0.7675    -0.7675
                     AG         AG         B1U        B2U        B3U 
    1  O  1  S    0.975588   0.001064  -0.000000  -0.000000  -0.000000
    2  O  1  S    0.002310   0.609420  -0.000000  -0.000000  -0.000000
    3  O  1  S    0.044800   0.171116  -0.000000  -0.000000  -0.000000
    4  O  1  S    0.005161   0.349160  -0.000000  -0.000000  -0.000000
    5  O  1  X   -0.000000  -0.000000  -0.000000  -0.000000   0.431757
    6  O  1  Y   -0.000000  -0.000000  -0.000000   0.431757  -0.000000
    7  O  1  Z   -0.000000  -0.000000   0.431757  -0.000000  -0.000000
    8  O  1  X   -0.000000  -0.000000  -0.000000  -0.000000   0.522283
    9  O  1  Y   -0.000000  -0.000000  -0.000000   0.522283  -0.000000
   10  O  1  Z   -0.000000  -0.000000   0.522283  -0.000000  -0.000000
   11  O  1  X   -0.000000  -0.000000  -0.000000  -0.000000   0.249066
   12  O  1  Y   -0.000000  -0.000000  -0.000000   0.249066  -0.000000
   13  O  1  Z   -0.000000  -0.000000   0.249066  -0.000000  -0.000000
   14  O  1 XX   -0.000000  -0.000000  -0.000000  -0.000000  -0.000000
   15  O  1 YY   -0.000000  -0.000000  -0.000000  -0.000000  -0.000000
   16  O  1 ZZ   -0.000000  -0.000000  -0.000000  -0.000000  -0.000000
   17  O  1 XY   -0.000000  -0.000000  -0.000000  -0.000000  -0.000000
   18  O  1 XZ   -0.000000  -0.000000  -0.000000  -0.000000  -0.000000
   19  O  1 YZ   -0.000000  -0.000000  -0.000000  -0.000000  -0.000000
   20  O  1 XX   -0.000000  -0.000000  -0.000000  -0.000000  -0.000000
   21  O  1 YY   -0.000000  -0.000000  -0.000000  -0.000000  -0.000000
   22  O  1 ZZ   -0.000000  -0.000000  -0.000000  -0.000000  -0.000000
   23  O  1 XY   -0.000000  -0.000000  -0.000000  -0.000000  -0.000000
   24  O  1 XZ   -0.000000  -0.000000  -0.000000  -0.000000  -0.000000
   25  O  1 YZ   -0.000000  -0.000000  -0.000000  -0.000000  -0.000000
   26  O  1 XXX  -0.000000  -0.000000  -0.000000  -0.000000  -0.000000
   27  O  1 YYY  -0.000000  -0.000000  -0.000000  -0.000000  -0.000000
   28  O  1 ZZZ  -0.000000  -0.000000  -0.000000  -0.000000  -0.000000
   29  O  1 XXY  -0.000000  -0.000000  -0.000000  -0.000000  -0.000000
   30  O  1 XXZ  -0.000000  -0.000000  -0.000000  -0.000000  -0.000000
   31  O  1 YYX  -0.000000  -0.000000  -0.000000  -0.000000  -0.000000
   32  O  1 YYZ  -0.000000  -0.000000  -0.000000  -0.000000  -0.000000
   33  O  1 ZZX  -0.000000  -0.000000  -0.000000  -0.000000  -0.000000
   34  O  1 ZZY  -0.000000  -0.000000  -0.000000  -0.000000  -0.000000
   35  O  1 XYZ  -0.000000  -0.000000  -0.000000  -0.000000  -0.000000
   36  O  1  S   -0.000858  -0.009561  -0.000000  -0.000000  -0.000000
   37  O  1  X   -0.000000  -0.000000  -0.000000  -0.000000  -0.009018
   38  O  1  Y   -0.000000  -0.000000  -0.000000  -0.009018  -0.000000
   39  O  1  Z   -0.000000  -0.000000  -0.009018  -0.000000  -0.000000
   40  O  1 XX   -0.000000  -0.000000  -0.000000  -0.000000  -0.000000
   41  O  1 YY   -0.000000  -0.000000  -0.000000  -0.000000  -0.000000
   42  O  1 ZZ   -0.000000  -0.000000  -0.000000  -0.000000  -0.000000
   43  O  1 XY   -0.000000  -0.000000  -0.000000  -0.000000  -0.000000
   44  O  1 XZ   -0.000000  -0.000000  -0.000000  -0.000000  -0.000000
   45  O  1 YZ   -0.000000  -0.000000  -0.000000  -0.000000  -0.000000
   46  O  1 XXX  -0.000000  -0.000000  -0.000000  -0.000000  -0.000000
   47  O  1 YYY  -0.000000  -0.000000  -0.000000  -0.000000  -0.000000
   48  O  1 ZZZ  -0.000000  -0.000000  -0.000000  -0.000000  -0.000000
   49  O  1 XXY  -0.000000  -0.000000  -0.000000  -0.000000  -0.000000
   50  O  1 XXZ  -0.000000  -0.000000  -0.000000  -0.000000  -0.000000
   51  O  1 YYX  -0.000000  -0.000000  -0.000000  -0.000000  -0.000000
   52  O  1 YYZ  -0.000000  -0.000000  -0.000000  -0.000000  -0.000000
   53  O  1 ZZX  -0.000000  -0.000000  -0.000000  -0.000000  -0.000000
   54  O  1 ZZY  -0.000000  -0.000000  -0.000000  -0.000000  -0.000000
   55  O  1 XYZ  -0.000000  -0.000000  -0.000000  -0.000000  -0.000000

                      6          7          8          9         10
                   -0.1173    -0.0716    -0.0716    -0.0716     0.2909
                     AG         B1U        B2U        B3U        AG  
    1  O  1  S    0.013249   0.000000   0.000000   0.000000   0.000000
    2  O  1  S   -0.146474   0.000000   0.000000   0.000000   0.000000
    3  O  1  S   -0.063478   0.000000   0.000000   0.000000   0.000000
    4  O  1  S   -0.722589   0.000000   0.000000   0.000000   0.000000
    5  O  1  X   -0.000000   0.000000   0.000000  -0.096608   0.000000
    6  O  1  Y   -0.000000   0.000000  -0.096608   0.000000   0.000000
    7  O  1  Z   -0.000000  -0.096608   0.000000   0.000000   0.000000
    8  O  1  X   -0.000000   0.000000   0.000000  -0.104272   0.000000
    9  O  1  Y   -0.000000   0.000000  -0.104272   0.000000   0.000000
   10  O  1  Z   -0.000000  -0.104272   0.000000   0.000000   0.000000
   11  O  1  X   -0.000000   0.000000   0.000000  -0.190818   0.000000
   12  O  1  Y   -0.000000   0.000000  -0.190818   0.000000   0.000000
   13  O  1  Z   -0.000000  -0.190818   0.000000   0.000000   0.000000
   14  O  1 XX   -0.000000   0.000000   0.000000   0.000000  -0.033098
   15  O  1 YY   -0.000000   0.000000   0.000000   0.000000   0.033147
   16  O  1 ZZ   -0.000000   0.000000   0.000000   0.000000  -0.000049
   17  O  1 XY   -0.000000   0.000000   0.000000   0.000000   0.000000
   18  O  1 XZ   -0.000000   0.000000   0.000000   0.000000   0.000000
   19  O  1 YZ   -0.000000   0.000000   0.000000   0.000000   0.000000
   20  O  1 XX   -0.000000   0.000000   0.000000   0.000000   0.051062
   21  O  1 YY   -0.000000   0.000000   0.000000   0.000000  -0.051138
   22  O  1 ZZ   -0.000000   0.000000   0.000000   0.000000   0.000076
   23  O  1 XY   -0.000000   0.000000   0.000000   0.000000   0.000000
   24  O  1 XZ   -0.000000   0.000000   0.000000   0.000000   0.000000
   25  O  1 YZ   -0.000000   0.000000   0.000000   0.000000   0.000000
   26  O  1 XXX  -0.000000   0.000000   0.000000   0.000000   0.000000
   27  O  1 YYY  -0.000000   0.000000   0.000000   0.000000   0.000000
   28  O  1 ZZZ  -0.000000   0.000000   0.000000   0.000000   0.000000
   29  O  1 XXY  -0.000000   0.000000   0.000000   0.000000   0.000000
   30  O  1 XXZ  -0.000000   0.000000   0.000000   0.000000   0.000000
   31  O  1 YYX  -0.000000   0.000000   0.000000   0.000000   0.000000
   32  O  1 YYZ  -0.000000   0.000000   0.000000   0.000000   0.000000
   33  O  1 ZZX  -0.000000   0.000000   0.000000   0.000000   0.000000
   34  O  1 ZZY  -0.000000   0.000000   0.000000   0.000000   0.000000
   35  O  1 XYZ  -0.000000   0.000000   0.000000   0.000000   0.000000
   36  O  1  S    1.451572   0.000000   0.000000   0.000000   0.000000
   37  O  1  X   -0.000000   0.000000   0.000000   1.103223   0.000000
   38  O  1  Y   -0.000000   0.000000   1.103223   0.000000   0.000000
   39  O  1  Z   -0.000000   1.103223   0.000000   0.000000   0.000000
   40  O  1 XX   -0.000000   0.000000   0.000000   0.000000  -0.891125
   41  O  1 YY   -0.000000   0.000000   0.000000   0.000000   0.892446
   42  O  1 ZZ   -0.000000   0.000000   0.000000   0.000000  -0.001321
   43  O  1 XY   -0.000000   0.000000   0.000000   0.000000   0.000000
   44  O  1 XZ   -0.000000   0.000000   0.000000   0.000000   0.000000
   45  O  1 YZ   -0.000000   0.000000   0.000000   0.000000   0.000000
   46  O  1 XXX  -0.000000   0.000000   0.000000   0.000000   0.000000
   47  O  1 YYY  -0.000000   0.000000   0.000000   0.000000   0.000000
   48  O  1 ZZZ  -0.000000   0.000000   0.000000   0.000000   0.000000
   49  O  1 XXY  -0.000000   0.000000   0.000000   0.000000   0.000000
   50  O  1 XXZ  -0.000000   0.000000   0.000000   0.000000   0.000000
   51  O  1 YYX  -0.000000   0.000000   0.000000   0.000000   0.000000
   52  O  1 YYZ  -0.000000   0.000000   0.000000   0.000000   0.000000
   53  O  1 ZZX  -0.000000   0.000000   0.000000   0.000000   0.000000
   54  O  1 ZZY  -0.000000   0.000000   0.000000   0.000000   0.000000
   55  O  1 XYZ  -0.000000   0.000000   0.000000   0.000000   0.000000

                     11         12         13         14         15
                    0.2909     0.2909     0.2909     0.2909     0.5007
                     B1G        B3G        B2G        AG         B1U 
    1  O  1  S   -0.000000  -0.000000  -0.000000   0.000000  -0.000000
    2  O  1  S   -0.000000  -0.000000  -0.000000   0.000000  -0.000000
    3  O  1  S   -0.000000  -0.000000  -0.000000   0.000000  -0.000000
    4  O  1  S   -0.000000  -0.000000  -0.000000   0.000000  -0.000000
    5  O  1  X   -0.000000  -0.000000  -0.000000   0.000000  -0.000000
    6  O  1  Y   -0.000000  -0.000000  -0.000000   0.000000  -0.000000
    7  O  1  Z   -0.000000  -0.000000  -0.000000   0.000000  -0.243627
    8  O  1  X   -0.000000  -0.000000  -0.000000   0.000000  -0.000000
    9  O  1  Y   -0.000000  -0.000000  -0.000000   0.000000  -0.000000
   10  O  1  Z   -0.000000  -0.000000  -0.000000   0.000000  -0.711168
   11  O  1  X   -0.000000  -0.000000  -0.000000   0.000000  -0.000000
   12  O  1  Y   -0.000000  -0.000000  -0.000000   0.000000  -0.000000
   13  O  1  Z   -0.000000  -0.000000  -0.000000   0.000000   1.595093
   14  O  1 XX   -0.000000  -0.000000  -0.000000  -0.019166  -0.000000
   15  O  1 YY   -0.000000  -0.000000  -0.000000  -0.019081  -0.000000
   16  O  1 ZZ   -0.000000  -0.000000  -0.000000   0.038247  -0.000000
   17  O  1 XY    0.038247  -0.000000  -0.000000   0.000000  -0.000000
   18  O  1 XZ   -0.000000  -0.000000   0.038247   0.000000  -0.000000
   19  O  1 YZ   -0.000000   0.038247  -0.000000   0.000000  -0.000000
   20  O  1 XX   -0.000000  -0.000000  -0.000000   0.029568  -0.000000
   21  O  1 YY   -0.000000  -0.000000  -0.000000   0.029437  -0.000000
   22  O  1 ZZ   -0.000000  -0.000000  -0.000000  -0.059005  -0.000000
   23  O  1 XY   -0.059005  -0.000000  -0.000000   0.000000  -0.000000
   24  O  1 XZ   -0.000000  -0.000000  -0.059005   0.000000  -0.000000
   25  O  1 YZ   -0.000000  -0.059005  -0.000000   0.000000  -0.000000
   26  O  1 XXX  -0.000000  -0.000000  -0.000000   0.000000  -0.000000
   27  O  1 YYY  -0.000000  -0.000000  -0.000000   0.000000  -0.000000
   28  O  1 ZZZ  -0.000000  -0.000000  -0.000000   0.000000  -0.000000
   29  O  1 XXY  -0.000000  -0.000000  -0.000000   0.000000  -0.000000
   30  O  1 XXZ  -0.000000  -0.000000  -0.000000   0.000000  -0.000000
   31  O  1 YYX  -0.000000  -0.000000  -0.000000   0.000000  -0.000000
   32  O  1 YYZ  -0.000000  -0.000000  -0.000000   0.000000  -0.000000
   33  O  1 ZZX  -0.000000  -0.000000  -0.000000   0.000000  -0.000000
   34  O  1 ZZY  -0.000000  -0.000000  -0.000000   0.000000  -0.000000
   35  O  1 XYZ  -0.000000  -0.000000  -0.000000   0.000000  -0.000000
   36  O  1  S   -0.000000  -0.000000  -0.000000   0.000000  -0.000000
   37  O  1  X   -0.000000  -0.000000  -0.000000   0.000000  -0.000000
   38  O  1  Y   -0.000000  -0.000000  -0.000000   0.000000  -0.000000
   39  O  1  Z   -0.000000  -0.000000  -0.000000   0.000000  -0.754769
   40  O  1 XX   -0.000000  -0.000000  -0.000000  -0.516017  -0.000000
   41  O  1 YY   -0.000000  -0.000000  -0.000000  -0.513728  -0.000000
   42  O  1 ZZ   -0.000000  -0.000000  -0.000000   1.029745  -0.000000
   43  O  1 XY    1.029746  -0.000000  -0.000000   0.000000  -0.000000
   44  O  1 XZ   -0.000000  -0.000000   1.029746   0.000000  -0.000000
   45  O  1 YZ   -0.000000   1.029746  -0.000000   0.000000  -0.000000
   46  O  1 XXX  -0.000000  -0.000000  -0.000000   0.000000  -0.000000
   47  O  1 YYY  -0.000000  -0.000000  -0.000000   0.000000  -0.000000
   48  O  1 ZZZ  -0.000000  -0.000000  -0.000000   0.000000  -0.000000
   49  O  1 XXY  -0.000000  -0.000000  -0.000000   0.000000  -0.000000
   50  O  1 XXZ  -0.000000  -0.000000  -0.000000   0.000000  -0.000000
   51  O  1 YYX  -0.000000  -0.000000  -0.000000   0.000000  -0.000000
   52  O  1 YYZ  -0.000000  -0.000000  -0.000000   0.000000  -0.000000
   53  O  1 ZZX  -0.000000  -0.000000  -0.000000   0.000000  -0.000000
   54  O  1 ZZY  -0.000000  -0.000000  -0.000000   0.000000  -0.000000
   55  O  1 XYZ  -0.000000  -0.000000  -0.000000   0.000000  -0.000000

                     16         17         18         19         20
                    0.5007     0.5007     0.8559     1.5839     1.5839
                     B2U        B3U        AG         B2U        B3U 
    1  O  1  S   -0.000000  -0.000000  -0.557280  -0.000000  -0.000000
    2  O  1  S   -0.000000  -0.000000  -1.554800  -0.000000  -0.000000
    3  O  1  S   -0.000000  -0.000000  -0.358683  -0.000000  -0.000000
    4  O  1  S   -0.000000  -0.000000   2.672441  -0.000000  -0.000000
    5  O  1  X   -0.000000  -0.243627   0.000000  -0.000000  -0.000000
    6  O  1  Y   -0.243627  -0.000000   0.000000  -0.000000  -0.000000
    7  O  1  Z   -0.000000  -0.000000   0.000000  -0.000000  -0.000000
    8  O  1  X   -0.000000  -0.711168   0.000000  -0.000000  -0.000000
    9  O  1  Y   -0.711168  -0.000000   0.000000  -0.000000  -0.000000
   10  O  1  Z   -0.000000  -0.000000   0.000000  -0.000000  -0.000000
   11  O  1  X   -0.000000   1.595093   0.000000  -0.000000  -0.000000
   12  O  1  Y    1.595093  -0.000000   0.000000  -0.000000  -0.000000
   13  O  1  Z   -0.000000  -0.000000   0.000000  -0.000000  -0.000000
   14  O  1 XX   -0.000000  -0.000000   0.000000  -0.000000  -0.000000
   15  O  1 YY   -0.000000  -0.000000   0.000000  -0.000000  -0.000000
   16  O  1 ZZ   -0.000000  -0.000000   0.000000  -0.000000  -0.000000
   17  O  1 XY   -0.000000  -0.000000   0.000000  -0.000000  -0.000000
   18  O  1 XZ   -0.000000  -0.000000   0.000000  -0.000000  -0.000000
   19  O  1 YZ   -0.000000  -0.000000   0.000000  -0.000000  -0.000000
   20  O  1 XX   -0.000000  -0.000000   0.000000  -0.000000  -0.000000
   21  O  1 YY   -0.000000  -0.000000   0.000000  -0.000000  -0.000000
   22  O  1 ZZ   -0.000000  -0.000000   0.000000  -0.000000  -0.000000
   23  O  1 XY   -0.000000  -0.000000   0.000000  -0.000000  -0.000000
   24  O  1 XZ   -0.000000  -0.000000   0.000000  -0.000000  -0.000000
   25  O  1 YZ   -0.000000  -0.000000   0.000000  -0.000000  -0.000000
   26  O  1 XXX  -0.000000  -0.000000   0.000000  -0.000000   0.071277
   27  O  1 YYY  -0.000000  -0.000000   0.000000   0.071284  -0.000000
   28  O  1 ZZZ  -0.000000  -0.000000   0.000000  -0.000000  -0.000000
   29  O  1 XXY  -0.000000  -0.000000   0.000000   0.031885  -0.000000
   30  O  1 XXZ  -0.000000  -0.000000   0.000000  -0.000000  -0.000000
   31  O  1 YYX  -0.000000  -0.000000   0.000000  -0.000000   0.031895
   32  O  1 YYZ  -0.000000  -0.000000   0.000000  -0.000000  -0.000000
   33  O  1 ZZX  -0.000000  -0.000000   0.000000  -0.000000  -0.127523
   34  O  1 ZZY  -0.000000  -0.000000   0.000000  -0.127523  -0.000000
   35  O  1 XYZ  -0.000000  -0.000000   0.000000  -0.000000  -0.000000
   36  O  1  S   -0.000000  -0.000000  -1.163993  -0.000000  -0.000000
   37  O  1  X   -0.000000  -0.754769   0.000000  -0.000000  -0.000000
   38  O  1  Y   -0.754769  -0.000000   0.000000  -0.000000  -0.000000
   39  O  1  Z   -0.000000  -0.000000   0.000000  -0.000000  -0.000000
   40  O  1 XX   -0.000000  -0.000000   0.000000  -0.000000  -0.000000
   41  O  1 YY   -0.000000  -0.000000   0.000000  -0.000000  -0.000000
   42  O  1 ZZ   -0.000000  -0.000000   0.000000  -0.000000  -0.000000
   43  O  1 XY   -0.000000  -0.000000   0.000000  -0.000000  -0.000000
   44  O  1 XZ   -0.000000  -0.000000   0.000000  -0.000000  -0.000000
   45  O  1 YZ   -0.000000  -0.000000   0.000000  -0.000000  -0.000000
   46  O  1 XXX  -0.000000  -0.000000   0.000000  -0.000000  -0.648787
   47  O  1 YYY  -0.000000  -0.000000   0.000000  -0.648852  -0.000000
   48  O  1 ZZZ  -0.000000  -0.000000   0.000000  -0.000000  -0.000000
   49  O  1 XXY  -0.000000  -0.000000   0.000000  -0.290231  -0.000000
   50  O  1 XXZ  -0.000000  -0.000000   0.000000  -0.000000  -0.000000
   51  O  1 YYX  -0.000000  -0.000000   0.000000  -0.000000  -0.290318
   52  O  1 YYZ  -0.000000  -0.000000   0.000000  -0.000000  -0.000000
   53  O  1 ZZX  -0.000000  -0.000000   0.000000  -0.000000   1.160757
   54  O  1 ZZY  -0.000000  -0.000000   0.000000   1.160757  -0.000000
   55  O  1 XYZ  -0.000000  -0.000000   0.000000  -0.000000  -0.000000

                     21         22         23         24         25
                    1.5839     1.5839     1.5839     1.5839     1.5839
                     B1U        AU         B1U        B3U        B2U 
    1  O  1  S   -0.000000   0.000000  -0.000000  -0.000000   0.000000
    2  O  1  S   -0.000000   0.000000  -0.000000  -0.000000   0.000000
    3  O  1  S   -0.000000   0.000000  -0.000000  -0.000000   0.000000
    4  O  1  S   -0.000000   0.000000  -0.000000  -0.000000   0.000000
    5  O  1  X   -0.000000   0.000000  -0.000000  -0.000000   0.000000
    6  O  1  Y   -0.000000   0.000000  -0.000000  -0.000000   0.000000
    7  O  1  Z   -0.000000   0.000000  -0.000000  -0.000000   0.000000
    8  O  1  X   -0.000000   0.000000  -0.000000  -0.000000   0.000000
    9  O  1  Y   -0.000000   0.000000  -0.000000  -0.000000   0.000000
   10  O  1  Z   -0.000000   0.000000  -0.000000  -0.000000   0.000000
   11  O  1  X   -0.000000   0.000000  -0.000000  -0.000000   0.000000
   12  O  1  Y   -0.000000   0.000000  -0.000000  -0.000000   0.000000
   13  O  1  Z   -0.000000   0.000000  -0.000000  -0.000000   0.000000
   14  O  1 XX   -0.000000   0.000000  -0.000000  -0.000000   0.000000
   15  O  1 YY   -0.000000   0.000000  -0.000000  -0.000000   0.000000
   16  O  1 ZZ   -0.000000   0.000000  -0.000000  -0.000000   0.000000
   17  O  1 XY   -0.000000   0.000000  -0.000000  -0.000000   0.000000
   18  O  1 XZ   -0.000000   0.000000  -0.000000  -0.000000   0.000000
   19  O  1 YZ   -0.000000   0.000000  -0.000000  -0.000000   0.000000
   20  O  1 XX   -0.000000   0.000000  -0.000000  -0.000000   0.000000
   21  O  1 YY   -0.000000   0.000000  -0.000000  -0.000000   0.000000
   22  O  1 ZZ   -0.000000   0.000000  -0.000000  -0.000000   0.000000
   23  O  1 XY   -0.000000   0.000000  -0.000000  -0.000000   0.000000
   24  O  1 XZ   -0.000000   0.000000  -0.000000  -0.000000   0.000000
   25  O  1 YZ   -0.000000   0.000000  -0.000000  -0.000000   0.000000
   26  O  1 XXX  -0.000000   0.000000  -0.000000   0.092040   0.000000
   27  O  1 YYY  -0.000000   0.000000  -0.000000  -0.000000   0.092034
   28  O  1 ZZZ  -0.116388   0.000000   0.002345  -0.000000   0.000000
   29  O  1 XXY  -0.000000   0.000000  -0.000000  -0.000000  -0.123472
   30  O  1 XXZ   0.076045   0.000000  -0.102368  -0.000000   0.000000
   31  O  1 YYX  -0.000000   0.000000  -0.000000  -0.123470   0.000000
   32  O  1 YYZ   0.080106   0.000000   0.099222  -0.000000   0.000000
   33  O  1 ZZX  -0.000000   0.000000  -0.000000  -0.000015   0.000000
   34  O  1 ZZY  -0.000000   0.000000  -0.000000  -0.000000  -0.000005
   35  O  1 XYZ  -0.000000  -0.116412  -0.000000  -0.000000   0.000000
   36  O  1  S   -0.000000   0.000000  -0.000000  -0.000000   0.000000
   37  O  1  X   -0.000000   0.000000  -0.000000  -0.000000   0.000000
   38  O  1  Y   -0.000000   0.000000  -0.000000  -0.000000   0.000000
   39  O  1  Z   -0.000000   0.000000  -0.000000  -0.000000   0.000000
   40  O  1 XX   -0.000000   0.000000  -0.000000  -0.000000   0.000000
   41  O  1 YY   -0.000000   0.000000  -0.000000  -0.000000   0.000000
   42  O  1 ZZ   -0.000000   0.000000  -0.000000  -0.000000   0.000000
   43  O  1 XY   -0.000000   0.000000  -0.000000  -0.000000   0.000000
   44  O  1 XZ   -0.000000   0.000000  -0.000000  -0.000000   0.000000
   45  O  1 YZ   -0.000000   0.000000  -0.000000  -0.000000   0.000000
   46  O  1 XXX  -0.000000   0.000000  -0.000000  -0.837778   0.000000
   47  O  1 YYY  -0.000000   0.000000  -0.000000  -0.000000  -0.837728
   48  O  1 ZZZ   1.059406   0.000000  -0.021344  -0.000000   0.000000
   49  O  1 XXY  -0.000000   0.000000  -0.000000  -0.000000   1.123887
   50  O  1 XXZ  -0.692187   0.000000   0.931791  -0.000000   0.000000
   51  O  1 YYX  -0.000000   0.000000  -0.000000   1.123865   0.000000
   52  O  1 YYZ  -0.729156   0.000000  -0.903155  -0.000000   0.000000
   53  O  1 ZZX  -0.000000   0.000000  -0.000000   0.000133   0.000000
   54  O  1 ZZY  -0.000000   0.000000  -0.000000  -0.000000   0.000043
   55  O  1 XYZ  -0.000000   1.059621  -0.000000  -0.000000   0.000000

                     26         27         28         29         30
                    1.6073     1.6073     1.6073     1.6073     1.6073
                     AG         B2G        B3G        AG         B1G 
    1  O  1  S   -0.000000  -0.000000  -0.000000  -0.000000  -0.000000
    2  O  1  S   -0.000000  -0.000000  -0.000000  -0.000000  -0.000000
    3  O  1  S   -0.000000  -0.000000  -0.000000  -0.000000  -0.000000
    4  O  1  S   -0.000000  -0.000000  -0.000000  -0.000000  -0.000000
    5  O  1  X   -0.000000  -0.000000  -0.000000  -0.000000  -0.000000
    6  O  1  Y   -0.000000  -0.000000  -0.000000  -0.000000  -0.000000
    7  O  1  Z   -0.000000  -0.000000  -0.000000  -0.000000  -0.000000
    8  O  1  X   -0.000000  -0.000000  -0.000000  -0.000000  -0.000000
    9  O  1  Y   -0.000000  -0.000000  -0.000000  -0.000000  -0.000000
   10  O  1  Z   -0.000000  -0.000000  -0.000000  -0.000000  -0.000000
   11  O  1  X   -0.000000  -0.000000  -0.000000  -0.000000  -0.000000
   12  O  1  Y   -0.000000  -0.000000  -0.000000  -0.000000  -0.000000
   13  O  1  Z   -0.000000  -0.000000  -0.000000  -0.000000  -0.000000
   14  O  1 XX   -0.007269  -0.000000  -0.000000  -0.012392  -0.000000
   15  O  1 YY   -0.007097  -0.000000  -0.000000   0.012492  -0.000000
   16  O  1 ZZ    0.014367  -0.000000  -0.000000  -0.000100  -0.000000
   17  O  1 XY   -0.000000  -0.000000  -0.000000  -0.000000   0.014367
   18  O  1 XZ   -0.000000   0.014367  -0.000000  -0.000000  -0.000000
   19  O  1 YZ   -0.000000  -0.000000   0.014367  -0.000000  -0.000000
   20  O  1 XX   -0.628455  -0.000000  -0.000000  -1.071310  -0.000000
   21  O  1 YY   -0.613554  -0.000000  -0.000000   1.079912  -0.000000
   22  O  1 ZZ    1.242009  -0.000000  -0.000000  -0.008603  -0.000000
   23  O  1 XY   -0.000000  -0.000000  -0.000000  -0.000000   1.242039
   24  O  1 XZ   -0.000000   1.242039  -0.000000  -0.000000  -0.000000
   25  O  1 YZ   -0.000000  -0.000000   1.242039  -0.000000  -0.000000
   26  O  1 XXX  -0.000000  -0.000000  -0.000000  -0.000000  -0.000000
   27  O  1 YYY  -0.000000  -0.000000  -0.000000  -0.000000  -0.000000
   28  O  1 ZZZ  -0.000000  -0.000000  -0.000000  -0.000000  -0.000000
   29  O  1 XXY  -0.000000  -0.000000  -0.000000  -0.000000  -0.000000
   30  O  1 XXZ  -0.000000  -0.000000  -0.000000  -0.000000  -0.000000
   31  O  1 YYX  -0.000000  -0.000000  -0.000000  -0.000000  -0.000000
   32  O  1 YYZ  -0.000000  -0.000000  -0.000000  -0.000000  -0.000000
   33  O  1 ZZX  -0.000000  -0.000000  -0.000000  -0.000000  -0.000000
   34  O  1 ZZY  -0.000000  -0.000000  -0.000000  -0.000000  -0.000000
   35  O  1 XYZ  -0.000000  -0.000000  -0.000000  -0.000000  -0.000000
   36  O  1  S   -0.000000  -0.000000  -0.000000  -0.000000  -0.000000
   37  O  1  X   -0.000000  -0.000000  -0.000000  -0.000000  -0.000000
   38  O  1  Y   -0.000000  -0.000000  -0.000000  -0.000000  -0.000000
   39  O  1  Z   -0.000000  -0.000000  -0.000000  -0.000000  -0.000000
   40  O  1 XX    0.366120  -0.000000  -0.000000   0.624115  -0.000000
   41  O  1 YY    0.357440  -0.000000  -0.000000  -0.629127  -0.000000
   42  O  1 ZZ   -0.723560  -0.000000  -0.000000   0.005012  -0.000000
   43  O  1 XY   -0.000000  -0.000000  -0.000000  -0.000000  -0.723577
   44  O  1 XZ   -0.000000  -0.723577  -0.000000  -0.000000  -0.000000
   45  O  1 YZ   -0.000000  -0.000000  -0.723577  -0.000000  -0.000000
   46  O  1 XXX  -0.000000  -0.000000  -0.000000  -0.000000  -0.000000
   47  O  1 YYY  -0.000000  -0.000000  -0.000000  -0.000000  -0.000000
   48  O  1 ZZZ  -0.000000  -0.000000  -0.000000  -0.000000  -0.000000
   49  O  1 XXY  -0.000000  -0.000000  -0.000000  -0.000000  -0.000000
   50  O  1 XXZ  -0.000000  -0.000000  -0.000000  -0.000000  -0.000000
   51  O  1 YYX  -0.000000  -0.000000  -0.000000  -0.000000  -0.000000
   52  O  1 YYZ  -0.000000  -0.000000  -0.000000  -0.000000  -0.000000
   53  O  1 ZZX  -0.000000  -0.000000  -0.000000  -0.000000  -0.000000
   54  O  1 ZZY  -0.000000  -0.000000  -0.000000  -0.000000  -0.000000
   55  O  1 XYZ  -0.000000  -0.000000  -0.000000  -0.000000  -0.000000

                     31         32         33         34         35
                    3.5210     3.5210     3.5210     5.8050     5.8050
                     B1U        B2U        B3U        B2U        B3U 
    1  O  1  S   -0.000000  -0.000000  -0.000000  -0.000000   0.000000
    2  O  1  S   -0.000000  -0.000000  -0.000000  -0.000000   0.000000
    3  O  1  S   -0.000000  -0.000000  -0.000000  -0.000000   0.000000
    4  O  1  S   -0.000000  -0.000000  -0.000000  -0.000000   0.000000
    5  O  1  X   -0.000000  -0.000000  -1.226966  -0.000000   0.000000
    6  O  1  Y   -0.000000  -1.226966  -0.000000  -0.000000   0.000000
    7  O  1  Z   -1.226966  -0.000000  -0.000000  -0.000000   0.000000
    8  O  1  X   -0.000000  -0.000000   1.566588  -0.000000   0.000000
    9  O  1  Y   -0.000000   1.566588  -0.000000  -0.000000   0.000000
   10  O  1  Z    1.566588  -0.000000  -0.000000  -0.000000   0.000000
   11  O  1  X   -0.000000  -0.000000  -0.853160  -0.000000   0.000000
   12  O  1  Y   -0.000000  -0.853160  -0.000000  -0.000000   0.000000
   13  O  1  Z   -0.853160  -0.000000  -0.000000  -0.000000   0.000000
   14  O  1 XX   -0.000000  -0.000000  -0.000000  -0.000000   0.000000
   15  O  1 YY   -0.000000  -0.000000  -0.000000  -0.000000   0.000000
   16  O  1 ZZ   -0.000000  -0.000000  -0.000000  -0.000000   0.000000
   17  O  1 XY   -0.000000  -0.000000  -0.000000  -0.000000   0.000000
   18  O  1 XZ   -0.000000  -0.000000  -0.000000  -0.000000   0.000000
   19  O  1 YZ   -0.000000  -0.000000  -0.000000  -0.000000   0.000000
   20  O  1 XX   -0.000000  -0.000000  -0.000000  -0.000000   0.000000
   21  O  1 YY   -0.000000  -0.000000  -0.000000  -0.000000   0.000000
   22  O  1 ZZ   -0.000000  -0.000000  -0.000000  -0.000000   0.000000
   23  O  1 XY   -0.000000  -0.000000  -0.000000  -0.000000   0.000000
   24  O  1 XZ   -0.000000  -0.000000  -0.000000  -0.000000   0.000000
   25  O  1 YZ   -0.000000  -0.000000  -0.000000  -0.000000   0.000000
   26  O  1 XXX  -0.000000  -0.000000  -0.000000  -0.000000  -0.945598
   27  O  1 YYY  -0.000000  -0.000000  -0.000000  -0.943694   0.000000
   28  O  1 ZZZ  -0.000000  -0.000000  -0.000000  -0.000000   0.000000
   29  O  1 XXY  -0.000000  -0.000000  -0.000000   1.266897   0.000000
   30  O  1 XXZ  -0.000000  -0.000000  -0.000000  -0.000000   0.000000
   31  O  1 YYX  -0.000000  -0.000000  -0.000000  -0.000000   1.266042
   32  O  1 YYZ  -0.000000  -0.000000  -0.000000  -0.000000   0.000000
   33  O  1 ZZX  -0.000000  -0.000000  -0.000000  -0.000000   0.002611
   34  O  1 ZZY  -0.000000  -0.000000  -0.000000  -0.000798   0.000000
   35  O  1 XYZ  -0.000000  -0.000000  -0.000000  -0.000000   0.000000
   36  O  1  S   -0.000000  -0.000000  -0.000000  -0.000000   0.000000
   37  O  1  X   -0.000000  -0.000000   0.269193  -0.000000   0.000000
   38  O  1  Y   -0.000000   0.269193  -0.000000  -0.000000   0.000000
   39  O  1  Z    0.269193  -0.000000  -0.000000  -0.000000   0.000000
   40  O  1 XX   -0.000000  -0.000000  -0.000000  -0.000000   0.000000
   41  O  1 YY   -0.000000  -0.000000  -0.000000  -0.000000   0.000000
   42  O  1 ZZ   -0.000000  -0.000000  -0.000000  -0.000000   0.000000
   43  O  1 XY   -0.000000  -0.000000  -0.000000  -0.000000   0.000000
   44  O  1 XZ   -0.000000  -0.000000  -0.000000  -0.000000   0.000000
   45  O  1 YZ   -0.000000  -0.000000  -0.000000  -0.000000   0.000000
   46  O  1 XXX  -0.000000  -0.000000  -0.000000  -0.000000   0.445797
   47  O  1 YYY  -0.000000  -0.000000  -0.000000   0.444899   0.000000
   48  O  1 ZZZ  -0.000000  -0.000000  -0.000000  -0.000000   0.000000
   49  O  1 XXY  -0.000000  -0.000000  -0.000000  -0.597271   0.000000
   50  O  1 XXZ  -0.000000  -0.000000  -0.000000  -0.000000   0.000000
   51  O  1 YYX  -0.000000  -0.000000  -0.000000  -0.000000  -0.596868
   52  O  1 YYZ  -0.000000  -0.000000  -0.000000  -0.000000   0.000000
   53  O  1 ZZX  -0.000000  -0.000000  -0.000000  -0.000000  -0.001231
   54  O  1 ZZY  -0.000000  -0.000000  -0.000000   0.000376   0.000000
   55  O  1 XYZ  -0.000000  -0.000000  -0.000000  -0.000000   0.000000

                     36         37         38         39         40
                    5.8050     5.8050     5.8050     5.8050     5.8050
                     AU         B1U        B3U        B1U        B2U 
    1  O  1  S   -0.000000  -0.000000  -0.000000   0.000000   0.000000
    2  O  1  S   -0.000000  -0.000000  -0.000000   0.000000   0.000000
    3  O  1  S   -0.000000  -0.000000  -0.000000   0.000000   0.000000
    4  O  1  S   -0.000000  -0.000000  -0.000000   0.000000   0.000000
    5  O  1  X   -0.000000  -0.000000  -0.000000   0.000000   0.000000
    6  O  1  Y   -0.000000  -0.000000  -0.000000   0.000000   0.000000
    7  O  1  Z   -0.000000  -0.000000  -0.000000   0.000000   0.000000
    8  O  1  X   -0.000000  -0.000000  -0.000000   0.000000   0.000000
    9  O  1  Y   -0.000000  -0.000000  -0.000000   0.000000   0.000000
   10  O  1  Z   -0.000000  -0.000000  -0.000000   0.000000   0.000000
   11  O  1  X   -0.000000  -0.000000  -0.000000   0.000000   0.000000
   12  O  1  Y   -0.000000  -0.000000  -0.000000   0.000000   0.000000
   13  O  1  Z   -0.000000  -0.000000  -0.000000   0.000000   0.000000
   14  O  1 XX   -0.000000  -0.000000  -0.000000   0.000000   0.000000
   15  O  1 YY   -0.000000  -0.000000  -0.000000   0.000000   0.000000
   16  O  1 ZZ   -0.000000  -0.000000  -0.000000   0.000000   0.000000
   17  O  1 XY   -0.000000  -0.000000  -0.000000   0.000000   0.000000
   18  O  1 XZ   -0.000000  -0.000000  -0.000000   0.000000   0.000000
   19  O  1 YZ   -0.000000  -0.000000  -0.000000   0.000000   0.000000
   20  O  1 XX   -0.000000  -0.000000  -0.000000   0.000000   0.000000
   21  O  1 YY   -0.000000  -0.000000  -0.000000   0.000000   0.000000
   22  O  1 ZZ   -0.000000  -0.000000  -0.000000   0.000000   0.000000
   23  O  1 XY   -0.000000  -0.000000  -0.000000   0.000000   0.000000
   24  O  1 XZ   -0.000000  -0.000000  -0.000000   0.000000   0.000000
   25  O  1 YZ   -0.000000  -0.000000  -0.000000   0.000000   0.000000
   26  O  1 XXX  -0.000000  -0.000000  -0.729442   0.000000   0.000000
   27  O  1 YYY  -0.000000  -0.000000  -0.000000   0.000000  -0.731904
   28  O  1 ZZZ  -0.000000  -0.004521  -0.000000   1.194245   0.000000
   29  O  1 XXY  -0.000000  -0.000000  -0.000000   0.000000  -0.326287
   30  O  1 XXZ  -0.000000   1.037280  -0.000000  -0.797209   0.000000
   31  O  1 YYX  -0.000000  -0.000000  -0.329587   0.000000   0.000000
   32  O  1 YYZ  -0.000000  -1.031214  -0.000000  -0.805039   0.000000
   33  O  1 ZZX  -0.000000  -0.000000   1.308237   0.000000   0.000000
   34  O  1 ZZY  -0.000000  -0.000000  -0.000000   0.000000   1.308239
   35  O  1 XYZ   1.194254  -0.000000  -0.000000   0.000000   0.000000
   36  O  1  S   -0.000000  -0.000000  -0.000000   0.000000   0.000000
   37  O  1  X   -0.000000  -0.000000  -0.000000   0.000000   0.000000
   38  O  1  Y   -0.000000  -0.000000  -0.000000   0.000000   0.000000
   39  O  1  Z   -0.000000  -0.000000  -0.000000   0.000000   0.000000
   40  O  1 XX   -0.000000  -0.000000  -0.000000   0.000000   0.000000
   41  O  1 YY   -0.000000  -0.000000  -0.000000   0.000000   0.000000
   42  O  1 ZZ   -0.000000  -0.000000  -0.000000   0.000000   0.000000
   43  O  1 XY   -0.000000  -0.000000  -0.000000   0.000000   0.000000
   44  O  1 XZ   -0.000000  -0.000000  -0.000000   0.000000   0.000000
   45  O  1 YZ   -0.000000  -0.000000  -0.000000   0.000000   0.000000
   46  O  1 XXX  -0.000000  -0.000000   0.343892   0.000000   0.000000
   47  O  1 YYY  -0.000000  -0.000000  -0.000000   0.000000   0.345052
   48  O  1 ZZZ  -0.000000   0.002131  -0.000000  -0.563020   0.000000
   49  O  1 XXY  -0.000000  -0.000000  -0.000000   0.000000   0.153826
   50  O  1 XXZ  -0.000000  -0.489020  -0.000000   0.375839   0.000000
   51  O  1 YYX  -0.000000  -0.000000   0.155382   0.000000   0.000000
   52  O  1 YYZ  -0.000000   0.486160  -0.000000   0.379531   0.000000
   53  O  1 ZZX  -0.000000  -0.000000  -0.616761   0.000000   0.000000
   54  O  1 ZZY  -0.000000  -0.000000  -0.000000   0.000000  -0.616762
   55  O  1 XYZ  -0.563024  -0.000000  -0.000000   0.000000   0.000000

                     41         42         43         44         45
                    6.2840     6.2840     6.2840     6.2840     6.2840
                     B1G        AG         AG         B2G        B3G 
    1  O  1  S   -0.000000   0.000000  -0.000000  -0.000000  -0.000000
    2  O  1  S   -0.000000   0.000000  -0.000000  -0.000000  -0.000000
    3  O  1  S   -0.000000   0.000000  -0.000000  -0.000000  -0.000000
    4  O  1  S   -0.000000   0.000000  -0.000000  -0.000000  -0.000000
    5  O  1  X   -0.000000   0.000000  -0.000000  -0.000000  -0.000000
    6  O  1  Y   -0.000000   0.000000  -0.000000  -0.000000  -0.000000
    7  O  1  Z   -0.000000   0.000000  -0.000000  -0.000000  -0.000000
    8  O  1  X   -0.000000   0.000000  -0.000000  -0.000000  -0.000000
    9  O  1  Y   -0.000000   0.000000  -0.000000  -0.000000  -0.000000
   10  O  1  Z   -0.000000   0.000000  -0.000000  -0.000000  -0.000000
   11  O  1  X   -0.000000   0.000000  -0.000000  -0.000000  -0.000000
   12  O  1  Y   -0.000000   0.000000  -0.000000  -0.000000  -0.000000
   13  O  1  Z   -0.000000   0.000000  -0.000000  -0.000000  -0.000000
   14  O  1 XX   -0.000000  -1.032020  -0.622173  -0.000000  -0.000000
   15  O  1 YY   -0.000000   1.054828  -0.582669  -0.000000  -0.000000
   16  O  1 ZZ   -0.000000  -0.022808   1.204842  -0.000000  -0.000000
   17  O  1 XY    1.205058   0.000000  -0.000000  -0.000000  -0.000000
   18  O  1 XZ   -0.000000   0.000000  -0.000000   1.205058  -0.000000
   19  O  1 YZ   -0.000000   0.000000  -0.000000  -0.000000   1.205058
   20  O  1 XX   -0.000000   0.714553   0.430782  -0.000000  -0.000000
   21  O  1 YY   -0.000000  -0.730345   0.403430  -0.000000  -0.000000
   22  O  1 ZZ   -0.000000   0.015792  -0.834212  -0.000000  -0.000000
   23  O  1 XY   -0.834362   0.000000  -0.000000  -0.000000  -0.000000
   24  O  1 XZ   -0.000000   0.000000  -0.000000  -0.834362  -0.000000
   25  O  1 YZ   -0.000000   0.000000  -0.000000  -0.000000  -0.834362
   26  O  1 XXX  -0.000000   0.000000  -0.000000  -0.000000  -0.000000
   27  O  1 YYY  -0.000000   0.000000  -0.000000  -0.000000  -0.000000
   28  O  1 ZZZ  -0.000000   0.000000  -0.000000  -0.000000  -0.000000
   29  O  1 XXY  -0.000000   0.000000  -0.000000  -0.000000  -0.000000
   30  O  1 XXZ  -0.000000   0.000000  -0.000000  -0.000000  -0.000000
   31  O  1 YYX  -0.000000   0.000000  -0.000000  -0.000000  -0.000000
   32  O  1 YYZ  -0.000000   0.000000  -0.000000  -0.000000  -0.000000
   33  O  1 ZZX  -0.000000   0.000000  -0.000000  -0.000000  -0.000000
   34  O  1 ZZY  -0.000000   0.000000  -0.000000  -0.000000  -0.000000
   35  O  1 XYZ  -0.000000   0.000000  -0.000000  -0.000000  -0.000000
   36  O  1  S   -0.000000   0.000000  -0.000000  -0.000000  -0.000000
   37  O  1  X   -0.000000   0.000000  -0.000000  -0.000000  -0.000000
   38  O  1  Y   -0.000000   0.000000  -0.000000  -0.000000  -0.000000
   39  O  1  Z   -0.000000   0.000000  -0.000000  -0.000000  -0.000000
   40  O  1 XX   -0.000000  -0.269852  -0.162685  -0.000000  -0.000000
   41  O  1 YY   -0.000000   0.275816  -0.152356  -0.000000  -0.000000
   42  O  1 ZZ   -0.000000  -0.005964   0.315041  -0.000000  -0.000000
   43  O  1 XY    0.315098   0.000000  -0.000000  -0.000000  -0.000000
   44  O  1 XZ   -0.000000   0.000000  -0.000000   0.315098  -0.000000
   45  O  1 YZ   -0.000000   0.000000  -0.000000  -0.000000   0.315098
   46  O  1 XXX  -0.000000   0.000000  -0.000000  -0.000000  -0.000000
   47  O  1 YYY  -0.000000   0.000000  -0.000000  -0.000000  -0.000000
   48  O  1 ZZZ  -0.000000   0.000000  -0.000000  -0.000000  -0.000000
   49  O  1 XXY  -0.000000   0.000000  -0.000000  -0.000000  -0.000000
   50  O  1 XXZ  -0.000000   0.000000  -0.000000  -0.000000  -0.000000
   51  O  1 YYX  -0.000000   0.000000  -0.000000  -0.000000  -0.000000
   52  O  1 YYZ  -0.000000   0.000000  -0.000000  -0.000000  -0.000000
   53  O  1 ZZX  -0.000000   0.000000  -0.000000  -0.000000  -0.000000
   54  O  1 ZZY  -0.000000   0.000000  -0.000000  -0.000000  -0.000000
   55  O  1 XYZ  -0.000000   0.000000  -0.000000  -0.000000  -0.000000

                     46
                    7.7005
                     AG  
    1  O  1  S    2.565093
    2  O  1  S    3.406638
    3  O  1  S   -2.490990
    4  O  1  S   -2.086504
    5  O  1  X    0.000000
    6  O  1  Y    0.000000
    7  O  1  Z    0.000000
    8  O  1  X    0.000000
    9  O  1  Y    0.000000
   10  O  1  Z    0.000000
   11  O  1  X    0.000000
   12  O  1  Y    0.000000
   13  O  1  Z    0.000000
   14  O  1 XX    0.000000
   15  O  1 YY    0.000000
   16  O  1 ZZ    0.000000
   17  O  1 XY    0.000000
   18  O  1 XZ    0.000000
   19  O  1 YZ    0.000000
   20  O  1 XX    0.000000
   21  O  1 YY    0.000000
   22  O  1 ZZ    0.000000
   23  O  1 XY    0.000000
   24  O  1 XZ    0.000000
   25  O  1 YZ    0.000000
   26  O  1 XXX   0.000000
   27  O  1 YYY   0.000000
   28  O  1 ZZZ   0.000000
   29  O  1 XXY   0.000000
   30  O  1 XXZ   0.000000
   31  O  1 YYX   0.000000
   32  O  1 YYZ   0.000000
   33  O  1 ZZX   0.000000
   34  O  1 ZZY   0.000000
   35  O  1 XYZ   0.000000
   36  O  1  S    0.642319
   37  O  1  X    0.000000
   38  O  1  Y    0.000000
   39  O  1  Z    0.000000
   40  O  1 XX    0.000000
   41  O  1 YY    0.000000
   42  O  1 ZZ    0.000000
   43  O  1 XY    0.000000
   44  O  1 XZ    0.000000
   45  O  1 YZ    0.000000
   46  O  1 XXX   0.000000
   47  O  1 YYY   0.000000
   48  O  1 ZZZ   0.000000
   49  O  1 XXY   0.000000
   50  O  1 XXZ   0.000000
   51  O  1 YYX   0.000000
   52  O  1 YYZ   0.000000
   53  O  1 ZZX   0.000000
   54  O  1 ZZY   0.000000
   55  O  1 XYZ   0.000000

 ... END OF ROHF-GVB SCF CALCULATION ...
 STEP CPU TIME =     0.12 TOTAL CPU TIME =        0.2 (    0.0 MIN)
 TOTAL WALL CLOCK TIME=        1.0 SECONDS, CPU UTILIZATION IS  21.57%

     ----------------------------------------------------------------
     PROPERTY VALUES FOR THE GVB   SELF-CONSISTENT FIELD WAVEFUNCTION
     ----------------------------------------------------------------

          -----------------
          ENERGY COMPONENTS
          -----------------

         WAVEFUNCTION NORMALIZATION =       1.0000000000

                ONE ELECTRON ENERGY =     -97.5760785532
                TWO ELECTRON ENERGY =      24.2720547425
           NUCLEAR REPULSION ENERGY =       0.0000000000
                                      ------------------
                       TOTAL ENERGY =     -73.3040238107

 ELECTRON-ELECTRON POTENTIAL ENERGY =      24.2720547425
  NUCLEUS-ELECTRON POTENTIAL ENERGY =    -170.8347367104
   NUCLEUS-NUCLEUS POTENTIAL ENERGY =       0.0000000000
                                      ------------------
             TOTAL POTENTIAL ENERGY =    -146.5626819679
               TOTAL KINETIC ENERGY =      73.2586581572
                 VIRIAL RATIO (V/T) =       2.0006192531

          ---------------------------------------
          MULLIKEN AND LOWDIN POPULATION ANALYSES
          ---------------------------------------

     ATOMIC MULLIKEN POPULATION IN EACH MOLECULAR ORBITAL

                      1          2          3          4          5

                  2.000000   1.000000   1.333333   1.333333   1.333333

    1             2.000000   1.000000   1.333333   1.333333   1.333333

               ----- POPULATIONS IN EACH AO -----
                             MULLIKEN      LOWDIN
              1  O  1  S      1.94935     1.57555
              2  O  1  S      0.58049     0.38998
              3  O  1  S      0.16519     0.33429
              4  O  1  S      0.31051     0.15443
              5  O  1  X      0.45803     0.42737
              6  O  1  Y      0.45803     0.42737
              7  O  1  Z      0.45803     0.42737
              8  O  1  X      0.65567     0.29363
              9  O  1  Y      0.65567     0.29363
             10  O  1  Z      0.65567     0.29363
             11  O  1  X      0.22294     0.11699
             12  O  1  Y      0.22294     0.11699
             13  O  1  Z      0.22294     0.11699
             14  O  1 XX      0.00000     0.08981
             15  O  1 YY      0.00000     0.08981
             16  O  1 ZZ      0.00000     0.08981
             17  O  1 XY      0.00000     0.00000
             18  O  1 XZ      0.00000     0.00000
             19  O  1 YZ      0.00000     0.00000
             20  O  1 XX      0.00000     0.07257
             21  O  1 YY      0.00000     0.07257
             22  O  1 ZZ      0.00000     0.07257
             23  O  1 XY      0.00000     0.00000
             24  O  1 XZ      0.00000     0.00000
             25  O  1 YZ      0.00000     0.00000
             26  O  1 XXX     0.00000     0.18220
             27  O  1 YYY     0.00000     0.18220
             28  O  1 ZZZ     0.00000     0.18220
             29  O  1 XXY     0.00000     0.07986
             30  O  1 XXZ     0.00000     0.07986
             31  O  1 YYX     0.00000     0.07986
             32  O  1 YYZ     0.00000     0.07986
             33  O  1 ZZX     0.00000     0.07986
             34  O  1 ZZY     0.00000     0.07986
             35  O  1 XYZ     0.00000     0.00000
             36  O  1  S     -0.00554     0.03209
             37  O  1  X     -0.00330     0.01089
             38  O  1  Y     -0.00330     0.01089
             39  O  1  Z     -0.00330     0.01089
             40  O  1 XX      0.00000     0.00884
             41  O  1 YY      0.00000     0.00884
             42  O  1 ZZ      0.00000     0.00884
             43  O  1 XY      0.00000     0.00000
             44  O  1 XZ      0.00000     0.00000
             45  O  1 YZ      0.00000     0.00000
             46  O  1 XXX     0.00000     0.07726
             47  O  1 YYY     0.00000     0.07726
             48  O  1 ZZZ     0.00000     0.07726
             49  O  1 XXY     0.00000     0.03264
             50  O  1 XXZ     0.00000     0.03264
             51  O  1 YYX     0.00000     0.03264
             52  O  1 YYZ     0.00000     0.03264
             53  O  1 ZZX     0.00000     0.03264
             54  O  1 ZZY     0.00000     0.03264
             55  O  1 XYZ     0.00000     0.00000

          ----- MULLIKEN ATOMIC OVERLAP POPULATIONS -----
          (OFF-DIAGONAL ELEMENTS NEED TO BE MULTIPLIED BY 2)

             1

    1    7.0000000

          TOTAL MULLIKEN AND LOWDIN ATOMIC POPULATIONS
       ATOM         MULL.POP.    CHARGE          LOW.POP.     CHARGE
    1 O             7.000000    1.000000         7.000000    1.000000

          MULLIKEN SPHERICAL HARMONIC POPULATIONS
       ATOM           S       P       D      F      G      H      I    TOTAL
    1 O             3.00    4.00    0.00   0.00   0.00   0.00   0.00    7.00

          ---------------------
          ELECTROSTATIC MOMENTS
          ---------------------

 POINT   1           X           Y           Z (BOHR)    CHARGE
                 0.000000    0.000000    0.000000        1.00 (A.U.)
         DX          DY          DZ         /D/  (DEBYE)
     0.000000    0.000000    0.000000    0.000000
 ...... END OF PROPERTY EVALUATION ......
 STEP CPU TIME =     0.01 TOTAL CPU TIME =        0.2 (    0.0 MIN)
 TOTAL WALL CLOCK TIME=        1.0 SECONDS, CPU UTILIZATION IS  22.33%
               580000  WORDS OF DYNAMIC MEMORY USED
 EXECUTION OF GAMESS TERMINATED NORMALLY Mon Nov 28 20:16:48 2016
 DDI: 263640 bytes (0.3 MB / 0 MWords) used by master data server.

 ----------------------------------------
 CPU timing information for all processes
 ========================================
 0: 0.205 + 0.49 = 0.255
 ----------------------------------------
 ddikick.x: exited gracefully.
unset echo
----- accounting info -----
Files used on the master node compute-3-0 were:
-rw-rw-r-- 1 sarom sarom   41590 Nov 29  2016 .//gvb-o-cation.dat
-rw-rw-r-- 1 sarom sarom    2850 Nov 29  2016 .//gvb-o-cation.F05
-rw-rw-r-- 1 sarom sarom 1980176 Nov 29  2016 .//gvb-o-cation.F08
-rw-rw-r-- 1 sarom sarom 1734160 Nov 29  2016 .//gvb-o-cation.F10
-rw-rw-r-- 1 sarom sarom   30672 Nov 29  2016 .//gvb-o-cation.F15
-rw-rw-r-- 1 sarom sarom   98624 Nov 29  2016 .//gvb-o-cation.F23
-rw-rw-r-- 1 sarom sarom    2850 Nov 28 17:27 .//gvb-o-cation.inp
-rw-rw-r-- 1 sarom sarom   69417 Nov 29  2016 .//gvb-o-cation.log
Mon Nov 28 20:16:51 CST 2016
0.194u 0.587s 0:05.16 14.9%	0+0k 0+144io 0pf+0w
