----- GAMESS execution script 'rungms' -----
This job is running on host compute-3-0
under operating system Linux at Mon Nov 28 20:16:46 CST 2016
Available scratch disk space (Kbyte units) at beginning of the job is
Filesystem            1K-blocks       Used  Available Use% Mounted on
bolt.local:/export/home/sarom
                     9590469632 1552936960 7550364672  18% /home/sarom
Copying input file gvb-h3cn-xxyy.inp to your run's scratch directory...
cp gvb-h3cn-xxyy.inp .//gvb-h3cn-xxyy.F05
unset echo
/home/sarom/gamessGH/ddikick.x /home/sarom/gamessGH/gamess.00.x gvb-h3cn-xxyy -ddi 1 1 localhost -scr ./

 Distributed Data Interface kickoff program.
 Initiating 1 compute processes on 1 nodes to run the following command:
 /home/sarom/gamessGH/gamess.00.x gvb-h3cn-xxyy 

          ******************************************************
          *         GAMESS VERSION = 18 AUG 2016 (R1)          *
          *             FROM IOWA STATE UNIVERSITY             *
          * M.W.SCHMIDT, K.K.BALDRIDGE, J.A.BOATZ, S.T.ELBERT, *
          *   M.S.GORDON, J.H.JENSEN, S.KOSEKI, N.MATSUNAGA,   *
          *          K.A.NGUYEN, S.J.SU, T.L.WINDUS,           *
          *       TOGETHER WITH M.DUPUIS, J.A.MONTGOMERY       *
          *         J.COMPUT.CHEM.  14, 1347-1363(1993)        *
          **************** 64 BIT LINUX VERSION ****************

  SINCE 1993, STUDENTS AND POSTDOCS WORKING AT IOWA STATE UNIVERSITY
  AND ALSO IN THEIR VARIOUS JOBS AFTER LEAVING ISU HAVE MADE IMPORTANT
  CONTRIBUTIONS TO THE CODE:
     IVANA ADAMOVIC, CHRISTINE AIKENS, YURI ALEXEEV, POOJA ARORA,
     ANDREY ASADCHEV, ROB BELL, PRADIPTA BANDYOPADHYAY, JONATHAN BENTZ,
     BRETT BODE, KURT BRORSEN, CALEB CARLIN, GALINA CHABAN, WEI CHEN,
     CHEOL HO CHOI, PAUL DAY, ALBERT DEFUSCO, NUWAN DESILVA, TIM DUDLEY,
     DMITRI FEDOROV, GRAHAM FLETCHER, MARK FREITAG, KURT GLAESEMANN,
     DAN KEMP, GRANT MERRILL, NORIYUKI MINEZAWA, JONATHAN MULLIN,
     TAKESHI NAGATA, SEAN NEDD, HEATHER NETZLOFF, BOSILJKA NJEGIC, RYAN OLSON,
     MIKE PAK, SPENCER PRUITT, LUKE ROSKOP, JIM SHOEMAKER, LYUDMILA SLIPCHENKO,
     TONY SMITH, SAROM SOK LEANG, JIE SONG, TETSUYA TAKETSUGU, SIMON WEBB,
     PENG XU, SOOHAENG YOO, FEDERICO ZAHARIEV

  ADDITIONAL CODE HAS BEEN PROVIDED BY COLLABORATORS IN OTHER GROUPS:
     IOWA STATE UNIVERSITY:
          JOE IVANIC, AARON WEST, LAIMUTIS BYTAUTAS, KLAUS RUEDENBERG
     UNIVERSITY OF TOKYO: KIMIHIKO HIRAO, TAKAHITO NAKAJIMA,
          TAKAO TSUNEDA, MUNEAKI KAMIYA, SUSUMU YANAGISAWA,
          KIYOSHI YAGI, MAHITO CHIBA, SEIKEN TOKURA, NAOAKI KAWAKAMI
     UNIVERSITY OF AARHUS: FRANK JENSEN
     UNIVERSITY OF IOWA: VISVALDAS KAIRYS, HUI LI
     NATIONAL INST. OF STANDARDS AND TECHNOLOGY: WALT STEVENS, DAVID GARMER
     UNIVERSITY OF PISA: BENEDETTA MENNUCCI, JACOPO TOMASI
     UNIVERSITY OF MEMPHIS: HENRY KURTZ, PRAKASHAN KORAMBATH
     UNIVERSITY OF ALBERTA: TOBY ZENG, MARIUSZ KLOBUKOWSKI
     UNIVERSITY OF NEW ENGLAND: MARK SPACKMAN
     MIE UNIVERSITY: HIROAKI UMEDA
     NAT. INST. OF ADVANCED INDUSTRIAL SCIENCE AND TECHNOLOGY: KAZUO KITAURA
     MICHIGAN STATE UNIVERSITY:
          KAROL KOWALSKI, MARTA WLOCH, JEFFREY GOUR, JESSE LUTZ,
          WEI LI, PIOTR PIECUCH
     UNIVERSITY OF SILESIA: MONIKA MUSIAL, STANISLAW KUCHARSKI
     FACULTES UNIVERSITAIRES NOTRE-DAME DE LA PAIX:
          OLIVIER QUINET, BENOIT CHAMPAGNE
     UNIVERSITY OF CALIFORNIA - SANTA BARBARA: BERNARD KIRTMAN
     INSTITUTE FOR MOLECULAR SCIENCE:
          KAZUYA ISHIMURA, MICHIO KATOUDA, AND SHIGERU NAGASE
     UNIVERSITY OF NOTRE DAME: ANNA POMOGAEVA, DAN CHIPMAN
     KYUSHU UNIVERSITY:
          HARUYUKI NAKANO,
          FENG LONG GU, JACEK KORCHOWIEC, MARCIN MAKOWSKI, AND YURIKO AOKI,
          HIROTOSHI MORI AND EISAKU MIYOSHI
     PENNSYLVANIA STATE UNIVERSITY:
          TZVETELIN IORDANOV, CHET SWALINA, JONATHAN SKONE,
          SHARON HAMMES-SCHIFFER
     WASEDA UNIVERSITY:
          MASATO KOBAYASHI, TOMOKO AKAMA, TSUGUKI TOUMA,
          TAKESHI YOSHIKAWA, YASUHIRO IKABATA, JUNJI SEINO,
          YUYA NAKAJIMA, HIROMI NAKAI
     NANJING UNIVERSITY: SHUHUA LI
     UNIVERSITY OF NEBRASKA:
          PEIFENG SU, DEJUN SI, NANDUN THELLAMUREGE, YALI WANG, HUI LI
     UNIVERSITY OF ZURICH: ROBERTO PEVERATI, KIM BALDRIDGE
     N. COPERNICUS UNIVERSITY AND JACKSON STATE UNIVERSITY:
          MARIA BARYSZ
     UNIVERSITY OF COPENHAGEN: Jimmy Kromann, CASPER STEINMANN
     TOKYO INSTITUTE OF TECHNOLOGY: HIROYA NAKATA
     NAGOYA UNIVERSITY: YOSHIO NISHIMOTO, STEPHAN IRLE
     MOSCOW STATE UNIVERSITY: VLADIMIR MIRONOV

 EXECUTION OF GAMESS BEGUN Mon Nov 28 20:16:47 2016

            ECHO OF THE FIRST FEW INPUT CARDS -
 INPUT CARD>!  The xx-yy component of a 1-E state from e**2 configuration.                  
 INPUT CARD>!  Spherical harmonics are in use: 45 AOs, 43 MOs                               
 INPUT CARD>!  Note that DIIS may fail to converge this calculation                         
 INPUT CARD>!                                                                               
 INPUT CARD>!  NSERCH= 0: FINAL E=-93.9349418104, 10 iters, RMS grad=0.0043151              
 INPUT CARD>!  NSERCH= 7: FINAL E=-93.9351407919,  2 iters, RMS grad=0.0000026              
 INPUT CARD>!                                                                               
 INPUT CARD>!  This run takes 4 seconds on a 2.66 GHz Cloverton (10 Sep 2013)               
 INPUT CARD>!                                                                               
 INPUT CARD> $contrl scftyp=gvb mult=1 runtyp=optimize ispher=1 nosym=1 $end                
 INPUT CARD> $system mwords=1 $end                                                          
 INPUT CARD> $guess  guess=huckel $end                                                      
 INPUT CARD> $statpt opttol=0.00001 $end                                                    
 INPUT CARD> $basis  gbasis=n31 ngauss=6 ndfunc=1 npfunc=1 $end                             
 INPUT CARD> $scf    nco=7 nseto=0 npair=1 cicoef(1)=0.7,-0.7 $end                          
 INPUT CARD> $data                                                                          
 INPUT CARD>H3CN...3-A-2 ROHF/6-31G** starting geometry                                     
 INPUT CARD>Cnv  3                                                                          
 INPUT CARD>                                                                                
 INPUT CARD>CARBON      6.0    .0000000000    .0000000000    .0859766812                    
 INPUT CARD>NITROGEN    7.0    .0000000000    .0000000000   1.5214006190                    
 INPUT CARD>HYDROGEN    1.0   1.0204763376    .0000000000   -.2885202335                    
 INPUT CARD> $end                                                                           
    1000000 WORDS OF MEMORY AVAILABLE

     BASIS OPTIONS
     -------------
     GBASIS=N31          IGAUSS=       6      POLAR=POPN31  
     NDFUNC=       1     NFFUNC=       0     DIFFSP=       F
     NPFUNC=       1      DIFFS=       F     BASNAM=        


     RUN TITLE
     ---------
 H3CN...3-A-2 ROHF/6-31G** starting geometry                                     

 THE POINT GROUP OF THE MOLECULE IS CNV     
 THE ORDER OF THE PRINCIPAL AXIS IS     3

 ATOM      ATOMIC                      COORDINATES (BOHR)
           CHARGE         X                   Y                   Z
 CARBON      6.0     0.0000000000        0.0000000000        0.1624723688
 NITROGEN    7.0     0.0000000000        0.0000000000        2.8750302875
 HYDROGEN    1.0    -0.9642103275        1.6700612764       -0.5452241832
 HYDROGEN    1.0    -0.9642103275       -1.6700612764       -0.5452241832
 HYDROGEN    1.0     1.9284206550        0.0000000000       -0.5452241832

          INTERNUCLEAR DISTANCES (ANGS.)
          ------------------------------

                1 CARB       2 NITR       3 HYDR       4 HYDR       5 HYDR  

   1 CARB    0.0000000    1.4354239 *  1.0870234 *  1.0870234 *  1.0870234 *
   2 NITR    1.4354239 *  0.0000000    2.0777838 *  2.0777838 *  2.0777838 *
   3 HYDR    1.0870234 *  2.0777838 *  0.0000000    1.7675169 *  1.7675169 *
   4 HYDR    1.0870234 *  2.0777838 *  1.7675169 *  0.0000000    1.7675169 *
   5 HYDR    1.0870234 *  2.0777838 *  1.7675169 *  1.7675169 *  0.0000000  

  * ... LESS THAN  3.000


     ATOMIC BASIS SET
     ----------------
 THE CONTRACTED PRIMITIVE FUNCTIONS HAVE BEEN UNNORMALIZED
 THE CONTRACTED BASIS FUNCTIONS ARE NOW NORMALIZED TO UNITY

  SHELL TYPE  PRIMITIVE        EXPONENT          CONTRACTION COEFFICIENT(S)

 CARBON    

      1   S       1          3047.5248800    0.001834737132
      1   S       2           457.3695180    0.014037322813
      1   S       3           103.9486850    0.068842622264
      1   S       4            29.2101553    0.232184443216
      1   S       5             9.2866630    0.467941348435
      1   S       6             3.1639270    0.362311985337

      2   L       7             7.8682723   -0.119332419775    0.068999066591
      2   L       8             1.8812885   -0.160854151696    0.316423960957
      2   L       9             0.5442493    1.143456437840    0.744308290898

      3   L      10             0.1687145    1.000000000000    1.000000000000

      4   D      11             0.8000000    1.000000000000

 NITROGEN  

      5   S      12          4173.5114600    0.001834772160
      5   S      13           627.4579110    0.013994627002
      5   S      14           142.9020930    0.068586551812
      5   S      15            40.2343293    0.232240873040
      5   S      16            12.8202129    0.469069948082
      5   S      17             4.3904370    0.360455199063

      6   L      18            11.6263619   -0.114961181702    0.067579743878
      6   L      19             2.7162798   -0.169117478561    0.323907295893
      6   L      20             0.7722184    1.145851947027    0.740895139755

      7   L      21             0.2120315    1.000000000000    1.000000000000

      8   D      22             0.8000000    1.000000000000

 HYDROGEN  

     15   S      23            18.7311370    0.033494604338
     15   S      24             2.8253944    0.234726953484
     15   S      25             0.6401217    0.813757326146

     16   S      26             0.1612778    1.000000000000

     17   P      27             1.1000000    1.000000000000

 TOTAL NUMBER OF BASIS SET SHELLS             =   17
 NUMBER OF CARTESIAN GAUSSIAN BASIS FUNCTIONS =   45
 NOTE: THIS RUN WILL RESTRICT THE MO VARIATION SPACE TO SPHERICAL HARMONICS.
 THE NUMBER OF ORBITALS KEPT IN THE VARIATIONAL SPACE WILL BE PRINTED LATER.
 NUMBER OF ELECTRONS                          =   16
 CHARGE OF MOLECULE                           =    0
 SPIN MULTIPLICITY                            =    1
 NUMBER OF OCCUPIED ORBITALS (ALPHA)          =    8
 NUMBER OF OCCUPIED ORBITALS (BETA )          =    8
 TOTAL NUMBER OF ATOMS                        =    5
 THE NUCLEAR REPULSION ENERGY IS       30.4927005408

     $CONTRL OPTIONS
     ---------------
 SCFTYP=GVB          RUNTYP=OPTIMIZE     EXETYP=RUN     
 MPLEVL=       0     CITYP =NONE         CCTYP =NONE         VBTYP =NONE    
 DFTTYP=NONE         TDDFT =NONE    
 MULT  =       1     ICHARG=       0     NZVAR =       0     COORD =UNIQUE  
 PP    =NONE         RELWFN=NONE         LOCAL =NONE         NUMGRD=       F
 ISPHER=       1     NOSYM =       1     MAXIT =      30     UNITS =ANGS    
 PLTORB=       F     MOLPLT=       F     AIMPAC=       F     FRIEND=        
 NPRINT=       7     IREST =       0     GEOM  =INPUT   
 NORMF =       0     NORMP =       0     ITOL  =      20     ICUT  =       9
 INTTYP=BEST         GRDTYP=BEST         QMTTOL= 1.0E-06

     $SYSTEM OPTIONS
     ---------------
  REPLICATED MEMORY=     1000000 WORDS (ON EVERY NODE).
 DISTRIBUTED MEMDDI=           0 MILLION WORDS IN AGGREGATE,
 MEMDDI DISTRIBUTED OVER   1 PROCESSORS IS           0 WORDS/PROCESSOR.
 TOTAL MEMORY REQUESTED ON EACH PROCESSOR=     1000000 WORDS.
 TIMLIM=      525600.00 MINUTES, OR     365.0 DAYS.
 PARALL= F  BALTYP=  DLB     KDIAG=    0  COREFL= F
 MXSEQ2=     300 MXSEQ3=     150  mem10=         0

          ----------------
          PROPERTIES INPUT
          ----------------

     MOMENTS            FIELD           POTENTIAL          DENSITY
 IEMOM =       1   IEFLD =       0   IEPOT =       0   IEDEN =       0
 WHERE =COMASS     WHERE =NUCLEI     WHERE =NUCLEI     WHERE =NUCLEI  
 OUTPUT=BOTH       OUTPUT=BOTH       OUTPUT=BOTH       OUTPUT=BOTH    
 IEMINT=       0   IEFINT=       0                     IEDINT=       0
                                                       MORB  =       0
          EXTRAPOLATION IN EFFECT
          SOSCF IN EFFECT
 ORBITAL PRINTING OPTION: NPREO=     1    45     2     1

          *************************
          ROHF-GVB INPUT PARAMETERS
          *************************

          NORB   =    9          NCO    =    7
          NPAIR  =    1          NSETO  =    0
          PAIR ORBITALS
          PAIR    1 HAS ORBS    8    9

          ----------------------------
          ROHF-GVB COUPLING PARAMETERS
          ----------------------------

          F VECTOR (OCCUPANCIES)
    1   1.0000000000
    2   0.5000000000
    3   0.5000000000
          ALPHA COUPLING COEFFICEINTS

             1           2           3

    1    2.0000000
    2    1.0000000   0.5000000
    3    1.0000000   0.0000000   0.5000000
           BETA COUPLING COEFFICIENTS

             1           2           3

    1   -1.0000000
    2   -0.5000000   0.0000000
    3   -0.5000000  -0.5000000   0.0000000

          NATURAL ORBITAL COEFFICIENTS
          N.O.                PAIR CICOEF-S
            1        0.7071067812    -0.7071067812

     -------------------------------
     INTEGRAL TRANSFORMATION OPTIONS
     -------------------------------
     NWORD  =            0
     CUTOFF = 1.0E-09     MPTRAN =       0
     DIRTRF =       F     AOINTS =DUP     

          ----------------------
          INTEGRAL INPUT OPTIONS
          ----------------------
 NOPK  =       1 NORDER=       0 SCHWRZ=       F

     ------------------------------------------
     THE POINT GROUP IS C1 , NAXIS= 1, ORDER= 1
     ------------------------------------------

 -- VARIATIONAL SPACE WILL BE RESTRICTED TO PURE SPHERICAL HARMONICS ONLY --
 AFTER EXCLUDING CONTAMINANT COMBINATIONS FROM THE CARTESIAN GAUSSIAN BASIS
 SET, THE NUMBER OF SPHERICAL HARMONICS KEPT IN THE VARIATION SPACE IS   43

     DIMENSIONS OF THE SYMMETRY SUBSPACES ARE
 A   =   43

 ..... DONE SETTING UP THE RUN .....
 STEP CPU TIME =     0.02 TOTAL CPU TIME =        0.0 (    0.0 MIN)
 TOTAL WALL CLOCK TIME=        0.1 SECONDS, CPU UTILIZATION IS  28.57%


          -----------------------------
          STATIONARY POINT LOCATION RUN
          -----------------------------

 OBTAINING INITIAL HESSIAN, HESS=GUESS   
 CARTESIAN COORDINATE OPTIMIZATION USING BADGER'S RULE FORCE CONSTANT GUESS

          PARAMETERS CONTROLLING GEOMETRY SEARCH ARE
          METHOD =QA                  UPHESS =BFGS    
          NNEG   =         0          NFRZ   =         0
          NSTEP  =        50          IFOLOW =         1
          HESS   =GUESS               RESTAR =         F
          IHREP  =         0          HSSEND =         F
          NPRT   =         0          NPUN   =         0
          OPTTOL = 1.000E-05          RMIN   = 1.500E-03
          RMAX   = 1.000E-01          RLIM   = 7.000E-02
          DXMAX  = 3.000E-01          PURIFY =         F
          MOVIE  =         F          TRUPD  =         T
          TRMAX  = 5.000E-01          TRMIN  = 5.000E-02
          ITBMAT =         5          STPT   =         F
          STSTEP = 1.000E-02          PROJCT=          T

 BEGINNING GEOMETRY SEARCH POINT NSERCH=   0 ...

 COORDINATES OF ALL ATOMS ARE (ANGS)
   ATOM   CHARGE       X              Y              Z
 ------------------------------------------------------------
 CARBON      6.0   0.0000000000   0.0000000000   0.0859766812
 NITROGEN    7.0   0.0000000000   0.0000000000   1.5214006190
 HYDROGEN    1.0  -0.5102381688   0.8837584323  -0.2885202335
 HYDROGEN    1.0  -0.5102381688  -0.8837584323  -0.2885202335
 HYDROGEN    1.0   1.0204763376   0.0000000000  -0.2885202335

          ********************
          1 ELECTRON INTEGRALS
          ********************
 ...... END OF ONE-ELECTRON INTEGRALS ......
 STEP CPU TIME =     0.00 TOTAL CPU TIME =        0.0 (    0.0 MIN)
 TOTAL WALL CLOCK TIME=        0.1 SECONDS, CPU UTILIZATION IS  28.57%

          -------------
          GUESS OPTIONS
          -------------
          GUESS =HUCKEL            NORB  =       0          NORDER=       0
          MIX   =       F          PRTMO =       F          PUNMO =       F
          TOLZ  = 1.0E-08          TOLE  = 1.0E-05
          SYMDEN=       F          PURIFY=       F

 INITIAL GUESS ORBITALS GENERATED BY HUCKEL   ROUTINE.
 HUCKEL GUESS REQUIRES     19218 WORDS.

 STATISTICS FOR GENERATION OF SYMMETRY ORBITAL -Q- MATRIX
 NUMBER OF CARTESIAN ATOMIC ORBITALS=         45
 NUMBER OF SPHERICAL CONTAMINANTS DROPPED=     2
 NUMBER OF LINEARLY DEPENDENT MOS DROPPED=     0
 TOTAL NUMBER OF MOS IN VARIATION SPACE=      43

 SYMMETRIES FOR INITIAL GUESS ORBITALS FOLLOW.   BOTH SET(S).
     9 ORBITALS ARE OCCUPIED (    2 CORE ORBITALS).
     3=A        4=A        5=A        6=A        7=A        8=A        9=A   
    10=A       11=A       12=A       13=A       14=A       15=A       16=A   
    17=A       18=A       19=A   
 ...... END OF INITIAL ORBITAL SELECTION ......
 STEP CPU TIME =     0.01 TOTAL CPU TIME =        0.0 (    0.0 MIN)
 TOTAL WALL CLOCK TIME=        0.1 SECONDS, CPU UTILIZATION IS  42.86%

                    ----------------------
                    AO INTEGRAL TECHNOLOGY
                    ----------------------
     S,P,L SHELL ROTATED AXIS INTEGRALS, REPROGRAMMED BY
        KAZUYA ISHIMURA (IMS) AND JOSE SIERRA (SYNSTAR).
     S,P,D,L SHELL ROTATED AXIS INTEGRALS PROGRAMMED BY
        KAZUYA ISHIMURA (INSTITUTE FOR MOLECULAR SCIENCE).
     S,P,D,F,G SHELL TO TOTAL QUARTET ANGULAR MOMENTUM SUM 5,
        ERIC PROGRAM BY GRAHAM FLETCHER (ELORET AND NASA ADVANCED
        SUPERCOMPUTING DIVISION, AMES RESEARCH CENTER).
     S,P,D,F,G,L SHELL GENERAL RYS QUADRATURE PROGRAMMED BY
        MICHEL DUPUIS (PACIFIC NORTHWEST NATIONAL LABORATORY).

          --------------------
          2 ELECTRON INTEGRALS
          --------------------

 THE -PK- OPTION IS OFF, THE INTEGRALS ARE NOT IN SUPERMATRIX FORM.
 STORING   15000 INTEGRALS/RECORD ON DISK, USING 12 BYTES/INTEGRAL.
 TWO ELECTRON INTEGRAL EVALUATION REQUIRES   90549 WORDS OF MEMORY.
 II,JST,KST,LST =  1  1  1  1 NREC =         1 INTLOC =    1
 II,JST,KST,LST =  2  1  1  1 NREC =         1 INTLOC =    2
 II,JST,KST,LST =  3  1  1  1 NREC =         1 INTLOC =   34
 II,JST,KST,LST =  4  1  1  1 NREC =         1 INTLOC =  214
 II,JST,KST,LST =  5  1  1  1 NREC =         1 INTLOC = 1189
 II,JST,KST,LST =  6  1  1  1 NREC =         1 INTLOC = 1864
 II,JST,KST,LST =  7  1  1  1 NREC =         1 INTLOC = 5593
 II,JST,KST,LST =  8  1  1  1 NREC =         1 INTLOC =12127
 II,JST,KST,LST =  9  1  1  1 NREC =         2 INTLOC =13692
 II,JST,KST,LST = 10  1  1  1 NREC =         3 INTLOC =13590
 II,JST,KST,LST = 11  1  1  1 NREC =         4 INTLOC =14988
 II,JST,KST,LST = 12  1  1  1 NREC =         8 INTLOC =13786
 II,JST,KST,LST = 13  1  1  1 NREC =        10 INTLOC = 6870
 II,JST,KST,LST = 14  1  1  1 NREC =        12 INTLOC = 1944
 II,JST,KST,LST = 15  1  1  1 NREC =        17 INTLOC =14034
 II,JST,KST,LST = 16  1  1  1 NREC =        19 INTLOC =11613
 II,JST,KST,LST = 17  1  1  1 NREC =        21 INTLOC =11220
 TOTAL NUMBER OF NONZERO TWO-ELECTRON INTEGRALS =              407991
         28 INTEGRAL RECORDS WERE STORED ON DISK FILE  8.
  ...... END OF TWO-ELECTRON INTEGRALS .....
 STEP CPU TIME =     0.05 TOTAL CPU TIME =        0.1 (    0.0 MIN)
 TOTAL WALL CLOCK TIME=        0.2 SECONDS, CPU UTILIZATION IS  36.36%

          ------------------------
          ROHF-GVB SCF CALCULATION
          ------------------------
 GVB STEP WILL USE    145802 WORDS OF MEMORY.

     MAXIT=  30   NPUNCH= 2   SQCDF TOL=1.0000E-05
     NUCLEAR ENERGY=       30.4927005408
     EXTRAP=T   DAMP=F   SHIFT=F   RSTRCT=F   DIIS=F  SOSCF=T
     SOSCF WILL OPTIMIZE     321 ORBITAL ROTATIONS, SOGTOL=   0.250

 ITER EX     TOTAL ENERGY       E CHANGE        SQCDF       ORB. GRAD 
   0  0      -93.584471979   -93.584471979   0.834501564   0.298941378
          ---------------START SECOND ORDER SCF---------------
   1  1      -93.893661084    -0.309189105   0.024249556   0.060683425
   2  2      -93.928577869    -0.034916785   0.009308145   0.017259057
   3  3      -93.934533358    -0.005955489   0.000248890   0.005310734
   4  4      -93.934903983    -0.000370625   0.000028690   0.001914801
   5  5      -93.934938621    -0.000034638   0.000002606   0.000513143
   6  6      -93.934941697    -0.000003076   0.000000096   0.000081061
   7  7      -93.934941803    -0.000000106   0.000000012   0.000018632
   8  8      -93.934941810    -0.000000006   0.000000002   0.000007814
   9  9      -93.934941810    -0.000000001   0.000000000   0.000001731
  10 10      -93.934941810    -0.000000000   0.000000000   0.000000330

          -----------------
          DENSITY CONVERGED
          -----------------

 FINAL GVB ENERGY IS      -93.9349418104 AFTER  10 ITERATIONS

          ----------------------------
          SCF STATISTICS PER ITERATION
          ----------------------------
          NUMBER OF INTEGRAL PASSES       1
          FOCK FORMATION TIME         0.020
          GEMINAL OPT TIME            0.000
          MIXORB  OPT TIME            0.000
          OCBSE   OPT TIME            0.000

          ----------------
          PAIR INFORMATION
          ----------------
      ORBITAL   CI COEFFICIENTS    OCCUPATION NUMBERS   GVB      ENERGY
 PAIR 1   2     ORB 1     ORB 2      ORB 1     ORB 2    OVERLAP  LOWERING
  1   8   9    0.707100 -0.707113   0.99998   1.00002   0.00001  -0.03169

     THE MAXIMUM LAGRANGIAN ASYMMETRY IS 2.0637313E-07

          ------------
          EIGENVECTORS
          ------------

                      1          2          3          4          5
                  -15.6085   -11.2590    -1.1271    -0.8443    -0.5987
                     A          A          A          A          A   
    1  C  1  S    0.000017   0.996129  -0.141944   0.130854   0.000080
    2  C  1  S   -0.000642   0.025672   0.274611  -0.248410  -0.000216
    3  C  1  X   -0.000000   0.000004  -0.000050   0.000097   0.429522
    4  C  1  Y    0.000000  -0.000002   0.000021  -0.000040   0.077310
    5  C  1  Z   -0.000153   0.000125   0.110912   0.201606  -0.000794
    6  C  1  S    0.005670  -0.015395   0.172248  -0.304575  -0.000155
    7  C  1  X   -0.000002  -0.000002   0.000011  -0.000064   0.210764
    8  C  1  Y    0.000001   0.000001  -0.000004   0.000027   0.037935
    9  C  1  Z    0.002924   0.000151  -0.006119   0.052855  -0.000177
   10  C  1 XX    0.000310   0.000046  -0.009350  -0.010978   0.020633
   11  C  1 YY    0.000310   0.000045  -0.009320  -0.011008  -0.020540
   12  C  1 ZZ   -0.000620  -0.000091   0.018670   0.021986  -0.000092
   13  C  1 XY   -0.000000   0.000000  -0.000007   0.000007  -0.004280
   14  C  1 XZ    0.000001  -0.000000   0.000084  -0.000081  -0.012431
   15  C  1 YZ   -0.000000   0.000000  -0.000035   0.000034  -0.002237
   16  N  2  S    0.996238  -0.000140  -0.159583  -0.137381  -0.000143
   17  N  2  S    0.021731  -0.000203   0.349979   0.306360   0.000313
   18  N  2  X   -0.000003   0.000003   0.001298  -0.000925   0.086471
   19  N  2  Y    0.000001  -0.000001  -0.000542   0.000386   0.015559
   20  N  2  Z   -0.001983   0.000020  -0.134184   0.043432   0.001328
   21  N  2  S   -0.009911   0.002355   0.339423   0.399847   0.000610
   22  N  2  X    0.000009   0.000003   0.001144  -0.000859   0.026903
   23  N  2  Y   -0.000004  -0.000001  -0.000478   0.000359   0.004839
   24  N  2  Z    0.003716  -0.000642  -0.060834   0.005451   0.000829
   25  N  2 XX   -0.000056   0.000268  -0.010234   0.001210   0.001301
   26  N  2 YY   -0.000056   0.000268  -0.010230   0.001207  -0.001222
   27  N  2 ZZ    0.000113  -0.000536   0.020465  -0.002418  -0.000079
   28  N  2 XY   -0.000000  -0.000000  -0.000001   0.000000  -0.000262
   29  N  2 XZ    0.000003   0.000000  -0.000030   0.000056  -0.013756
   30  N  2 YZ   -0.000001  -0.000000   0.000013  -0.000023  -0.002476
   31  H  3  S   -0.000412  -0.000179   0.074908  -0.139165  -0.091542
   32  H  3  S   -0.000034   0.002984   0.012363  -0.056498  -0.073905
   33  H  3  X   -0.000020  -0.000186   0.003850  -0.005455   0.003716
   34  H  3  Y    0.000035   0.000321  -0.006672   0.009454   0.006355
   35  H  3  Z   -0.000098  -0.000127   0.003850  -0.001425  -0.002115
   36  H  4  S   -0.000413  -0.000181   0.074772  -0.139029  -0.174650
   37  H  4  S   -0.000034   0.002984   0.012103  -0.056240  -0.141072
   38  H  4  X   -0.000020  -0.000186   0.003847  -0.005451   0.001014
   39  H  4  Y   -0.000035  -0.000322   0.006671  -0.009450  -0.008618
   40  H  4  Z   -0.000099  -0.000127   0.003855  -0.001429  -0.004024
   41  H  5  S   -0.000413  -0.000183   0.074557  -0.138814   0.266762
   42  H  5  S   -0.000036   0.002983   0.011694  -0.055834   0.215672
   43  H  5  X    0.000041   0.000374  -0.007698   0.010902  -0.010625
   44  H  5  Y   -0.000000   0.000000   0.000001  -0.000002   0.001201
   45  H  5  Z   -0.000099  -0.000127   0.003862  -0.001436   0.006112

                      6          7          8          9         10
                   -0.5987    -0.5154    -0.1056    -0.1057     0.2502
                     A          A          A          A          A   
    1  C  1  S   -0.000052   0.022618  -0.000014   0.000027  -0.133744
    2  C  1  S    0.000140  -0.060842   0.000535  -0.001006   0.096064
    3  C  1  X   -0.077312  -0.001585  -0.052635   0.043140   0.000116
    4  C  1  Y    0.429543   0.000662  -0.043150  -0.052659  -0.000050
    5  C  1  Z    0.000513  -0.347709   0.000988  -0.001858  -0.156229
    6  C  1  S    0.000101  -0.041716   0.000788  -0.001482   2.488616
    7  C  1  X   -0.037949  -0.000592  -0.020494   0.016825  -0.000054
    8  C  1  Y    0.210835   0.000248  -0.016863  -0.020613   0.000016
    9  C  1  Z    0.000114  -0.133581   0.000230  -0.000433  -0.667101
   10  C  1 XX   -0.003727   0.012204  -0.005665   0.004711  -0.001650
   11  C  1 YY    0.003667   0.012404   0.005530  -0.004459  -0.001669
   12  C  1 ZZ    0.000060  -0.024608   0.000134  -0.000253   0.003319
   13  C  1 XY   -0.023723  -0.000048   0.005291   0.006453   0.000005
   14  C  1 XZ    0.002240   0.000221   0.025290  -0.020727  -0.000048
   15  C  1 YZ   -0.012443  -0.000092   0.020729   0.025296   0.000020
   16  N  2  S    0.000093  -0.069851   0.000306  -0.000575  -0.008961
   17  N  2  S   -0.000203   0.148120  -0.000677   0.001272   0.053709
   18  N  2  X   -0.015570   0.003220   0.499670  -0.409486  -0.000763
   19  N  2  Y    0.086479  -0.001344   0.409508   0.499682   0.000319
   20  N  2  Z   -0.000859   0.494368  -0.001003   0.001885   0.025448
   21  N  2  S   -0.000394   0.316620  -0.001206   0.002268  -0.000823
   22  N  2  X   -0.004845   0.002782   0.384580  -0.315171  -0.000834
   23  N  2  Y    0.026898  -0.001161   0.315187   0.384595   0.000349
   24  N  2  Z   -0.000536   0.306914  -0.000348   0.000654   0.074334
   25  N  2 XX   -0.000255   0.016333  -0.001229   0.001091  -0.003481
   26  N  2 YY    0.000204   0.016353   0.000955  -0.000576  -0.003486
   27  N  2 ZZ    0.000051  -0.032686   0.000274  -0.000515   0.006968
   28  N  2 XY   -0.001471  -0.000004   0.000881   0.000988   0.000001
   29  N  2 XZ    0.002476  -0.000152  -0.016690   0.013678   0.000005
   30  N  2 YZ   -0.013753   0.000064  -0.013678  -0.016691  -0.000002
   31  H  3  S    0.254678   0.061742  -0.017212  -0.096451  -0.004452
   32  H  3  S    0.205784   0.072540  -0.025360  -0.150195  -1.231898
   33  H  3  X    0.007070   0.002122  -0.002371  -0.001197  -0.001432
   34  H  3  Y   -0.007630  -0.003719  -0.000851   0.002704   0.002483
   35  H  3  Z    0.005859  -0.003405   0.000040  -0.000070  -0.003676
   36  H  4  S   -0.206954   0.060777   0.092275   0.037140  -0.004346
   37  H  4  S   -0.167314   0.071389   0.142879   0.055040  -1.231594
   38  H  4  X   -0.007928   0.002092   0.000773   0.002481  -0.001428
   39  H  4  Y   -0.004941   0.003695   0.002752  -0.000295  -0.002478
   40  H  4  Z   -0.004745  -0.003415   0.000035  -0.000076  -0.003677
   41  H  5  S   -0.048092   0.059257  -0.078176   0.065164  -0.004180
   42  H  5  S   -0.038919   0.069578  -0.119118   0.098160  -1.231083
   43  H  5  X    0.001915  -0.004190   0.002245  -0.001811   0.002850
   44  H  5  Y    0.006690   0.000014  -0.001375  -0.001770  -0.000001
   45  H  5  Z   -0.001096  -0.003430   0.000044  -0.000078  -0.003678

                     11         12         13         14         15
                    0.3148     0.3148     0.3659     0.7599     0.7599
                     A          A          A          A          A   
    1  C  1  S   -0.000013   0.000011  -0.087177   0.000040  -0.000027
    2  C  1  S    0.000036  -0.000028   0.017310  -0.000582   0.000396
    3  C  1  X   -0.337523   0.093232   0.000074  -0.690342   0.141339
    4  C  1  Y   -0.093237  -0.337486  -0.000031  -0.141323  -0.690424
    5  C  1  Z    0.000039  -0.000030   0.126197  -0.001141   0.000776
    6  C  1  S   -0.000015  -0.000002   1.808464   0.000901  -0.000614
    7  C  1  X   -1.497821   0.413767   0.000062   1.657252  -0.339267
    8  C  1  Y   -0.413767  -1.497822  -0.000026   0.339264   1.657279
    9  C  1  Z    0.000178  -0.000137   1.815909   0.001682  -0.001144
   10  C  1 XX    0.007224  -0.002003   0.012625  -0.074906   0.015343
   11  C  1 YY   -0.007223   0.002002   0.012611   0.074852  -0.015305
   12  C  1 ZZ   -0.000001   0.000001  -0.025237   0.000054  -0.000037
   13  C  1 XY   -0.002307  -0.008383   0.000003   0.017700   0.086435
   14  C  1 XZ    0.001745  -0.000481  -0.000008   0.010296  -0.002107
   15  C  1 YZ    0.000481   0.001738   0.000003   0.002108   0.010291
   16  N  2  S    0.000007  -0.000005   0.093941  -0.000024   0.000016
   17  N  2  S    0.000016  -0.000012  -0.130402   0.000140  -0.000095
   18  N  2  X    0.059551  -0.016440   0.000008  -0.216848   0.044390
   19  N  2  Y    0.016446   0.059495  -0.000003  -0.044391  -0.216838
   20  N  2  Z    0.000098  -0.000077   0.275947  -0.000358   0.000244
   21  N  2  S   -0.000182   0.000144  -1.808947  -0.001035   0.000705
   22  N  2  X    0.296536  -0.081915  -0.000473  -0.196836   0.040287
   23  N  2  Y    0.081915   0.296523   0.000197  -0.040296  -0.196801
   24  N  2  Z    0.000107  -0.000085   1.234313   0.000199  -0.000136
   25  N  2 XX    0.007907  -0.002187   0.015231  -0.014565   0.002940
   26  N  2 YY   -0.007926   0.002202   0.015232   0.014769  -0.003079
   27  N  2 ZZ    0.000020  -0.000015  -0.030463  -0.000204   0.000139
   28  N  2 XY   -0.002528  -0.009183  -0.000000   0.003467   0.016978
   29  N  2 XZ    0.006977  -0.001927  -0.000027   0.008196  -0.001679
   30  N  2 YZ    0.001927   0.006973   0.000011   0.001678   0.008203
   31  H  3  S   -0.010855   0.041851   0.058624   0.157897  -0.473563
   32  H  3  S   -0.488996   1.883367  -0.084325   0.124071  -0.372445
   33  H  3  X   -0.007926   0.000601  -0.000555   0.035155  -0.008703
   34  H  3  Y   -0.003084  -0.005406   0.000961   0.006146   0.037408
   35  H  3  Z   -0.001044   0.004032   0.007579   0.004646  -0.013983
   36  H  4  S   -0.030802  -0.030359   0.058674   0.331280   0.373337
   37  H  4  S   -1.386438  -1.365371  -0.084462   0.260428   0.293749
   38  H  4  X   -0.007113   0.003555  -0.000555   0.035754  -0.005819
   39  H  4  Y   -0.000125  -0.006223  -0.000959   0.009044   0.036809
   40  H  4  Z   -0.002963  -0.002923   0.007577   0.009769   0.011048
   41  H  5  S    0.041703  -0.011529   0.058753  -0.488890   0.100031
   42  H  5  S    1.875736  -0.518214  -0.084675  -0.384590   0.078758
   43  H  5  X   -0.004958   0.001371   0.001105   0.037936  -0.007761
   44  H  5  Y   -0.002316  -0.008381   0.000000   0.007092   0.034633
   45  H  5  Z    0.004007  -0.001109   0.007574  -0.014465   0.002970

                     16         17         18         19         20
                    0.7861     0.9530     0.9998     0.9998     1.0929
                     A          A          A          A          A   
    1  C  1  S    0.038215   0.002009  -0.000055   0.000065  -0.000157
    2  C  1  S   -0.404134  -0.206570   0.000410  -0.000483   0.000987
    3  C  1  X    0.000988  -0.000110  -0.076822   0.240526   0.749304
    4  C  1  Y   -0.000412   0.000046   0.240570   0.076819   0.151695
    5  C  1  Z   -1.023791  -0.102165  -0.000661   0.000777  -0.000547
    6  C  1  S    0.108171   1.276686  -0.002945   0.003465  -0.002783
    7  C  1  X   -0.002811   0.000730   0.269168  -0.842822  -1.222781
    8  C  1  Y    0.001173  -0.000304  -0.842873  -0.269167  -0.247549
    9  C  1  Z    1.112843   0.412551  -0.000556   0.000655  -0.000354
   10  C  1 XX   -0.014852  -0.070764  -0.003397   0.010760  -0.182346
   11  C  1 YY   -0.015058  -0.070765   0.003503  -0.010884   0.182324
   12  C  1 ZZ    0.029910   0.141529  -0.000106   0.000124   0.000022
   13  C  1 XY    0.000050   0.000000  -0.012460  -0.003986   0.042624
   14  C  1 XZ    0.000003  -0.000003  -0.001202   0.003761   0.180354
   15  C  1 YZ   -0.000001   0.000001   0.003767   0.001202   0.036513
   16  N  2  S   -0.038609   0.056983  -0.000052   0.000061   0.000050
   17  N  2  S    0.117601  -0.489309  -0.000410   0.000482  -0.001238
   18  N  2  X    0.000238   0.001062   0.287575  -0.900488   0.094012
   19  N  2  Y   -0.000099  -0.000444  -0.900489  -0.287576   0.019037
   20  N  2  Z   -0.169580  -0.867482   0.001087  -0.001278   0.000724
   21  N  2  S   -0.444008  -0.216801   0.001850  -0.002177   0.002037
   22  N  2  X    0.001496  -0.001689  -0.383802   1.201805  -0.082174
   23  N  2  Y   -0.000625   0.000706   1.201810   0.383805  -0.016638
   24  N  2  Z   -0.250894   1.380019  -0.002444   0.002874  -0.001406
   25  N  2 XX    0.076260   0.014357  -0.002940   0.009295   0.008710
   26  N  2 YY    0.076210   0.014367   0.002974  -0.009336  -0.008668
   27  N  2 ZZ   -0.152469  -0.028724  -0.000034   0.000040  -0.000042
   28  N  2 XY    0.000012  -0.000003  -0.010655  -0.003423  -0.002031
   29  N  2 XZ    0.000032   0.000024  -0.007240   0.022672  -0.111896
   30  N  2 YZ   -0.000013  -0.000010   0.022668   0.007240  -0.022653
   31  H  3  S    0.078579  -0.128003  -0.005736   0.001680   0.239078
   32  H  3  S    0.067083  -0.054077   0.355021  -0.077946  -0.507674
   33  H  3  X    0.008795   0.007464   0.005338  -0.017227   0.028350
   34  H  3  Y   -0.015310  -0.012916  -0.016932  -0.005507   0.055753
   35  H  3  Z   -0.012433  -0.029099   0.054259  -0.011858  -0.019553
   36  H  4  S    0.079028  -0.127949   0.003187   0.004528   0.498616
   37  H  4  S    0.067557  -0.054191  -0.243393  -0.269043  -1.057122
   38  H  4  X    0.008793   0.007465   0.005681  -0.017125   0.000351
   39  H  4  Y    0.015356   0.012909  -0.016917  -0.005296  -0.082321
   40  H  4  Z   -0.012394  -0.029142  -0.037300  -0.041101  -0.040716
   41  H  5  S    0.079736  -0.127863   0.001191  -0.004609  -0.741387
   42  H  5  S    0.068304  -0.054371  -0.109682   0.344698   1.568002
   43  H  5  X   -0.017757  -0.014903   0.005297  -0.016729  -0.105697
   44  H  5  Y    0.000024  -0.000004  -0.017247  -0.005512   0.010980
   45  H  5  Z   -0.012333  -0.029209  -0.016844   0.052825   0.060399

                     21         22         23         24         25
                    1.0929     1.1354     1.1999     1.5900     1.5908
                     A          A          A          A          A   
    1  C  1  S    0.000107  -0.087220  -0.026226  -0.099684  -0.003128
    2  C  1  S   -0.000674   0.311874  -1.833968  -1.462394  -0.046074
    3  C  1  X   -0.151679  -0.001232   0.000104   0.005794  -0.145158
    4  C  1  Y    0.749225   0.000521  -0.000044  -0.002396  -0.045046
    5  C  1  Z    0.000373  -0.228428   0.288466   0.025085   0.000795
    6  C  1  S    0.001898  -0.902687   3.742496   5.358697   0.168674
    7  C  1  X    0.247536   0.001648  -0.000356  -0.013160   0.334342
    8  C  1  Y   -1.222713  -0.000700   0.000150   0.005444   0.103765
    9  C  1  Z    0.000240  -0.264008  -1.011899   1.341425   0.042181
   10  C  1 XX    0.036934  -0.004628   0.072639  -0.110653   0.286264
   11  C  1 YY   -0.036919  -0.005544   0.072748  -0.087761  -0.292507
   12  C  1 ZZ   -0.000015   0.010172  -0.145387   0.198414   0.006244
   13  C  1 XY    0.210622   0.000223  -0.000027  -0.005468  -0.103707
   14  C  1 XZ   -0.036514  -0.000462   0.000073  -0.019515   0.492665
   15  C  1 YZ    0.180366   0.000194  -0.000031   0.008074   0.152903
   16  N  2  S   -0.000034   0.030576   0.021325   0.011294   0.000353
   17  N  2  S    0.000844  -0.697839  -0.723474   1.377280   0.043344
   18  N  2  X   -0.019031  -0.002678   0.000479   0.000215  -0.009436
   19  N  2  Y    0.094024   0.001119  -0.000200  -0.000089  -0.002930
   20  N  2  Z   -0.000494   0.373493   0.203859  -0.071675  -0.002306
   21  N  2  S   -0.001388   1.045458   0.776332  -3.811812  -0.119921
   22  N  2  X    0.016641   0.001273   0.000425   0.007237  -0.192468
   23  N  2  Y   -0.082210  -0.000532  -0.000177  -0.002993  -0.059724
   24  N  2  Z    0.000958  -0.672674  -0.386314   1.735987   0.054613
   25  N  2 XX   -0.001766   0.012099   0.051396  -0.055437   0.068436
   26  N  2 YY    0.001738   0.012104   0.051388  -0.049901  -0.071737
   27  N  2 ZZ    0.000029  -0.024203  -0.102784   0.105338   0.003301
   28  N  2 XY   -0.009991  -0.000001   0.000002  -0.001320  -0.025102
   29  N  2 XZ    0.022655   0.000305  -0.000000   0.015061  -0.381388
   30  N  2 YZ   -0.111906  -0.000128   0.000000  -0.006231  -0.118367
   31  H  3  S   -0.715071  -0.624250   0.046221  -0.452368  -0.025384
   32  H  3  S    1.514860   0.403074  -1.170186  -0.523324   0.037902
   33  H  3  X    0.066229   0.039511  -0.033598   0.005543  -0.160462
   34  H  3  Y   -0.079525  -0.068644   0.058210   0.000510  -0.117915
   35  H  3  Z    0.058334   0.019207  -0.000821  -0.010217  -0.046437
   36  H  4  S    0.566910  -0.622961   0.046050  -0.453696  -0.051190
   37  H  4  S   -1.199102   0.401039  -1.170002  -0.516656   0.163777
   38  H  4  X   -0.072116   0.039374  -0.033581   0.009622  -0.083145
   39  H  4  Y   -0.051700   0.068541  -0.058192   0.000207   0.131572
   40  H  4  Z   -0.046177   0.019179  -0.000809  -0.015847  -0.153174
   41  H  5  S    0.150681  -0.620955   0.045785  -0.455816   0.033745
   42  H  5  S   -0.317945   0.397887  -1.169720  -0.506029  -0.250417
   43  H  5  X    0.021476  -0.078801   0.067151  -0.009234   0.093766
   44  H  5  Y    0.054222   0.000067  -0.000005  -0.003174  -0.060172
   45  H  5  Z   -0.012245   0.019136  -0.000792  -0.024822   0.198055

                     26         27         28         29         30
                    1.5908     2.0129     2.0129     2.2258     2.2259
                     A          A          A          A          A   
    1  C  1  S    0.002596   0.000000   0.000001  -0.000004   0.000003
    2  C  1  S    0.038242   0.000011   0.000017   0.000091  -0.000063
    3  C  1  X    0.044926  -0.004052  -0.020366   0.033494  -0.006859
    4  C  1  Y   -0.145162   0.020287  -0.004068   0.006852   0.033530
    5  C  1  Z   -0.000660   0.000004   0.000006   0.000112  -0.000077
    6  C  1  S   -0.140004  -0.000029  -0.000048   0.000100  -0.000067
    7  C  1  X   -0.103511   0.053787   0.269210   0.349593  -0.071505
    8  C  1  Y    0.334493  -0.269306   0.053768   0.071513   0.349551
    9  C  1  Z   -0.035011  -0.000009  -0.000015  -0.000308   0.000212
   10  C  1 XX   -0.086999   0.027772   0.138991   0.189525  -0.038850
   11  C  1 YY    0.092182  -0.027763  -0.138977  -0.189157   0.038598
   12  C  1 ZZ   -0.005182  -0.000009  -0.000013  -0.000368   0.000253
   13  C  1 XY   -0.334303   0.160535  -0.032053  -0.044723  -0.218584
   14  C  1 XZ   -0.152522  -0.022707  -0.113826   0.064427  -0.013197
   15  C  1 YZ    0.492881   0.113691  -0.022734   0.013180   0.064518
   16  N  2  S   -0.000293  -0.000001  -0.000001  -0.000017   0.000012
   17  N  2  S   -0.035977   0.000013   0.000017   0.000313  -0.000214
   18  N  2  X    0.002934   0.007632   0.038466   0.125300  -0.025638
   19  N  2  Y   -0.009486  -0.038214   0.007683   0.025631   0.125333
   20  N  2  Z    0.001915   0.000004   0.000007  -0.000184   0.000127
   21  N  2  S    0.099538  -0.000002   0.000001  -0.000145   0.000097
   22  N  2  X    0.059591  -0.017664  -0.088315  -0.295614   0.060468
   23  N  2  Y   -0.192538   0.088442  -0.017639  -0.060471  -0.295600
   24  N  2  Z   -0.045330  -0.000001  -0.000005   0.000205  -0.000140
   25  N  2 XX   -0.020305   0.161811   0.810181  -0.171996   0.035171
   26  N  2 YY    0.023044  -0.161809  -0.810178   0.172199  -0.035310
   27  N  2 ZZ   -0.002740  -0.000003  -0.000003  -0.000203   0.000139
   28  N  2 XY   -0.080830   0.935495  -0.186846   0.040652   0.198931
   29  N  2 XZ    0.118075   0.030388   0.151999   0.724196  -0.148143
   30  N  2 YZ   -0.381562  -0.152152   0.030358   0.148143   0.724199
   31  H  3  S    0.060852   0.153109   0.051827   0.074804  -0.224621
   32  H  3  S   -0.225613   0.108392   0.036707   0.002796  -0.008346
   33  H  3  X   -0.086965  -0.025330   0.032573   0.004138  -0.048343
   34  H  3  Y    0.060665   0.015018   0.028861  -0.032068   0.075404
   35  H  3  Z    0.203170  -0.044200  -0.014918  -0.152348   0.457266
   36  H  4  S   -0.022293  -0.121446   0.106645   0.157031   0.177317
   37  H  4  S    0.180094  -0.085967   0.075524   0.005857   0.006574
   38  H  4  X    0.162311   0.035899   0.020334   0.022783   0.042848
   39  H  4  Y   -0.016719   0.002793  -0.032436   0.059110   0.056740
   40  H  4  Z   -0.140843   0.035071  -0.030707  -0.319722  -0.360864
   41  H  5  S   -0.003010  -0.031657  -0.158462  -0.232199   0.047554
   42  H  5  S    0.085972  -0.022405  -0.112201  -0.008631   0.001757
   43  H  5  X   -0.028936  -0.005311  -0.026643   0.092400  -0.018895
   44  H  5  Y   -0.193955  -0.044132   0.008820  -0.002633  -0.012912
   45  H  5  Z   -0.061036   0.009147   0.045650   0.472555  -0.096735

                     31         32         33         34         35
                    2.2847     2.3207     2.3771     2.3772     2.8375
                     A          A          A          A          A   
    1  C  1  S    0.005434  -0.000000   0.000006  -0.000004   0.000968
    2  C  1  S   -0.128074   0.000000  -0.000043   0.000030  -0.002518
    3  C  1  X    0.000056   0.000049  -0.133327   0.027015  -0.039146
    4  C  1  Y   -0.000024   0.000117  -0.027033  -0.133238   0.166000
    5  C  1  Z   -0.217716   0.000000   0.000005  -0.000003  -0.009009
    6  C  1  S   -0.239076   0.000000  -0.000058   0.000040  -0.027119
    7  C  1  X    0.000184  -0.000291   0.672763  -0.136414  -0.177421
    8  C  1  Y   -0.000078  -0.000687   0.136408   0.672788   0.752384
    9  C  1  Z    0.465581  -0.000000   0.000061  -0.000042  -0.020547
   10  C  1 XX   -0.340626  -0.000137   0.437482  -0.088687   0.048274
   11  C  1 YY   -0.340838   0.000137  -0.437517   0.088710  -0.045678
   12  C  1 ZZ    0.681464  -0.000000   0.000035  -0.000024  -0.002596
   13  C  1 XY    0.000052   0.000373  -0.102430  -0.505135   0.230063
   14  C  1 XZ    0.000063   0.000107  -0.292182   0.059255  -0.117143
   15  C  1 YZ   -0.000027   0.000253  -0.059242  -0.292246   0.496745
   16  N  2  S    0.025790  -0.000000   0.000001  -0.000001  -0.000743
   17  N  2  S   -0.489256   0.000000  -0.000016   0.000011  -0.009021
   18  N  2  X    0.000005  -0.000087   0.041771  -0.008477   0.001168
   19  N  2  Y   -0.000003  -0.000207   0.008469   0.041808  -0.004965
   20  N  2  Z    0.429825  -0.000000   0.000025  -0.000017  -0.001032
   21  N  2  S    0.243878  -0.000000  -0.000009   0.000005   0.035930
   22  N  2  X   -0.000129   0.000039  -0.182639   0.037031   0.065349
   23  N  2  Y    0.000055   0.000090  -0.037032  -0.182634  -0.277120
   24  N  2  Z   -0.393805   0.000000  -0.000029   0.000020  -0.019767
   25  N  2 XX   -0.202406   0.000046  -0.140475   0.028477  -0.026183
   26  N  2 YY   -0.202242  -0.000046   0.140449  -0.028459   0.012625
   27  N  2 ZZ    0.404648  -0.000000   0.000026  -0.000018   0.013558
   28  N  2 XY   -0.000040  -0.000125   0.032886   0.162124  -0.095015
   29  N  2 XZ    0.000457  -0.000007  -0.028800   0.005831  -0.132207
   30  N  2 YZ   -0.000193  -0.000017  -0.005839  -0.028758   0.560627
   31  H  3  S    0.226550   0.000338   0.174492  -0.520292   0.040866
   32  H  3  S   -0.012663   0.000054  -0.001816   0.005427  -0.511684
   33  H  3  X   -0.016435  -0.503753  -0.332843   0.107936  -0.154559
   34  H  3  Y    0.028483  -0.290576  -0.039128  -0.394114  -0.042526
   35  H  3  Z   -0.226762   0.000114   0.052884  -0.157786  -0.425249
   36  H  4  S    0.226443  -0.000557   0.363344   0.411192  -0.029530
   37  H  4  S   -0.012668  -0.000089  -0.003798  -0.004309   0.388847
   38  H  4  X   -0.016465   0.504054  -0.348247   0.030156   0.333233
   39  H  4  Y   -0.028546  -0.290577  -0.117689  -0.378220  -0.161284
   40  H  4  Z   -0.226524  -0.000188   0.110158   0.124742   0.337262
   41  H  5  S    0.226278   0.000218  -0.537711   0.109013  -0.008704
   42  H  5  S   -0.012673   0.000035   0.005661  -0.001150   0.122486
   43  H  5  X    0.033061   0.000149  -0.408670   0.082872  -0.007006
   44  H  5  Y   -0.000005   0.582215  -0.064141  -0.317454  -0.524204
   45  H  5  Z   -0.226156   0.000074  -0.163107   0.033089   0.111728

                     36         37         38         39         40
                    2.8375     2.8393     3.0640     3.1806     3.1806
                     A          A          A          A          A   
    1  C  1  S   -0.001334   0.058975  -0.065931   0.000001  -0.000002
    2  C  1  S    0.003470  -0.152341   0.326979  -0.000009   0.000012
    3  C  1  X    0.166004   0.004392   0.000037   0.000528  -0.002664
    4  C  1  Y    0.039209  -0.001836  -0.000015  -0.002630  -0.000536
    5  C  1  Z    0.012416  -0.552493   0.317953  -0.000004   0.000006
    6  C  1  S    0.037373  -1.658057   1.327577  -0.000018   0.000024
    7  C  1  X    0.752255   0.019852   0.000055   0.041203  -0.205178
    8  C  1  Y    0.177681  -0.008298  -0.000024  -0.205050  -0.041230
    9  C  1  Z    0.028317  -1.257340   0.186138   0.000051  -0.000075
   10  C  1 XX   -0.200803   0.074575  -0.432536  -0.107842   0.536895
   11  C  1 YY    0.197224   0.085203  -0.432433   0.107939  -0.537037
   12  C  1 ZZ    0.003579  -0.159778   0.864969  -0.000097   0.000142
   13  C  1 XY    0.054287  -0.002569  -0.000026  -0.619980  -0.124592
   14  C  1 XZ    0.496756   0.012994  -0.000164  -0.127707   0.635434
   15  C  1 YZ    0.117328  -0.005430   0.000070   0.635537   0.127686
   16  N  2  S    0.001024  -0.045521   0.047558  -0.000002   0.000003
   17  N  2  S    0.012431  -0.550996   0.193677   0.000014  -0.000020
   18  N  2  X   -0.004947  -0.000270   0.000050   0.010836  -0.053936
   19  N  2  Y   -0.001171   0.000113  -0.000021  -0.053928  -0.010838
   20  N  2  Z    0.001422  -0.061723   0.190940  -0.000028   0.000041
   21  N  2  S   -0.049516   2.197409  -1.097306  -0.000015   0.000024
   22  N  2  X   -0.277092  -0.007338   0.000012   0.000092  -0.000408
   23  N  2  Y   -0.065448   0.003067  -0.000005  -0.000457  -0.000082
   24  N  2  Z    0.027241  -1.209675   0.757704  -0.000007   0.000008
   25  N  2 XX    0.091616  -0.413057   0.409261   0.013828  -0.068870
   26  N  2 YY   -0.072931  -0.417414   0.409243  -0.013858   0.068913
   27  N  2 ZZ   -0.018685   0.830470  -0.818504   0.000030  -0.000043
   28  N  2 XY   -0.022439   0.001052   0.000004   0.079548   0.015985
   29  N  2 XZ    0.560618   0.014718  -0.000066  -0.054534   0.271279
   30  N  2 YZ    0.132413  -0.006151   0.000028   0.271385   0.054511
   31  H  3  S   -0.013187   0.051786  -0.032045  -0.016130   0.005447
   32  H  3  S    0.153735   0.004251  -0.200863   0.135314  -0.045675
   33  H  3  X   -0.439413  -0.074402  -0.146502   0.254333   0.512341
   34  H  3  Y   -0.270409   0.110610   0.253599  -0.022250   0.352843
   35  H  3  Z    0.119152   0.493968   0.306600  -0.399429   0.134769
   36  H  4  S   -0.029782   0.052575  -0.032068   0.012772   0.011258
   37  H  4  S    0.366390  -0.005671  -0.200896  -0.107160  -0.094425
   38  H  4  X   -0.324203  -0.079808  -0.146564  -0.432441   0.374301
   39  H  4  Y    0.222261  -0.108353  -0.253607   0.115781  -0.334010
   40  H  4  Z    0.299241   0.485577   0.306624   0.316252   0.278545
   41  H  5  S    0.039343   0.053811  -0.032105   0.003351  -0.016695
   42  H  5  S   -0.519640  -0.021264  -0.200947  -0.028118   0.140049
   43  H  5  X    0.035893   0.134917   0.292970   0.030419  -0.151417
   44  H  5  Y   -0.123745   0.005811   0.000050   0.641450   0.128907
   45  H  5  Z   -0.451111   0.472386   0.306661   0.082956  -0.412992

                     41         42         43
                    3.5439     3.7807     3.7808
                     A          A          A   
    1  C  1  S    0.090762   0.000024   0.000017
    2  C  1  S   -0.713546  -0.000206  -0.000141
    3  C  1  X   -0.000256   0.921534   0.187642
    4  C  1  Y    0.000109   0.187638  -0.921558
    5  C  1  Z    0.579296   0.000144   0.000099
    6  C  1  S   -0.669101  -0.000192  -0.000132
    7  C  1  X   -0.000161   0.568596   0.115772
    8  C  1  Y    0.000068   0.115774  -0.568583
    9  C  1  Z    0.360176   0.000080   0.000055
   10  C  1 XX   -0.357752   0.811485   0.165194
   11  C  1 YY   -0.357175  -0.811630  -0.165293
   12  C  1 ZZ    0.714927   0.000144   0.000099
   13  C  1 XY   -0.000141  -0.190808   0.937099
   14  C  1 XZ    0.000217  -0.708748  -0.144303
   15  C  1 YZ   -0.000092  -0.144311   0.708708
   16  N  2  S    0.020723   0.000004   0.000002
   17  N  2  S   -0.019936  -0.000012  -0.000008
   18  N  2  X    0.000043   0.004914   0.001001
   19  N  2  Y   -0.000018   0.001001  -0.004918
   20  N  2  Z    0.156643   0.000029   0.000020
   21  N  2  S   -0.328054  -0.000045  -0.000031
   22  N  2  X    0.000039  -0.055966  -0.011396
   23  N  2  Y   -0.000016  -0.011395   0.055967
   24  N  2  Z    0.183601   0.000020   0.000014
   25  N  2 XX    0.120364  -0.049572  -0.010084
   26  N  2 YY    0.120320   0.049611   0.010111
   27  N  2 ZZ   -0.240685  -0.000040  -0.000027
   28  N  2 XY    0.000011   0.011660  -0.057264
   29  N  2 XZ    0.000023  -0.057041  -0.011609
   30  N  2 YZ   -0.000010  -0.011614   0.057015
   31  H  3  S    0.385680   0.261173   0.780731
   32  H  3  S    0.330867   0.163674   0.489224
   33  H  3  X    0.351165   0.158090   0.518035
   34  H  3  Y   -0.608277  -0.305444  -0.886693
   35  H  3  Z    0.291839   0.122588   0.366433
   36  H  4  S    0.385854   0.545637  -0.616349
   37  H  4  S    0.330963   0.341927  -0.386199
   38  H  4  X    0.351259   0.348047  -0.414883
   39  H  4  Y    0.608467   0.627804  -0.696512
   40  H  4  Z    0.291921   0.256093  -0.289265
   41  H  5  S    0.386123  -0.806492  -0.164163
   42  H  5  S    0.331111  -0.505355  -0.102856
   43  H  5  X   -0.702903   1.060717   0.215887
   44  H  5  Y    0.000013  -0.003326   0.016327
   45  H  5  Z    0.292048  -0.378492  -0.077038

          -----------
          GI ORBITALS
          -----------


                    PAIR   1

                      1          2

    1  C  1  S    0.000009   0.000029
    2  C  1  S   -0.000333  -0.001090
    3  C  1  X   -0.006713   0.067723
    4  C  1  Y   -0.067747  -0.006724
    5  C  1  Z   -0.000615  -0.002013
    6  C  1  S   -0.000491  -0.001606
    7  C  1  X   -0.002595   0.026388
    8  C  1  Y   -0.026500  -0.002651
    9  C  1  Z   -0.000143  -0.000469
   10  C  1 XX   -0.000674   0.007337
   11  C  1 YY    0.000758  -0.007063
   12  C  1 ZZ   -0.000084  -0.000274
   13  C  1 XY    0.008305   0.000822
   14  C  1 XZ    0.003227  -0.032539
   15  C  1 YZ    0.032545   0.003229
   16  N  2  S   -0.000190  -0.000622
   17  N  2  S    0.000421   0.001378
   18  N  2  X    0.063767  -0.642870
   19  N  2  Y    0.642895   0.063766
   20  N  2  Z    0.000624   0.002042
   21  N  2  S    0.000751   0.002457
   22  N  2  X    0.049077  -0.494798
   23  N  2  Y    0.494821   0.049081
   24  N  2  Z    0.000216   0.000708
   25  N  2 XX   -0.000098   0.001641
   26  N  2 YY    0.000268  -0.001083
   27  N  2 ZZ   -0.000170  -0.000557
   28  N  2 XY    0.001322   0.000076
   29  N  2 XZ   -0.002130   0.021474
   30  N  2 YZ   -0.021474  -0.002130
   31  H  3  S   -0.080372  -0.056030
   32  H  3  S   -0.124137  -0.088273
   33  H  3  X   -0.002523   0.000830
   34  H  3  Y    0.001310   0.002514
   35  H  3  Z   -0.000021  -0.000078
   36  H  4  S    0.091510  -0.038986
   37  H  4  S    0.139950  -0.062110
   38  H  4  X    0.002301   0.001207
   39  H  4  Y    0.001737  -0.002155
   40  H  4  Z   -0.000029  -0.000079
   41  H  5  S   -0.009200   0.101357
   42  H  5  S   -0.014818   0.153639
   43  H  5  X    0.000307  -0.002868
   44  H  5  Y   -0.002224  -0.000279
   45  H  5  Z   -0.000024  -0.000086

 ... END OF ROHF-GVB SCF CALCULATION ...
 STEP CPU TIME =     0.23 TOTAL CPU TIME =        0.3 (    0.0 MIN)
 TOTAL WALL CLOCK TIME=        1.1 SECONDS, CPU UTILIZATION IS  26.96%

     ----------------------------------------------------------------
     PROPERTY VALUES FOR THE GVB   SELF-CONSISTENT FIELD WAVEFUNCTION
     ----------------------------------------------------------------

          -----------------
          ENERGY COMPONENTS
          -----------------

         WAVEFUNCTION NORMALIZATION =       1.0000000000

                ONE ELECTRON ENERGY =    -186.9064171751
                TWO ELECTRON ENERGY =      62.4787748240
           NUCLEAR REPULSION ENERGY =      30.4927005408
                                      ------------------
                       TOTAL ENERGY =     -93.9349418104

 ELECTRON-ELECTRON POTENTIAL ENERGY =      62.4787748240
  NUCLEUS-ELECTRON POTENTIAL ENERGY =    -280.7821490792
   NUCLEUS-NUCLEUS POTENTIAL ENERGY =      30.4927005408
                                      ------------------
             TOTAL POTENTIAL ENERGY =    -187.8106737144
               TOTAL KINETIC ENERGY =      93.8757319040
                 VIRIAL RATIO (V/T) =       2.0006307264

          ---------------------------------------
          MULLIKEN AND LOWDIN POPULATION ANALYSES
          ---------------------------------------

     ATOMIC MULLIKEN POPULATION IN EACH MOLECULAR ORBITAL

                      1          2          3          4          5

                  2.000000   2.000000   2.000000   2.000000   2.000000

    1             0.001070   1.998017   0.703634   0.831103   1.083392
    2             1.998933   0.000366   1.147314   0.672341   0.053970
    3            -0.000001   0.000540   0.050090   0.166022   0.067136
    4            -0.000001   0.000539   0.049750   0.165600   0.239420
    5            -0.000001   0.000539   0.049213   0.164934   0.556082

                      6          7          8          9

                  2.000000   2.000000   0.999982   1.000018

    1             1.083565   0.483316   0.009418   0.009417
    2             0.053970   1.401231   0.951082   0.951107
    3             0.507085   0.039708   0.000833   0.024530
    4             0.335489   0.038673   0.022474   0.003697
    5             0.019891   0.037071   0.016176   0.011267

               ----- POPULATIONS IN EACH AO -----
                             MULLIKEN      LOWDIN
              1  C  1  S      1.99742     1.98060
              2  C  1  S      0.65028     0.34317
              3  C  1  X      0.70415     0.60956
              4  C  1  Y      0.70420     0.61051
              5  C  1  Z      0.63961     0.57297
              6  C  1  S      0.56914     0.32733
              7  C  1  X      0.37085     0.48084
              8  C  1  Y      0.37096     0.48142
              9  C  1  Z      0.14179     0.32931
             10  C  1 XX      0.01889     0.14637
             11  C  1 YY      0.00784     0.14648
             12  C  1 ZZ      0.00782     0.16150
             13  C  1 XY      0.00998     0.01243
             14  C  1 XZ      0.00999     0.02030
             15  C  1 YZ      0.00000     0.02036
             16  N  2  S      1.99832     1.98182
             17  N  2  S      0.88339     0.61861
             18  N  2  X      0.60546     0.58931
             19  N  2  Y      0.60547     0.58933
             20  N  2  Z      0.83637     0.78397
             21  N  2  S      1.03881     0.53983
             22  N  2  X      0.39596     0.41404
             23  N  2  Y      0.39595     0.41403
             24  N  2  Z      0.44911     0.54996
             25  N  2 XX      0.01415     0.19754
             26  N  2 YY      0.00004     0.19755
             27  N  2 ZZ      0.00003     0.21408
             28  N  2 XY      0.00363     0.00005
             29  N  2 XZ      0.00363     0.00710
             30  N  2 YZ      0.00000     0.00710
             31  H  3  S      0.52836     0.49230
             32  H  3  S      0.31478     0.35862
             33  H  3  X      0.00358     0.00963
             34  H  3  Y      0.00689     0.01587
             35  H  3  Z      0.00233     0.00722
             36  H  4  S      0.52840     0.49230
             37  H  4  S      0.31445     0.35847
             38  H  4  X      0.00357     0.00963
             39  H  4  Y      0.00688     0.01588
             40  H  4  Z      0.00234     0.00722
             41  H  5  S      0.52847     0.49378
             42  H  5  S      0.31392     0.35848
             43  H  5  X      0.00852     0.01915
             44  H  5  Y      0.00192     0.00667
             45  H  5  Z      0.00234     0.00731

          ----- MULLIKEN ATOMIC OVERLAP POPULATIONS -----
          (OFF-DIAGONAL ELEMENTS NEED TO BE MULTIPLIED BY 2)

             1           2           3           4           5

    1    4.8096779
    2    0.2137329   7.1333181
    3    0.3938876  -0.0389893   0.5609781
    4    0.3932882  -0.0389238  -0.0299587   0.5612166
    5    0.3923441  -0.0388248  -0.0299738  -0.0299805   0.5616057

          TOTAL MULLIKEN AND LOWDIN ATOMIC POPULATIONS
       ATOM         MULL.POP.    CHARGE          LOW.POP.     CHARGE
    1 CARBON        6.202931   -0.202931         6.243145   -0.243145
    2 NITROGEN      7.230313   -0.230313         7.104329   -0.104329
    3 HYDROGEN      0.855944    0.144056         0.883641    0.116359
    4 HYDROGEN      0.855642    0.144358         0.883493    0.116507
    5 HYDROGEN      0.855171    0.144829         0.885392    0.114608

          MULLIKEN SPHERICAL HARMONIC POPULATIONS
       ATOM           S       P       D      F      G      H      I    TOTAL
    1 CARBON        3.22    2.93    0.05   0.00   0.00   0.00   0.00    6.20
    2 NITROGEN      3.92    3.29    0.02   0.00   0.00   0.00   0.00    7.23
    3 HYDROGEN      0.84    0.01    0.00   0.00   0.00   0.00   0.00    0.86
    4 HYDROGEN      0.84    0.01    0.00   0.00   0.00   0.00   0.00    0.86
    5 HYDROGEN      0.84    0.01    0.00   0.00   0.00   0.00   0.00    0.86

          ---------------------
          ELECTROSTATIC MOMENTS
          ---------------------

 POINT   1           X           Y           Z (BOHR)    CHARGE
                -0.000000    0.000000    1.397357       -0.00 (A.U.)
         DX          DY          DZ         /D/  (DEBYE)
    -0.005942    0.002469   -2.135328    2.135337
 ...... END OF PROPERTY EVALUATION ......
 STEP CPU TIME =     0.00 TOTAL CPU TIME =        0.3 (    0.0 MIN)
 TOTAL WALL CLOCK TIME=        1.2 SECONDS, CPU UTILIZATION IS  26.72%

 BEGINNING ONE ELECTRON GRADIENT...
 ..... END OF 1-ELECTRON GRADIENT ......
 STEP CPU TIME =     0.01 TOTAL CPU TIME =        0.3 (    0.0 MIN)
 TOTAL WALL CLOCK TIME=        1.2 SECONDS, CPU UTILIZATION IS  27.59%

          ----------------------
          GRADIENT OF THE ENERGY
          ----------------------

 THE MINIMUM MEMORY REQUIRED FOR THIS RUN IS      82190 WORDS.
 USING     996740 WORDS FOR 2E- DERIVATIVE INTEGRAL CONTRIBUTIONS.
 THE COARSE/FINE SCHWARZ SCREENINGS SKIPPED            0/           0 BLOCKS.
 THE NUMBER OF GRADIENT INTEGRAL BLOCKS COMPUTED WAS     11608
 ...... END OF 2-ELECTRON GRADIENT ......
 STEP CPU TIME =     0.15 TOTAL CPU TIME =        0.5 (    0.0 MIN)
 TOTAL WALL CLOCK TIME=        1.3 SECONDS, CPU UTILIZATION IS  35.61%

          NSERCH=  0     ENERGY=     -93.9349418

                                 -----------------------
                                 GRADIENT (HARTREE/BOHR)
                                 -----------------------
        ATOM     ZNUC       DE/DX         DE/DY         DE/DZ
 --------------------------------------------------------------
    1  CARBON       6.0     0.0007566    -0.0003168    -0.0126701
    2  NITROGEN     7.0    -0.0002141     0.0000900     0.0106199
    3  HYDROGEN     1.0     0.0003939    -0.0006534     0.0007425
    4  HYDROGEN     1.0     0.0005401     0.0008891     0.0006924
    5  HYDROGEN     1.0    -0.0014764    -0.0000088     0.0006153

          MAXIMUM GRADIENT = 0.0126701    RMS GRADIENT = 0.0043151

 NSERCH:   0  E=      -93.9349418104  GRAD. MAX=  0.0126701  R.M.S.=  0.0043151

          FORCE CONSTANT MATRIX NOT UPDATED --- TAKING FIRST STEP
          MIN SEARCH, CORRECT HESSIAN, TRYING PURE NR STEP
               NR STEP HAS LENGTH         =   0.031570
          RADIUS OF STEP TAKEN=   0.03157  CURRENT TRUST RADIUS=   0.30000

 BEGINNING GEOMETRY SEARCH POINT NSERCH=   1 ...

 COORDINATES OF ALL ATOMS ARE (ANGS)
   ATOM   CHARGE       X              Y              Z
 ------------------------------------------------------------
 CARBON      6.0  -0.0018301774   0.0007697097   0.0992272920
 NITROGEN    7.0   0.0025298365  -0.0010623639   1.5199065835
 HYDROGEN    1.0  -0.5088690199   0.8808078793  -0.2946356203
 HYDROGEN    1.0  -0.5090140693  -0.8806965208  -0.2927860869
 HYDROGEN    1.0   1.0171834302   0.0001812957  -0.2898955686

          INTERNUCLEAR DISTANCES (ANGS.)
          ------------------------------

                1 CARB       2 NITR       3 HYDR       4 HYDR       5 HYDR  

   1 CARB    0.0000000    1.4206872 *  1.0893501 *  1.0899049 *  1.0907821 *
   2 NITR    1.4206872 *  0.0000000    2.0812946 *  2.0787708 *  2.0748271 *
   3 HYDR    1.0893501 *  2.0812946 *  0.0000000    1.7615054 *  1.7619199 *
   4 HYDR    1.0899049 *  2.0787708 *  1.7615054 *  0.0000000    1.7621671 *
   5 HYDR    1.0907821 *  2.0748271 *  1.7619199 *  1.7621671 *  0.0000000  

  * ... LESS THAN  3.000

 ...... END OF ONE-ELECTRON INTEGRALS ......
 STEP CPU TIME =     0.01 TOTAL CPU TIME =        0.5 (    0.0 MIN)
 TOTAL WALL CLOCK TIME=        1.3 SECONDS, CPU UTILIZATION IS  36.36%
 TOTAL NUMBER OF NONZERO TWO-ELECTRON INTEGRALS =              519793
         35 INTEGRAL RECORDS WERE STORED ON DISK FILE  8.
  ...... END OF TWO-ELECTRON INTEGRALS .....
 STEP CPU TIME =     0.04 TOTAL CPU TIME =        0.5 (    0.0 MIN)
 TOTAL WALL CLOCK TIME=        1.4 SECONDS, CPU UTILIZATION IS  37.96%

          ------------------------
          ROHF-GVB SCF CALCULATION
          ------------------------

 ITER EX     TOTAL ENERGY       E CHANGE        SQCDF       ORB. GRAD 
          ---------------START SECOND ORDER SCF---------------
   0  0      -93.934931880   -93.934931880   0.000152722   0.003088712
   1  1      -93.935068500    -0.000136620   0.000009365   0.001088376
   2  2      -93.935077132    -0.000008632   0.000001009   0.000456023
   3  3      -93.935078247    -0.000001115   0.000000045   0.000049207
   4  4      -93.935078281    -0.000000033   0.000000017   0.000011159
   5  5      -93.935078282    -0.000000002   0.000000019   0.000003477
   6  6      -93.935078283    -0.000000000   0.000000118   0.000000760

          -----------------
          DENSITY CONVERGED
          -----------------

 FINAL GVB ENERGY IS      -93.9350782827 AFTER   6 ITERATIONS

          ----------------
          PAIR INFORMATION
          ----------------
      ORBITAL   CI COEFFICIENTS    OCCUPATION NUMBERS   GVB      ENERGY
 PAIR 1   2     ORB 1     ORB 2      ORB 1     ORB 2    OVERLAP  LOWERING
  1   8   9    0.705502 -0.708708   0.99547   1.00453   0.00227  -0.03136

     THE MAXIMUM LAGRANGIAN ASYMMETRY IS 9.7519827E-07

 ... END OF ROHF-GVB SCF CALCULATION ...
 STEP CPU TIME =     0.16 TOTAL CPU TIME =        0.7 (    0.0 MIN)
 TOTAL WALL CLOCK TIME=        3.7 SECONDS, CPU UTILIZATION IS  18.43%
 ..... END OF 1-ELECTRON GRADIENT ......
 STEP CPU TIME =     0.01 TOTAL CPU TIME =        0.7 (    0.0 MIN)
 TOTAL WALL CLOCK TIME=        3.7 SECONDS, CPU UTILIZATION IS  18.65%
 ...... END OF 2-ELECTRON GRADIENT ......
 STEP CPU TIME =     0.15 TOTAL CPU TIME =        0.8 (    0.0 MIN)
 TOTAL WALL CLOCK TIME=        3.8 SECONDS, CPU UTILIZATION IS  21.82%

          NSERCH=  1     ENERGY=     -93.9350783

                                 -----------------------
                                 GRADIENT (HARTREE/BOHR)
                                 -----------------------
        ATOM     ZNUC       DE/DX         DE/DY         DE/DZ
 --------------------------------------------------------------
    1  CARBON       6.0    -0.0005149     0.0001111     0.0015042
    2  NITROGEN     7.0     0.0002758    -0.0000626     0.0033659
    3  HYDROGEN     1.0     0.0003331    -0.0004811    -0.0017559
    4  HYDROGEN     1.0     0.0002962     0.0004283    -0.0016806
    5  HYDROGEN     1.0    -0.0003903     0.0000044    -0.0014337

          MAXIMUM GRADIENT = 0.0033659    RMS GRADIENT = 0.0012296

 NSERCH:   1  E=      -93.9350782827  GRAD. MAX=  0.0033659  R.M.S.=  0.0012296

          HESSIAN UPDATED USING THE BFGS FORMULA
             ACTUAL ENERGY CHANGE WAS  -0.0001364723
          PREDICTED ENERGY CHANGE WAS  -0.0001735229 RATIO=  0.786
          MIN SEARCH, CORRECT HESSIAN, TRYING PURE NR STEP
               NR STEP HAS LENGTH         =   0.041975
          RADIUS OF STEP TAKEN=   0.04197  CURRENT TRUST RADIUS=   0.05000

 BEGINNING GEOMETRY SEARCH POINT NSERCH=   2 ...

 COORDINATES OF ALL ATOMS ARE (ANGS)
   ATOM   CHARGE       X              Y              Z
 ------------------------------------------------------------
 CARBON      6.0  -0.0008131163   0.0008043960   0.0920648149
 NITROGEN    7.0   0.0013578615  -0.0010285754   1.5061354645
 HYDROGEN    1.0  -0.5119758011   0.8853607662  -0.2870775728
 HYDROGEN    1.0  -0.5121369097  -0.8853057252  -0.2852909047
 HYDROGEN    1.0   1.0235679656   0.0001691385  -0.2840152023

          INTERNUCLEAR DISTANCES (ANGS.)
          ------------------------------

                1 CARB       2 NITR       3 HYDR       4 HYDR       5 HYDR  

   1 CARB    0.0000000    1.4140735 *  1.0897138 *  1.0904313 *  1.0912347 *
   2 NITR    1.4140735 *  0.0000000    2.0651418 *  2.0627243 *  2.0614447 *
   3 HYDR    1.0897138 *  2.0651418 *  0.0000000    1.7706674 *  1.7724188 *
   4 HYDR    1.0904313 *  2.0627243 *  1.7706674 *  0.0000000    1.7726976 *
   5 HYDR    1.0912347 *  2.0614447 *  1.7724188 *  1.7726976 *  0.0000000  

  * ... LESS THAN  3.000

 ...... END OF ONE-ELECTRON INTEGRALS ......
 STEP CPU TIME =     0.00 TOTAL CPU TIME =        0.8 (    0.0 MIN)
 TOTAL WALL CLOCK TIME=        3.8 SECONDS, CPU UTILIZATION IS  21.82%
 TOTAL NUMBER OF NONZERO TWO-ELECTRON INTEGRALS =              519594
         35 INTEGRAL RECORDS WERE STORED ON DISK FILE  8.
  ...... END OF TWO-ELECTRON INTEGRALS .....
 STEP CPU TIME =     0.05 TOTAL CPU TIME =        0.9 (    0.0 MIN)
 TOTAL WALL CLOCK TIME=        3.9 SECONDS, CPU UTILIZATION IS  22.70%

          ------------------------
          ROHF-GVB SCF CALCULATION
          ------------------------

 ITER EX     TOTAL ENERGY       E CHANGE        SQCDF       ORB. GRAD 
          ---------------START SECOND ORDER SCF---------------
   0  0      -93.935080425   -93.935080425   0.000034369   0.002048952
   1  1      -93.935117649    -0.000037224   0.000001716   0.000396167
   2  2      -93.935119276    -0.000001628   0.000000164   0.000201771
   3  3      -93.935119467    -0.000000191   0.000000080   0.000021127
   4  4      -93.935119479    -0.000000012   0.000000101   0.000014755
   5  5      -93.935119481    -0.000000002   0.000000288   0.000002302
   6  6      -93.935119482    -0.000000001   0.000003840   0.000004155
   7  7      -93.935119486    -0.000000004   0.000026675   0.000015542
   8  8      -93.935119495    -0.000000009   0.000165897   0.000031063
   9  9      -93.935119514    -0.000000019   0.000582874   0.000050457
  10 10      -93.935119547    -0.000000033   0.000783297   0.000062578
  11 11      -93.935119581    -0.000000035   0.000188293   0.000050014
  12 12      -93.935119600    -0.000000019   0.000000014   0.000018530
  13 13      -93.935119602    -0.000000002   0.000001769   0.000002255
  14 14      -93.935119602    -0.000000000   0.000000007   0.000000373

          -----------------
          DENSITY CONVERGED
          -----------------

 FINAL GVB ENERGY IS      -93.9351196024 AFTER  14 ITERATIONS

          ----------------
          PAIR INFORMATION
          ----------------
      ORBITAL   CI COEFFICIENTS    OCCUPATION NUMBERS   GVB      ENERGY
 PAIR 1   2     ORB 1     ORB 2      ORB 1     ORB 2    OVERLAP  LOWERING
  1   8   9    0.705585 -0.708625   0.99570   1.00430   0.00215  -0.03131

     THE MAXIMUM LAGRANGIAN ASYMMETRY IS 6.2157792E-07

 ... END OF ROHF-GVB SCF CALCULATION ...
 STEP CPU TIME =     0.38 TOTAL CPU TIME =        1.3 (    0.0 MIN)
 TOTAL WALL CLOCK TIME=        4.7 SECONDS, CPU UTILIZATION IS  27.19%
 ..... END OF 1-ELECTRON GRADIENT ......
 STEP CPU TIME =     0.00 TOTAL CPU TIME =        1.3 (    0.0 MIN)
 TOTAL WALL CLOCK TIME=        4.7 SECONDS, CPU UTILIZATION IS  27.14%
 ...... END OF 2-ELECTRON GRADIENT ......
 STEP CPU TIME =     0.15 TOTAL CPU TIME =        1.4 (    0.0 MIN)
 TOTAL WALL CLOCK TIME=        4.8 SECONDS, CPU UTILIZATION IS  29.46%

          NSERCH=  2     ENERGY=     -93.9351196

                                 -----------------------
                                 GRADIENT (HARTREE/BOHR)
                                 -----------------------
        ATOM     ZNUC       DE/DX         DE/DY         DE/DZ
 --------------------------------------------------------------
    1  CARBON       6.0    -0.0000964    -0.0000324     0.0009688
    2  NITROGEN     7.0     0.0000339     0.0000079    -0.0028155
    3  HYDROGEN     1.0    -0.0004231     0.0005314     0.0006036
    4  HYDROGEN     1.0    -0.0003938    -0.0004981     0.0006070
    5  HYDROGEN     1.0     0.0008794    -0.0000088     0.0006360

          MAXIMUM GRADIENT = 0.0028155    RMS GRADIENT = 0.0008814

 NSERCH:   2  E=      -93.9351196024  GRAD. MAX=  0.0028155  R.M.S.=  0.0008814

          HESSIAN UPDATED USING THE BFGS FORMULA
             ACTUAL ENERGY CHANGE WAS  -0.0000413197
          PREDICTED ENERGY CHANGE WAS  -0.0000953239 RATIO=  0.433
          MIN SEARCH, CORRECT HESSIAN, TRYING PURE NR STEP
               NR STEP HAS LENGTH         =   0.015447
          RADIUS OF STEP TAKEN=   0.01545  CURRENT TRUST RADIUS=   0.05000

 BEGINNING GEOMETRY SEARCH POINT NSERCH=   3 ...

 COORDINATES OF ALL ATOMS ARE (ANGS)
   ATOM   CHARGE       X              Y              Z
 ------------------------------------------------------------
 CARBON      6.0  -0.0006732962   0.0006651440   0.0938150955
 NITROGEN    7.0   0.0004827236  -0.0008763672   1.5114367549
 HYDROGEN    1.0  -0.5102267792   0.8840178989  -0.2888020184
 HYDROGEN    1.0  -0.5104458892  -0.8840052870  -0.2872720579
 HYDROGEN    1.0   1.0208632410   0.0001986113  -0.2873611743

          INTERNUCLEAR DISTANCES (ANGS.)
          ------------------------------

                1 CARB       2 NITR       3 HYDR       4 HYDR       5 HYDR  

   1 CARB    0.0000000    1.4176230 *  1.0891982 *  1.0898336 *  1.0903359 *
   2 NITR    1.4176230 *  0.0000000    2.0699569 *  2.0679260 *  2.0680550 *
   3 HYDR    1.0891982 *  2.0699569 *  0.0000000    1.7680239 *  1.7678731 *
   4 HYDR    1.0898336 *  2.0679260 *  1.7680239 *  0.0000000    1.7682546 *
   5 HYDR    1.0903359 *  2.0680550 *  1.7678731 *  1.7682546 *  0.0000000  

  * ... LESS THAN  3.000

 ...... END OF ONE-ELECTRON INTEGRALS ......
 STEP CPU TIME =     0.00 TOTAL CPU TIME =        1.4 (    0.0 MIN)
 TOTAL WALL CLOCK TIME=        4.8 SECONDS, CPU UTILIZATION IS  29.46%
 TOTAL NUMBER OF NONZERO TWO-ELECTRON INTEGRALS =              518775
         35 INTEGRAL RECORDS WERE STORED ON DISK FILE  8.
  ...... END OF TWO-ELECTRON INTEGRALS .....
 STEP CPU TIME =     0.04 TOTAL CPU TIME =        1.5 (    0.0 MIN)
 TOTAL WALL CLOCK TIME=        4.9 SECONDS, CPU UTILIZATION IS  29.98%

          ------------------------
          ROHF-GVB SCF CALCULATION
          ------------------------

 ITER EX     TOTAL ENERGY       E CHANGE        SQCDF       ORB. GRAD 
          ---------------START SECOND ORDER SCF---------------
   0  0      -93.935132936   -93.935132936   0.000009543   0.000796964
   1  1      -93.935140127    -0.000007191   0.000000434   0.000157969
   2  2      -93.935140485    -0.000000358   0.000000045   0.000101679
   3  3      -93.935140528    -0.000000043   0.000000029   0.000007921
   4  4      -93.935140530    -0.000000002   0.000000048   0.000004181
   5  5      -93.935140531    -0.000000001   0.000000275   0.000001319

          ----------------
          ENERGY CONVERGED
          ----------------

 FINAL GVB ENERGY IS      -93.9351405307 AFTER   5 ITERATIONS

          ----------------
          PAIR INFORMATION
          ----------------
      ORBITAL   CI COEFFICIENTS    OCCUPATION NUMBERS   GVB      ENERGY
 PAIR 1   2     ORB 1     ORB 2      ORB 1     ORB 2    OVERLAP  LOWERING
  1   8   9    0.705953 -0.708259   0.99674   1.00326   0.00163  -0.03138

     THE MAXIMUM LAGRANGIAN ASYMMETRY IS 1.3755011E-06

 ... END OF ROHF-GVB SCF CALCULATION ...
 STEP CPU TIME =     0.12 TOTAL CPU TIME =        1.6 (    0.0 MIN)
 TOTAL WALL CLOCK TIME=        5.2 SECONDS, CPU UTILIZATION IS  30.50%
 ..... END OF 1-ELECTRON GRADIENT ......
 STEP CPU TIME =     0.00 TOTAL CPU TIME =        1.6 (    0.0 MIN)
 TOTAL WALL CLOCK TIME=        5.2 SECONDS, CPU UTILIZATION IS  30.44%
 ...... END OF 2-ELECTRON GRADIENT ......
 STEP CPU TIME =     0.13 TOTAL CPU TIME =        1.7 (    0.0 MIN)
 TOTAL WALL CLOCK TIME=        5.3 SECONDS, CPU UTILIZATION IS  32.20%

          NSERCH=  3     ENERGY=     -93.9351405

                                 -----------------------
                                 GRADIENT (HARTREE/BOHR)
                                 -----------------------
        ATOM     ZNUC       DE/DX         DE/DY         DE/DZ
 --------------------------------------------------------------
    1  CARBON       6.0     0.0000804    -0.0000848    -0.0000335
    2  NITROGEN     7.0    -0.0001091     0.0000204     0.0000797
    3  HYDROGEN     1.0    -0.0000004     0.0001184     0.0000409
    4  HYDROGEN     1.0     0.0000360    -0.0000537     0.0000363
    5  HYDROGEN     1.0    -0.0000068    -0.0000003    -0.0001234

          MAXIMUM GRADIENT = 0.0001234    RMS GRADIENT = 0.0000683

 NSERCH:   3  E=      -93.9351405307  GRAD. MAX=  0.0001234  R.M.S.=  0.0000683

          HESSIAN UPDATED USING THE BFGS FORMULA
             ACTUAL ENERGY CHANGE WAS  -0.0000209283
          PREDICTED ENERGY CHANGE WAS  -0.0000215288 RATIO=  0.972
          MIN SEARCH, CORRECT HESSIAN, TRYING PURE NR STEP
               NR STEP HAS LENGTH         =   0.004657
          RADIUS OF STEP TAKEN=   0.00466  CURRENT TRUST RADIUS=   0.05000

 BEGINNING GEOMETRY SEARCH POINT NSERCH=   4 ...

 COORDINATES OF ALL ATOMS ARE (ANGS)
   ATOM   CHARGE       X              Y              Z
 ------------------------------------------------------------
 CARBON      6.0  -0.0009719550   0.0008523574   0.0938329262
 NITROGEN    7.0   0.0017235174  -0.0011018145   1.5114610923
 HYDROGEN    1.0  -0.5108054029   0.8834398088  -0.2896966414
 HYDROGEN    1.0  -0.5110229495  -0.8834002244  -0.2877893785
 HYDROGEN    1.0   1.0210767900   0.0002098728  -0.2859913989

          INTERNUCLEAR DISTANCES (ANGS.)
          ------------------------------

                1 CARB       2 NITR       3 HYDR       4 HYDR       5 HYDR  

   1 CARB    0.0000000    1.4176321 *  1.0890297 *  1.0898120 *  1.0903442 *
   2 NITR    1.4176321 *  0.0000000    2.0710550 *  2.0684926 *  2.0663781 *
   3 HYDR    1.0890297 *  2.0710550 *  0.0000000    1.7668411 *  1.7682681 *
   4 HYDR    1.0898120 *  2.0684926 *  1.7668411 *  0.0000000    1.7686434 *
   5 HYDR    1.0903442 *  2.0663781 *  1.7682681 *  1.7686434 *  0.0000000  

  * ... LESS THAN  3.000

 ...... END OF ONE-ELECTRON INTEGRALS ......
 STEP CPU TIME =     0.00 TOTAL CPU TIME =        1.7 (    0.0 MIN)
 TOTAL WALL CLOCK TIME=        5.3 SECONDS, CPU UTILIZATION IS  32.20%
 TOTAL NUMBER OF NONZERO TWO-ELECTRON INTEGRALS =              519734
         35 INTEGRAL RECORDS WERE STORED ON DISK FILE  8.
  ...... END OF TWO-ELECTRON INTEGRALS .....
 STEP CPU TIME =     0.04 TOTAL CPU TIME =        1.7 (    0.0 MIN)
 TOTAL WALL CLOCK TIME=        5.3 SECONDS, CPU UTILIZATION IS  32.71%

          ------------------------
          ROHF-GVB SCF CALCULATION
          ------------------------

 ITER EX     TOTAL ENERGY       E CHANGE        SQCDF       ORB. GRAD 
          ---------------START SECOND ORDER SCF---------------
   0  0      -93.935139623   -93.935139623   0.000003878   0.000127550
   1  1      -93.935140440    -0.000000817   0.000000092   0.000038082
   2  2      -93.935140487    -0.000000047   0.000000006   0.000009929
   3  3      -93.935140489    -0.000000003   0.000000000   0.000003385
   4  4      -93.935140490    -0.000000000   0.000000000   0.000000952

          -----------------
          DENSITY CONVERGED
          -----------------

 FINAL GVB ENERGY IS      -93.9351404895 AFTER   4 ITERATIONS

          ----------------
          PAIR INFORMATION
          ----------------
      ORBITAL   CI COEFFICIENTS    OCCUPATION NUMBERS   GVB      ENERGY
 PAIR 1   2     ORB 1     ORB 2      ORB 1     ORB 2    OVERLAP  LOWERING
  1   8   9    0.705446 -0.708764   0.99531   1.00469   0.00235  -0.03134

     THE MAXIMUM LAGRANGIAN ASYMMETRY IS 6.7765641E-07

 ... END OF ROHF-GVB SCF CALCULATION ...
 STEP CPU TIME =     0.11 TOTAL CPU TIME =        1.9 (    0.0 MIN)
 TOTAL WALL CLOCK TIME=        5.7 SECONDS, CPU UTILIZATION IS  32.40%
 ..... END OF 1-ELECTRON GRADIENT ......
 STEP CPU TIME =     0.01 TOTAL CPU TIME =        1.9 (    0.0 MIN)
 TOTAL WALL CLOCK TIME=        5.8 SECONDS, CPU UTILIZATION IS  32.52%
 ...... END OF 2-ELECTRON GRADIENT ......
 STEP CPU TIME =     0.12 TOTAL CPU TIME =        2.0 (    0.0 MIN)
 TOTAL WALL CLOCK TIME=        5.9 SECONDS, CPU UTILIZATION IS  33.84%

          NSERCH=  4     ENERGY=     -93.9351405

                                 -----------------------
                                 GRADIENT (HARTREE/BOHR)
                                 -----------------------
        ATOM     ZNUC       DE/DX         DE/DY         DE/DZ
 --------------------------------------------------------------
    1  CARBON       6.0    -0.0000776     0.0000280    -0.0000672
[...]
   15  C  1 YZ    0.000001  -0.000002   0.000109   0.000073   0.011519
   16  N  2  S    0.996229  -0.000155   0.160100  -0.135779   0.000235
   17  N  2  S    0.021809  -0.000214  -0.350696   0.302488  -0.000541
   18  N  2  X   -0.000006   0.000003  -0.000954  -0.000892   0.033812
   19  N  2  Y    0.000005  -0.000002   0.000692   0.000675  -0.085446
   20  N  2  Z   -0.002037   0.000046   0.138146   0.042910   0.000239
   21  N  2  S   -0.010081   0.002325  -0.337607   0.396318  -0.001004
   22  N  2  X    0.000013   0.000001  -0.000935  -0.000875   0.010460
   23  N  2  Y   -0.000011  -0.000000   0.000695   0.000662  -0.026498
   24  N  2  Z    0.003770  -0.000593   0.061179   0.005392   0.000351
   25  N  2 XX   -0.000080   0.000268   0.010284   0.001245   0.000481
   26  N  2 YY   -0.000079   0.000269   0.010282   0.001250  -0.000509
   27  N  2 ZZ    0.000159  -0.000537  -0.020566  -0.002495   0.000028
   28  N  2 XY   -0.000002  -0.000000   0.000007  -0.000010   0.001448
   29  N  2 XZ    0.000003   0.000000  -0.000025   0.000053  -0.005328
   30  N  2 YZ   -0.000002   0.000000   0.000027  -0.000041   0.013476
   31  H  3  S   -0.000413  -0.000175  -0.073286  -0.140581  -0.266656
   32  H  3  S   -0.000037   0.002972  -0.011760  -0.057506  -0.216130
   33  H  3  X   -0.000021  -0.000186  -0.003781  -0.005487  -0.006172
   34  H  3  Y    0.000035   0.000322   0.006554   0.009520   0.008701
   35  H  3  Z   -0.000102  -0.000129  -0.003906  -0.001525  -0.006287
   36  H  4  S   -0.000414  -0.000175  -0.073133  -0.139786   0.167983
   37  H  4  S   -0.000039   0.002972  -0.011381  -0.056793   0.136290
   38  H  4  X   -0.000021  -0.000187  -0.003783  -0.005461   0.007950
   39  H  4  Y   -0.000036  -0.000325  -0.006570  -0.009506   0.003148
   40  H  4  Z   -0.000099  -0.000130  -0.003894  -0.001505   0.003930
   41  H  5  S   -0.000415  -0.000175  -0.072983  -0.139285   0.099544
   42  H  5  S   -0.000040   0.002970  -0.011113  -0.056331   0.080827
   43  H  5  X    0.000042   0.000376   0.007587   0.010945  -0.003977
   44  H  5  Y    0.000000  -0.000001  -0.000006  -0.000015  -0.006298
   45  H  5  Z   -0.000097  -0.000130  -0.003888  -0.001495   0.002317

                      6          7          8          9         10
                   -0.5987    -0.5191    -0.1044    -0.1061     0.2497
                     A          A          A          A          A   
    1  C  1  S    0.000009  -0.023339   0.000013  -0.000031   0.133337
    2  C  1  S   -0.000083   0.063669  -0.000370   0.001194  -0.095853
    3  C  1  X    0.405072   0.000794   0.055580  -0.039857  -0.001016
    4  C  1  Y    0.160224  -0.000560   0.039927   0.055313   0.000926
    5  C  1  Z   -0.000261   0.346633  -0.000728   0.002458   0.158660
    6  C  1  S    0.000194   0.038344  -0.000550   0.001651  -2.475664
    7  C  1  X    0.199760   0.000053   0.023454  -0.016639  -0.003578
    8  C  1  Y    0.079029   0.000004   0.016739   0.022940   0.003546
    9  C  1  Z   -0.000055   0.128685  -0.000168   0.000608   0.681019
   10  C  1 XX    0.019399  -0.011953   0.006097  -0.004516   0.001621
   11  C  1 YY   -0.019310  -0.012088  -0.006010   0.004241   0.001582
   12  C  1 ZZ   -0.000089   0.024041  -0.000087   0.000275  -0.003203
   13  C  1 XY   -0.008840   0.000063  -0.005048  -0.007054   0.000016
   14  C  1 XZ   -0.011410  -0.000184  -0.027439   0.019761  -0.000005
   15  C  1 YZ   -0.004509   0.000133  -0.019753  -0.027483   0.000004
   16  N  2  S    0.000116   0.071428  -0.000195   0.000629   0.009069
   17  N  2  S   -0.000266  -0.151094   0.000429  -0.001370  -0.053029
   18  N  2  X    0.085649  -0.004348  -0.523603   0.376653   0.000822
   19  N  2  Y    0.033861   0.003482  -0.376717  -0.523509  -0.000613
   20  N  2  Z    0.000218  -0.495543   0.001104  -0.004203  -0.026476
   21  N  2  S   -0.000489  -0.323492   0.000779  -0.002502  -0.005932
   22  N  2  X    0.026740  -0.003410  -0.403952   0.290584   0.001223
   23  N  2  Y    0.010598   0.002696  -0.290595  -0.403832  -0.001015
   24  N  2  Z    0.000240  -0.305115   0.000555  -0.002276  -0.073413
   25  N  2 XX    0.001208  -0.016350   0.001365  -0.001119   0.003532
   26  N  2 YY   -0.001217  -0.016366  -0.001161   0.000429   0.003503
   27  N  2 ZZ    0.000009   0.032716  -0.000204   0.000690  -0.007035
   28  N  2 XY   -0.000555   0.000006  -0.000915  -0.001059   0.000016
   29  N  2 XZ   -0.013531   0.000295   0.017872  -0.012862  -0.000004
   30  N  2 YZ   -0.005354  -0.000245   0.012872   0.017896   0.000005
   31  H  3  S   -0.039334  -0.061410   0.011046   0.100170   0.004169
   32  H  3  S   -0.031885  -0.072046   0.016396   0.157261   1.225922
   33  H  3  X    0.005035  -0.002143   0.002388   0.001329   0.001421
   34  H  3  Y    0.004716   0.003731   0.001056  -0.002698  -0.002484
   35  H  3  Z   -0.000932   0.003296  -0.000019   0.000149   0.003604
   36  H  4  S   -0.211180  -0.060228  -0.093346  -0.044837   0.004346
   37  H  4  S   -0.171324  -0.070655  -0.145007  -0.067106   1.230170
   38  H  4  X   -0.000553  -0.002102  -0.000646  -0.002561   0.001408
   39  H  4  Y   -0.009403  -0.003691  -0.002828   0.000102   0.002497
   40  H  4  Z   -0.004966   0.003310  -0.000060   0.000076   0.003608
   41  H  5  S    0.251030  -0.059429   0.084557  -0.062716   0.004434
   42  H  5  S    0.203797  -0.069708   0.130001  -0.094739   1.231349
   43  H  5  X   -0.010020   0.004211  -0.002461   0.001732  -0.002867
   44  H  5  Y    0.002499  -0.000015   0.001273   0.001925   0.000017
   45  H  5  Z    0.005874   0.003316  -0.000010   0.000080   0.003605

                     11         12         13         14         15
                    0.3146     0.3150     0.3707     0.7611     0.7614
                     A          A          A          A          A   
    1  C  1  S   -0.000422   0.000851   0.086476   0.000098  -0.000220
    2  C  1  S    0.000320  -0.000662  -0.008516  -0.000540   0.001049
    3  C  1  X   -0.328555   0.126658  -0.001814  -0.627743   0.328106
    4  C  1  Y   -0.126567  -0.328760   0.001625  -0.328411  -0.626507
    5  C  1  Z    0.000211  -0.000362  -0.109416  -0.001915   0.004648
    6  C  1  S    0.008781  -0.017060  -1.900019   0.000252  -0.001080
    7  C  1  X   -1.447529   0.558318  -0.010614   1.506813  -0.789273
    8  C  1  Y   -0.557640  -1.449249   0.009533   0.788827   1.508082
    9  C  1  Z    0.002234  -0.004377  -1.873326   0.004587  -0.011577
   10  C  1 XX    0.007133  -0.002822  -0.011763  -0.068018   0.035725
   11  C  1 YY   -0.007036   0.002640  -0.011767   0.067847  -0.035287
   12  C  1 ZZ   -0.000096   0.000182   0.023530   0.000171  -0.000438
   13  C  1 XY   -0.003151  -0.008184  -0.000003   0.041033   0.078277
   14  C  1 XZ    0.001530  -0.000604   0.000045   0.008201  -0.004400
   15  C  1 YZ    0.000586   0.001560  -0.000036   0.004322   0.008462
   16  N  2  S    0.000258  -0.000508  -0.094598  -0.000032   0.000069
   17  N  2  S   -0.000426   0.000872   0.128327   0.000337  -0.000910
   18  N  2  X    0.059928  -0.023259  -0.000329  -0.195241   0.103161
   19  N  2  Y    0.023061   0.060308   0.000299  -0.102442  -0.197556
   20  N  2  Z    0.000898  -0.001756  -0.265232  -0.000675   0.001683
   21  N  2  S   -0.003614   0.007005   1.900723  -0.003254   0.008583
   22  N  2  X    0.298056  -0.115271  -0.000064  -0.184853   0.096155
   23  N  2  Y    0.114828   0.299233   0.000163  -0.096642  -0.183478
   24  N  2  Z    0.002560  -0.004977  -1.259815   0.001137  -0.003219
   25  N  2 XX    0.007809  -0.003053  -0.016295  -0.013617   0.006734
   26  N  2 YY   -0.007740   0.002913  -0.016400   0.014013  -0.007704
   27  N  2 ZZ   -0.000069   0.000140   0.032695  -0.000396   0.000970
   28  N  2 XY   -0.003461  -0.008949   0.000055   0.008346   0.015918
   29  N  2 XZ    0.006927  -0.002687   0.000142   0.010003  -0.005046
   30  N  2 YZ    0.002669   0.006975  -0.000126   0.005178   0.009529
   31  H  3  S   -0.006494   0.041650  -0.058751   0.020862  -0.497949
   32  H  3  S   -0.302736   1.920203   0.071319   0.016841  -0.401187
   33  H  3  X   -0.007838   0.001265   0.000504   0.031540  -0.018258
   34  H  3  Y   -0.003630  -0.004888  -0.000900   0.016311   0.034577
   35  H  3  Z   -0.000632   0.004172  -0.007394   0.000656  -0.015428
   36  H  4  S   -0.033321  -0.027027  -0.059113   0.420304   0.265462
   37  H  4  S   -1.508021  -1.214075   0.090119   0.336388   0.212996
   38  H  4  X   -0.006646   0.004330   0.000479   0.033084  -0.015614
   39  H  4  Y   -0.000570  -0.006018   0.000910   0.019237   0.033235
   40  H  4  Z   -0.003303  -0.002754  -0.007248   0.013229   0.008300
   41  H  5  S    0.040381  -0.015593  -0.059279  -0.440159   0.229742
   42  H  5  S    1.803806  -0.692498   0.098874  -0.351295   0.183909
   43  H  5  X   -0.004546   0.001731  -0.001023   0.034902  -0.018230
   44  H  5  Y   -0.003127  -0.008104   0.000026   0.016515   0.031664
   45  H  5  Z    0.004031  -0.001599  -0.007172  -0.013933   0.007231

                     16         17         18         19
                    0.7925     0.9533     1.0008     1.0011
                     A          A          A          A   
    1  C  1  S    0.038656  -0.004936  -0.000147   0.000229
    2  C  1  S   -0.413767   0.209654  -0.001112   0.001881
    3  C  1  X    0.003605  -0.001663  -0.230101   0.073804
    4  C  1  Y   -0.003025   0.001478  -0.073028  -0.231281
    5  C  1  Z   -1.019688   0.137731  -0.000339   0.000399
    6  C  1  S    0.033968  -1.286834  -0.000625   0.000361
    7  C  1  X   -0.007651   0.000989   0.829364  -0.266468
    8  C  1  Y    0.006416  -0.000821   0.263277   0.835241
    9  C  1  Z    1.046952  -0.452566  -0.000819   0.001186
   10  C  1 XX   -0.015260   0.073619  -0.013111   0.004166
   11  C  1 YY   -0.015773   0.073091   0.013489  -0.004785
   12  C  1 ZZ    0.031034  -0.146710  -0.000378   0.000619
   13  C  1 XY    0.000235   0.000274   0.004838   0.016084
   14  C  1 XZ    0.000170  -0.000502   0.002934  -0.001047
   15  C  1 YZ   -0.000152   0.000457   0.000930   0.003278
   16  N  2  S   -0.042945  -0.055013  -0.000074   0.000117
   17  N  2  S    0.122148   0.470863  -0.000194   0.000119
   18  N  2  X    0.000520  -0.001640   0.902501  -0.287049
   19  N  2  Y   -0.000426   0.001338   0.287255   0.902125
   20  N  2  Z   -0.143338   0.874241   0.001421  -0.002094
   21  N  2  S   -0.369389   0.265977   0.001090  -0.001213
   22  N  2  X    0.001610   0.001696  -1.210287   0.385725
   23  N  2  Y   -0.001235  -0.001322  -0.385057  -1.211730
   24  N  2  Z   -0.352506  -1.380730  -0.002474   0.003474
   25  N  2 XX    0.076445  -0.019474  -0.009446   0.002929
   26  N  2 YY    0.076303  -0.019495   0.009515  -0.003029
   27  N  2 ZZ   -0.152748   0.038969  -0.000069   0.000100
   28  N  2 XY    0.000072   0.000015   0.003486   0.010814
   29  N  2 XZ   -0.000535   0.000232  -0.024358   0.007905
   30  N  2 YZ    0.000487  -0.000215  -0.007732  -0.024779
   31  H  3  S    0.070724   0.125576   0.000364  -0.005301
   32  H  3  S    0.068657   0.050838   0.072404  -0.331460
   33  H  3  X    0.008998  -0.007897   0.017442  -0.004159
   34  H  3  Y   -0.015704   0.013619   0.006180   0.015221
   35  H  3  Z   -0.011616   0.030166   0.011697  -0.053169
   36  H  4  S    0.072563   0.127501   0.002699   0.005396
   37  H  4  S    0.071522   0.046167   0.247816   0.227566
   38  H  4  X    0.008985  -0.008082   0.016654  -0.006761
   39  H  4  Y    0.015902  -0.013822   0.003783   0.016073
   40  H  4  Z   -0.011462   0.030182   0.040411   0.036644
   41  H  5  S    0.073596   0.128403  -0.005265   0.003134
   42  H  5  S    0.072978   0.043829  -0.319242   0.102762
   43  H  5  X   -0.018349   0.016124   0.014961  -0.004762
   44  H  5  Y    0.000110   0.000059   0.005616   0.017882
   45  H  5  Z   -0.011366   0.030198  -0.052051   0.016479

     ----------------------------------------------------------------
     PROPERTY VALUES FOR THE GVB   SELF-CONSISTENT FIELD WAVEFUNCTION
     ----------------------------------------------------------------

          -----------------
          ENERGY COMPONENTS
          -----------------

         WAVEFUNCTION NORMALIZATION =       1.0000000000

                ONE ELECTRON ENERGY =    -187.2907065262
                TWO ELECTRON ENERGY =      62.6651693951
           NUCLEAR REPULSION ENERGY =      30.6903963459
                                      ------------------
                       TOTAL ENERGY =     -93.9351407852

 ELECTRON-ELECTRON POTENTIAL ENERGY =      62.6651693951
  NUCLEUS-ELECTRON POTENTIAL ENERGY =    -281.1868781918
   NUCLEUS-NUCLEUS POTENTIAL ENERGY =      30.6903963459
                                      ------------------
             TOTAL POTENTIAL ENERGY =    -187.8313124508
               TOTAL KINETIC ENERGY =      93.8961716656
                 VIRIAL RATIO (V/T) =       2.0004150235

          ---------------------------------------
          MULLIKEN AND LOWDIN POPULATION ANALYSES
          ---------------------------------------

     ATOMIC MULLIKEN POPULATION IN EACH MOLECULAR ORBITAL

                      1          2          3          4          5

                  2.000000   2.000000   2.000000   2.000000   2.000000

    1             0.001112   1.998035   0.703774   0.843327   1.082972
    2             1.998892   0.000358   1.153594   0.652718   0.058351
    3            -0.000001   0.000537   0.047933   0.169764   0.557036
    4            -0.000001   0.000536   0.047520   0.167731   0.222325
    5            -0.000001   0.000535   0.047178   0.166461   0.079316

                      6          7          8          9

                  2.000000   2.000000   0.995942   1.004058

    1             1.082494   0.470823   0.009873   0.009956
    2             0.058779   1.413204   0.943056   0.950753
    3             0.013947   0.039697   0.000382   0.027121
    4             0.350302   0.038534   0.023396   0.005510
    5             0.494478   0.037742   0.019234   0.010718

               ----- POPULATIONS IN EACH AO -----
                             MULLIKEN      LOWDIN
              1  C  1  S      1.99742     1.98051
              2  C  1  S      0.65081     0.34292
              3  C  1  X      0.70199     0.60754
              4  C  1  Y      0.70244     0.60882
              5  C  1  Z      0.64840     0.58054
              6  C  1  S      0.56555     0.32636
              7  C  1  X      0.37221     0.48095
              8  C  1  Y      0.37219     0.48144
              9  C  1  Z      0.13578     0.32660
             10  C  1 XX      0.01911     0.14529
             11  C  1 YY      0.00777     0.14547
             12  C  1 ZZ      0.00773     0.16370
             13  C  1 XY      0.01046     0.01229
             14  C  1 XZ      0.01052     0.02157
             15  C  1 YZ      0.00000     0.02175
             16  N  2  S      1.99831     1.98178
             17  N  2  S      0.88157     0.61637
             18  N  2  X      0.60555     0.58900
             19  N  2  Y      0.60686     0.59029
             20  N  2  Z      0.84423     0.79085
             21  N  2  S      1.03657     0.53606
             22  N  2  X      0.39496     0.41352
             23  N  2  Y      0.39582     0.41436
             24  N  2  Z      0.44362     0.54627
             25  N  2 XX      0.01436     0.19652
             26  N  2 YY      0.00004     0.19654
             27  N  2 ZZ      0.00004     0.21422
             28  N  2 XY      0.00390     0.00005
             29  N  2 XZ      0.00389     0.00770
             30  N  2 YZ      0.00000     0.00768
             31  H  3  S      0.52742     0.49180
             32  H  3  S      0.31622     0.35963
             33  H  3  X      0.00356     0.00957
             34  H  3  Y      0.00685     0.01576
             35  H  3  Z      0.00236     0.00722
             36  H  4  S      0.52709     0.49151
             37  H  4  S      0.31601     0.35955
             38  H  4  X      0.00355     0.00954
             39  H  4  Y      0.00685     0.01575
             40  H  4  Z      0.00235     0.00719
             41  H  5  S      0.52697     0.49288
             42  H  5  S      0.31596     0.35981
             43  H  5  X      0.00848     0.01898
             44  H  5  Y      0.00191     0.00660
             45  H  5  Z      0.00235     0.00725

          ----- MULLIKEN ATOMIC OVERLAP POPULATIONS -----
          (OFF-DIAGONAL ELEMENTS NEED TO BE MULTIPLIED BY 2)

             1           2           3           4           5

    1    4.8069788
    2    0.2168171   7.1326276
    3    0.3938927  -0.0398290   0.5633533
    4    0.3926978  -0.0398923  -0.0305079   0.5638358
    5    0.3919785  -0.0400199  -0.0304933  -0.0302793   0.5644757

          TOTAL MULLIKEN AND LOWDIN ATOMIC POPULATIONS
       ATOM         MULL.POP.    CHARGE          LOW.POP.     CHARGE
    1 CARBON        6.202365   -0.202365         6.245732   -0.245732
    2 NITROGEN      7.229704   -0.229704         7.101216   -0.101216
    3 HYDROGEN      0.856416    0.143584         0.883982    0.116018
    4 HYDROGEN      0.855854    0.144146         0.883539    0.116461
    5 HYDROGEN      0.855662    0.144338         0.885532    0.114468

          MULLIKEN SPHERICAL HARMONIC POPULATIONS
       ATOM           S       P       D      F      G      H      I    TOTAL
    1 CARBON        3.21    2.93    0.06   0.00   0.00   0.00   0.00    6.20
    2 NITROGEN      3.92    3.29    0.02   0.00   0.00   0.00   0.00    7.23
    3 HYDROGEN      0.84    0.01    0.00   0.00   0.00   0.00   0.00    0.86
    4 HYDROGEN      0.84    0.01    0.00   0.00   0.00   0.00   0.00    0.86
    5 HYDROGEN      0.84    0.01    0.00   0.00   0.00   0.00   0.00    0.86

          ---------------------
          ELECTROSTATIC MOMENTS
          ---------------------

 POINT   1           X           Y           Z (BOHR)    CHARGE
                 0.000318   -0.000295    1.394477        0.00 (A.U.)
         DX          DY          DZ         /D/  (DEBYE)
    -0.008617    0.006211   -2.138490    2.138516
 ...... END OF PROPERTY EVALUATION ......
 STEP CPU TIME =     0.00 TOTAL CPU TIME =        2.8 (    0.0 MIN)
 TOTAL WALL CLOCK TIME=       11.9 SECONDS, CPU UTILIZATION IS  23.64%
  $VIB   
          IVIB=   0 IATOM=   0 ICOORD=   0 E=      -93.9351407852
 -1.171624977E-06-7.992629465E-06 4.540820816E-07-4.367423806E-07 3.170244653E-06
  5.579863502E-07-8.322249064E-07 2.889369548E-06 9.242921129E-07 7.739507309E-07
  1.720192487E-06-1.688430997E-06 1.666641532E-06 2.128227741E-07-2.479342732E-07
 -8.616999905E-03 6.210524315E-03-2.138490119E+00
 ......END OF GEOMETRY SEARCH......
 STEP CPU TIME =     0.00 TOTAL CPU TIME =        2.8 (    0.0 MIN)
 TOTAL WALL CLOCK TIME=       11.9 SECONDS, CPU UTILIZATION IS  23.64%
               996800  WORDS OF DYNAMIC MEMORY USED
 EXECUTION OF GAMESS TERMINATED NORMALLY Mon Nov 28 20:16:59 2016
 DDI: 263640 bytes (0.3 MB / 0 MWords) used by master data server.

 ----------------------------------------
 CPU timing information for all processes
 ========================================
 0: 2.649 + 0.193 = 2.843
 ----------------------------------------
 ddikick.x: exited gracefully.
unset echo
----- accounting info -----
Files used on the master node compute-3-0 were:
-rw-rw-r-- 1 sarom sarom  125451 Nov 29  2016 .//gvb-h3cn-xxyy.dat
-rw-rw-r-- 1 sarom sarom     880 Nov 29  2016 .//gvb-h3cn-xxyy.F05
-rw-rw-r-- 1 sarom sarom 6300560 Nov 29  2016 .//gvb-h3cn-xxyy.F08
-rw-rw-r-- 1 sarom sarom 1865040 Nov 29  2016 .//gvb-h3cn-xxyy.F10
-rw-rw-r-- 1 sarom sarom   23184 Nov 29  2016 .//gvb-h3cn-xxyy.F15
-rw-rw-r-- 1 sarom sarom   66304 Nov 29  2016 .//gvb-h3cn-xxyy.F23
-rw-rw-r-- 1 sarom sarom     880 Nov 28 17:27 .//gvb-h3cn-xxyy.inp
-rw-rw-r-- 1 sarom sarom  115391 Nov 29  2016 .//gvb-h3cn-xxyy.log
Mon Nov 28 20:17:02 CST 2016
0.194u 0.598s 0:15.84 4.9%	0+0k 0+136io 0pf+0w
