-catch_rsh /opt/gridengine/default/spool/compute-0-2/active_jobs/23592.1/pe_hostfile
compute-0-2
The primary node assigned by SGE to this run is compute-0-2
Warning: no access to tty (Bad file descriptor).
Thus no job control in this shell.
Deleting shmid=3964928.
Deleting shmid=3997697.
Deleting shmid=4227074.
source /home/sarom/gamess.github.2017-05-31.14.06/install.info
setenv GMS_PATH /home/sarom/gamess.github.2017-05-31.14.06
setenv GMS_BUILD_DIR /home/sarom/gamess.github.2017-05-31.14.06
setenv GMS_TARGET linux64
setenv GMS_FORTRAN gfortran
setenv GMS_GFORTRAN_VERNO 4.4
setenv GMS_MATHLIB mkl-so
setenv GMS_MATHLIB_PATH /share/apps/intel/compilers_and_libraries_2017.1.132/linux/mkl/lib/intel64
setenv GMS_MKL_VERNO 12
setenv GMS_DDI_COMM sockets
setenv GMS_LIBCCHEM false
setenv GMS_EIGEN_PATH
setenv GMS_PHI false
setenv GMS_SHMTYPE sysv
setenv GMS_OPENMP false
unset echo
gvb-nh-1sig
tests/gvb
----- GAMESS execution script 'rungms' -----
This job is running on host compute-0-2.local
under operating system Linux at Fri Jun 2 01:30:57 CDT 2017
Available scratch disk space (Kbyte units) at beginning of the job is
Filesystem           1K-blocks      Used Available Use% Mounted on
/dev/sda1             16126920   3867312  11440408  26% /
GAMESS temporary binary files will be written to /scratch
GAMESS supplementary output files will be written to /home/sarom/restart
Copying input file gvb-nh-1sig.inp to your run's scratch directory...
cp tests/gvb/gvb-nh-1sig.inp /scratch/gvb-nh-1sig.F05
unset echo
The generated host list is
compute-0-2.local
/home/sarom/gamess.github.2017-05-31.14.06/ddikick.x /home/sarom/gamess.github.2017-05-31.14.06/gamess.00.x gvb-nh-1sig -ddi 1 1 compute-0-2.local -scr /scratch

 Distributed Data Interface kickoff program.
 Initiating 1 compute processes on 1 nodes to run the following command:
 /home/sarom/gamess.github.2017-05-31.14.06/gamess.00.x gvb-nh-1sig 

          ******************************************************
          *         GAMESS VERSION = 20 APR 2017 (R1)          *
          *             FROM IOWA STATE UNIVERSITY             *
          * M.W.SCHMIDT, K.K.BALDRIDGE, J.A.BOATZ, S.T.ELBERT, *
          *   M.S.GORDON, J.H.JENSEN, S.KOSEKI, N.MATSUNAGA,   *
          *          K.A.NGUYEN, S.J.SU, T.L.WINDUS,           *
          *       TOGETHER WITH M.DUPUIS, J.A.MONTGOMERY       *
          *         J.COMPUT.CHEM.  14, 1347-1363(1993)        *
          **************** 64 BIT LINUX VERSION ****************

  SINCE 1993, STUDENTS AND POSTDOCS WORKING AT IOWA STATE UNIVERSITY
  AND ALSO IN THEIR VARIOUS JOBS AFTER LEAVING ISU HAVE MADE IMPORTANT
  CONTRIBUTIONS TO THE CODE:
     IVANA ADAMOVIC, CHRISTINE AIKENS, YURI ALEXEEV, POOJA ARORA,
     ANDREY ASADCHEV, ROB BELL, PRADIPTA BANDYOPADHYAY, JONATHAN BENTZ,
     BRETT BODE, KURT BRORSEN, CALEB CARLIN, GALINA CHABAN, WEI CHEN,
     CHEOL HO CHOI, PAUL DAY, ALBERT DEFUSCO, NUWAN DESILVA, TIM DUDLEY,
     DMITRI FEDOROV, GRAHAM FLETCHER, MARK FREITAG, KURT GLAESEMANN,
     DAN KEMP, GRANT MERRILL, NORIYUKI MINEZAWA, JONATHAN MULLIN,
     TAKESHI NAGATA, SEAN NEDD, HEATHER NETZLOFF, BOSILJKA NJEGIC, RYAN OLSON,
     MIKE PAK, SPENCER PRUITT, LUKE ROSKOP, JIM SHOEMAKER, LYUDMILA SLIPCHENKO,
     TONY SMITH, SAROM SOK LEANG, JIE SONG, TETSUYA TAKETSUGU, SIMON WEBB,
     PENG XU, SOOHAENG YOO, FEDERICO ZAHARIEV

  ADDITIONAL CODE HAS BEEN PROVIDED BY COLLABORATORS IN OTHER GROUPS:
     IOWA STATE UNIVERSITY:
          JOE IVANIC, AARON WEST, LAIMUTIS BYTAUTAS, KLAUS RUEDENBERG
     UNIVERSITY OF TOKYO: KIMIHIKO HIRAO, TAKAHITO NAKAJIMA,
          TAKAO TSUNEDA, MUNEAKI KAMIYA, SUSUMU YANAGISAWA,
          KIYOSHI YAGI, MAHITO CHIBA, SEIKEN TOKURA, NAOAKI KAWAKAMI
     UNIVERSITY OF AARHUS: FRANK JENSEN
     UNIVERSITY OF IOWA: VISVALDAS KAIRYS, HUI LI
     NATIONAL INST. OF STANDARDS AND TECHNOLOGY: WALT STEVENS, DAVID GARMER
     UNIVERSITY OF PISA: BENEDETTA MENNUCCI, JACOPO TOMASI
     UNIVERSITY OF MEMPHIS: HENRY KURTZ, PRAKASHAN KORAMBATH
     UNIVERSITY OF ALBERTA: TOBY ZENG, MARIUSZ KLOBUKOWSKI
     UNIVERSITY OF NEW ENGLAND: MARK SPACKMAN
     MIE UNIVERSITY: HIROAKI UMEDA
     NAT. INST. OF ADVANCED INDUSTRIAL SCIENCE AND TECHNOLOGY: KAZUO KITAURA
     MICHIGAN STATE UNIVERSITY:
          KAROL KOWALSKI, MARTA WLOCH, JEFFREY GOUR, JESSE LUTZ,
          WEI LI, PIOTR PIECUCH
     UNIVERSITY OF SILESIA: MONIKA MUSIAL, STANISLAW KUCHARSKI
     FACULTES UNIVERSITAIRES NOTRE-DAME DE LA PAIX:
          OLIVIER QUINET, BENOIT CHAMPAGNE
     UNIVERSITY OF CALIFORNIA - SANTA BARBARA: BERNARD KIRTMAN
     INSTITUTE FOR MOLECULAR SCIENCE:
          KAZUYA ISHIMURA, MICHIO KATOUDA, AND SHIGERU NAGASE
     UNIVERSITY OF NOTRE DAME: ANNA POMOGAEVA, DAN CHIPMAN
     KYUSHU UNIVERSITY:
          HARUYUKI NAKANO,
          FENG LONG GU, JACEK KORCHOWIEC, MARCIN MAKOWSKI, AND YURIKO AOKI,
          HIROTOSHI MORI AND EISAKU MIYOSHI
     PENNSYLVANIA STATE UNIVERSITY:
          TZVETELIN IORDANOV, CHET SWALINA, JONATHAN SKONE,
          SHARON HAMMES-SCHIFFER
     WASEDA UNIVERSITY:
          MASATO KOBAYASHI, TOMOKO AKAMA, TSUGUKI TOUMA,
          TAKESHI YOSHIKAWA, YASUHIRO IKABATA, JUNJI SEINO,
          YUYA NAKAJIMA, HIROMI NAKAI
     NANJING UNIVERSITY: SHUHUA LI
     UNIVERSITY OF NEBRASKA:
          PEIFENG SU, DEJUN SI, NANDUN THELLAMUREGE, YALI WANG, HUI LI
     UNIVERSITY OF ZURICH: ROBERTO PEVERATI, KIM BALDRIDGE
     N. COPERNICUS UNIVERSITY AND JACKSON STATE UNIVERSITY:
          MARIA BARYSZ
     UNIVERSITY OF COPENHAGEN: Jimmy Kromann, CASPER STEINMANN
     TOKYO INSTITUTE OF TECHNOLOGY: HIROYA NAKATA
     NAGOYA UNIVERSITY: YOSHIO NISHIMOTO, STEPHAN IRLE
     MOSCOW STATE UNIVERSITY: VLADIMIR MIRONOV

 EXECUTION OF GAMESS BEGUN Fri Jun  2 01:30:57 2017

            ECHO OF THE FIRST FEW INPUT CARDS -
 INPUT CARD>!  open shell SCF on the 1-sigma-plus state of NH.                              
 INPUT CARD>!                                                                               
 INPUT CARD>!  Coupling constants obtained by the translation of Roothaan's                 
 INPUT CARD>!  1960 A and B coefficients into ALPHA and BETA values below.                  
 INPUT CARD>!                                                                               
 INPUT CARD>!  FINAL E= -54.8206269527 after 7 iters, RMS grad= 0.001486045                 
 INPUT CARD>!                                                                               
 INPUT CARD>!  This run takes a second on anything (11 Feb 2014)                            
 INPUT CARD>!                                                                               
 INPUT CARD> $contrl scftyp=gvb mult=1 runtyp=gradient $end                                 
 INPUT CARD> $basis  gbasis=n31 ngauss=6 ndfunc=1 npfunc=1 $end                             
 INPUT CARD> $guess  guess=moread norb=20 $end                                              
 INPUT CARD> $scf    nco=3 nseto=1 no(1)=2 npair=0 couple=.true.                            
 INPUT CARD>             f(1)=1.0, 0.5                                                      
 INPUT CARD>         alpha(1)= 2.00, 1.00, 0.00                                             
 INPUT CARD>          beta(1)=-1.00,-0.50,+0.50 $end                                        
 INPUT CARD>                                                                                
 INPUT CARD>!  Checked by obtaining the same state as an upper root during MCSCF:           
 INPUT CARD>!  GROUP=C1 generates only 3 CSFs, of which xy and xx-yy                        
 INPUT CARD>!  yield lower energy 1-delta states, and the third root                        
 INPUT CARD>!  is the xx+yy 1-sigma-plus state.  Since this is a single                     
 INPUT CARD>!  root with no CI coefficient freedom, this is actually a                      
 INPUT CARD>!  ROHF computation on this state (only MOs are optimized).                     
 INPUT CARD>!   the 3rd singlet root is the 4th root of the determinant Hamiltonian         
 INPUT CARD>x$contrl scftyp=mcscf $end                                                      
 INPUT CARD>x$det    ncore=3 nact=2 nels=2 nstate=4 wstate(1)=0,0,1 $end                    
 INPUT CARD>                                                                                
 INPUT CARD> $data                                                                          
 INPUT CARD>imidogen...open shell SCF on 1-sigma-plus state                                 
 INPUT CARD>Cnv 4                                                                           
 INPUT CARD>                                                                                
 INPUT CARD>Nitrogen   7.0                                                                  
 INPUT CARD>Hydrogen   1.0  0.0 0.0 1.0220667                                               
 INPUT CARD> $end                                                                           
 INPUT CARD>                                                                                
 INPUT CARD>--- ROHF ORBITALS --- GENERATED AT Mon Jun 24 15:22:35 1991                     
 INPUT CARD>imidogen                                                                        
 INPUT CARD>E(ROHF)=      -54.9557018114, E(NUC)=    3.6242651724,    9 ITERS               
 INPUT CARD> $VEC                                                                           
 INPUT CARD> 1  1 9.96077138E-01 2.15951275E-02 0.00000000E+00 0.00000000E+00 2.10155399E-03
 INPUT CARD> 1  2-2.80821528E-03 0.00000000E+00 0.00000000E+00-4.29514776E-04-3.49522507E-03
 INPUT CARD> 1  3-3.49522507E-03-2.60746060E-03 0.00000000E+00 0.00000000E+00 0.00000000E+00
 INPUT CARD> 1  4-7.28437229E-04 7.55714736E-04 0.00000000E+00 0.00000000E+00 7.64146656E-04
 INPUT CARD> 2  1-1.79901189E-01 4.07051094E-01-0.00000000E+00-0.00000000E+00 2.12339973E-01
 INPUT CARD> 2  2 3.72385097E-01-0.00000000E+00-0.00000000E+00 1.08659099E-01-8.20483241E-03
 INPUT CARD> 2  3-8.20483241E-03 2.38508464E-02-0.00000000E+00-0.00000000E+00-0.00000000E+00
 INPUT CARD> 2  4 2.55010855E-01 8.04597837E-02-0.00000000E+00-0.00000000E+00-2.46594820E-02
 INPUT CARD> 3  1-1.24960716E-01 2.77333652E-01-0.00000000E+00-0.00000000E+00-4.65767412E-01
 INPUT CARD> 3  2 4.83202897E-01-0.00000000E+00-0.00000000E+00-2.85191582E-01 6.05703231E-03
 INPUT CARD> 3  3 6.05703231E-03-4.17977179E-02-0.00000000E+00-0.00000000E+00-0.00000000E+00
    1000000 WORDS OF MEMORY AVAILABLE

     BASIS OPTIONS
     -------------
     GBASIS=N31          IGAUSS=       6      POLAR=POPN31  
     NDFUNC=       1     NFFUNC=       0     DIFFSP=       F
     NPFUNC=       1      DIFFS=       F     BASNAM=        


     RUN TITLE
     ---------
 imidogen...open shell SCF on 1-sigma-plus state                                 

 THE POINT GROUP OF THE MOLECULE IS CNV     
 THE ORDER OF THE PRINCIPAL AXIS IS     4

 ATOM      ATOMIC                      COORDINATES (BOHR)
           CHARGE         X                   Y                   Z
 NITROGEN    7.0     0.0000000000        0.0000000000        0.0000000000
 HYDROGEN    1.0     0.0000000000        0.0000000000        1.9314260042

          INTERNUCLEAR DISTANCES (ANGS.)
          ------------------------------

                1 NITR       2 HYDR  

   1 NITR    0.0000000    1.0220667 *
   2 HYDR    1.0220667 *  0.0000000  

  * ... LESS THAN  3.000


     ATOMIC BASIS SET
     ----------------
 THE CONTRACTED PRIMITIVE FUNCTIONS HAVE BEEN UNNORMALIZED
 THE CONTRACTED BASIS FUNCTIONS ARE NOW NORMALIZED TO UNITY

  SHELL TYPE  PRIMITIVE        EXPONENT          CONTRACTION COEFFICIENT(S)

 NITROGEN  

      1   S       1          4173.5114600    0.001834772160
      1   S       2           627.4579110    0.013994627002
      1   S       3           142.9020930    0.068586551812
      1   S       4            40.2343293    0.232240873040
      1   S       5            12.8202129    0.469069948082
      1   S       6             4.3904370    0.360455199063

      2   L       7            11.6263619   -0.114961181702    0.067579743878
      2   L       8             2.7162798   -0.169117478561    0.323907295893
      2   L       9             0.7722184    1.145851947027    0.740895139755

      3   L      10             0.2120315    1.000000000000    1.000000000000

      4   D      11             0.8000000    1.000000000000

 HYDROGEN  

      5   S      12            18.7311370    0.033494604338
      5   S      13             2.8253944    0.234726953484
      5   S      14             0.6401217    0.813757326146

      6   S      15             0.1612778    1.000000000000

      7   P      16             1.1000000    1.000000000000

 TOTAL NUMBER OF BASIS SET SHELLS             =    7
 NUMBER OF CARTESIAN GAUSSIAN BASIS FUNCTIONS =   20
 NUMBER OF ELECTRONS                          =    8
 CHARGE OF MOLECULE                           =    0
 SPIN MULTIPLICITY                            =    1
 NUMBER OF OCCUPIED ORBITALS (ALPHA)          =    4
 NUMBER OF OCCUPIED ORBITALS (BETA )          =    4
 TOTAL NUMBER OF ATOMS                        =    2
 THE NUCLEAR REPULSION ENERGY IS        3.6242651724

 THIS MOLECULE IS RECOGNIZED AS BEING LINEAR,
 ORBITAL LZ DEGENERACY TOLERANCE ETOLLZ= 1.00E-06

     $CONTRL OPTIONS
     ---------------
 SCFTYP=GVB          RUNTYP=GRADIENT     EXETYP=RUN     
 MPLEVL=       0     CITYP =NONE         CCTYP =NONE         VBTYP =NONE    
 DFTTYP=NONE         TDDFT =NONE    
 MULT  =       1     ICHARG=       0     NZVAR =       0     COORD =UNIQUE  
 PP    =NONE         RELWFN=NONE         LOCAL =NONE         NUMGRD=       F
 ISPHER=      -1     NOSYM =       0     MAXIT =      30     UNITS =ANGS    
 PLTORB=       F     MOLPLT=       F     AIMPAC=       F     FRIEND=        
 NPRINT=       7     IREST =       0     GEOM  =INPUT   
 NORMF =       0     NORMP =       0     ITOL  =      20     ICUT  =       9
 INTTYP=BEST         GRDTYP=BEST         QMTTOL= 1.0E-06

     $SYSTEM OPTIONS
     ---------------
  REPLICATED MEMORY=     1000000 WORDS (ON EVERY NODE).
 DISTRIBUTED MEMDDI=           0 MILLION WORDS IN AGGREGATE,
 MEMDDI DISTRIBUTED OVER   1 PROCESSORS IS           0 WORDS/PROCESSOR.
 TOTAL MEMORY REQUESTED ON EACH PROCESSOR=     1000000 WORDS.
 TIMLIM=      525600.00 MINUTES, OR     365.0 DAYS.
 PARALL= F  BALTYP=  DLB     KDIAG=    0  COREFL= F
 MXSEQ2=     300 MXSEQ3=     150  mem10=         0

          ----------------
          PROPERTIES INPUT
          ----------------

     MOMENTS            FIELD           POTENTIAL          DENSITY
 IEMOM =       1   IEFLD =       0   IEPOT =       0   IEDEN =       0
 WHERE =COMASS     WHERE =NUCLEI     WHERE =NUCLEI     WHERE =NUCLEI  
 OUTPUT=BOTH       OUTPUT=BOTH       OUTPUT=BOTH       OUTPUT=BOTH    
 IEMINT=       0   IEFINT=       0                     IEDINT=       0
                                                       MORB  =       0
          EXTRAPOLATION IN EFFECT
          DIIS IN EFFECT
 ORBITAL PRINTING OPTION: NPREO=     1    20     2     1

          *************************
          ROHF-GVB INPUT PARAMETERS
          *************************

          NORB   =    5          NCO    =    3
          NPAIR  =    0          NSETO  =    1
          NO     =    2
          OPEN SHELL ORBITALS
          SET     1 HAS ORBS    4    5

          ----------------------------
          ROHF-GVB COUPLING PARAMETERS
          ----------------------------

          F VECTOR (OCCUPANCIES)
    1   1.0000000000
    2   0.5000000000
          ALPHA COUPLING COEFFICEINTS

             1           2

    1    2.0000000
    2    1.0000000   0.0000000
           BETA COUPLING COEFFICIENTS

             1           2

    1   -1.0000000
    2   -0.5000000   0.5000000

     -------------------------------
     INTEGRAL TRANSFORMATION OPTIONS
     -------------------------------
     NWORD  =            0
     CUTOFF = 1.0E-09     MPTRAN =       0
     DIRTRF =       F     AOINTS =DUP     

          ----------------------
          INTEGRAL INPUT OPTIONS
          ----------------------
 NOPK  =       1 NORDER=       0 SCHWRZ=       F

     ------------------------------------------
     THE POINT GROUP IS CNV, NAXIS= 4, ORDER= 8
     ------------------------------------------

     DIMENSIONS OF THE SYMMETRY SUBSPACES ARE
 A1  =   10     A2  =    0     B1  =    1     B2  =    1     E   =    4

 ..... DONE SETTING UP THE RUN .....
 STEP CPU TIME =     0.01 TOTAL CPU TIME =        0.0 (    0.0 MIN)
 TOTAL WALL CLOCK TIME=        0.0 SECONDS, CPU UTILIZATION IS 100.00%

                    --------------------------------
                    SINGLE POINT ENERGY AND GRADIENT
                    --------------------------------

          ********************
          1 ELECTRON INTEGRALS
          ********************
 ...... END OF ONE-ELECTRON INTEGRALS ......
 STEP CPU TIME =     0.00 TOTAL CPU TIME =        0.0 (    0.0 MIN)
 TOTAL WALL CLOCK TIME=        0.0 SECONDS, CPU UTILIZATION IS 100.00%

          -------------
          GUESS OPTIONS
          -------------
          GUESS =MOREAD            NORB  =      20          NORDER=       0
          MIX   =       F          PRTMO =       F          PUNMO =       F
          TOLZ  = 1.0E-08          TOLE  = 1.0E-05
          SYMDEN=       F          PURIFY=       F

 INITIAL GUESS ORBITALS GENERATED BY MOREAD   ROUTINE.

 SYMMETRIES FOR INITIAL GUESS ORBITALS FOLLOW.   BOTH SET(S).
     5 ORBITALS ARE OCCUPIED (    1 CORE ORBITALS).
     1=A1       2=A1       3=A1       4=E        5=E        6=A1       7=E   
     8=E        9=A1      10=A1      11=A1      12=E       13=E       14=B1  
    15=B2      16=A1      17=E       18=E       19=A1      20=A1  
 ...... END OF INITIAL ORBITAL SELECTION ......
 STEP CPU TIME =     0.00 TOTAL CPU TIME =        0.0 (    0.0 MIN)
 TOTAL WALL CLOCK TIME=        0.0 SECONDS, CPU UTILIZATION IS  50.00%

                    ----------------------
                    AO INTEGRAL TECHNOLOGY
                    ----------------------
     S,P,L SHELL ROTATED AXIS INTEGRALS, REPROGRAMMED BY
        KAZUYA ISHIMURA (IMS) AND JOSE SIERRA (SYNSTAR).
     S,P,D,L SHELL ROTATED AXIS INTEGRALS PROGRAMMED BY
        KAZUYA ISHIMURA (INSTITUTE FOR MOLECULAR SCIENCE).
     S,P,D,F,G SHELL TO TOTAL QUARTET ANGULAR MOMENTUM SUM 5,
        ERIC PROGRAM BY GRAHAM FLETCHER (ELORET AND NASA ADVANCED
        SUPERCOMPUTING DIVISION, AMES RESEARCH CENTER).
     S,P,D,F,G,L SHELL GENERAL RYS QUADRATURE PROGRAMMED BY
        MICHEL DUPUIS (PACIFIC NORTHWEST NATIONAL LABORATORY).

          --------------------
          2 ELECTRON INTEGRALS
          --------------------

 THE -PK- OPTION IS OFF, THE INTEGRALS ARE NOT IN SUPERMATRIX FORM.
 STORING   15000 INTEGRALS/RECORD ON DISK, USING 12 BYTES/INTEGRAL.
 TWO ELECTRON INTEGRAL EVALUATION REQUIRES   90424 WORDS OF MEMORY.
 II,JST,KST,LST =  1  1  1  1 NREC =         1 INTLOC =    1
 II,JST,KST,LST =  2  1  1  1 NREC =         1 INTLOC =    2
 II,JST,KST,LST =  3  1  1  1 NREC =         1 INTLOC =   34
 II,JST,KST,LST =  4  1  1  1 NREC =         1 INTLOC =  214
 II,JST,KST,LST =  5  1  1  1 NREC =         1 INTLOC = 1189
 II,JST,KST,LST =  6  1  1  1 NREC =         1 INTLOC = 1867
 II,JST,KST,LST =  7  1  1  1 NREC =         1 INTLOC = 2713
 TOTAL NUMBER OF NONZERO TWO-ELECTRON INTEGRALS =                5596
          1 INTEGRAL RECORDS WERE STORED ON DISK FILE  8.
  ...... END OF TWO-ELECTRON INTEGRALS .....
 STEP CPU TIME =     0.01 TOTAL CPU TIME =        0.0 (    0.0 MIN)
 TOTAL WALL CLOCK TIME=        0.0 SECONDS, CPU UTILIZATION IS  66.67%

          ------------------------
          ROHF-GVB SCF CALCULATION
          ------------------------
 GVB STEP WILL USE    124318 WORDS OF MEMORY.

     RSTRCT FORCED TRUE BY THE PRESENCE OF DEGENERATE OPEN SHELLS.

     MAXIT=  30   NPUNCH= 2   SQCDF TOL=1.0000E-05
     NUCLEAR ENERGY=        3.6242651724
     EXTRAP=T   DAMP=F   SHIFT=F   RSTRCT=T   DIIS=T  SOSCF=F

 ITER EX     TOTAL ENERGY       E CHANGE        SQCDF       DIIS ERROR
          * * *   INITIATING DIIS PROCEDURE   * * *
   0  0      -54.817394042   -54.817394042   0.048829008   0.028696944
   1  1      -54.820255126    -0.002861084   0.010194767   0.008324505
   2  2      -54.820579475    -0.000324349   0.006180998   0.003465519
   3  3      -54.820625926    -0.000046452   0.000831070   0.000285240
   4  4      -54.820626923    -0.000000997   0.000139020   0.000048965
   5  5      -54.820626952    -0.000000029   0.000016385   0.000006343
   6  6      -54.820626953    -0.000000000   0.000001086   0.000000525
   7  7      -54.820626953    -0.000000000   0.000000060   0.000000045

          -----------------
          DENSITY CONVERGED
          -----------------

 FINAL GVB ENERGY IS      -54.8206269527 AFTER   7 ITERATIONS

          ----------------------------
          SCF STATISTICS PER ITERATION
          ----------------------------
          NUMBER OF INTEGRAL PASSES       1
          FOCK FORMATION TIME         0.000
          GEMINAL OPT TIME            0.000
          MIXORB  OPT TIME            0.001
          OCBSE   OPT TIME            0.000

     THE MAXIMUM LAGRANGIAN ASYMMETRY IS 1.3877791E-17

 LZ VALUE ANALYSIS FOR THE MOS
 ----------------------------------------
 MO     1 (    1) HAS LZ(WEIGHT)= 0.00(100.0%) 
 MO     2 (    2) HAS LZ(WEIGHT)= 0.00(100.0%) 
 MO     3 (    3) HAS LZ(WEIGHT)= 0.00(100.0%) 
 MO     4 (    4) HAS LZ(WEIGHT)=-1.00( 50.0%)  1.00( 50.0%) 
 MO     5 (    4) HAS LZ(WEIGHT)=-1.00( 50.0%)  1.00( 50.0%) 
 MO     6 (    5) HAS LZ(WEIGHT)= 0.00(100.0%) 
 MO     7 (    6) HAS LZ(WEIGHT)= 0.00(100.0%) 
 MO     8 (    7) HAS LZ(WEIGHT)=-1.00( 50.0%)  1.00( 50.0%) 
 MO     9 (    7) HAS LZ(WEIGHT)=-1.00( 50.0%)  1.00( 50.0%) 
 MO    10 (    8) HAS LZ(WEIGHT)= 0.00(100.0%) 
 MO    11 (    9) HAS LZ(WEIGHT)= 0.00(100.0%) 
 MO    12 (   10) HAS LZ(WEIGHT)=-1.00( 50.0%)  1.00( 50.0%) 
 MO    13 (   10) HAS LZ(WEIGHT)=-1.00( 50.0%)  1.00( 50.0%) 
 MO    14 (   11) HAS LZ(WEIGHT)=-2.00( 50.0%)  2.00( 50.0%) 
 MO    15 (   11) HAS LZ(WEIGHT)=-2.00( 50.0%)  2.00( 50.0%) 
 MO    16 (   12) HAS LZ(WEIGHT)= 0.00(100.0%) 
 MO    17 (   13) HAS LZ(WEIGHT)=-1.00( 50.0%)  1.00( 50.0%) 
 MO    18 (   13) HAS LZ(WEIGHT)=-1.00( 50.0%)  1.00( 50.0%) 
 MO    19 (   14) HAS LZ(WEIGHT)= 0.00(100.0%) 
 MO    20 (   15) HAS LZ(WEIGHT)= 0.00(100.0%) 

          ------------
          EIGENVECTORS
          ------------

                      1          2          3          4          5
                  -15.6512    -1.0585    -0.5609    -0.2010    -0.2010
                     A1         A1         A1         E          E   
    1  N  1  S    0.995310  -0.205025   0.088535   0.000000   0.000000
    2  N  1  S    0.023095   0.459138  -0.194989   0.000000   0.000000
    3  N  1  X    0.000000   0.000000  -0.000000   0.616556   0.133797
    4  N  1  Y    0.000000   0.000000  -0.000000  -0.133797   0.616556
    5  N  1  Z    0.001826   0.119795   0.508780   0.000000   0.000000
    6  N  1  S   -0.000678   0.458928  -0.391753   0.000000   0.000000
    7  N  1  X    0.000000   0.000000  -0.000000   0.496467   0.107737
    8  N  1  Y    0.000000   0.000000  -0.000000  -0.107737   0.496467
    9  N  1  Z   -0.000689   0.052283   0.297795   0.000000   0.000000
   10  N  1 XX   -0.003391  -0.007798  -0.007630   0.000000   0.000000
   11  N  1 YY   -0.003391  -0.007798  -0.007630   0.000000   0.000000
   12  N  1 ZZ   -0.002422   0.014815   0.046154   0.000000   0.000000
   13  N  1 XY    0.000000   0.000000  -0.000000   0.000000   0.000000
   14  N  1 XZ    0.000000   0.000000  -0.000000   0.022141   0.004805
   15  N  1 YZ    0.000000   0.000000  -0.000000  -0.004805   0.022141
   16  H  2  S   -0.000378   0.207150   0.256756   0.000000   0.000000
   17  H  2  S    0.000631   0.036389   0.198701   0.000000   0.000000
   18  H  2  X    0.000000   0.000000  -0.000000   0.022023   0.004779
   19  H  2  Y    0.000000   0.000000  -0.000000  -0.004779   0.022023
   20  H  2  Z    0.000704  -0.023601  -0.008181   0.000000   0.000000

                      6          7          8          9         10
                    0.2453     0.9139     0.9361     0.9361     0.9698
                     A1         A1         E          E          A1  
    1  N  1  S    0.077347   0.005628   0.000000   0.000000  -0.051466
    2  N  1  S   -0.105598  -0.736329   0.000000   0.000000  -0.411776
    3  N  1  X    0.000000   0.000000  -0.635882  -0.750516   0.000000
    4  N  1  Y    0.000000   0.000000  -0.750516   0.635882   0.000000
    5  N  1  Z   -0.293783   0.708734   0.000000   0.000000   0.045261
    6  N  1  S   -1.187592   1.049629   0.000000   0.000000   1.076797
    7  N  1  X    0.000000   0.000000   0.682512   0.805553   0.000000
    8  N  1  Y    0.000000   0.000000   0.805553  -0.682512   0.000000
    9  N  1  Z   -0.841751  -0.913744   0.000000   0.000000   0.730416
   10  N  1 XX    0.024447  -0.187306   0.000000   0.000000  -0.014572
   11  N  1 YY    0.024447  -0.187306   0.000000   0.000000  -0.014572
   12  N  1 ZZ   -0.010434  -0.214615   0.000000   0.000000  -0.369990
   13  N  1 XY    0.000000   0.000000   0.000000   0.000000   0.000000
   14  N  1 XZ    0.000000   0.000000  -0.002337  -0.002759   0.000000
   15  N  1 YZ    0.000000   0.000000  -0.002759   0.002337   0.000000
   16  H  2  S    0.045852   0.179478   0.000000   0.000000  -1.074057
   17  H  2  S    1.900933   0.010190   0.000000   0.000000   0.134127
   18  H  2  X    0.000000   0.000000  -0.012058  -0.014231   0.000000
   19  H  2  Y    0.000000   0.000000  -0.014231   0.012058   0.000000
   20  H  2  Z   -0.009485  -0.091575   0.000000   0.000000  -0.088608

                     11         12         13         14         15
                    1.1411     1.7830     1.7830     2.0113     2.0113
                     A1         E          E          ?B2        ?B1 
    1  N  1  S   -0.014419   0.000000  -0.000000   0.000000   0.000000
    2  N  1  S   -1.127335   0.000000  -0.000000   0.000000   0.000000
    3  N  1  X    0.000000   0.029727  -0.042923   0.000000   0.000000
    4  N  1  Y    0.000000  -0.042923  -0.029727   0.000000   0.000000
    5  N  1  Z   -0.638762   0.000000  -0.000000   0.000000   0.000000
    6  N  1  S    2.544692   0.000000  -0.000000   0.000000   0.000000
    7  N  1  X    0.000000   0.060658  -0.087586   0.000000   0.000000
    8  N  1  Y    0.000000  -0.087586  -0.060658   0.000000   0.000000
    9  N  1  Z    1.283734   0.000000  -0.000000   0.000000   0.000000
   10  N  1 XX   -0.243442   0.000000  -0.000000  -0.060667   0.863898
   11  N  1 YY   -0.243442   0.000000  -0.000000   0.060667  -0.863898
   12  N  1 ZZ   -0.067630   0.000000  -0.000000   0.000000   0.000000
   13  N  1 XY    0.000000   0.000000  -0.000000   0.997543   0.070053
   14  N  1 XZ    0.000000  -0.423484   0.611487   0.000000   0.000000
   15  N  1 YZ    0.000000   0.611487   0.423484   0.000000   0.000000
   16  H  2  S    0.353475   0.000000  -0.000000   0.000000   0.000000
   17  H  2  S   -1.787738   0.000000  -0.000000   0.000000   0.000000
   18  H  2  X    0.000000  -0.266081   0.384207   0.000000   0.000000
   19  H  2  Y    0.000000   0.384207   0.266081   0.000000   0.000000
   20  H  2  Z    0.185878   0.000000  -0.000000   0.000000   0.000000

                     16         17         18         19         20
                    2.4977     2.8453     2.8453     3.6123     3.8640
                     A1         E          E          A1         A1  
    1  N  1  S   -0.037958   0.000000   0.000000  -0.254844   0.329688
    2  N  1  S   -0.195956   0.000000   0.000000   0.859796  -1.123978
    3  N  1  X    0.000000  -0.037500   0.020604   0.000000   0.000000
    4  N  1  Y    0.000000  -0.020604  -0.037500   0.000000   0.000000
    5  N  1  Z   -0.226971   0.000000   0.000000   0.531657   0.561719
    6  N  1  S    0.592476   0.000000   0.000000   1.793967  -1.145042
    7  N  1  X    0.000000  -0.188888   0.103782   0.000000   0.000000
    8  N  1  Y    0.000000  -0.103782  -0.188888   0.000000   0.000000
    9  N  1  Z    0.500834   0.000000   0.000000   0.713393   0.210119
   10  N  1 XX   -0.556743   0.000000   0.000000  -1.052840   0.903898
   11  N  1 YY   -0.556743   0.000000   0.000000  -1.052840   0.903898
   12  N  1 ZZ    0.770142   0.000000   0.000000   0.203103   1.946627
   13  N  1 XY    0.000000   0.000000   0.000000   0.000000   0.000000
   14  N  1 XZ    0.000000  -0.673332   0.369954   0.000000   0.000000
   15  N  1 YZ    0.000000  -0.369954  -0.673332   0.000000   0.000000
   16  H  2  S   -0.711655   0.000000   0.000000  -0.804226  -0.917240
   17  H  2  S   -0.002374   0.000000   0.000000  -0.855218   0.098057
   18  H  2  X    0.000000   0.874310  -0.480378   0.000000   0.000000
   19  H  2  Y    0.000000   0.480378   0.874310   0.000000   0.000000
   20  H  2  Z   -0.417420   0.000000   0.000000   1.136974   0.928114

 ... END OF ROHF-GVB SCF CALCULATION ...
 STEP CPU TIME =     0.01 TOTAL CPU TIME =        0.0 (    0.0 MIN)
 TOTAL WALL CLOCK TIME=        0.0 SECONDS, CPU UTILIZATION IS  75.00%

     ----------------------------------------------------------------
     PROPERTY VALUES FOR THE GVB   SELF-CONSISTENT FIELD WAVEFUNCTION
     ----------------------------------------------------------------

          -----------------
          ENERGY COMPONENTS
          -----------------

         WAVEFUNCTION NORMALIZATION =       1.0000000000

                ONE ELECTRON ENERGY =     -81.5447434377
                TWO ELECTRON ENERGY =      23.0998513126
           NUCLEAR REPULSION ENERGY =       3.6242651724
                                      ------------------
                       TOTAL ENERGY =     -54.8206269527

 ELECTRON-ELECTRON POTENTIAL ENERGY =      23.0998513126
  NUCLEUS-ELECTRON POTENTIAL ENERGY =    -136.2408435762
   NUCLEUS-NUCLEUS POTENTIAL ENERGY =       3.6242651724
                                      ------------------
             TOTAL POTENTIAL ENERGY =    -109.5167270912
               TOTAL KINETIC ENERGY =      54.6961001385
                 VIRIAL RATIO (V/T) =       2.0022767037

          ---------------------------------------
          MULLIKEN AND LOWDIN POPULATION ANALYSES
          ---------------------------------------

     ATOMIC MULLIKEN POPULATION IN EACH MOLECULAR ORBITAL

                      1          2          3          4          5

                  2.000000   2.000000   2.000000   1.000000   1.000000

    1             2.000000   1.684275   1.608673   0.994509   0.994509
    2             0.000000   0.315725   0.391327   0.005491   0.005491

               ----- POPULATIONS IN EACH AO -----
                             MULLIKEN      LOWDIN
              1  N  1  S      1.99647     1.98196
              2  N  1  S      0.90664     0.62919
              3  N  1  X      0.56655     0.55318
              4  N  1  Y      0.56655     0.55318
              5  N  1  Z      0.85674     0.77720
              6  N  1  S      1.02536     0.57908
              7  N  1  X      0.42727     0.43143
              8  N  1  Y      0.42727     0.43143
              9  N  1  Z      0.50956     0.61431
             10  N  1 XX     -0.00619     0.20047
             11  N  1 YY     -0.00619     0.20047
             12  N  1 ZZ      0.01056     0.21698
             13  N  1 XY      0.00000     0.00000
             14  N  1 XZ      0.00069     0.00035
             15  N  1 YZ      0.00069     0.00035
             16  H  2  S      0.52168     0.47812
             17  H  2  S      0.16911     0.28222
             18  H  2  X      0.00549     0.01504
             19  H  2  Y      0.00549     0.01504
             20  H  2  Z      0.01626     0.04001

          ----- MULLIKEN ATOMIC OVERLAP POPULATIONS -----
          (OFF-DIAGONAL ELEMENTS NEED TO BE MULTIPLIED BY 2)

             1           2

    1    7.0196658
    2    0.2623004   0.4557335

          TOTAL MULLIKEN AND LOWDIN ATOMIC POPULATIONS
       ATOM         MULL.POP.    CHARGE          LOW.POP.     CHARGE
    1 NITROGEN      7.281966   -0.281966         7.169568   -0.169568
    2 HYDROGEN      0.718034    0.281966         0.830432    0.169568

          ---------------------
          ELECTROSTATIC MOMENTS
          ---------------------

 POINT   1           X           Y           Z (BOHR)    CHARGE
                 0.000000    0.000000    0.129675       -0.00 (A.U.)
         DX          DY          DZ         /D/  (DEBYE)
     0.000000    0.000000    1.797502    1.797502
 ...... END OF PROPERTY EVALUATION ......
 STEP CPU TIME =     0.00 TOTAL CPU TIME =        0.0 (    0.0 MIN)
 TOTAL WALL CLOCK TIME=        0.0 SECONDS, CPU UTILIZATION IS  75.00%

 BEGINNING ONE ELECTRON GRADIENT...
 ..... END OF 1-ELECTRON GRADIENT ......
 STEP CPU TIME =     0.00 TOTAL CPU TIME =        0.0 (    0.0 MIN)
 TOTAL WALL CLOCK TIME=        0.0 SECONDS, CPU UTILIZATION IS  75.00%

          ----------------------
          GRADIENT OF THE ENERGY
          ----------------------

 THE MINIMUM MEMORY REQUIRED FOR THIS RUN IS      70500 WORDS.
 USING     997244 WORDS FOR 2E- DERIVATIVE INTEGRAL CONTRIBUTIONS.
 THE COARSE/FINE SCHWARZ SCREENINGS SKIPPED            0/           0 BLOCKS.
 THE NUMBER OF GRADIENT INTEGRAL BLOCKS COMPUTED WAS       330
 ...... END OF 2-ELECTRON GRADIENT ......
 STEP CPU TIME =     0.00 TOTAL CPU TIME =        0.0 (    0.0 MIN)
 TOTAL WALL CLOCK TIME=        0.0 SECONDS, CPU UTILIZATION IS  60.00%

                         ----------------------
                         GRADIENT OF THE ENERGY
                         ----------------------

 UNITS ARE HARTREE/BOHR    E'X               E'Y               E'Z 
    1 NITROGEN         0.000000000       0.000000000      -0.002573906
    2 HYDROGEN         0.000000000       0.000000000       0.002573906

                   MAXIMUM GRADIENT =    0.002573906
                       RMS GRADIENT =    0.001486045
  $VIB   
          IVIB=   0 IATOM=   0 ICOORD=   0 E=      -54.8206269527
  0.000000000E+00 0.000000000E+00-2.573905642E-03 0.000000000E+00 0.000000000E+00
  2.573905642E-03
  0.000000000E+00 0.000000000E+00 1.797501507E+00

..... END OF SINGLE POINT GRADIENT .....
 STEP CPU TIME =     0.00 TOTAL CPU TIME =        0.0 (    0.0 MIN)
 TOTAL WALL CLOCK TIME=        0.0 SECONDS, CPU UTILIZATION IS  60.00%
               997244  WORDS OF DYNAMIC MEMORY USED
 EXECUTION OF GAMESS TERMINATED NORMALLY Fri Jun  2 01:30:57 2017
 DDI: 263640 bytes (0.3 MB / 0 MWords) used by master data server.

 ----------------------------------------
 CPU timing information for all processes
 ========================================
 0: 0.39 + 0.09 = 0.49
 ----------------------------------------
 ddikick.x: exited gracefully.
unset echo
----- accounting info -----
Files used on the master node compute-0-2.local were:
-rw-rw-r-- 1 sarom sarom    7937 Jun  2 01:30 /scratch/gvb-nh-1sig.F05
-rw-rw-r-- 1 sarom sarom  180016 Jun  2 01:30 /scratch/gvb-nh-1sig.F08
-rw-rw-r-- 1 sarom sarom 1832320 Jun  2 01:30 /scratch/gvb-nh-1sig.F10
-rw-rw-r-- 1 sarom sarom    8440 Jun  2 01:30 /scratch/gvb-nh-1sig.F23
rm: cannot remove `/scratch/sarom': Is a directory
rm: cannot remove `/scratch/tmp': Is a directory
ls: No match.
ls: No match.
ls: No match.
Fri Jun  2 01:31:00 CDT 2017
0.151u 0.059s 0:03.34 5.9%	0+0k 16+384io 0pf+0w
Deleting shmid=3964928.
Deleting shmid=3997697.
Deleting shmid=4227074.
/opt/gridengine/default/spool/compute-0-2/active_jobs/23592.1/pe_hostfile compute-0-2.local
