-catch_rsh /opt/gridengine/default/spool/compute-1-7/active_jobs/35621.1/pe_hostfile
compute-1-7
The primary node assigned by SGE to this run is compute-1-7
Warning: no access to tty (Bad file descriptor).
Thus no job control in this shell.
source /home/sarom/dir.git.branch.saromleang-travis-ci/install.info
setenv GMS_PATH /home/sarom/dir.git.branch.saromleang-travis-ci
setenv GMS_BUILD_DIR /home/sarom/dir.git.branch.saromleang-travis-ci
setenv GMS_TARGET linux64
setenv GMS_FORTRAN gfortran
setenv GMS_GFORTRAN_VERNO 4.4
setenv GMS_MATHLIB mkl-so
setenv GMS_MATHLIB none
setenv GMS_MATHLIB_PATH /share/apps/intel/compilers_and_libraries_2017.1.132/linux/mkl/lib/intel64
setenv GMS_MKL_VERNO 12
setenv GMS_DDI_COMM sockets
setenv GMS_LIBCCHEM false
setenv GMS_EIGEN_PATH
setenv GMS_PHI false
setenv GMS_SHMTYPE sysv
setenv GMS_OPENMP false
unset echo
omp-exam05
/home/sarom/dir.git.branch.saromleang-travis-ci/tests/openmp/parallel
----- GAMESS execution script 'rungms' -----
This job is running on host compute-1-7.local
under operating system Linux at Wed Aug 9 19:21:26 CDT 2017
Available scratch disk space (Kbyte units) at beginning of the job is
Filesystem           1K-blocks      Used Available Use% Mounted on
/dev/sda1             16126920   8505684   6802036  56% /
GAMESS temporary binary files will be written to /scratch
GAMESS supplementary output files will be written to /home/sarom/restart
Copying input file omp-exam05.inp to your run's scratch directory...
cp /home/sarom/dir.git.branch.saromleang-travis-ci/tests/openmp/parallel/omp-exam05.inp /scratch/omp-exam05.F05
unset echo
The generated host list is
compute-1-7.local
/home/sarom/dir.git.branch.saromleang-travis-ci/ddikick.x /home/sarom/dir.git.branch.saromleang-travis-ci/gamess.00.x omp-exam05 -ddi 1 1 compute-1-7.local -scr /scratch

 Distributed Data Interface kickoff program.
 Initiating 1 compute processes on 1 nodes to run the following command:
 /home/sarom/dir.git.branch.saromleang-travis-ci/gamess.00.x omp-exam05 

          ******************************************************
          *         GAMESS VERSION = 20 APR 2017 (R1)          *
          *             FROM IOWA STATE UNIVERSITY             *
          * M.W.SCHMIDT, K.K.BALDRIDGE, J.A.BOATZ, S.T.ELBERT, *
          *   M.S.GORDON, J.H.JENSEN, S.KOSEKI, N.MATSUNAGA,   *
          *          K.A.NGUYEN, S.J.SU, T.L.WINDUS,           *
          *       TOGETHER WITH M.DUPUIS, J.A.MONTGOMERY       *
          *         J.COMPUT.CHEM.  14, 1347-1363(1993)        *
          **************** 64 BIT LINUX VERSION ****************

  SINCE 1993, STUDENTS AND POSTDOCS WORKING AT IOWA STATE UNIVERSITY
  AND ALSO IN THEIR VARIOUS JOBS AFTER LEAVING ISU HAVE MADE IMPORTANT
  CONTRIBUTIONS TO THE CODE:
     IVANA ADAMOVIC, CHRISTINE AIKENS, YURI ALEXEEV, POOJA ARORA,
     ANDREY ASADCHEV, ROB BELL, PRADIPTA BANDYOPADHYAY, JONATHAN BENTZ,
     BRETT BODE, KURT BRORSEN, CALEB CARLIN, GALINA CHABAN, WEI CHEN,
     CHEOL HO CHOI, PAUL DAY, ALBERT DEFUSCO, NUWAN DESILVA, TIM DUDLEY,
     DMITRI FEDOROV, GRAHAM FLETCHER, MARK FREITAG, KURT GLAESEMANN,
     DAN KEMP, GRANT MERRILL, NORIYUKI MINEZAWA, JONATHAN MULLIN,
     TAKESHI NAGATA, SEAN NEDD, HEATHER NETZLOFF, BOSILJKA NJEGIC, RYAN OLSON,
     MIKE PAK, SPENCER PRUITT, LUKE ROSKOP, JIM SHOEMAKER, LYUDMILA SLIPCHENKO,
     TONY SMITH, SAROM SOK LEANG, JIE SONG, TETSUYA TAKETSUGU, SIMON WEBB,
     PENG XU, SOOHAENG YOO, FEDERICO ZAHARIEV

  ADDITIONAL CODE HAS BEEN PROVIDED BY COLLABORATORS IN OTHER GROUPS:
     IOWA STATE UNIVERSITY:
          JOE IVANIC, AARON WEST, LAIMUTIS BYTAUTAS, KLAUS RUEDENBERG
     UNIVERSITY OF TOKYO: KIMIHIKO HIRAO, TAKAHITO NAKAJIMA,
          TAKAO TSUNEDA, MUNEAKI KAMIYA, SUSUMU YANAGISAWA,
          KIYOSHI YAGI, MAHITO CHIBA, SEIKEN TOKURA, NAOAKI KAWAKAMI
     UNIVERSITY OF AARHUS: FRANK JENSEN
     UNIVERSITY OF IOWA: VISVALDAS KAIRYS, HUI LI
     NATIONAL INST. OF STANDARDS AND TECHNOLOGY: WALT STEVENS, DAVID GARMER
     UNIVERSITY OF PISA: BENEDETTA MENNUCCI, JACOPO TOMASI
     UNIVERSITY OF MEMPHIS: HENRY KURTZ, PRAKASHAN KORAMBATH
     UNIVERSITY OF ALBERTA: TOBY ZENG, MARIUSZ KLOBUKOWSKI
     UNIVERSITY OF NEW ENGLAND: MARK SPACKMAN
     MIE UNIVERSITY: HIROAKI UMEDA
     NAT. INST. OF ADVANCED INDUSTRIAL SCIENCE AND TECHNOLOGY: KAZUO KITAURA
     MICHIGAN STATE UNIVERSITY:
          KAROL KOWALSKI, MARTA WLOCH, JEFFREY GOUR, JESSE LUTZ,
          WEI LI, PIOTR PIECUCH
     UNIVERSITY OF SILESIA: MONIKA MUSIAL, STANISLAW KUCHARSKI
     FACULTES UNIVERSITAIRES NOTRE-DAME DE LA PAIX:
          OLIVIER QUINET, BENOIT CHAMPAGNE
     UNIVERSITY OF CALIFORNIA - SANTA BARBARA: BERNARD KIRTMAN
     INSTITUTE FOR MOLECULAR SCIENCE:
          KAZUYA ISHIMURA, MICHIO KATOUDA, AND SHIGERU NAGASE
     UNIVERSITY OF NOTRE DAME: ANNA POMOGAEVA, DAN CHIPMAN
     KYUSHU UNIVERSITY:
          HARUYUKI NAKANO,
          FENG LONG GU, JACEK KORCHOWIEC, MARCIN MAKOWSKI, AND YURIKO AOKI,
          HIROTOSHI MORI AND EISAKU MIYOSHI
     PENNSYLVANIA STATE UNIVERSITY:
          TZVETELIN IORDANOV, CHET SWALINA, JONATHAN SKONE,
          SHARON HAMMES-SCHIFFER
     WASEDA UNIVERSITY:
          MASATO KOBAYASHI, TOMOKO AKAMA, TSUGUKI TOUMA,
          TAKESHI YOSHIKAWA, YASUHIRO IKABATA, JUNJI SEINO,
          YUYA NAKAJIMA, HIROMI NAKAI
     NANJING UNIVERSITY: SHUHUA LI
     UNIVERSITY OF NEBRASKA:
          PEIFENG SU, DEJUN SI, NANDUN THELLAMUREGE, YALI WANG, HUI LI
     UNIVERSITY OF ZURICH: ROBERTO PEVERATI, KIM BALDRIDGE
     N. COPERNICUS UNIVERSITY AND JACKSON STATE UNIVERSITY:
          MARIA BARYSZ
     UNIVERSITY OF COPENHAGEN: Jimmy Kromann, CASPER STEINMANN
     TOKYO INSTITUTE OF TECHNOLOGY: HIROYA NAKATA
     NAGOYA UNIVERSITY: YOSHIO NISHIMOTO, STEPHAN IRLE
     MOSCOW STATE UNIVERSITY: VLADIMIR MIRONOV

 EXECUTION OF GAMESS BEGUN Wed Aug  9 19:21:26 2017

            ECHO OF THE FIRST FEW INPUT CARDS -
 INPUT CARD>!                                                                               
 INPUT CARD>! 5-phe_rohf_6-31Gp.inp                                                         
 INPUT CARD>! Phenoxyl radical.                                                             
 INPUT CARD>! Hartree-Fock test for open shell system.                                      
 INPUT CARD>!                                                                               
 INPUT CARD>! Method: ROHF/6-31G*                                                           
 INPUT CARD>! Final energy: -304.8443957508 a.u.                                            
 INPUT CARD>!                                                                               
 INPUT CARD> $CONTRL                                                                        
 INPUT CARD>  SCFTYP=rohf                                                                   
 INPUT CARD>  RUNTYP=Energy                                                                 
 INPUT CARD>  icharg=0 mult=2                                                               
 INPUT CARD>  maxit=50 nprint=4 $END                                                        
 INPUT CARD> $SYSTEM TIMLIM=50 MEMORY=10000000 $END                                         
 INPUT CARD> $SCF    DIRSCF=.TRUE. CONV=1.0d-7 FDIFF=.false. $END                           
 INPUT CARD> $BASIS  GBASIS=n31 NGAUSS=6 npfunc=1 $END                                      
 INPUT CARD> $GUESS  GUESS=HUCKEL $END                                                      
 INPUT CARD> $DATA                                                                          
 INPUT CARD>Phenoxyl radical                                                                
 INPUT CARD>C1                                                                              
 INPUT CARD>OXYGEN      8.0      2.324589265         0.001016808         0.000000000        
 INPUT CARD>CARBON      6.0      0.930554120        -0.042879207         0.000000000        
 INPUT CARD>CARBON      6.0      0.281456628         1.187225928         0.000000000        
 INPUT CARD>CARBON      6.0      0.214161493        -1.236231202         0.000000000        
 INPUT CARD>CARBON      6.0     -1.110074072         1.226198616         0.000000000        
 INPUT CARD>HYDROGEN    1.0      0.872731932         2.094726696         0.000000000        
 INPUT CARD>CARBON      6.0     -1.177674673        -1.182304315         0.000000000        
 INPUT CARD>HYDROGEN    1.0      0.731762980        -2.184436924         0.000000000        
 INPUT CARD>CARBON      6.0     -1.843560426         0.041753657         0.000000000        
 INPUT CARD>HYDROGEN    1.0     -1.618415287         2.183547412         0.000000000        
 INPUT CARD>HYDROGEN    1.0     -1.742556792        -2.107485034         0.000000000        
 INPUT CARD>HYDROGEN    1.0     -2.926828871         0.071767587         0.000000000        
 INPUT CARD> $END                                                                           
   10000000 WORDS OF MEMORY AVAILABLE

     BASIS OPTIONS
     -------------
     GBASIS=N31          IGAUSS=       6      POLAR=POPN31  
     NDFUNC=       0     NFFUNC=       0     DIFFSP=       F
     NPFUNC=       1      DIFFS=       F     BASNAM=        


     RUN TITLE
     ---------
 Phenoxyl radical                                                                

 THE POINT GROUP OF THE MOLECULE IS C1      
 THE ORDER OF THE PRINCIPAL AXIS IS     0

 ATOM      ATOMIC                      COORDINATES (BOHR)
           CHARGE         X                   Y                   Z
 OXYGEN      8.0     4.3928367448        0.0019214885        0.0000000000
 CARBON      6.0     1.7584923035       -0.0810299518        0.0000000000
 CARBON      6.0     0.5318759043        2.2435316894        0.0000000000
 CARBON      6.0     0.4047065389       -2.3361382293        0.0000000000
 CARBON      6.0    -2.0977358222        2.3171793908        0.0000000000
 HYDROGEN    1.0     1.6492242122        3.9584594746        0.0000000000
 CARBON      6.0    -2.2254824346       -2.2342311895        0.0000000000
 HYDROGEN    1.0     1.3828315202       -4.1279872238        0.0000000000
 CARBON      6.0    -3.4838240469        0.0789029707        0.0000000000
 HYDROGEN    1.0    -3.0583614268        4.1263062899        0.0000000000
 HYDROGEN    1.0    -3.2929548549       -3.9825692375        0.0000000000
 HYDROGEN    1.0    -5.5309045791        0.1356210742        0.0000000000

          INTERNUCLEAR DISTANCES (ANGS.)
          ------------------------------

                1 OXYG       2 CARB       3 CARB       4 CARB       5 CARB  

   1 OXYG    0.0000000    1.3947261 *  2.3625163 *  2.4463622 *  3.6466399  
   2 CARB    1.3947261 *  0.0000000    1.3908581 *  1.3918719 *  2.4030651 *
   3 CARB    2.3625163 *  1.3908581 *  0.0000000    2.4243913 *  1.3920763 *
   4 CARB    2.4463622 *  1.3918719 *  2.4243913 *  0.0000000    2.7959185 *
   5 CARB    3.6466399    2.4030651 *  1.3920763 *  2.7959185 *  0.0000000  
   6 HYDR    2.5478443 *  2.1383878 *  1.0831270 *  3.3954375    2.1646849 *
   7 CARB    3.6967691    2.3964387 *  2.7827572 *  1.3928805 *  2.4094514 *
   8 HYDR    2.7043120 *  2.1507644 *  3.4016005    1.0802802 *  3.8761835  
   9 CARB    4.1683488    2.7754052 *  2.4140845 *  2.4222850 *  1.3931662 *
  10 HYDR    4.5067421    3.3844084    2.1452668 *  3.8798484    1.0839407 *
  11 HYDR    4.5812069    3.3775907    3.8667494    2.1419220 *  3.3931521  
  12 HYDR    5.2518947    3.8590863    3.3966665    3.4024522    2.1525123 *

                6 HYDR       7 CARB       8 HYDR       9 CARB      10 HYDR  

   1 OXYG    2.5478443 *  3.6967691    2.7043120 *  4.1683488    4.5067421  
   2 CARB    2.1383878 *  2.3964387 *  2.1507644 *  2.7754052 *  3.3844084  
   3 CARB    1.0831270 *  2.7827572 *  3.4016005    2.4140845 *  2.1452668 *
   4 CARB    3.3954375    1.3928805 *  1.0802802 *  2.4222850 *  3.8798484  
   5 CARB    2.1646849 *  2.4094514 *  3.8761835    1.3931662 *  1.0839407 *
   6 HYDR    0.0000000    3.8656305    4.2814850    3.4048410    2.4927301 *
   7 CARB    3.8656305    0.0000000    2.1564373 *  1.3934568 *  3.3945854  
   8 HYDR    4.2814850    2.1564373 *  0.0000000    3.4041468    4.9601033  
   9 CARB    3.4048410    1.3934568 *  3.4041468    0.0000000    2.1535949 *
  10 HYDR    2.4927301 *  3.3945854    4.9601033    2.1535949 *  0.0000000  
  11 HYDR    4.9495776    1.0839978 *  2.4755161 *  2.1516107 *  4.2928278  
  12 HYDR    4.3045355    2.1522632 *  4.2983431    1.0836842 *  2.4842625 *

               11 HYDR      12 HYDR  

   1 OXYG    4.5812069    5.2518947  
   2 CARB    3.3775907    3.8590863  
   3 CARB    3.8667494    3.3966665  
   4 CARB    2.1419220 *  3.4024522  
   5 CARB    3.3931521    2.1525123 *
   6 HYDR    4.9495776    4.3045355  
   7 CARB    1.0839978 *  2.1522632 *
   8 HYDR    2.4755161 *  4.2983431  
   9 CARB    2.1516107 *  1.0836842 *
  10 HYDR    4.2928278    2.4842625 *
  11 HYDR    0.0000000    2.4802505 *
  12 HYDR    2.4802505 *  0.0000000  

  * ... LESS THAN  3.000


     ATOMIC BASIS SET
     ----------------
 THE CONTRACTED PRIMITIVE FUNCTIONS HAVE BEEN UNNORMALIZED
 THE CONTRACTED BASIS FUNCTIONS ARE NOW NORMALIZED TO UNITY

  SHELL TYPE  PRIMITIVE        EXPONENT          CONTRACTION COEFFICIENT(S)

 OXYGEN    

      1   S       1          5484.6716600    0.001831074430
      1   S       2           825.2349460    0.013950172200
      1   S       3           188.0469580    0.068445078098
      1   S       4            52.9645000    0.232714335992
      1   S       5            16.8975704    0.470192897984
      1   S       6             5.7996353    0.358520852987

      2   L       7            15.5396162   -0.110777549525    0.070874268231
      2   L       8             3.5999336   -0.148026262701    0.339752839147
      2   L       9             1.0137618    1.130767015354    0.727158577316

      3   L      10             0.2700058    1.000000000000    1.000000000000

 CARBON    

      4   S      11          3047.5248800    0.001834737132
      4   S      12           457.3695180    0.014037322813
      4   S      13           103.9486850    0.068842622264
      4   S      14            29.2101553    0.232184443216
      4   S      15             9.2866630    0.467941348435
      4   S      16             3.1639270    0.362311985337

      5   L      17             7.8682723   -0.119332419775    0.068999066591
      5   L      18             1.8812885   -0.160854151696    0.316423960957
      5   L      19             0.5442493    1.143456437840    0.744308290898

      6   L      20             0.1687145    1.000000000000    1.000000000000

 CARBON    

      7   S      21          3047.5248800    0.001834737132
      7   S      22           457.3695180    0.014037322813
      7   S      23           103.9486850    0.068842622264
      7   S      24            29.2101553    0.232184443216
      7   S      25             9.2866630    0.467941348435
      7   S      26             3.1639270    0.362311985337

      8   L      27             7.8682723   -0.119332419775    0.068999066591
      8   L      28             1.8812885   -0.160854151696    0.316423960957
      8   L      29             0.5442493    1.143456437840    0.744308290898

      9   L      30             0.1687145    1.000000000000    1.000000000000

 CARBON    

     10   S      31          3047.5248800    0.001834737132
     10   S      32           457.3695180    0.014037322813
     10   S      33           103.9486850    0.068842622264
     10   S      34            29.2101553    0.232184443216
     10   S      35             9.2866630    0.467941348435
     10   S      36             3.1639270    0.362311985337

     11   L      37             7.8682723   -0.119332419775    0.068999066591
     11   L      38             1.8812885   -0.160854151696    0.316423960957
     11   L      39             0.5442493    1.143456437840    0.744308290898

     12   L      40             0.1687145    1.000000000000    1.000000000000

 CARBON    

     13   S      41          3047.5248800    0.001834737132
     13   S      42           457.3695180    0.014037322813
     13   S      43           103.9486850    0.068842622264
     13   S      44            29.2101553    0.232184443216
     13   S      45             9.2866630    0.467941348435
     13   S      46             3.1639270    0.362311985337

     14   L      47             7.8682723   -0.119332419775    0.068999066591
     14   L      48             1.8812885   -0.160854151696    0.316423960957
     14   L      49             0.5442493    1.143456437840    0.744308290898

     15   L      50             0.1687145    1.000000000000    1.000000000000

 HYDROGEN  

     16   S      51            18.7311370    0.033494604338
     16   S      52             2.8253944    0.234726953484
     16   S      53             0.6401217    0.813757326146

     17   S      54             0.1612778    1.000000000000

     18   P      55             1.1000000    1.000000000000

 CARBON    

     19   S      56          3047.5248800    0.001834737132
     19   S      57           457.3695180    0.014037322813
     19   S      58           103.9486850    0.068842622264
     19   S      59            29.2101553    0.232184443216
     19   S      60             9.2866630    0.467941348435
     19   S      61             3.1639270    0.362311985337

     20   L      62             7.8682723   -0.119332419775    0.068999066591
     20   L      63             1.8812885   -0.160854151696    0.316423960957
     20   L      64             0.5442493    1.143456437840    0.744308290898

     21   L      65             0.1687145    1.000000000000    1.000000000000

 HYDROGEN  

     22   S      66            18.7311370    0.033494604338
     22   S      67             2.8253944    0.234726953484
     22   S      68             0.6401217    0.813757326146

     23   S      69             0.1612778    1.000000000000

     24   P      70             1.1000000    1.000000000000

 CARBON    

     25   S      71          3047.5248800    0.001834737132
     25   S      72           457.3695180    0.014037322813
     25   S      73           103.9486850    0.068842622264
     25   S      74            29.2101553    0.232184443216
     25   S      75             9.2866630    0.467941348435
     25   S      76             3.1639270    0.362311985337

     26   L      77             7.8682723   -0.119332419775    0.068999066591
     26   L      78             1.8812885   -0.160854151696    0.316423960957
     26   L      79             0.5442493    1.143456437840    0.744308290898

     27   L      80             0.1687145    1.000000000000    1.000000000000

 HYDROGEN  

     28   S      81            18.7311370    0.033494604338
     28   S      82             2.8253944    0.234726953484
     28   S      83             0.6401217    0.813757326146

     29   S      84             0.1612778    1.000000000000

     30   P      85             1.1000000    1.000000000000

 HYDROGEN  

     31   S      86            18.7311370    0.033494604338
     31   S      87             2.8253944    0.234726953484
     31   S      88             0.6401217    0.813757326146

     32   S      89             0.1612778    1.000000000000

     33   P      90             1.1000000    1.000000000000

 HYDROGEN  

     34   S      91            18.7311370    0.033494604338
     34   S      92             2.8253944    0.234726953484
     34   S      93             0.6401217    0.813757326146

     35   S      94             0.1612778    1.000000000000

     36   P      95             1.1000000    1.000000000000

 TOTAL NUMBER OF BASIS SET SHELLS             =   36
 NUMBER OF CARTESIAN GAUSSIAN BASIS FUNCTIONS =   88
 NUMBER OF ELECTRONS                          =   49
 CHARGE OF MOLECULE                           =    0
 SPIN MULTIPLICITY                            =    2
 NUMBER OF OCCUPIED ORBITALS (ALPHA)          =   25
 NUMBER OF OCCUPIED ORBITALS (BETA )          =   24
 TOTAL NUMBER OF ATOMS                        =   12
 THE NUCLEAR REPULSION ENERGY IS      259.6186244140

     $CONTRL OPTIONS
     ---------------
 SCFTYP=ROHF         RUNTYP=ENERGY       EXETYP=RUN     
 MPLEVL=       0     CITYP =NONE         CCTYP =NONE         VBTYP =NONE    
 DFTTYP=NONE         TDDFT =NONE    
 MULT  =       2     ICHARG=       0     NZVAR =       0     COORD =UNIQUE  
 PP    =NONE         RELWFN=NONE         LOCAL =NONE         NUMGRD=       F
 ISPHER=      -1     NOSYM =       0     MAXIT =      50     UNITS =ANGS    
 PLTORB=       F     MOLPLT=       F     AIMPAC=       F     FRIEND=        
 NPRINT=       4     IREST =       0     GEOM  =INPUT   
 NORMF =       0     NORMP =       0     ITOL  =      20     ICUT  =       9
 INTTYP=BEST         GRDTYP=BEST         QMTTOL= 1.0E-06

     $SYSTEM OPTIONS
     ---------------
  REPLICATED MEMORY=    10000000 WORDS (ON EVERY NODE).
 DISTRIBUTED MEMDDI=           0 MILLION WORDS IN AGGREGATE,
 MEMDDI DISTRIBUTED OVER   1 PROCESSORS IS           0 WORDS/PROCESSOR.
 TOTAL MEMORY REQUESTED ON EACH PROCESSOR=    10000000 WORDS.
 TIMLIM=          50.00 MINUTES, OR       0.0 DAYS.
 PARALL= F  BALTYP=  DLB     KDIAG=    0  COREFL= F
 MXSEQ2=     300 MXSEQ3=     150  mem10=         0

          ----------------
          PROPERTIES INPUT
          ----------------

     MOMENTS            FIELD           POTENTIAL          DENSITY
 IEMOM =       1   IEFLD =       0   IEPOT =       0   IEDEN =       0
 WHERE =COMASS     WHERE =NUCLEI     WHERE =NUCLEI     WHERE =NUCLEI  
 OUTPUT=BOTH       OUTPUT=BOTH       OUTPUT=BOTH       OUTPUT=BOTH    
 IEMINT=       0   IEFINT=       0                     IEDINT=       0
                                                       MORB  =       0
          EXTRAPOLATION IN EFFECT
          SOSCF IN EFFECT
 ORBITAL PRINTING OPTION: NPREO=     1    88     2     1

     -------------------------------
     INTEGRAL TRANSFORMATION OPTIONS
     -------------------------------
     NWORD  =            0
     CUTOFF = 1.0E-09     MPTRAN =       0
     DIRTRF =       T     AOINTS =DUP     

          ----------------------
          INTEGRAL INPUT OPTIONS
          ----------------------
 NOPK  =       1 NORDER=       0 SCHWRZ=       T

     ------------------------------------------
     THE POINT GROUP IS C1 , NAXIS= 0, ORDER= 1
     ------------------------------------------

     DIMENSIONS OF THE SYMMETRY SUBSPACES ARE
 A   =   88

 ..... DONE SETTING UP THE RUN .....
 STEP CPU TIME =     0.02 TOTAL CPU TIME =        0.0 (    0.0 MIN)
 TOTAL WALL CLOCK TIME=        0.0 SECONDS, CPU UTILIZATION IS 100.00%

          ********************
          1 ELECTRON INTEGRALS
          ********************
 ...... END OF ONE-ELECTRON INTEGRALS ......
 STEP CPU TIME =     0.00 TOTAL CPU TIME =        0.0 (    0.0 MIN)
 TOTAL WALL CLOCK TIME=        0.0 SECONDS, CPU UTILIZATION IS  66.67%

          -------------
          GUESS OPTIONS
          -------------
          GUESS =HUCKEL            NORB  =       0          NORDER=       0
          MIX   =       F          PRTMO =       F          PUNMO =       F
          TOLZ  = 1.0E-08          TOLE  = 1.0E-05
          SYMDEN=       F          PURIFY=       F

 INITIAL GUESS ORBITALS GENERATED BY HUCKEL   ROUTINE.
 HUCKEL GUESS REQUIRES     71836 WORDS.

 SYMMETRIES FOR INITIAL GUESS ORBITALS FOLLOW.  ALPHA SET(S).
    25 ORBITALS ARE OCCUPIED (    7 CORE ORBITALS).
     8=A        9=A       10=A       11=A       12=A       13=A       14=A   
    15=A       16=A       17=A       18=A       19=A       20=A       21=A   
    22=A       23=A       24=A       25=A       26=A       27=A       28=A   
    29=A       30=A       31=A       32=A       33=A       34=A       35=A   

 SYMMETRIES FOR INITIAL GUESS ORBITALS FOLLOW.   BETA SET(S).
    24 ORBITALS ARE OCCUPIED (    7 CORE ORBITALS).
     8=A        9=A       10=A       11=A       12=A       13=A       14=A   
    15=A       16=A       17=A       18=A       19=A       20=A       21=A   
    22=A       23=A       24=A       25=A       26=A       27=A       28=A   
    29=A       30=A       31=A       32=A       33=A       34=A   
 ...... END OF INITIAL ORBITAL SELECTION ......
 STEP CPU TIME =     0.01 TOTAL CPU TIME =        0.0 (    0.0 MIN)
 TOTAL WALL CLOCK TIME=        0.0 SECONDS, CPU UTILIZATION IS  75.00%

                    ----------------------
                    AO INTEGRAL TECHNOLOGY
                    ----------------------
     S,P,L SHELL ROTATED AXIS INTEGRALS, REPROGRAMMED BY
        KAZUYA ISHIMURA (IMS) AND JOSE SIERRA (SYNSTAR).
     S,P,D,L SHELL ROTATED AXIS INTEGRALS PROGRAMMED BY
        KAZUYA ISHIMURA (INSTITUTE FOR MOLECULAR SCIENCE).
     S,P,D,F,G SHELL TO TOTAL QUARTET ANGULAR MOMENTUM SUM 5,
        ERIC PROGRAM BY GRAHAM FLETCHER (ELORET AND NASA ADVANCED
        SUPERCOMPUTING DIVISION, AMES RESEARCH CENTER).
     S,P,D,F,G,L SHELL GENERAL RYS QUADRATURE PROGRAMMED BY
        MICHEL DUPUIS (PACIFIC NORTHWEST NATIONAL LABORATORY).

          --------------------
          2 ELECTRON INTEGRALS
          --------------------

 DIRECT SCF METHOD SKIPS INTEGRAL STORAGE ON DISK.
 DIRECT TRANSFORMATION SKIPS AO INTEGRAL STORAGE ON DISK.
  ...... END OF TWO-ELECTRON INTEGRALS .....
 STEP CPU TIME =     0.01 TOTAL CPU TIME =        0.0 (    0.0 MIN)
 TOTAL WALL CLOCK TIME=        0.1 SECONDS, CPU UTILIZATION IS  80.00%

          ---------------------------
                 ROHF SCF CALCULATION
          ---------------------------

     NUCLEAR ENERGY =       259.6186244140
     MAXIT = 50     NPUNCH=  2     MULT=  2
     EXTRAP=T  DAMP=F  SHIFT=F  RSTRCT=F  DIIS=F  SOSCF=T
     DENSITY MATRIX CONV=  2.00E-07
     ROHF CANONICALIZATION PARAMETERS
             C-C     O-O     V-V
     ALPHA -0.5000  0.5000  1.5000
     BETA   1.5000  0.5000 -0.5000
     SOSCF WILL OPTIMIZE    1599 ORBITAL ROTATION ANGLES. SOGTOL= 2.500E-01
     MEMORY REQUIRED FOR UHF/ROHF ITERS=    126211 WORDS.

 DIRECT SCF CALCULATION, SCHWRZ=T   FDIFF=F
 MAX EXCHANGE INTEGRAL IN SHELL

             1           2           3           4           5

    1    2.1864231
    2    0.3359374   1.0662436
    3    0.2653259   0.7107219   0.7657214
    4    0.0000001   0.0074191   0.1528771   1.8801094
    5    0.0331906   0.2121038   0.4188913   0.2673029   0.9044972
    6    0.1270654   0.3827331   0.4677723   0.2514020   0.6509767
    7    0.0000000   0.0000004   0.0080131   0.0000034   0.0427259
    8    0.0000627   0.0041280   0.0748060   0.0427259   0.2313446
    9    0.0216265   0.0874932   0.1983426   0.1505477   0.3978710
   10    0.0000000   0.0000001   0.0057251   0.0000033   0.0412476
   11    0.0000311   0.0026463   0.0616922   0.0412476   0.2129126
   12    0.0175954   0.0735327   0.1858940   0.1458216   0.3860061
   13    0.0000000   0.0000000   0.0000119   0.0000000   0.0000905
   14    0.0000000   0.0000007   0.0015081   0.0000905   0.0138972
   15    0.0003778   0.0036304   0.0389366   0.0265336   0.1166678
   16    0.0000004   0.0002025   0.0232638   0.0000516   0.0154161
   17    0.0046283   0.0224492   0.1064073   0.0189252   0.0998827
   18    0.0000000   0.0000599   0.0221466   0.0000041   0.0188572
   19    0.0000000   0.0000000   0.0000087   0.0000000   0.0000987
   20    0.0000000   0.0000005   0.0012380   0.0000987   0.0154157
   21    0.0003099   0.0031196   0.0354540   0.0279250   0.1222160
   22    0.0000001   0.0000666   0.0137781   0.0000465   0.0145908
   23    0.0029063   0.0149746   0.0823112   0.0183724   0.0976550
   24    0.0000000   0.0000139   0.0128693   0.0000035   0.0176655
   25    0.0000000   0.0000000   0.0000004   0.0000000   0.0000046
   26    0.0000000   0.0000000   0.0001618   0.0000046   0.0040518
   27    0.0000411   0.0006469   0.0130525   0.0117136   0.0830571
   28    0.0000000   0.0000000   0.0000035   0.0000000   0.0000129
   29    0.0000019   0.0000355   0.0013332   0.0004069   0.0052019
   30    0.0000000   0.0000000   0.0000019   0.0000000   0.0000035
   31    0.0000000   0.0000000   0.0000023   0.0000000   0.0000142
   32    0.0000013   0.0000261   0.0010766   0.0004175   0.0055462
   33    0.0000000   0.0000000   0.0000012   0.0000000   0.0000042
   34    0.0000000   0.0000000   0.0000000   0.0000000   0.0000005
   35    0.0000000   0.0000012   0.0001283   0.0000599   0.0016380
   36    0.0000000   0.0000000   0.0000000   0.0000000   0.0000001

             6           7           8           9          10

    6    0.6807938
    7    0.1505477   1.8801094
    8    0.3978710   0.2673029   0.9044972
    9    0.3947339   0.2514020   0.6509767   0.6807938
   10    0.1458216   0.0000000   0.0000900   0.0296703   1.8801094
   11    0.3860061   0.0000900   0.0182720   0.1455489   0.2673029
   12    0.3844596   0.0296703   0.1455489   0.3161096   0.2514020
   13    0.0265336   0.0000033   0.0480281   0.1699170   0.0000000
   14    0.1166678   0.0480281   0.3147015   0.4473376   0.0000033
   15    0.2092581   0.1699170   0.4473376   0.4384797   0.0097280
   16    0.1689662   0.0459191   0.3113227   0.3875838   0.0000000
   17    0.2946495   0.1263902   0.3851711   0.4790771   0.0003903
   18    0.1454859   0.0551241   0.2832360   0.2233091   0.0000000
   19    0.0279250   0.0000000   0.0000037   0.0097707   0.0000033
   20    0.1222160   0.0000037   0.0027792   0.0574007   0.0478493
   21    0.2265793   0.0097707   0.0574007   0.1699815   0.1697321
   22    0.1649409   0.0000000   0.0000151   0.0088992   0.0465006
   23    0.2905833   0.0003813   0.0063988   0.0581085   0.1268259
   24    0.1420659   0.0000000   0.0000054   0.0097912   0.0587273
   25    0.0117136   0.0000000   0.0000860   0.0267874   0.0000000
   26    0.0830571   0.0000860   0.0144212   0.1185522   0.0000778
   27    0.2554103   0.0267874   0.1185522   0.2258100   0.0253466
   28    0.0071274   0.0000487   0.0133010   0.1481958   0.0000000
   29    0.0458958   0.0186163   0.0891335   0.2617096   0.0000547
   30    0.0059346   0.0000034   0.0140704   0.1112990   0.0000000
   31    0.0076405   0.0000000   0.0000004   0.0017062   0.0000501
   32    0.0486923   0.0000579   0.0013730   0.0209955   0.0187660
   33    0.0065722   0.0000000   0.0000001   0.0015962   0.0000036
   34    0.0020541   0.0000000   0.0000149   0.0086078   0.0000000
   35    0.0249234   0.0003885   0.0061989   0.0559156   0.0003801
   36    0.0022787   0.0000000   0.0000051   0.0089903   0.0000000

            11          12          13          14          15

   11    0.9044972
   12    0.6509767   0.6807938
   13    0.0000033   0.0097280   1.8801094
   14    0.0028102   0.0604602   0.2673029   0.9044972
   15    0.0604602   0.1835904   0.2514020   0.6509767   0.6807938
   16    0.0000156   0.0089717   0.0000413   0.0126831   0.1484017
   17    0.0064461   0.0581376   0.0177664   0.0889470   0.2656567
   18    0.0000056   0.0097595   0.0000027   0.0138415   0.1167644
   19    0.0478493   0.1697321   0.0000000   0.0001013   0.0307561
   20    0.3140562   0.4469876   0.0001013   0.0193674   0.1485267
   21    0.4469876   0.4382681   0.0307561   0.1485267   0.3179489
   22    0.3268706   0.4054616   0.0000000   0.0000004   0.0017050
   23    0.3861970   0.4799467   0.0000556   0.0013729   0.0212528
   24    0.2951402   0.2267704   0.0000000   0.0000001   0.0016504
   25    0.0000778   0.0253466   0.0000032   0.0406813   0.1444321
   26    0.0129134   0.1128146   0.0406813   0.2078404   0.3826403
   27    0.1128146   0.2063002   0.1444321   0.3826403   0.3816436
   28    0.0000004   0.0016863   0.0457540   0.3265816   0.4076214
   29    0.0013590   0.0211308   0.1262658   0.3848779   0.4788284
   30    0.0000001   0.0016351   0.0578041   0.2991450   0.2271034
   31    0.0139038   0.1536558   0.0000000   0.0000158   0.0090465
   32    0.0919688   0.2700927   0.0003937   0.0064962   0.0584504
   33    0.0152843   0.1194587   0.0000000   0.0000057   0.0098556
   34    0.0000140   0.0082695   0.0000458   0.0123124   0.1396430
   35    0.0059703   0.0541451   0.0182954   0.0857100   0.2488541
   36    0.0000047   0.0084284   0.0000029   0.0122514   0.0994727

            16          17          18          19          20

   16    1.0375770
   17    0.5739539   0.6731644
   18    0.4336893   0.2785847   0.9831009
   19    0.0000000   0.0000582   0.0000000   1.8801094
   20    0.0000004   0.0013713   0.0000001   0.2673029   0.9044972
   21    0.0017041   0.0209391   0.0015857   0.2514020   0.6509767
   22    0.0000000   0.0001102   0.0000000   0.0000443   0.0126966
   23    0.0001102   0.0034323   0.0001158   0.0181235   0.0875725
   24    0.0000000   0.0001158   0.0000000   0.0000029   0.0133611
   25    0.0000000   0.0003766   0.0000000   0.0000032   0.0419774
   26    0.0000119   0.0051793   0.0000034   0.0419774   0.2264725
   27    0.0071006   0.0468287   0.0061715   0.1491781   0.3947264
   28    0.0005198   0.0307712   0.0003649   0.0000000   0.0000158
   29    0.0307712   0.1124659   0.0312910   0.0003916   0.0065268
   30    0.0003649   0.0312910   0.0001283   0.0000000   0.0000058
   31    0.0000000   0.0000064   0.0000000   0.0457424   0.3162380
   32    0.0000064   0.0005812   0.0000051   0.1262570   0.3848574
   33    0.0000000   0.0000051   0.0000000   0.0558520   0.2776968
   34    0.0000000   0.0001006   0.0000000   0.0000459   0.0118770
   35    0.0001006   0.0032422   0.0000938   0.0183064   0.0857502
   36    0.0000000   0.0000938   0.0000000   0.0000028   0.0112850

            21          22          23          24          25

   21    0.6807938
   22    0.1454775   1.0375770
   23    0.2592336   0.5739539   0.6731644
   24    0.1097165   0.4336893   0.2785847   0.9831009
   25    0.1491781   0.0000000   0.0003776   0.0000000   1.8801094
   26    0.3947264   0.0000113   0.0049437   0.0000030   0.2673029
   27    0.3922380   0.0067497   0.0445566   0.0055899   0.2514020
   28    0.0090907   0.0000000   0.0000061   0.0000000   0.0000454
   29    0.0588310   0.0000061   0.0005640   0.0000051   0.0182479
   30    0.0100024   0.0000000   0.0000051   0.0000000   0.0000034
   31    0.3944441   0.0005733   0.0320280   0.0004102   0.0000461
   32    0.4788110   0.0320280   0.1152701   0.0324780   0.0183351
   33    0.2247727   0.0004102   0.0324780   0.0001497   0.0000035
   34    0.1345800   0.0000000   0.0001031   0.0000000   0.0458060
   35    0.2404459   0.0001031   0.0032923   0.0000931   0.1263050
   36    0.0951577   0.0000000   0.0000931   0.0000000   0.0654788

            26          27          28          29          30

   26    0.9044972
   27    0.6509767   0.6807938
   28    0.0144034   0.1639797   1.0375770
   29    0.0971244   0.2895727   0.5739539   0.6731644
   30    0.0173912   0.1411979   0.4336893   0.2785847   0.9831009
   31    0.0145855   0.1652331   0.0000000   0.0001054   0.0000000
   32    0.0977965   0.2912500   0.0001054   0.0033375   0.0001106
   33    0.0177169   0.1428834   0.0000000   0.0001106   0.0000000
   34    0.3673213   0.4593871   0.0005455   0.0313842   0.0003298
   35    0.3849704   0.4789068   0.0313842   0.1138391   0.0278994
   36    0.4143909   0.2294601   0.0003298   0.0278994   0.0000988

            31          32          33          34          35

   31    1.0375770
   32    0.5739539   0.6731644
   33    0.4336893   0.2785847   0.9831009
   34    0.0005581   0.0316782   0.0003500   1.0375770
   35    0.0316782   0.1144939   0.0289003   0.5739539   0.6731644
   36    0.0003500   0.0289003   0.0001097   0.4336893   0.2785847

            36

   36    0.9831009
 SCHWARZ INEQUALITY OVERHEAD:      3827 INTEGRALS, T=        0.00

                                                                                NONZERO     BLOCKS
 ITER EX      TOTAL ENERGY        E CHANGE  DENSITY CHANGE    ORB. GRAD       INTEGRALS    SKIPPED
   1  0     -303.9799576976  -303.9799576976   0.699870750   0.000000000        3362999      65653
          ---------------START SECOND ORDER SCF---------------
   2  1     -304.4878512888    -0.5078935912   0.962254869   0.202052266        3362165      65784
   3  2     -304.5580779271    -0.0702266383   0.547596817   0.156258796        3362671      65610
   4  3     -304.8079690881    -0.2498911610   0.217345868   0.067638827        3360952      66029
   5  4     -304.8194329916    -0.0114639035   0.146239296   0.062799686        3361828      65846
   6  5     -304.8434386941    -0.0240057025   0.069128969   0.020205972        3361241      65996
   7  6     -304.8435848147    -0.0001461206   0.035050510   0.013817888        3361155      66015
   8  7     -304.8443500573    -0.0007652427   0.018247333   0.003621226        3361038      66037
   9  8     -304.8443238352     0.0000262221   0.011964069   0.004609837        3361097      66025
  10  9     -304.8443935692    -0.0000697340   0.003670492   0.000568487        3360998      66043
  11 10     -304.8443942802    -0.0000007110   0.002105988   0.000680386        3360985      66044
  12 11     -304.8443955889    -0.0000013087   0.000231554   0.000100831        3360998      66043
  13 12     -304.8443956876    -0.0000000987   0.000180730   0.000062886        3360998      66043
  14 13     -304.8443957408    -0.0000000532   0.000170764   0.000025043        3360998      66043
  15 14     -304.8443957469    -0.0000000062   0.000091719   0.000032627        3360998      66043
  16 15     -304.8443957500    -0.0000000031   0.000039157   0.000011332        3360998      66043
  17 16     -304.8443957504    -0.0000000004   0.000013542   0.000004489        3360998      66043
  18 17     -304.8443957505    -0.0000000001   0.000007393   0.000002222        3360998      66043
  19 18     -304.8443957505    -0.0000000000   0.000002439   0.000000540        3360998      66043
  20 19     -304.8443957505    -0.0000000000   0.000001077   0.000000275        3360998      66043
  21 20     -304.8443957505    -0.0000000000   0.000000559   0.000000183        3360998      66043
  22 21     -304.8443957505    -0.0000000000   0.000000162   0.000000042        3360998      66043
  23 22     -304.8443957505    -0.0000000000   0.000000070   0.000000034        3360998      66043

          -----------------
          DENSITY CONVERGED
          -----------------
     TIME TO FORM FOCK OPERATORS=       8.0 SECONDS (       0.3 SEC/ITER)
     FOCK TIME ON FIRST ITERATION=       0.4, LAST ITERATION=       0.4
     TIME TO SOLVE SCF EQUATIONS=       0.1 SECONDS (       0.0 SEC/ITER)

 FINAL ROHF ENERGY IS     -304.8443957505 AFTER  23 ITERATIONS

          --------------------
          SPIN SZ   =    0.500
          S-SQUARED =    0.750
          --------------------

          ------------
          EIGENVECTORS
          ------------

                      1          2          3          4          5
                  -20.6029   -11.3192   -11.2591   -11.2586   -11.2555
                     A          A          A          A          A   
    1  O  1  S    0.996367  -0.000058  -0.000005  -0.000006  -0.000000
    2  O  1  S    0.021905   0.000640  -0.000106  -0.000102  -0.000113
    3  O  1  X   -0.002064  -0.000132   0.000017   0.000008   0.000025
    4  O  1  Y   -0.000096  -0.000008   0.000019  -0.000025  -0.000023
    5  O  1  Z   -0.000000  -0.000000   0.000000   0.000000  -0.000000
    6  O  1  S   -0.015191  -0.002400   0.000167   0.000238   0.000504
    7  O  1  X    0.004756   0.001302  -0.000179  -0.000200   0.000044
    8  O  1  Y    0.000190   0.000013  -0.000137   0.000219   0.000238
    9  O  1  Z   -0.000000  -0.000000   0.000000   0.000000  -0.000000
   10  C  2  S    0.000122   0.996142  -0.001558  -0.000799  -0.009229
   11  C  2  S    0.000684   0.025253  -0.000166  -0.000066  -0.001379
   12  C  2  X   -0.000214   0.000575   0.000086   0.000072   0.000131
   13  C  2  Y    0.000011   0.000041   0.000117  -0.000108   0.000242
   14  C  2  Z   -0.000000  -0.000000   0.000000   0.000000  -0.000000
   15  C  2  S   -0.001063  -0.021980  -0.002780  -0.003125   0.010909
   16  C  2  X    0.011805   0.008978   0.001173   0.001171  -0.004421
   17  C  2  Y    0.000177   0.000236   0.000298  -0.000779  -0.002940
   18  C  2  Z    0.000000  -0.000000   0.000000   0.000000  -0.000000
   19  C  3  S   -0.000048   0.008584   0.001659   0.100679  -0.001321
   20  C  3  S   -0.000410  -0.001042  -0.000270   0.001440   0.000019
   21  C  3  X    0.000004  -0.000048   0.000041   0.000233  -0.000072
   22  C  3  Y   -0.000019   0.000163   0.000086  -0.000026   0.000096
   23  C  3  Z   -0.000000  -0.000000   0.000000   0.000000  -0.000000
   24  C  3  S    0.004997   0.011392   0.002528   0.007887  -0.003626
   25  C  3  X   -0.003360  -0.002502  -0.001264  -0.003302   0.001546
   26  C  3  Y   -0.004083  -0.006330  -0.001437  -0.002601   0.001621
   27  C  3  Z   -0.000000  -0.000000   0.000000   0.000000  -0.000000
   28  C  4  S   -0.000046   0.008880   0.163167  -0.012457   0.982614
   29  C  4  S   -0.000413  -0.001045   0.003023  -0.000513   0.025349
   30  C  4  X    0.000080  -0.000020   0.000221   0.000017  -0.000094
   31  C  4  Y    0.000031  -0.000147   0.000045  -0.000086   0.000572
   32  C  4  Z   -0.000000  -0.000000   0.000000   0.000000  -0.000000
   33  C  4  S    0.006087   0.011998   0.006479   0.001927  -0.023431
   34  C  4  X   -0.003806  -0.001884  -0.003065  -0.000980   0.002845
   35  C  4  Y    0.004522   0.006833   0.002573   0.001240  -0.006422
   36  C  4  Z   -0.000000  -0.000000   0.000000   0.000000  -0.000000
   37  C  5  S    0.000007   0.000056   0.041622   0.988964   0.005995
   38  C  5  S   -0.000097   0.000143   0.001040   0.025034  -0.000110
   39  C  5  X   -0.000210  -0.000180   0.000096   0.000226  -0.000062
   40  C  5  Y    0.000048  -0.000004   0.000114  -0.000315   0.000027
   41  C  5  Z   -0.000000  -0.000000   0.000000   0.000000  -0.000000
   42  C  5  S   -0.004049  -0.006240  -0.004214  -0.019897   0.003697
   43  C  5  X   -0.000869  -0.001818  -0.000916  -0.002472   0.001287
   44  C  5  Y    0.001232   0.002759   0.001722   0.004889  -0.001878
   45  C  5  Z    0.000000  -0.000000   0.000000   0.000000  -0.000000
   46  H  6  S    0.000315   0.000141   0.000082  -0.000054  -0.000044
   47  H  6  S    0.001852   0.001808   0.000586   0.001016  -0.000312
   48  H  6  X   -0.000117  -0.000037  -0.000000  -0.000021  -0.000005
   49  H  6  Y   -0.000033  -0.000081  -0.000018   0.000010  -0.000053
   50  H  6  Z   -0.000000  -0.000000   0.000000   0.000000  -0.000000
   51  C  7  S    0.000012   0.000063   0.980586  -0.042387  -0.163664
   52  C  7  S   -0.000064   0.000158   0.024733  -0.001071  -0.005288
   53  C  7  X   -0.000228  -0.000179   0.000244   0.000079  -0.000254
   54  C  7  Y   -0.000037   0.000024   0.000271  -0.000143  -0.000102
   55  C  7  Z   -0.000000  -0.000000   0.000000   0.000000  -0.000000
   56  C  7  S   -0.004585  -0.006282  -0.019347  -0.002661   0.013206
   57  C  7  X   -0.001557  -0.001948  -0.002549  -0.000858   0.004248
   58  C  7  Y   -0.000996  -0.002749  -0.004545  -0.001291   0.004236
   59  C  7  Z   -0.000000  -0.000000  -0.000000  -0.000000  -0.000000
   60  H  8  S    0.000377   0.000133  -0.000064   0.000087  -0.000410
   61  H  8  S    0.001974   0.001863   0.001142   0.000461   0.000505
   62  H  8  X   -0.000063  -0.000032  -0.000021   0.000006   0.000158
   63  H  8  Y    0.000068   0.000072  -0.000016   0.000016  -0.000247
   64  H  8  Z   -0.000000  -0.000000   0.000000   0.000000  -0.000000
   65  C  9  S   -0.000028  -0.000224   0.048394   0.046608  -0.011234
   66  C  9  S   -0.000238  -0.000408   0.000088   0.000126  -0.000004
   67  C  9  X   -0.000087  -0.000082  -0.000128  -0.000123  -0.000026
   68  C  9  Y   -0.000009  -0.000001   0.000163  -0.000159   0.000111
   69  C  9  Z   -0.000000  -0.000000   0.000000   0.000000  -0.000000
   70  C  9  S    0.002368   0.004903   0.008515   0.008090  -0.005634
   71  C  9  X    0.001726   0.003230   0.004312   0.004195  -0.003039
   72  C  9  Y    0.000171  -0.000125  -0.001757   0.001747   0.000797
   73  C  9  Z   -0.000000  -0.000000   0.000000   0.000000  -0.000000
   74  H 10  S    0.000010  -0.000051  -0.000027  -0.000432   0.000062
   75  H 10  S   -0.000060  -0.000524  -0.000150   0.000794   0.000546
   76  H 10  X    0.000022   0.000060  -0.000016  -0.000145  -0.000003
   77  H 10  Y   -0.000030  -0.000023  -0.000048   0.000275   0.000010
   78  H 10  Z   -0.000000  -0.000000   0.000000   0.000000  -0.000000
   79  H 11  S    0.000021  -0.000056  -0.000423   0.000010   0.000109
   80  H 11  S   -0.000073  -0.000540   0.000862  -0.000232   0.000953
   81  H 11  X    0.000049   0.000062  -0.000158   0.000000   0.000073
   82  H 11  Y    0.000015   0.000019  -0.000257   0.000072   0.000070
   83  H 11  Z   -0.000000  -0.000000   0.000000   0.000000  -0.000000
   84  H 12  S    0.000056   0.000116  -0.000001  -0.000002  -0.000031
   85  H 12  S    0.000499   0.000856   0.001093   0.001025  -0.000545
   86  H 12  X    0.000002   0.000004   0.000038   0.000032   0.000037
   87  H 12  Y   -0.000006   0.000002  -0.000020   0.000015  -0.000047
   88  H 12  Z   -0.000000  -0.000000   0.000000   0.000000  -0.000000

                      6          7          8          9         10
                  -11.2528   -11.2467    -1.2576    -1.1485    -1.0343
                     A          A          A          A          A   
    1  O  1  S   -0.000003  -0.000007  -0.167097  -0.089858   0.000121
    2  O  1  S   -0.000123  -0.000111   0.369920   0.202677  -0.000626
    3  O  1  X    0.000011  -0.000000  -0.135901  -0.046816  -0.000588
    4  O  1  Y    0.000042   0.000004  -0.004863  -0.001944  -0.012097
    5  O  1  Z   -0.000000   0.000000  -0.000000  -0.000000  -0.000000
    6  O  1  S    0.000451   0.000746   0.425822   0.233614   0.002514
    7  O  1  X    0.000041  -0.000148  -0.102377  -0.040136  -0.001489
    8  O  1  Y   -0.000236  -0.000027  -0.003826  -0.001970   0.001111
    9  O  1  Z   -0.000000   0.000000  -0.000000  -0.000000  -0.000000
   10  C  2  S   -0.009044   0.000060  -0.125148   0.021510  -0.005207
   11  C  2  S   -0.001384  -0.000365   0.254043  -0.043606   0.010705
   12  C  2  X    0.000103   0.000051   0.079737   0.125492  -0.006169
   13  C  2  Y   -0.000244   0.000000   0.008349   0.003347  -0.133999
   14  C  2  Z   -0.000000   0.000000  -0.000000  -0.000000  -0.000000
   15  C  2  S    0.010608   0.004289   0.112655  -0.037776   0.009469
   16  C  2  X   -0.004129  -0.002742  -0.109627  -0.022816  -0.005420
   17  C  2  Y    0.002831  -0.000044  -0.002859   0.000914  -0.032511
   18  C  2  Z   -0.000000   0.000000  -0.000000  -0.000000  -0.000000
   19  C  3  S    0.991035   0.005636  -0.053807   0.069187   0.110705
   20  C  3  S    0.025493   0.000315   0.109045  -0.134017  -0.220931
   21  C  3  X   -0.000105   0.000107   0.020550   0.062324   0.064966
   22  C  3  Y   -0.000544  -0.000030  -0.049727   0.030663  -0.000508
   23  C  3  Z   -0.000000   0.000000  -0.000000  -0.000000  -0.000000
   24  C  3  S   -0.022805  -0.005380   0.021236  -0.089069  -0.152007
   25  C  3  X    0.003158   0.001974   0.031360   0.015035   0.012392
   26  C  3  Y    0.005833   0.002307   0.025275   0.013679  -0.004653
   27  C  3  Z   -0.000000   0.000000  -0.000000  -0.000000  -0.000000
   28  C  4  S    0.002226   0.003820  -0.050187   0.072986  -0.116609
   29  C  4  S    0.000098   0.000278   0.102567  -0.141688   0.233380
   30  C  4  X   -0.000082   0.000110   0.019519   0.059208  -0.059141
   31  C  4  Y   -0.000097   0.000017   0.046795  -0.035708   0.008899
   32  C  4  Z   -0.000000   0.000000  -0.000000  -0.000000  -0.000000
   33  C  4  S   -0.003711  -0.005465   0.005530  -0.095610   0.155954
   34  C  4  X    0.001318   0.001732   0.033436   0.017013  -0.010002
   35  C  4  Y   -0.001703  -0.002527  -0.028902  -0.013278  -0.007363
   36  C  4  Z   -0.000000   0.000000  -0.000000  -0.000000  -0.000000
   37  C  5  S   -0.100723  -0.049867  -0.024017   0.098348   0.112086
   38  C  5  S   -0.003699  -0.002423   0.048486  -0.192640  -0.224822
   39  C  5  X   -0.000234   0.000065   0.018160  -0.021328  -0.063775
   40  C  5  Y    0.000097   0.000217  -0.014499   0.064012   0.004943
   41  C  5  Z   -0.000000   0.000000  -0.000000  -0.000000  -0.000000
   42  C  5  S    0.011965   0.011752   0.051424  -0.112251  -0.158741
   43  C  5  X    0.003914   0.001132   0.007306  -0.004488  -0.004479
   44  C  5  Y   -0.004115  -0.005563  -0.006300   0.010750   0.001604
   45  C  5  Z   -0.000000   0.000000  -0.000000  -0.000000  -0.000000
   46  H  6  S   -0.000418  -0.000060   0.020486  -0.024225  -0.066086
   47  H  6  S    0.000625  -0.000502  -0.010711  -0.007835  -0.019097
   48  H  6  X    0.000175  -0.000056  -0.000688   0.002387   0.003479
   49  H  6  Y    0.000252  -0.000012  -0.002335   0.003039   0.006604
   50  H  6  Z   -0.000000   0.000000  -0.000000  -0.000000  -0.000000
   51  C  7  S    0.002664  -0.048055  -0.023464   0.100150  -0.105897
   52  C  7  S   -0.000211  -0.002376   0.047008  -0.196199   0.212415
   53  C  7  X   -0.000062   0.000055   0.018146  -0.026761   0.071709
   54  C  7  Y   -0.000038  -0.000222   0.013168  -0.062009  -0.007231
   55  C  7  Z   -0.000000   0.000000  -0.000000  -0.000000  -0.000000
   56  C  7  S    0.003561   0.011694   0.054578  -0.113433   0.153328
   57  C  7  X    0.001352   0.001412   0.012572  -0.003184   0.006497
   58  C  7  Y    0.001751   0.005493   0.003977  -0.012600   0.001598
   59  C  7  Z   -0.000000   0.000000  -0.000000  -0.000000   0.000000
   60  H  8  S   -0.000041  -0.000058   0.017782  -0.027172   0.070023
   61  H  8  S   -0.000271  -0.000521  -0.011263  -0.008285   0.018686
   62  H  8  X   -0.000003  -0.000055  -0.000892   0.002014  -0.003194
   63  H  8  Y    0.000054   0.000016   0.001983  -0.003584   0.007135
   64  H  8  Z   -0.000000   0.000000  -0.000000  -0.000000  -0.000000
   65  C  9  S   -0.010436   0.993814  -0.018413   0.104806   0.006551
   66  C  9  S   -0.000059   0.025502   0.037972  -0.204575  -0.012881
   67  C  9  X   -0.000040   0.000451   0.017777  -0.070719  -0.005377
   68  C  9  Y   -0.000116  -0.000013  -0.000224   0.002529  -0.109812
   69  C  9  Z   -0.000000   0.000000  -0.000000  -0.000000  -0.000000
   70  C  9  S   -0.005040  -0.022768   0.007520  -0.122044  -0.010418
   71  C  9  X   -0.002773  -0.006944  -0.009865  -0.011752  -0.001432
   72  C  9  Y   -0.000471   0.000203  -0.001554  -0.000737  -0.009749
   73  C  9  Z   -0.000000   0.000000   0.000000  -0.000000  -0.000000
   74  H 10  S    0.000074   0.000037   0.007589  -0.040297  -0.066846
   75  H 10  S    0.001005   0.001064   0.000025  -0.010568  -0.019731
   76  H 10  X    0.000055   0.000008   0.000128  -0.002851  -0.003194
   77  H 10  Y   -0.000057  -0.000059  -0.000914   0.004866   0.006686
   78  H 10  Z   -0.000000   0.000000  -0.000000  -0.000000  -0.000000
   79  H 11  S    0.000065   0.000038   0.007315  -0.041334   0.063550
   80  H 11  S    0.000546   0.001060   0.000010  -0.011286   0.019017
   81  H 11  X   -0.000003   0.000012   0.000044  -0.003245   0.003314
   82  H 11  Y   -0.000004   0.000058   0.000932  -0.004738   0.006144
   83  H 11  Z   -0.000000   0.000000  -0.000000  -0.000000  -0.000000
   84  H 12  S   -0.000029  -0.000454   0.004973  -0.042685  -0.003764
   85  H 12  S   -0.000467   0.000469  -0.003901  -0.010564  -0.001405
   86  H 12  X    0.000044  -0.000326   0.000828  -0.005776  -0.000413
   87  H 12  Y    0.000043   0.000008   0.000010   0.000173   0.000800
   88  H 12  Z   -0.000000   0.000000  -0.000000  -0.000000  -0.000000

                     11         12         13         14         15
                   -0.9949    -0.8438    -0.8110    -0.7081    -0.6435
                     A          A          A          A          A   
    1  O  1  S   -0.085672   0.003428   0.055441  -0.041636  -0.039759
    2  O  1  S    0.196236  -0.007947  -0.131898   0.096484   0.094777
    3  O  1  X    0.008084  -0.001910  -0.085468   0.118247   0.204676
    4  O  1  Y   -0.000752   0.029218  -0.003622   0.004373   0.014177
    5  O  1  Z    0.000000  -0.000000  -0.000000   0.000000   0.000000
    6  O  1  S    0.242668  -0.012272  -0.164302   0.143889   0.135763
    7  O  1  X   -0.013830   0.000616  -0.041429   0.058720   0.125620
    8  O  1  Y   -0.000981   0.005507  -0.001626   0.002829   0.007660
    9  O  1  Z    0.000000   0.000000  -0.000000   0.000000   0.000000
   10  C  2  S    0.090521   0.002072  -0.096989   0.017386   0.066626
   11  C  2  S   -0.192574  -0.004194   0.210277  -0.040272  -0.156579
   12  C  2  X    0.142189   0.001939  -0.065613  -0.095486  -0.055616
   13  C  2  Y   -0.004049   0.235520   0.002755  -0.001297   0.011506
   14  C  2  Z    0.000000  -0.000000  -0.000000   0.000000   0.000000
   15  C  2  S   -0.156720  -0.005132   0.210310  -0.073169  -0.094354
   16  C  2  X    0.005886   0.002899  -0.037505  -0.008309  -0.021070
   17  C  2  Y   -0.000201   0.074650  -0.002433  -0.001366   0.006173
   18  C  2  Z    0.000000   0.000000  -0.000000   0.000000   0.000000
   19  C  3  S    0.084447  -0.083681   0.033090   0.022971  -0.047484
   20  C  3  S   -0.169005   0.168914  -0.063957  -0.047790   0.096940
   21  C  3  X   -0.036650   0.121571   0.130014  -0.150990   0.042015
   22  C  3  Y    0.063553  -0.021287  -0.160109  -0.128231   0.121511
   23  C  3  Z    0.000000   0.000000  -0.000000   0.000000   0.000000
   24  C  3  S   -0.123009   0.135547  -0.090637  -0.038614   0.056605
   25  C  3  X   -0.004785   0.027623   0.032691  -0.068989   0.055199
   26  C  3  Y    0.003448   0.017577  -0.022845  -0.076888   0.076274
   27  C  3  Z    0.000000   0.000000  -0.000000   0.000000   0.000000
   28  C  4  S    0.076443   0.081002   0.035735   0.022357  -0.047740
   29  C  4  S   -0.152878  -0.163921  -0.069064  -0.046333   0.097027
   30  C  4  X   -0.049250  -0.127637   0.138641  -0.141924   0.021018
   31  C  4  Y   -0.062232  -0.015891   0.154122   0.142470  -0.140833
   32  C  4  Z    0.000000   0.000000  -0.000000   0.000000   0.000000
   33  C  4  S   -0.112504  -0.129619  -0.099770  -0.038740   0.063185
   34  C  4  X   -0.003443  -0.026524   0.032018  -0.063383   0.042352
   35  C  4  Y   -0.003468   0.020098   0.019900   0.080495  -0.085858
   36  C  4  Z    0.000000  -0.000000  -0.000000   0.000000   0.000000
   37  C  5  S   -0.040548   0.089476   0.060451  -0.014422   0.044906
   38  C  5  S    0.083473  -0.182127  -0.124306   0.033284  -0.095682
   39  C  5  X   -0.109628   0.107630  -0.111622   0.103794   0.074965
   40  C  5  Y   -0.063169   0.005792  -0.135740  -0.135393  -0.173571
   41  C  5  Z    0.000000   0.000000  -0.000000   0.000000  -0.000000
   42  C  5  S    0.055166  -0.160311  -0.096418  -0.014570  -0.035819
   43  C  5  X   -0.018609   0.028240  -0.012294   0.026196   0.068252
   44  C  5  Y    0.000333  -0.016216  -0.055442  -0.032009  -0.122165
   45  C  5  Z    0.000000   0.000000  -0.000000   0.000000   0.000000
   46  H  6  S   -0.048688   0.095547  -0.061892  -0.126158   0.133591
   47  H  6  S   -0.011492   0.038936  -0.039666  -0.061525   0.083123
   48  H  6  X    0.004016  -0.004322   0.003329   0.004279  -0.006686
   49  H  6  Y    0.004046  -0.008194   0.004173   0.006970  -0.010528
   50  H  6  Z    0.000000   0.000000  -0.000000   0.000000   0.000000
   51  C  7  S   -0.051997  -0.091024   0.057618  -0.014705   0.045505
   52  C  7  S    0.106411   0.184917  -0.118644   0.033747  -0.096884
   53  C  7  X   -0.101260  -0.100478  -0.108001   0.113262   0.097751
   54  C  7  Y    0.069149   0.007704   0.144426   0.130643   0.153450
   55  C  7  Z    0.000000   0.000000  -0.000000   0.000000  -0.000000
   56  C  7  S    0.074349   0.164019  -0.090314  -0.012222  -0.040495
   57  C  7  X   -0.016401  -0.026599  -0.011270   0.028956   0.076265
   58  C  7  Y   -0.000269  -0.015173   0.057654   0.033127   0.112984
   59  C  7  Z    0.000000   0.000000  -0.000000   0.000000  -0.000000
   60  H  8  S   -0.044584  -0.093249  -0.066409  -0.128090   0.139092
   61  H  8  S   -0.011037  -0.038183  -0.041185  -0.064822   0.085629
   62  H  8  X    0.003357   0.003494   0.003279   0.003802  -0.006198
   63  H  8  Y   -0.004084  -0.008349  -0.004583  -0.007436   0.011186
   64  H  8  Z    0.000000   0.000000  -0.000000   0.000000   0.000000
   65  C  9  S   -0.126521   0.002388  -0.087171   0.031510  -0.051670
   66  C  9  S    0.253001  -0.004964   0.176160  -0.063057   0.111466
   67  C  9  X    0.022861  -0.004402  -0.039111   0.238783  -0.006400
   68  C  9  Y   -0.007140  -0.201973  -0.003041  -0.006813   0.011020
   69  C  9  Z    0.000000  -0.000000  -0.000000   0.000000  -0.000000
   70  C  9  S    0.201429  -0.004305   0.139961  -0.058140   0.049091
   71  C  9  X    0.003161  -0.000602  -0.034366   0.110828  -0.070068
   72  C  9  Y   -0.001499  -0.043662   0.000864  -0.002595   0.006012
   73  C  9  Z    0.000000   0.000000  -0.000000   0.000000  -0.000000
   74  H 10  S    0.028450  -0.099925  -0.087465  -0.075149  -0.168084
   75  H 10  S    0.006155  -0.043137  -0.037867  -0.051518  -0.096442
   76  H 10  X    0.001822  -0.004240  -0.004646  -0.001151  -0.006570
   77  H 10  Y   -0.002193   0.008975   0.006353   0.002928   0.012592
   78  H 10  Z    0.000000   0.000000  -0.000000   0.000000   0.000000
   79  H 11  S    0.036131   0.101413  -0.084552  -0.076243  -0.164818
   80  H 11  S    0.008622   0.044454  -0.036382  -0.051552  -0.094444
   81  H 11  X    0.002314   0.004895  -0.004899  -0.001367  -0.006966
   82  H 11  Y    0.002809   0.008856  -0.005772  -0.002895  -0.012150
   83  H 11  Z    0.000000   0.000000  -0.000000   0.000000   0.000000
   84  H 12  S    0.084017  -0.002656   0.098440  -0.161872   0.065659
   85  H 12  S    0.027138  -0.001076   0.044359  -0.092356   0.023520
   86  H 12  X    0.008838  -0.000270   0.010232  -0.011040   0.007540
   87  H 12  Y   -0.000203  -0.000834  -0.000328   0.000299  -0.000120
   88  H 12  Z    0.000000   0.000000  -0.000000   0.000000   0.000000

                     16         17         18         19         20
                   -0.6407    -0.6040    -0.5898    -0.5765    -0.5132
                     A          A          A          A          A   
    1  O  1  S    0.005024  -0.005499  -0.052452   0.000000  -0.015372
    2  O  1  S   -0.012207   0.013071   0.130038  -0.000000   0.040780
    3  O  1  X   -0.021981   0.041100   0.365737  -0.000000   0.266720
    4  O  1  Y    0.044535   0.002878   0.020902  -0.000000   0.013681
    5  O  1  Z   -0.000000   0.000000   0.000000   0.457299   0.000000
    6  O  1  S   -0.017447   0.017640   0.153680  -0.000000   0.027581
    7  O  1  X   -0.012536   0.025991   0.243506  -0.000000   0.195497
    8  O  1  Y    0.012688   0.003087   0.014205  -0.000000   0.011793
    9  O  1  Z    0.000000   0.000000   0.000000   0.297833   0.000000
   10  C  2  S   -0.001690   0.000959  -0.001407  -0.000000  -0.009845
   11  C  2  S    0.004664  -0.002758   0.000711   0.000000   0.017819
   12  C  2  X    0.011211  -0.032418  -0.290525   0.000000  -0.174448
   13  C  2  Y    0.295083  -0.081839   0.014675   0.000000  -0.032876
   14  C  2  Z    0.000000   0.000000   0.000000   0.266591  -0.000000
   15  C  2  S    0.000548  -0.003547   0.007599  -0.000000   0.018827
   16  C  2  X    0.000795  -0.001693  -0.002273   0.000000   0.008169
   17  C  2  Y    0.128932  -0.010901   0.007558   0.000000  -0.015067
   18  C  2  Z    0.000000   0.000000   0.000000   0.166304  -0.000000
   19  C  3  S    0.009876   0.012730  -0.013613  -0.000000   0.008071
   20  C  3  S   -0.018806  -0.033943   0.028632  -0.000000  -0.024383
   21  C  3  X    0.212793   0.181853  -0.048932   0.000000   0.234758
   22  C  3  Y   -0.161906   0.185747  -0.148355  -0.000000   0.013615
   23  C  3  Z    0.000000   0.000000   0.000000   0.150433  -0.000000
   24  C  3  S   -0.046973  -0.030352   0.065566  -0.000000   0.020050
   25  C  3  X    0.055682   0.072190  -0.061276  -0.000000   0.091150
   26  C  3  Y   -0.038964   0.081883  -0.089904  -0.000000  -0.014849
   27  C  3  Z   -0.000000   0.000000  -0.000000   0.084860  -0.000000
   28  C  4  S   -0.005807  -0.016209  -0.009546   0.000000   0.009492
   29  C  4  S    0.010663   0.040955   0.017895  -0.000000  -0.026989
   30  C  4  X   -0.227868  -0.170956  -0.013782   0.000000   0.233349
   31  C  4  Y   -0.138759   0.218388   0.108718  -0.000000   0.026735
   32  C  4  Z    0.000000   0.000000   0.000000   0.149350  -0.000000
   33  C  4  S    0.037409   0.045944   0.065142   0.000000   0.019283
   34  C  4  X   -0.059419  -0.071392  -0.046694   0.000000   0.076061
   35  C  4  Y   -0.031758   0.099896   0.075343   0.000000   0.038378
   36  C  4  Z    0.000000   0.000000   0.000000   0.082583  -0.000000
   37  C  5  S   -0.005960   0.017227   0.010971  -0.000000  -0.004624
   38  C  5  S    0.012623  -0.043669  -0.025527   0.000000   0.009258
   39  C  5  X   -0.241343  -0.166343   0.033088  -0.000000  -0.245442
   40  C  5  Y   -0.125884   0.202447   0.096870   0.000000  -0.052326
   41  C  5  Z    0.000000   0.000000   0.000000   0.092019  -0.000000
   42  C  5  S    0.015074  -0.034761  -0.056400  -0.000000  -0.020530
   43  C  5  X   -0.083403  -0.052219  -0.009302  -0.000000  -0.105677
   44  C  5  Y   -0.044461   0.087956   0.039493   0.000000   0.018825
   45  C  5  Z    0.000000   0.000000   0.000000   0.053461  -0.000000
   46  H  6  S   -0.024780   0.146721  -0.080545   0.000000   0.095006
   47  H  6  S   -0.021014   0.110895  -0.041677   0.000000   0.096617
   48  H  6  X    0.003987  -0.005618   0.002087  -0.000000  -0.003138
   49  H  6  Y    0.000399  -0.008267   0.004615  -0.000000  -0.006699
   50  H  6  Z    0.000000   0.000000  -0.000000   0.002305  -0.000000
   51  C  7  S    0.002964  -0.014117   0.014547  -0.000000  -0.003402
   52  C  7  S   -0.006318   0.036375  -0.034392  -0.000000   0.005982
   53  C  7  X    0.229581   0.180156  -0.000772  -0.000000  -0.235775
   54  C  7  Y   -0.145219   0.168617  -0.151010   0.000000  -0.011840
   55  C  7  Z    0.000000   0.000000   0.000000   0.091326  -0.000000
   56  C  7  S   -0.009387   0.025993  -0.066574   0.000000  -0.031741
   57  C  7  X    0.078653   0.055557  -0.024091  -0.000000  -0.116903
   58  C  7  Y   -0.053933   0.077241  -0.061015  -0.000000  -0.053292
   59  C  7  Z   -0.000000   0.000000  -0.000000   0.053756  -0.000000
   60  H  8  S    0.015108  -0.154749  -0.054360   0.000000   0.053162
   61  H  8  S    0.012727  -0.114552  -0.024751   0.000000   0.061276
   62  H  8  X   -0.003554   0.004970   0.000795  -0.000000  -0.000703
   63  H  8  Y   -0.000170  -0.009126  -0.003391  -0.000000   0.003895
   64  H  8  Z    0.000000   0.000000  -0.000000   0.002207  -0.000000
   65  C  9  S    0.001501   0.000234   0.010322  -0.000000  -0.001465
   66  C  9  S   -0.003071  -0.001285  -0.030857  -0.000000   0.004164
   67  C  9  X    0.011569  -0.029516  -0.269060   0.000000   0.243113
   68  C  9  Y    0.272462  -0.057175   0.023440  -0.000000   0.036308
   69  C  9  Z    0.000000   0.000000  -0.000000   0.071375  -0.000000
   70  C  9  S   -0.001884  -0.000083  -0.009504   0.000000   0.047368
   71  C  9  X    0.005147  -0.011846  -0.103449   0.000000   0.170469
   72  C  9  Y    0.079625  -0.000088   0.007333   0.000000   0.013550
   73  C  9  Z    0.000000   0.000000  -0.000000   0.038661  -0.000000
   74  H 10  S    0.008598   0.143284   0.030615   0.000000   0.060101
   75  H 10  S    0.005490   0.112247   0.023556   0.000000   0.043033
   76  H 10  X   -0.002214   0.004617   0.000394  -0.000000   0.001127
   77  H 10  Y   -0.002226  -0.008523  -0.001825  -0.000000  -0.005381
   78  H 10  Z    0.000000   0.000000  -0.000000   0.001029  -0.000000
   79  H 11  S   -0.001155  -0.135554   0.065280  -0.000000   0.108011
   80  H 11  S   -0.001129  -0.105821   0.051244  -0.000000   0.082551
   81  H 11  X    0.002443  -0.005011   0.002023  -0.000000   0.003901
   82  H 11  Y   -0.001759  -0.007840   0.003758  -0.000000   0.008343
   83  H 11  Z    0.000000   0.000000  -0.000000   0.000997  -0.000000
   84  H 12  S   -0.004241   0.017524   0.163425  -0.000000  -0.184277
   85  H 12  S   -0.002528   0.013372   0.132465   0.000000  -0.145979
   86  H 12  X   -0.000295   0.001274   0.011563  -0.000000  -0.014837
   87  H 12  Y    0.003083   0.000906  -0.000354  -0.000000   0.000635
   88  H 12  Z    0.000000   0.000000  -0.000000   0.000773  -0.000000

                     21         22         23         24         25
                   -0.5083    -0.4835    -0.3530    -0.3250    -0.2413
                     A          A          A          A          A   
    1  O  1  S    0.002758  -0.000000  -0.000000  -0.000000   0.000054
    2  O  1  S   -0.007700   0.000000   0.000000  -0.000000   0.000372
    3  O  1  X   -0.043990  -0.000000  -0.000000   0.000000  -0.040112
    4  O  1  Y   -0.038401  -0.000000  -0.000000  -0.000000   0.692738
    5  O  1  Z    0.000000   0.383841  -0.004354   0.277147  -0.000000
    6  O  1  S   -0.002367  -0.000000  -0.000000   0.000000  -0.000656
    7  O  1  X   -0.034141  -0.000000   0.000000  -0.000000  -0.025219
    8  O  1  Y   -0.010585   0.000000   0.000000  -0.000000   0.437356
    9  O  1  Z    0.000000   0.285275  -0.004617   0.243608  -0.000000
   10  C  2  S    0.000880  -0.000000  -0.000000  -0.000000   0.000266
   11  C  2  S   -0.001967  -0.000000  -0.000000  -0.000000  -0.000475
   12  C  2  X    0.029697   0.000000  -0.000000  -0.000000   0.005216
   13  C  2  Y   -0.250600   0.000000   0.000000  -0.000000  -0.063406
   14  C  2  Z    0.000000  -0.043373   0.010476  -0.293614  -0.000000
   15  C  2  S   -0.001515  -0.000000   0.000000   0.000000  -0.006813
   16  C  2  X   -0.003605   0.000000   0.000000  -0.000000   0.002755
   17  C  2  Y   -0.133465  -0.000000  -0.000000   0.000000   0.086298
   18  C  2  Z   -0.000000  -0.013065   0.008841  -0.220746  -0.000000
   19  C  3  S   -0.003329  -0.000000  -0.000000  -0.000000   0.020995
   20  C  3  S    0.003901  -0.000000   0.000000   0.000000  -0.039200
   21  C  3  X   -0.031413  -0.000000  -0.000000  -0.000000  -0.062041
   22  C  3  Y    0.213133  -0.000000  -0.000000  -0.000000   0.056313
   23  C  3  Z   -0.000000  -0.143783  -0.278890  -0.194613  -0.000000
   24  C  3  S    0.017179   0.000000  -0.000000  -0.000000  -0.158380
   25  C  3  X    0.033459   0.000000   0.000000  -0.000000  -0.033978
   26  C  3  Y    0.111120  -0.000000  -0.000000   0.000000   0.067208
   27  C  3  Z   -0.000000  -0.099367  -0.237831  -0.173119  -0.000000
   28  C  4  S    0.001315  -0.000000  -0.000000  -0.000000  -0.018589
   29  C  4  S    0.002726   0.000000  -0.000000  -0.000000   0.033910
   30  C  4  X   -0.024531  -0.000000  -0.000000  -0.000000   0.055788
   31  C  4  Y    0.204680  -0.000000  -0.000000  -0.000000   0.053190
   32  C  4  Z   -0.000000  -0.148138   0.289884  -0.176794  -0.000000
   33  C  4  S   -0.027438  -0.000000  -0.000000  -0.000000   0.149283
   34  C  4  X   -0.047125  -0.000000  -0.000000   0.000000   0.041732
   35  C  4  Y    0.100697  -0.000000  -0.000000   0.000000   0.067217
   36  C  4  Z   -0.000000  -0.103876   0.246584  -0.159772  -0.000000
   37  C  5  S   -0.003755  -0.000000  -0.000000  -0.000000  -0.007304
   38  C  5  S    0.011361   0.000000  -0.000000  -0.000000   0.012668
   39  C  5  X    0.008124   0.000000  -0.000000  -0.000000   0.029987
   40  C  5  Y   -0.244217   0.000000  -0.000000  -0.000000  -0.005456
   41  C  5  Z   -0.000000  -0.206654  -0.273649   0.121315  -0.000000
   42  C  5  S    0.033521  -0.000000   0.000000   0.000000   0.048636
   43  C  5  X    0.034161  -0.000000   0.000000   0.000000   0.024341
   44  C  5  Y   -0.139484   0.000000   0.000000  -0.000000  -0.030306
   45  C  5  Z   -0.000000  -0.140566  -0.225736   0.104042  -0.000000
   46  H  6  S    0.132283  -0.000000  -0.000000   0.000000  -0.007073
   47  H  6  S    0.104700  -0.000000  -0.000000  -0.000000   0.006488
   48  H  6  X   -0.006780   0.000000  -0.000000  -0.000000   0.001795
   49  H  6  Y   -0.008911   0.000000  -0.000000  -0.000000  -0.000241
   50  H  6  Z   -0.000000  -0.001561  -0.005440  -0.003621  -0.000000
   51  C  7  S    0.004081  -0.000000  -0.000000  -0.000000   0.005840
   52  C  7  S   -0.011517   0.000000   0.000000  -0.000000  -0.009686
   53  C  7  X    0.049578   0.000000  -0.000000  -0.000000  -0.022996
   54  C  7  Y   -0.248050   0.000000  -0.000000   0.000000  -0.004178
   55  C  7  Z   -0.000000  -0.209752   0.261824   0.142511  -0.000000
   56  C  7  S   -0.019555  -0.000000  -0.000000   0.000000  -0.037381
   57  C  7  X   -0.006709  -0.000000  -0.000000   0.000000  -0.018630
   58  C  7  Y   -0.125831  -0.000000   0.000000   0.000000  -0.029724
   59  C  7  Z   -0.000000  -0.142459   0.216318   0.123483  -0.000000
   60  H  8  S   -0.152384  -0.000000   0.000000  -0.000000   0.000418
   61  H  8  S   -0.127757   0.000000   0.000000   0.000000  -0.013048
   62  H  8  X    0.006510   0.000000  -0.000000  -0.000000  -0.001198
   63  H  8  Y   -0.010929  -0.000000  -0.000000  -0.000000  -0.000679
   64  H  8  Z   -0.000000  -0.001733   0.005706  -0.003282  -0.000000
   65  C  9  S   -0.000050  -0.000000  -0.000000  -0.000000   0.000237
   66  C  9  S    0.000140  -0.000000  -0.000000   0.000000  -0.000531
   67  C  9  X   -0.024511  -0.000000  -0.000000   0.000000  -0.000689
   68  C  9  Y    0.268998  -0.000000  -0.000000  -0.000000   0.002222
   69  C  9  Z   -0.000000  -0.234438  -0.011504   0.301897  -0.000000
   70  C  9  S   -0.006794   0.000000   0.000000  -0.000000  -0.000579
   71  C  9  X   -0.021204   0.000000  -0.000000  -0.000000  -0.001816
   72  C  9  Y    0.107752   0.000000   0.000000  -0.000000  -0.010028
   73  C  9  Z   -0.000000  -0.161260  -0.009835   0.266203  -0.000000
   74  H 10  S   -0.165829   0.000000  -0.000000  -0.000000  -0.009794
   75  H 10  S   -0.136932  -0.000000   0.000000   0.000000  -0.007367
   76  H 10  X   -0.007119  -0.000000  -0.000000  -0.000000   0.000090
   77  H 10  Y    0.011497  -0.000000  -0.000000  -0.000000   0.000796
   78  H 10  Z   -0.000000  -0.002852  -0.005376   0.002531  -0.000000
   79  H 11  S    0.139127  -0.000000  -0.000000  -0.000000   0.008736
   80  H 11  S    0.116579  -0.000000   0.000000  -0.000000   0.005706
   81  H 11  X    0.006968  -0.000000  -0.000000  -0.000000  -0.000079
   82  H 11  Y    0.008866  -0.000000  -0.000000  -0.000000   0.000760
   83  H 11  Z   -0.000000  -0.002941   0.005167   0.002957  -0.000000
   84  H 12  S    0.024959   0.000000  -0.000000  -0.000000   0.000698
   85  H 12  S    0.019412   0.000000  -0.000000  -0.000000   0.000848
   86  H 12  X    0.002063   0.000000  -0.000000  -0.000000   0.000070
   87  H 12  Y    0.001441  -0.000000  -0.000000  -0.000000   0.000100
   88  H 12  Z   -0.000000  -0.003414  -0.000209   0.006196  -0.000000

                     26         27         28         29         30
                    0.1268     0.1426     0.2261     0.2785     0.2933
                     A          A          A          A          A   
    1  O  1  S   -0.000000  -0.000000  -0.016312   0.002015  -0.009551
    2  O  1  S    0.000000   0.000000   0.038011  -0.004786   0.026728
    3  O  1  X   -0.000000  -0.000000  -0.114155   0.004701  -0.086243
    4  O  1  Y   -0.000000  -0.000000  -0.007888  -0.015502  -0.007979
    5  O  1  Z   -0.002635  -0.145255  -0.000000   0.000000  -0.000000
    6  O  1  S   -0.000000  -0.000000   0.112693  -0.024986   0.010270
    7  O  1  X    0.000000   0.000000  -0.148463   0.015067  -0.087837
    8  O  1  Y   -0.000000   0.000000  -0.004023  -0.008081  -0.002348
    9  O  1  Z    0.000512  -0.185726  -0.000000  -0.000000   0.000000
   10  C  2  S    0.000000  -0.000000   0.023828  -0.000520  -0.010351
   11  C  2  S    0.000000  -0.000000  -0.038981  -0.002800   0.052643
   12  C  2  X   -0.000000  -0.000000  -0.095673   0.010980  -0.151328
   13  C  2  Y   -0.000000  -0.000000   0.002379  -0.026534   0.002993
   14  C  2  Z   -0.005865   0.367822   0.000000   0.000000  -0.000000
   15  C  2  S   -0.000000   0.000000  -0.235176   0.041663  -0.426106
   16  C  2  X    0.000000  -0.000000   0.025461   0.023993   0.243548
   17  C  2  Y    0.000000   0.000000  -0.007700   0.228227   0.016968
   18  C  2  Z   -0.013412   0.575975   0.000000   0.000000  -0.000000
   19  C  3  S   -0.000000   0.000000   0.036490   0.027734   0.047388
   20  C  3  S   -0.000000   0.000000  -0.055301  -0.008450  -0.069502
   21  C  3  X    0.000000  -0.000000  -0.048686  -0.076809  -0.110597
   22  C  3  Y   -0.000000  -0.000000  -0.078590  -0.154664  -0.095248
   23  C  3  Z    0.272140  -0.132069  -0.000000  -0.000000   0.000000
   24  C  3  S    0.000000  -0.000000  -0.391586  -0.840183  -0.618355
   25  C  3  X   -0.000000  -0.000000  -0.347835  -0.437503  -0.612985
   26  C  3  Y   -0.000000   0.000000  -0.296023  -0.395935  -0.843863
   27  C  3  Z    0.500121  -0.253336  -0.000000  -0.000000   0.000000
   28  C  4  S   -0.000000   0.000000   0.035380  -0.030032   0.042926
   29  C  4  S   -0.000000   0.000000  -0.051831   0.010299  -0.065069
   30  C  4  X    0.000000  -0.000000  -0.040226   0.073144  -0.094980
   31  C  4  Y   -0.000000  -0.000000   0.089430  -0.165689   0.089700
   32  C  4  Z   -0.264906  -0.145545  -0.000000  -0.000000  -0.000000
   33  C  4  S    0.000000  -0.000000  -0.404157   0.888738  -0.517126
   34  C  4  X   -0.000000   0.000000  -0.337507   0.418181  -0.501876
   35  C  4  Y    0.000000  -0.000000   0.337244  -0.480447   0.855249
   36  C  4  Z   -0.484802  -0.274312  -0.000000  -0.000000   0.000000
   37  C  5  S    0.000000  -0.000000   0.043724   0.035701  -0.005319
   38  C  5  S    0.000000   0.000000  -0.047295  -0.015902   0.019537
   39  C  5  X   -0.000000  -0.000000   0.052002   0.076064  -0.040848
   40  C  5  Y   -0.000000  -0.000000  -0.104311  -0.168860   0.058219
   41  C  5  Z   -0.276940  -0.175807   0.000000   0.000000   0.000000
   42  C  5  S   -0.000000   0.000000  -0.842697  -1.021437  -0.228299
   43  C  5  X   -0.000000  -0.000000   0.073639   0.383382  -0.027805
   44  C  5  Y    0.000000  -0.000000  -0.294655  -0.522098   0.611387
   45  C  5  Z   -0.502332  -0.322207   0.000000   0.000000   0.000000
   46  H  6  S    0.000000  -0.000000   0.051224   0.013120   0.025436
   47  H  6  S    0.000000   0.000000   0.831684   1.087395   1.427361
   48  H  6  X   -0.000000  -0.000000  -0.003960  -0.001013  -0.007872
   49  H  6  Y   -0.000000  -0.000000  -0.006436  -0.006137  -0.002716
   50  H  6  Z    0.011155  -0.006137  -0.000000   0.000000   0.000000
   51  C  7  S    0.000000  -0.000000   0.045314  -0.034418  -0.007405
   52  C  7  S    0.000000  -0.000000  -0.049479   0.015009   0.017929
   53  C  7  X   -0.000000  -0.000000   0.058146  -0.076767  -0.055244
   54  C  7  Y   -0.000000  -0.000000   0.105195  -0.156245  -0.071052
   55  C  7  Z    0.283237  -0.164143   0.000000   0.000000   0.000000
   56  C  7  S   -0.000000   0.000000  -0.871834   0.991888  -0.137506
   57  C  7  X   -0.000000   0.000000   0.095777  -0.412804  -0.104623
   58  C  7  Y   -0.000000   0.000000   0.304740  -0.440521  -0.653929
   59  C  7  Z    0.513068  -0.301674   0.000000   0.000000   0.000000
   60  H  8  S   -0.000000  -0.000000   0.051408  -0.015027   0.025039
   61  H  8  S    0.000000  -0.000000   0.859041  -1.173758   1.320903
   62  H  8  X   -0.000000  -0.000000  -0.003660   0.001601  -0.007868
   63  H  8  Y   -0.000000  -0.000000   0.007005  -0.006168   0.002840
   64  H  8  Z   -0.010895  -0.006798  -0.000000   0.000000   0.000000
   65  C  9  S   -0.000000  -0.000000   0.037880   0.002942  -0.049043
   66  C  9  S   -0.000000  -0.000000  -0.048844  -0.001262   0.004930
   67  C  9  X   -0.000000  -0.000000   0.121057   0.010527  -0.198587
   68  C  9  Y   -0.000000   0.000000  -0.002456  -0.023753   0.004286
   69  C  9  Z   -0.007768   0.310636  -0.000000  -0.000000  -0.000000
   70  C  9  S    0.000000   0.000000  -0.574044  -0.082949   1.654709
   71  C  9  X    0.000000  -0.000000   0.434304   0.039944  -0.441038
   72  C  9  Y   -0.000000  -0.000000  -0.013063   0.269837   0.022811
   73  C  9  Z   -0.013384   0.590035  -0.000000  -0.000000  -0.000000
   74  H 10  S   -0.000000   0.000000   0.039372   0.013838  -0.010743
   75  H 10  S   -0.000000   0.000000   0.886107   1.242880  -0.532324
   76  H 10  X   -0.000000  -0.000000   0.004471   0.001083  -0.001606
   77  H 10  Y   -0.000000  -0.000000  -0.005914  -0.006594   0.001521
   78  H 10  Z   -0.011106  -0.007417  -0.000000   0.000000   0.000000
   79  H 11  S   -0.000000   0.000000   0.040672  -0.011581  -0.011279
   80  H 11  S   -0.000000   0.000000   0.919356  -1.168000  -0.643703
   81  H 11  X   -0.000000  -0.000000   0.004878  -0.001026  -0.001906
   82  H 11  Y   -0.000000  -0.000000   0.005860  -0.006219  -0.001915
   83  H 11  Z    0.011350  -0.006917  -0.000000   0.000000   0.000000
   84  H 12  S    0.000000  -0.000000   0.040059   0.001197   0.001898
   85  H 12  S    0.000000  -0.000000   0.906965   0.079235  -1.316892
   86  H 12  X   -0.000000  -0.000000   0.007522   0.000329  -0.005693
   87  H 12  Y   -0.000000  -0.000000  -0.000217  -0.003923  -0.000080
   88  H 12  Z   -0.000322   0.012918  -0.000000   0.000000   0.000000

                     31         32         33         34         35
                    0.3179     0.3240     0.3526     0.3678     0.4296
                     A          A          A          A          A   
    1  O  1  S    0.030713  -0.000276   0.000000   0.089041  -0.011514
    2  O  1  S   -0.045961   0.001100  -0.000000  -0.172962   0.026643
    3  O  1  X    0.059028   0.007693   0.000000   0.273352   0.062352
    4  O  1  Y    0.016897   0.085277   0.000000   0.024541  -0.000953
    5  O  1  Z   -0.000000  -0.000000  -0.091725   0.000000   0.000000
    6  O  1  S   -0.586576   0.010208  -0.000000  -1.282495   0.282075
    7  O  1  X    0.268600   0.007336   0.000000   0.821820  -0.032348
    8  O  1  Y    0.017664   0.011540  -0.000000   0.043708  -0.004020
    9  O  1  Z    0.000000  -0.000000  -0.157638   0.000000   0.000000
   10  C  2  S   -0.002905  -0.003267  -0.000000  -0.079245  -0.117335
   11  C  2  S    0.059805  -0.005506   0.000000   0.073566   0.157759
   12  C  2  X    0.057911   0.006718   0.000000   0.294363  -0.083634
   13  C  2  Y   -0.012449  -0.063475   0.000000  -0.013195   0.001173
   14  C  2  Z   -0.000000   0.000000   0.320647  -0.000000  -0.000000
   15  C  2  S   -1.440604   0.196096   0.000000   0.659495   3.147360
   16  C  2  X    1.418513  -0.083569   0.000000   1.648952  -1.467428
   17  C  2  Y   -0.001979  -0.032787   0.000000  -0.028353   0.074538
   18  C  2  Z   -0.000000   0.000000   0.678671  -0.000000  -0.000000
   19  C  3  S    0.012097  -0.062262   0.000000   0.038611   0.051481
   20  C  3  S   -0.104276   0.088353  -0.000000  -0.099737  -0.037223
   21  C  3  X    0.009334   0.013629   0.000000   0.001604   0.019433
   22  C  3  Y   -0.018182   0.117735   0.000000   0.000656   0.108627
   23  C  3  Z    0.000000  -0.000000  -0.240927   0.000000   0.000000
   24  C  3  S    1.092432   0.907883  -0.000000  -0.375028  -1.257605
   25  C  3  X   -0.529918   0.177020  -0.000000  -0.125508  -0.474482
   26  C  3  Y   -1.162889   0.963748  -0.000000  -0.607089   1.318579
   27  C  3  Z    0.000000  -0.000000  -0.674768   0.000000   0.000000
   28  C  4  S    0.033896   0.060239   0.000000   0.044941   0.044787
   29  C  4  S   -0.135610  -0.069049  -0.000000  -0.112165  -0.031001
   30  C  4  X    0.002342  -0.011915  -0.000000  -0.015744   0.007470
   31  C  4  Y    0.041461   0.108835  -0.000000  -0.047554  -0.091360
[...]
   62  H  8  X    0.358276   0.400330  -0.170528
   63  H  8  Y   -0.516273   0.321785   0.320069
   64  H  8  Z   -0.000000   0.000000   0.000000
   65  C  9  S    0.000437  -0.000472   0.013522
   66  C  9  S   -0.008878   0.016834  -0.459080
   67  C  9  X    0.009527  -0.014268   0.412505
   68  C  9  Y    0.007787   0.004775  -0.011544
   69  C  9  Z   -0.000000   0.000000   0.000000
   70  C  9  S    0.025174  -0.075775   1.481695
   71  C  9  X    0.035364   0.074723   1.374438
   72  C  9  Y    0.657572   4.226418   0.010651
   73  C  9  Z   -0.000000  -0.000000  -0.000000
   74  H 10  S   -0.155929   0.055211  -0.186353
   75  H 10  S   -0.461200   0.112893  -0.591201
   76  H 10  X   -0.359924  -0.446543  -0.288117
   77  H 10  Y    0.499352  -0.375265   0.518934
   78  H 10  Z   -0.000000  -0.000000  -0.000000
   79  H 11  S    0.148588  -0.042238  -0.190857
   80  H 11  S    0.442090  -0.077201  -0.606776
   81  H 11  X    0.375650   0.438317  -0.314153
   82  H 11  Y    0.461327  -0.376052  -0.520963
   83  H 11  Z    0.000000  -0.000000   0.000000
   84  H 12  S    0.003586  -0.005864   0.231189
   85  H 12  S    0.011352  -0.021764   0.714502
   86  H 12  X    0.014113  -0.043211   0.743064
   87  H 12  Y   -0.094612  -0.604191  -0.026562
   88  H 12  Z   -0.000000  -0.000000   0.000000
 ...... END OF ROHF CALCULATION ......
 STEP CPU TIME =     8.06 TOTAL CPU TIME =        8.1 (    0.1 MIN)
 TOTAL WALL CLOCK TIME=        8.1 SECONDS, CPU UTILIZATION IS  99.63%

     ----------------------------------------------------------------
     PROPERTY VALUES FOR THE ROHF  SELF-CONSISTENT FIELD WAVEFUNCTION
     ----------------------------------------------------------------

          -----------------
          ENERGY COMPONENTS
          -----------------

         WAVEFUNCTION NORMALIZATION =       1.0000000000

                ONE ELECTRON ENERGY =    -927.2666639584
                TWO ELECTRON ENERGY =     362.8036437939
           NUCLEAR REPULSION ENERGY =     259.6186244140
                                      ------------------
                       TOTAL ENERGY =    -304.8443957505

 ELECTRON-ELECTRON POTENTIAL ENERGY =     362.8036437939
  NUCLEUS-ELECTRON POTENTIAL ENERGY =   -1232.0662252698
   NUCLEUS-NUCLEUS POTENTIAL ENERGY =     259.6186244140
                                      ------------------
             TOTAL POTENTIAL ENERGY =    -609.6439570619
               TOTAL KINETIC ENERGY =     304.7995613113
                 VIRIAL RATIO (V/T) =       2.0001470948

  ...... PI ENERGY ANALYSIS ......

 ENERGY ANALYSIS:
            FOCK ENERGY=   -201.6593766695
          BARE H ENERGY=   -927.2666639584
     ELECTRONIC ENERGY =   -564.4630203140
         KINETIC ENERGY=    304.7995613113
          N-N REPULSION=    259.6186244140
           TOTAL ENERGY=   -304.8443958999
        SIGMA PART(1+2)=   -507.1321433550
               (K,V1,2)=    294.0139621771  -1110.1740413264    309.0279357943
           PI PART(1+2)=    -57.3308769590
               (K,V1,2)=     10.7855991343   -121.8921839434     53.7757078502
  SIGMA SKELETON, ERROR=   -247.5135189409      0.0000000000
             MIXED PART=-1.63741E-20 0.00000E+00 0.00000E+00-1.63741E-20
 ...... END OF PI ENERGY ANALYSIS ......

          ---------------------------------------
          MULLIKEN AND LOWDIN POPULATION ANALYSES
          ---------------------------------------

     ATOMIC MULLIKEN POPULATION IN EACH MOLECULAR ORBITAL

                      1          2          3          4          5

                  2.000000   2.000000   2.000000   2.000000   2.000000

    1             1.998016  -0.000530   0.000000   0.000000  -0.000001
    2             0.001928   1.995047  -0.000198  -0.000182   0.002637
    3             0.000019   0.002789   0.000103   0.022674  -0.000110
    4             0.000019   0.003001   0.055919   0.000333   1.941295
    5            -0.000001  -0.000254   0.003238   1.966935   0.000104
    6             0.000012   0.000059   0.000001   0.000049  -0.000000
    7            -0.000001  -0.000260   1.933705   0.003546   0.055772
    8             0.000008   0.000060   0.000070  -0.000002   0.000035
    9             0.000000   0.000090   0.007006   0.006509   0.000269
   10            -0.000000  -0.000001  -0.000002   0.000096   0.000000
   11            -0.000000  -0.000001   0.000112   0.000001  -0.000006
   12            -0.000000   0.000000   0.000045   0.000039   0.000003

                      6          7          8          9         10

                  2.000000   2.000000   2.000000   2.000000   2.000000

    1            -0.000001   0.000000   1.302762   0.311643   0.000428
    2             0.002556   0.000064   0.458279   0.078243   0.123053
    3             1.974829  -0.000100   0.088634   0.206797   0.403653
    4            -0.000112  -0.000129   0.064704   0.227181   0.436166
    5             0.022450   0.007286   0.039365   0.348065   0.414935
    6             0.000058  -0.000000  -0.001151   0.006556   0.041344
    7             0.000055   0.006931   0.040303   0.359754   0.382146
    8            -0.000000  -0.000000  -0.001648   0.008012   0.045298
    9             0.000154   1.985881   0.008121   0.398789   0.071160
   10             0.000009   0.000021   0.000435   0.017306   0.042846
   11             0.000000   0.000021   0.000407   0.018434   0.038870
   12             0.000002   0.000024  -0.000212   0.019220   0.000101

                     11         12         13         14         15

                  2.000000   2.000000   2.000000   2.000000   2.000000

    1             0.247006   0.005896   0.146893   0.130009   0.269754
    2             0.365533   0.306582   0.275512   0.051350   0.096714
    3             0.238856   0.276394   0.254353   0.270737   0.157647
    4             0.205358   0.270694   0.260983   0.275057   0.175816
    5             0.144003   0.300627   0.282824   0.153336   0.279036
    6             0.019988   0.074888   0.036971   0.120659   0.131862
    7             0.169853   0.300111   0.282671   0.159026   0.265969
    8             0.016815   0.071249   0.041618   0.125802   0.141294
    9             0.507458   0.222670   0.218450   0.397872   0.059108
   10             0.006803   0.083922   0.062393   0.051074   0.202319
   11             0.011276   0.086807   0.058234   0.052304   0.194174
   12             0.067052   0.000161   0.079098   0.212774   0.026306

                     16         17         18         19         20

                  2.000000   2.000000   2.000000   2.000000   2.000000

    1             0.015794   0.009308   0.739061   0.993411   0.319459
    2             0.372213   0.022524   0.267500   0.509559   0.090668
    3             0.308051   0.318177   0.129494   0.166570   0.215310
    4             0.304315   0.366138   0.065512   0.161129   0.204075
    5             0.333195   0.321215   0.043189   0.064792   0.229495
    6             0.005851   0.168919   0.043035   0.000242   0.070934
    7             0.331063   0.282267   0.101778   0.064399   0.221069
    8             0.002509   0.185437   0.018964   0.000227   0.023916
    9             0.324855   0.014317   0.338867   0.039508   0.286760
   10             0.001018   0.163557   0.007586   0.000064   0.023957
   11             0.000505   0.145730   0.033860   0.000062   0.078714
   12             0.000631   0.002411   0.211153   0.000037   0.235642

                     21         22         23         24         25

                  2.000000   2.000000   2.000000   2.000000   1.000000

    1             0.015765   0.646516   0.000097   0.283994   0.964014
    2             0.213980   0.008917   0.000649   0.459683   0.013675
    3             0.195267   0.148780   0.507236   0.237429   0.010046
    4             0.185565   0.159505   0.545824   0.197643   0.008592
    5             0.259282   0.313350   0.491234   0.093991   0.001554
    6             0.119367   0.000153   0.001142   0.000529   0.000315
    7             0.258387   0.322042   0.449535   0.130161   0.000926
    8             0.161381   0.000179   0.001253   0.000440   0.000349
    9             0.262835   0.399132   0.000902   0.594147   0.000048
   10             0.189640   0.000419   0.001107   0.000232   0.000270
   11             0.134073   0.000439   0.001020   0.000319   0.000209
   12             0.004456   0.000569   0.000002   0.001432   0.000001

     ATOMIC SPIN POPULATION (ALPHA MINUS BETA)
       ATOM         MULL.POP.                    LOW.POP.
    1 OXYGEN        0.964014                     0.960156
    2 CARBON        0.013675                     0.006572
    3 CARBON        0.010046                     0.015691
    4 CARBON        0.008592                     0.013152
    5 CARBON        0.001554                     0.001853
    6 HYDROGEN      0.000315                     0.000446
    7 CARBON        0.000926                     0.001098
    8 HYDROGEN      0.000349                     0.000256
    9 CARBON        0.000048                     0.000028
   10 HYDROGEN      0.000270                     0.000411
   11 HYDROGEN      0.000209                     0.000332
   12 HYDROGEN      0.000001                     0.000004

               ----- POPULATIONS IN EACH AO -----
                             MULLIKEN      LOWDIN
              1  O  1  S      1.99822     1.99549
              2  O  1  S      0.94734     0.94046
              3  O  1  X      0.87938     0.83827
              4  O  1  Y      0.65010     0.62935
              5  O  1  Z      1.18225     1.15438
              6  O  1  S      1.10286     0.79803
              7  O  1  X      0.55631     0.62517
              8  O  1  Y      0.34107     0.37200
              9  O  1  Z      0.74177     0.77008
             10  C  2  S      1.99770     1.98769
             11  C  2  S      0.71674     0.55236
             12  C  2  X      0.62939     0.57558
             13  C  2  Y      0.81465     0.75304
             14  C  2  Z      0.55020     0.50213
             15  C  2  S      0.41719     0.36274
             16  C  2  X     -0.07411     0.30470
             17  C  2  Y      0.23612     0.37916
             18  C  2  Z      0.42861     0.47207
             19  C  3  S      1.99768     1.98873
             20  C  3  S      0.68518     0.53263
             21  C  3  X      0.74985     0.68965
             22  C  3  Y      0.72141     0.65279
             23  C  3  Z      0.56115     0.52451
             24  C  3  S      0.44996     0.39040
             25  C  3  X      0.23167     0.38469
             26  C  3  Y      0.23788     0.40292
             27  C  3  Z      0.49887     0.52861
             28  C  4  S      1.99767     1.98870
             29  C  4  S      0.68449     0.53086
             30  C  4  X      0.74723     0.68808
             31  C  4  Y      0.72113     0.64975
             32  C  4  Z      0.56297     0.52594
             33  C  4  S      0.44142     0.39052
             34  C  4  X      0.21196     0.38165
             35  C  4  Y      0.24658     0.40759
             36  C  4  Z      0.50113     0.53157
             37  C  5  S      1.99773     1.98900
             38  C  5  S      0.69372     0.53653
             39  C  5  X      0.74928     0.68923
             40  C  5  Y      0.74378     0.66865
             41  C  5  Z      0.50695     0.46778
             42  C  5  S      0.47238     0.39110
             43  C  5  X      0.19289     0.38066
             44  C  5  Y      0.30010     0.41454
             45  C  5  Z      0.45641     0.49390
             46  H  6  S      0.53452     0.51151
             47  H  6  S      0.29097     0.37053
             48  H  6  X      0.00456     0.01210
             49  H  6  Y      0.00967     0.02375
             50  H  6  Z      0.00207     0.00819
             51  C  7  S      1.99773     1.98899
             52  C  7  S      0.69330     0.53648
             53  C  7  X      0.74643     0.68491
             54  C  7  Y      0.74521     0.67160
             55  C  7  Z      0.50816     0.46916
             56  C  7  S      0.47644     0.39110
             57  C  7  X      0.20267     0.38328
             58  C  7  Y      0.29328     0.41178
             59  C  7  Z      0.45798     0.49485
             60  H  8  S      0.53579     0.51239
             61  H  8  S      0.29110     0.36984
             62  H  8  X      0.00368     0.01026
             63  H  8  Y      0.01060     0.02569
             64  H  8  Z      0.00210     0.00832
             65  C  9  S      1.99770     1.98892
             66  C  9  S      0.68645     0.53317
             67  C  9  X      0.72802     0.64875
             68  C  9  Y      0.74955     0.69796
             69  C  9  Z      0.54028     0.50271
             70  C  9  S      0.47312     0.39173
             71  C  9  X      0.33126     0.42846
             72  C  9  Y      0.14512     0.36727
             73  C  9  Z      0.49341     0.52398
             74  H 10  S      0.53940     0.51739
             75  H 10  S      0.29941     0.37156
             76  H 10  X      0.00364     0.01023
             77  H 10  Y      0.01080     0.02556
             78  H 10  Z      0.00182     0.00694
             79  H 11  S      0.53947     0.51756
             80  H 11  S      0.29983     0.37146
             81  H 11  X      0.00430     0.01165
             82  H 11  Y      0.01012     0.02410
             83  H 11  Z      0.00184     0.00700
             84  H 12  S      0.53864     0.51715
             85  H 12  S      0.30610     0.37494
             86  H 12  X      0.01339     0.03102
             87  H 12  Y      0.00077     0.00419
             88  H 12  Z      0.00204     0.00787

          ----- MULLIKEN ATOMIC OVERLAP POPULATIONS -----
          (OFF-DIAGONAL ELEMENTS NEED TO BE MULTIPLIED BY 2)

             1           2           3           4           5

    1    8.3868632
    2    0.1493855   4.7532440
    3   -0.0733820   0.5048528   4.9501991
    4   -0.0617394   0.5008818  -0.0377933   4.9285840
    5    0.0038098  -0.0522191   0.5125850  -0.0300641   4.8664536
    6   -0.0048791  -0.0368495   0.3950918   0.0030538  -0.0186471
    7    0.0037392  -0.0498306  -0.0320952   0.5053391  -0.0588276
    8   -0.0040471  -0.0358242   0.0030468   0.3956927  -0.0000717
    9   -0.0003785  -0.0210455  -0.0701928  -0.0701854   0.5250675
   10   -0.0000415   0.0018203  -0.0218608   0.0006018   0.3875779
   11   -0.0000349   0.0016589   0.0006120  -0.0222926   0.0021479
   12    0.0000003   0.0004133   0.0025726   0.0025067  -0.0245665

             6           7           8           9          10

    6    0.5037421
    7   -0.0000658   4.8806334
    8   -0.0000884  -0.0213337   0.5056219
    9    0.0026481   0.5278590   0.0026409   4.9037314
   10   -0.0021262   0.0021298   0.0000081  -0.0232480   0.5123442
   11    0.0000078   0.3882152  -0.0022737  -0.0231627  -0.0001251
   12   -0.0001045  -0.0245537  -0.0001049   0.3911751  -0.0020098

            11          12

   11    0.5128561
   12   -0.0020449   0.5176639

          TOTAL MULLIKEN AND LOWDIN ATOMIC POPULATIONS
       ATOM         MULL.POP.    CHARGE          LOW.POP.     CHARGE
    1 OXYGEN        8.399295   -0.399295         8.123236   -0.123236
    2 CARBON        5.716488    0.283512         5.889457    0.110543
    3 CARBON        6.133636   -0.133636         6.094935   -0.094935
    4 CARBON        6.114585   -0.114585         6.094672   -0.094672
    5 CARBON        6.113246   -0.113246         6.031381   -0.031381
    6 HYDROGEN      0.841783    0.158217         0.926087    0.073913
    7 CARBON        6.121209   -0.121209         6.032157   -0.032157
    8 HYDROGEN      0.843266    0.156734         0.926503    0.073497
    9 CARBON        6.144909   -0.144909         6.082959   -0.082959
   10 HYDROGEN      0.855071    0.144929         0.931675    0.068325
   11 HYDROGEN      0.855564    0.144436         0.931777    0.068223
   12 HYDROGEN      0.860948    0.139052         0.935160    0.064840

          -------------------------------
          BOND ORDER AND VALENCE ANALYSIS     BOND ORDER THRESHOLD=0.050
          -------------------------------

                   BOND                       BOND                       BOND
  ATOM PAIR DIST  ORDER      ATOM PAIR DIST  ORDER      ATOM PAIR DIST  ORDER
    1   2  1.395  0.747        2   3  1.391  1.387        2   4  1.392  1.394
    2   9  2.775  0.096        3   5  1.392  1.443        3   6  1.083  0.954
    3   7  2.783  0.099        4   5  2.796  0.097        4   7  1.393  1.427
    4   8  1.080  0.955        5   9  1.393  1.434        5  10  1.084  0.959
    7   9  1.393  1.442        7  11  1.084  0.960        9  12  1.084  0.963

                       TOTAL       BONDED        FREE
      ATOM            VALENCE     VALENCE     VALENCE
    1 OXYGEN            1.723       0.793       0.929
    2 CARBON            3.572       3.572       0.000
    3 CARBON            3.838       3.838       0.000
    4 CARBON            3.834       3.833       0.000
    5 CARBON            3.883       3.883       0.000
    6 HYDROGEN          0.952       0.952       0.000
    7 CARBON            3.879       3.879       0.000
    8 HYDROGEN          0.952       0.952       0.000
    9 CARBON            3.868       3.868       0.000
   10 HYDROGEN          0.958       0.958       0.000
   11 HYDROGEN          0.958       0.958       0.000
   12 HYDROGEN          0.960       0.960       0.000

          -----------------------------------------
          ATOMIC SPIN DENSITY AT THE NUCLEUS (A.U.)
          -----------------------------------------
                            SPIN DENS    ALPHA DENS     BETA DENS
    1  OXYGEN       8.0     0.0000002     145.96634     145.96634
    2  CARBON       6.0     0.0000035      59.14945      59.14945
    3  CARBON       6.0     0.0225052      59.14299      59.12049
    4  CARBON       6.0     0.0175797      59.13455      59.11697
    5  CARBON       6.0     0.0026962      59.14778      59.14509
    6  HYDROGEN     1.0     0.0001013       0.21252       0.21242
    7  CARBON       6.0     0.0017125      59.14698      59.14527
    8  HYDROGEN     1.0     0.0000013       0.21316       0.21316
    9  CARBON       6.0     0.0000030      59.13642      59.13642
   10  HYDROGEN     1.0     0.0001849       0.21471       0.21452
   11  HYDROGEN     1.0     0.0001510       0.21475       0.21459
   12  HYDROGEN     1.0     0.0000009       0.21431       0.21431

          ---------------------
          ELECTROSTATIC MOMENTS
          ---------------------

 POINT   1           X           Y           Z (BOHR)    CHARGE
                 0.000000    0.000000    0.000000       -0.00 (A.U.)
         DX          DY          DZ         /D/  (DEBYE)
    -2.151632   -0.058937    0.000000    2.152439
 ...... END OF PROPERTY EVALUATION ......
 STEP CPU TIME =     0.02 TOTAL CPU TIME =        8.1 (    0.1 MIN)
 TOTAL WALL CLOCK TIME=        8.1 SECONDS, CPU UTILIZATION IS  99.75%
               580000  WORDS OF DYNAMIC MEMORY USED
 EXECUTION OF GAMESS TERMINATED NORMALLY Wed Aug  9 19:21:34 2017
 DDI: 263640 bytes (0.3 MB / 0 MWords) used by master data server.

 ----------------------------------------
 CPU timing information for all processes
 ========================================
 0: 8.101 + 0.21 = 8.123
 ----------------------------------------
 ddikick.x: exited gracefully.
unset echo
----- accounting info -----
Files used on the master node compute-1-7.local were:
-rw-rw-r-- 1 sarom sarom 1.3K Aug  9 19:21 /scratch/omp-exam05.F05
-rw-rw-r-- 1 sarom sarom 1.9M Aug  9 19:21 /scratch/omp-exam05.F10
rm: cannot remove `/scratch/tmp': Is a directory
ls: No match.
ls: No match.
ls: No match.
Wed Aug  9 19:21:37 CDT 2017
0.263u 0.175s 0:11.65 3.6%	0+0k 8+360io 0pf+0w
/opt/gridengine/default/spool/compute-1-7/active_jobs/35621.1/pe_hostfile compute-1-7.local
