-catch_rsh /opt/gridengine/default/spool/compute-1-8/active_jobs/35679.1/pe_hostfile
compute-1-8
The primary node assigned by SGE to this run is compute-1-8
Warning: no access to tty (Bad file descriptor).
Thus no job control in this shell.
source /home/sarom/dir.git.branch.saromleang-travis-ci/install.info
setenv GMS_PATH /home/sarom/dir.git.branch.saromleang-travis-ci
setenv GMS_BUILD_DIR /home/sarom/dir.git.branch.saromleang-travis-ci
setenv GMS_TARGET linux64
setenv GMS_FORTRAN gfortran
setenv GMS_GFORTRAN_VERNO 4.4
setenv GMS_MATHLIB mkl-so
setenv GMS_MATHLIB none
setenv GMS_MATHLIB_PATH /share/apps/intel/compilers_and_libraries_2017.1.132/linux/mkl/lib/intel64
setenv GMS_MKL_VERNO 12
setenv GMS_DDI_COMM sockets
setenv GMS_LIBCCHEM false
setenv GMS_EIGEN_PATH
setenv GMS_PHI false
setenv GMS_SHMTYPE sysv
setenv GMS_OPENMP false
unset echo
virt-mvoq
/home/sarom/dir.git.branch.saromleang-travis-ci/tests/exotic/parallel
----- GAMESS execution script 'rungms' -----
This job is running on host compute-1-8.local
under operating system Linux at Wed Aug 9 19:42:56 CDT 2017
Available scratch disk space (Kbyte units) at beginning of the job is
Filesystem           1K-blocks      Used Available Use% Mounted on
/dev/sda1             16126920   8516588   6791132  56% /
GAMESS temporary binary files will be written to /scratch
GAMESS supplementary output files will be written to /home/sarom/restart
Copying input file virt-mvoq.inp to your run's scratch directory...
cp /home/sarom/dir.git.branch.saromleang-travis-ci/tests/exotic/parallel/virt-mvoq.inp /scratch/virt-mvoq.F05
unset echo
The generated host list is
compute-1-8.local
/home/sarom/dir.git.branch.saromleang-travis-ci/ddikick.x /home/sarom/dir.git.branch.saromleang-travis-ci/gamess.00.x virt-mvoq -ddi 1 1 compute-1-8.local -scr /scratch

 Distributed Data Interface kickoff program.
 Initiating 1 compute processes on 1 nodes to run the following command:
 /home/sarom/dir.git.branch.saromleang-travis-ci/gamess.00.x virt-mvoq 

          ******************************************************
          *         GAMESS VERSION = 20 APR 2017 (R1)          *
          *             FROM IOWA STATE UNIVERSITY             *
          * M.W.SCHMIDT, K.K.BALDRIDGE, J.A.BOATZ, S.T.ELBERT, *
          *   M.S.GORDON, J.H.JENSEN, S.KOSEKI, N.MATSUNAGA,   *
          *          K.A.NGUYEN, S.J.SU, T.L.WINDUS,           *
          *       TOGETHER WITH M.DUPUIS, J.A.MONTGOMERY       *
          *         J.COMPUT.CHEM.  14, 1347-1363(1993)        *
          **************** 64 BIT LINUX VERSION ****************

  SINCE 1993, STUDENTS AND POSTDOCS WORKING AT IOWA STATE UNIVERSITY
  AND ALSO IN THEIR VARIOUS JOBS AFTER LEAVING ISU HAVE MADE IMPORTANT
  CONTRIBUTIONS TO THE CODE:
     IVANA ADAMOVIC, CHRISTINE AIKENS, YURI ALEXEEV, POOJA ARORA,
     ANDREY ASADCHEV, ROB BELL, PRADIPTA BANDYOPADHYAY, JONATHAN BENTZ,
     BRETT BODE, KURT BRORSEN, CALEB CARLIN, GALINA CHABAN, WEI CHEN,
     CHEOL HO CHOI, PAUL DAY, ALBERT DEFUSCO, NUWAN DESILVA, TIM DUDLEY,
     DMITRI FEDOROV, GRAHAM FLETCHER, MARK FREITAG, KURT GLAESEMANN,
     DAN KEMP, GRANT MERRILL, NORIYUKI MINEZAWA, JONATHAN MULLIN,
     TAKESHI NAGATA, SEAN NEDD, HEATHER NETZLOFF, BOSILJKA NJEGIC, RYAN OLSON,
     MIKE PAK, SPENCER PRUITT, LUKE ROSKOP, JIM SHOEMAKER, LYUDMILA SLIPCHENKO,
     TONY SMITH, SAROM SOK LEANG, JIE SONG, TETSUYA TAKETSUGU, SIMON WEBB,
     PENG XU, SOOHAENG YOO, FEDERICO ZAHARIEV

  ADDITIONAL CODE HAS BEEN PROVIDED BY COLLABORATORS IN OTHER GROUPS:
     IOWA STATE UNIVERSITY:
          JOE IVANIC, AARON WEST, LAIMUTIS BYTAUTAS, KLAUS RUEDENBERG
     UNIVERSITY OF TOKYO: KIMIHIKO HIRAO, TAKAHITO NAKAJIMA,
          TAKAO TSUNEDA, MUNEAKI KAMIYA, SUSUMU YANAGISAWA,
          KIYOSHI YAGI, MAHITO CHIBA, SEIKEN TOKURA, NAOAKI KAWAKAMI
     UNIVERSITY OF AARHUS: FRANK JENSEN
     UNIVERSITY OF IOWA: VISVALDAS KAIRYS, HUI LI
     NATIONAL INST. OF STANDARDS AND TECHNOLOGY: WALT STEVENS, DAVID GARMER
     UNIVERSITY OF PISA: BENEDETTA MENNUCCI, JACOPO TOMASI
     UNIVERSITY OF MEMPHIS: HENRY KURTZ, PRAKASHAN KORAMBATH
     UNIVERSITY OF ALBERTA: TOBY ZENG, MARIUSZ KLOBUKOWSKI
     UNIVERSITY OF NEW ENGLAND: MARK SPACKMAN
     MIE UNIVERSITY: HIROAKI UMEDA
     NAT. INST. OF ADVANCED INDUSTRIAL SCIENCE AND TECHNOLOGY: KAZUO KITAURA
     MICHIGAN STATE UNIVERSITY:
          KAROL KOWALSKI, MARTA WLOCH, JEFFREY GOUR, JESSE LUTZ,
          WEI LI, PIOTR PIECUCH
     UNIVERSITY OF SILESIA: MONIKA MUSIAL, STANISLAW KUCHARSKI
     FACULTES UNIVERSITAIRES NOTRE-DAME DE LA PAIX:
          OLIVIER QUINET, BENOIT CHAMPAGNE
     UNIVERSITY OF CALIFORNIA - SANTA BARBARA: BERNARD KIRTMAN
     INSTITUTE FOR MOLECULAR SCIENCE:
          KAZUYA ISHIMURA, MICHIO KATOUDA, AND SHIGERU NAGASE
     UNIVERSITY OF NOTRE DAME: ANNA POMOGAEVA, DAN CHIPMAN
     KYUSHU UNIVERSITY:
          HARUYUKI NAKANO,
          FENG LONG GU, JACEK KORCHOWIEC, MARCIN MAKOWSKI, AND YURIKO AOKI,
          HIROTOSHI MORI AND EISAKU MIYOSHI
     PENNSYLVANIA STATE UNIVERSITY:
          TZVETELIN IORDANOV, CHET SWALINA, JONATHAN SKONE,
          SHARON HAMMES-SCHIFFER
     WASEDA UNIVERSITY:
          MASATO KOBAYASHI, TOMOKO AKAMA, TSUGUKI TOUMA,
          TAKESHI YOSHIKAWA, YASUHIRO IKABATA, JUNJI SEINO,
          YUYA NAKAJIMA, HIROMI NAKAI
     NANJING UNIVERSITY: SHUHUA LI
     UNIVERSITY OF NEBRASKA:
          PEIFENG SU, DEJUN SI, NANDUN THELLAMUREGE, YALI WANG, HUI LI
     UNIVERSITY OF ZURICH: ROBERTO PEVERATI, KIM BALDRIDGE
     N. COPERNICUS UNIVERSITY AND JACKSON STATE UNIVERSITY:
          MARIA BARYSZ
     UNIVERSITY OF COPENHAGEN: Jimmy Kromann, CASPER STEINMANN
     TOKYO INSTITUTE OF TECHNOLOGY: HIROYA NAKATA
     NAGOYA UNIVERSITY: YOSHIO NISHIMOTO, STEPHAN IRLE
     MOSCOW STATE UNIVERSITY: VLADIMIR MIRONOV

 EXECUTION OF GAMESS BEGUN Wed Aug  9 19:42:56 2017

            ECHO OF THE FIRST FEW INPUT CARDS -
 INPUT CARD>!   P2Mg3 prism...MVO type altered virtuals...test created 4/2015               
 INPUT CARD>!   6-311G(3df) basis means 245 AOs, generating 215 MOs                         
 INPUT CARD>!   not using positive number of electrons means that instead                   
 INPUT CARD>!   we are removing one electron from every valence orbital.                    
 INPUT CARD>!        HOMO is #33, while first unoccupied is MO #34                          
 INPUT CARD>!                                                                               
 INPUT CARD>!   SCF E= -1280.3285237314 in 13 iters,                                        
 INPUT CARD>!   but the point of this run is to check eigenvalues,                          
 INPUT CARD>!         31         32         33         34         35                        
 INPUT CARD>!       -0.2513    -0.2513    -0.2394    -1.7273    -1.6538                     
 INPUT CARD>!         E''        E''        A2"        A1'        E'                        
 INPUT CARD>!                                                                               
 INPUT CARD>!   This test takes 14 seconds on 2.66 GHz Cloverton (29 Apr 2015)              
 INPUT CARD>!                                                                               
 INPUT CARD> $contrl scftyp=rhf runtyp=energy ispher=1 $end                                 
 INPUT CARD> $system mwords=3 $end                                                          
 INPUT CARD> $basis  gbasis=n311 ngauss=6 ndfunc=3 nffunc=1 $end                            
 INPUT CARD> $guess  guess=huckel $end                                                      
 INPUT CARD> $scf    mvoq=-1 $end                                                           
 INPUT CARD> $data                                                                          
 INPUT CARD>Kaori Noto's P2Mg3 prism...RHF/6-311G(3df) geometry                             
 INPUT CARD>Dnh 3                                                                           
 INPUT CARD>                                                                                
 INPUT CARD>MG         12.0   1.5844539831   0.0000000000   0.0000000000                    
 INPUT CARD>P          15.0   0.0000000000   0.0000000000   1.9436784063                    
 INPUT CARD> $end                                                                           
    3000000 WORDS OF MEMORY AVAILABLE

     BASIS OPTIONS
     -------------
     GBASIS=N311         IGAUSS=       6      POLAR=POPN311 
     NDFUNC=       3     NFFUNC=       1     DIFFSP=       F
     NPFUNC=       0      DIFFS=       F     BASNAM=        
     SPLIT3=     4.00000000     1.00000000     0.25000000


     RUN TITLE
     ---------
 Kaori Noto's P2Mg3 prism...RHF/6-311G(3df) geometry                             

 THE POINT GROUP OF THE MOLECULE IS DNH     
 THE ORDER OF THE PRINCIPAL AXIS IS     3

 ATOM      ATOMIC                      COORDINATES (BOHR)
           CHARGE         X                   Y                   Z
 MG         12.0    -1.4970919341        2.5930392935        0.0000000000
 MG         12.0    -1.4970919341       -2.5930392935        0.0000000000
 MG         12.0     2.9941838682        0.0000000000        0.0000000000
 P          15.0     0.0000000000        0.0000000000       -3.6730195962
 P          15.0     0.0000000000        0.0000000000        3.6730195962

          INTERNUCLEAR DISTANCES (ANGS.)
          ------------------------------

                1 MG         2 MG         3 MG         4 P          5 P     

   1 MG      0.0000000    2.7443548 *  2.7443548 *  2.5076643 *  2.5076643 *
   2 MG      2.7443548 *  0.0000000    2.7443548 *  2.5076643 *  2.5076643 *
   3 MG      2.7443548 *  2.7443548 *  0.0000000    2.5076643 *  2.5076643 *
   4 P       2.5076643 *  2.5076643 *  2.5076643 *  0.0000000    3.8873568  
   5 P       2.5076643 *  2.5076643 *  2.5076643 *  3.8873568    0.0000000  

  * ... LESS THAN  3.000


     ATOMIC BASIS SET
     ----------------
 THE CONTRACTED PRIMITIVE FUNCTIONS HAVE BEEN UNNORMALIZED
 THE CONTRACTED BASIS FUNCTIONS ARE NOW NORMALIZED TO UNITY

  SHELL TYPE  PRIMITIVE        EXPONENT          CONTRACTION COEFFICIENT(S)

 MG        

     31   S       1         43866.5000000    0.000917999879
     31   S       2          6605.3700000    0.007046999073
     31   S       3          1513.2600000    0.035940995270
     31   S       4           432.3170000    0.141460981382
     31   S       5           142.1490000    0.426763943832
     31   S       6            51.3980000    0.497974934460

     32   S       7            51.3980000    0.251354898033
     32   S       8            19.9200000    0.618670749025
     32   S       9             8.0247000    0.188416923565

     33   S      10             2.5082000    1.000000000000

     34   S      11             0.8715000    1.000000000000

     35   S      12             0.1082000    1.000000000000

     36   S      13             0.0401000    1.000000000000

     37   P      14           193.8540000    0.010187975280
     37   P      15            45.4420000    0.075359817145
     37   P      16            14.1860000    0.307418254073
     37   P      17             5.0575000    0.717573258863

     38   P      18             1.8886000    0.667333696756
     38   P      19             0.7227000    0.394645863783

     39   P      20             0.2364000    1.000000000000

     40   P      21             0.0934000    1.000000000000

     41   P      22             0.0348000    1.000000000000

     42   D      23             0.7000000    1.000000000000

     43   D      24             0.1750000    1.000000000000

     44   D      25             0.0437500    1.000000000000

     45   F      26             0.2000000    1.000000000000

 P         

     61   S      27         77492.4300000    0.000786999225
     61   S      28         11605.7900000    0.006106993986
     61   S      29          2645.9600000    0.031372969105
     61   S      30           754.9800000    0.124238877653
     61   S      31           248.7500000    0.380892624909
     61   S      32            91.1570000    0.559811448715

     62   S      33            91.1570000    0.163986247350
     62   S      34            36.2260000    0.625950944158
     62   S      35            15.2110000    0.262196395486

     63   S      36             4.7138000    1.000000000000

     64   S      37             1.7827000    1.000000000000

     65   S      38             0.3425000    1.000000000000

     66   S      39             0.1246000    1.000000000000

     67   P      40           384.8400000    0.003239994020
     67   P      41            90.5520000    0.024924953996
     67   P      42            28.8060000    0.105696804916
     67   P      43            10.6880000    0.263228514161
     67   P      44             4.2521000    0.719051672850

     68   P      45             4.2521000   -1.612717667822
     68   P      46             1.7405000    1.205067060009

     69   P      47             0.5979000    1.000000000000

     70   P      48             0.2292000    1.000000000000

     71   P      49             0.0838000    1.000000000000

     72   D      50             2.2000000    1.000000000000

     73   D      51             0.5500000    1.000000000000

     74   D      52             0.1375000    1.000000000000

     75   F      53             0.4500000    1.000000000000

 TOTAL NUMBER OF BASIS SET SHELLS             =   75
 NUMBER OF CARTESIAN GAUSSIAN BASIS FUNCTIONS =  245
 NOTE: THIS RUN WILL RESTRICT THE MO VARIATION SPACE TO SPHERICAL HARMONICS.
 THE NUMBER OF ORBITALS KEPT IN THE VARIATIONAL SPACE WILL BE PRINTED LATER.
 NUMBER OF ELECTRONS                          =   66
 CHARGE OF MOLECULE                           =    0
 SPIN MULTIPLICITY                            =    1
 NUMBER OF OCCUPIED ORBITALS (ALPHA)          =   33
 NUMBER OF OCCUPIED ORBITALS (BETA )          =   33
 TOTAL NUMBER OF ATOMS                        =    5
 THE NUCLEAR REPULSION ENERGY IS      341.8345608452

     $CONTRL OPTIONS
     ---------------
 SCFTYP=RHF          RUNTYP=ENERGY       EXETYP=RUN     
 MPLEVL=       0     CITYP =NONE         CCTYP =NONE         VBTYP =NONE    
 DFTTYP=NONE         TDDFT =NONE    
 MULT  =       1     ICHARG=       0     NZVAR =       0     COORD =UNIQUE  
 PP    =NONE         RELWFN=NONE         LOCAL =NONE         NUMGRD=       F
 ISPHER=       1     NOSYM =       0     MAXIT =      30     UNITS =ANGS    
 PLTORB=       F     MOLPLT=       F     AIMPAC=       F     FRIEND=        
 NPRINT=       7     IREST =       0     GEOM  =INPUT   
 NORMF =       0     NORMP =       0     ITOL  =      20     ICUT  =       9
 INTTYP=BEST         GRDTYP=BEST         QMTTOL= 1.0E-06

     $SYSTEM OPTIONS
     ---------------
  REPLICATED MEMORY=     3000000 WORDS (ON EVERY NODE).
 DISTRIBUTED MEMDDI=           0 MILLION WORDS IN AGGREGATE,
 MEMDDI DISTRIBUTED OVER   1 PROCESSORS IS           0 WORDS/PROCESSOR.
 TOTAL MEMORY REQUESTED ON EACH PROCESSOR=     3000000 WORDS.
 TIMLIM=      525600.00 MINUTES, OR     365.0 DAYS.
 PARALL= F  BALTYP=  DLB     KDIAG=    0  COREFL= F
 MXSEQ2=     300 MXSEQ3=     150  mem10=         0

          ----------------
          PROPERTIES INPUT
          ----------------

     MOMENTS            FIELD           POTENTIAL          DENSITY
 IEMOM =       1   IEFLD =       0   IEPOT =       0   IEDEN =       0
 WHERE =COMASS     WHERE =NUCLEI     WHERE =NUCLEI     WHERE =NUCLEI  
 OUTPUT=BOTH       OUTPUT=BOTH       OUTPUT=BOTH       OUTPUT=BOTH    
 IEMINT=       0   IEFINT=       0                     IEDINT=       0
                                                       MORB  =       0
          EXTRAPOLATION IN EFFECT
          DIIS IN EFFECT
 ORBITAL PRINTING OPTION: NPREO=     1   245     2     1

     -------------------------------
     INTEGRAL TRANSFORMATION OPTIONS
     -------------------------------
     NWORD  =            0
     CUTOFF = 1.0E-09     MPTRAN =       0
     DIRTRF =       F     AOINTS =DUP     

          ----------------------
          INTEGRAL INPUT OPTIONS
          ----------------------
 NOPK  =       1 NORDER=       0 SCHWRZ=       F

     ------------------------------------------
     THE POINT GROUP IS DNH, NAXIS= 3, ORDER=12
     ------------------------------------------

 -- VARIATIONAL SPACE WILL BE RESTRICTED TO PURE SPHERICAL HARMONICS ONLY --
 AFTER EXCLUDING CONTAMINANT COMBINATIONS FROM THE CARTESIAN GAUSSIAN BASIS
 SET, THE NUMBER OF SPHERICAL HARMONICS KEPT IN THE VARIATION SPACE IS  215

     DIMENSIONS OF THE SYMMETRY SUBSPACES ARE
 A1' =   35     A1" =    5     A2' =   11     A2" =   26     E'' =   27
 E'  =   42

 ..... DONE SETTING UP THE RUN .....
 STEP CPU TIME =     0.03 TOTAL CPU TIME =        0.0 (    0.0 MIN)
 TOTAL WALL CLOCK TIME=        0.0 SECONDS, CPU UTILIZATION IS  75.00%

          ********************
          1 ELECTRON INTEGRALS
          ********************
 ...... END OF ONE-ELECTRON INTEGRALS ......
 STEP CPU TIME =     0.02 TOTAL CPU TIME =        0.0 (    0.0 MIN)
 TOTAL WALL CLOCK TIME=        0.0 SECONDS, CPU UTILIZATION IS 100.00%

          -------------
          GUESS OPTIONS
          -------------
          GUESS =HUCKEL            NORB  =       0          NORDER=       0
          MIX   =       F          PRTMO =       F          PUNMO =       F
          TOLZ  = 1.0E-08          TOLE  = 1.0E-05
          SYMDEN=       F          PURIFY=       F

 INITIAL GUESS ORBITALS GENERATED BY HUCKEL   ROUTINE.
 HUCKEL GUESS REQUIRES    439910 WORDS.

 STATISTICS FOR GENERATION OF SYMMETRY ORBITAL -Q- MATRIX
 NUMBER OF CARTESIAN ATOMIC ORBITALS=        245
 NUMBER OF SPHERICAL CONTAMINANTS DROPPED=    30
 NUMBER OF LINEARLY DEPENDENT MOS DROPPED=     0
 TOTAL NUMBER OF MOS IN VARIATION SPACE=     215

 SYMMETRIES FOR INITIAL GUESS ORBITALS FOLLOW.   BOTH SET(S).
    33 ORBITALS ARE OCCUPIED (   25 CORE ORBITALS).
    26=?A1'    27=?A2"    28=?A1'    29=?E'     30=?E'     31=?E''    32=?E''
    33=?A2"    34=?A1'    35=?E'     36=?E'     37=A1'     38=A1'     39=A1' 
    40=A1'     41=A1'     42=A1'     43=A1' 
 ...... END OF INITIAL ORBITAL SELECTION ......
 STEP CPU TIME =     0.11 TOTAL CPU TIME =        0.2 (    0.0 MIN)
 TOTAL WALL CLOCK TIME=        0.2 SECONDS, CPU UTILIZATION IS 100.00%

                    ----------------------
                    AO INTEGRAL TECHNOLOGY
                    ----------------------
     S,P,L SHELL ROTATED AXIS INTEGRALS, REPROGRAMMED BY
        KAZUYA ISHIMURA (IMS) AND JOSE SIERRA (SYNSTAR).
     S,P,D,L SHELL ROTATED AXIS INTEGRALS PROGRAMMED BY
        KAZUYA ISHIMURA (INSTITUTE FOR MOLECULAR SCIENCE).
     S,P,D,F,G SHELL TO TOTAL QUARTET ANGULAR MOMENTUM SUM 5,
        ERIC PROGRAM BY GRAHAM FLETCHER (ELORET AND NASA ADVANCED
        SUPERCOMPUTING DIVISION, AMES RESEARCH CENTER).
     S,P,D,F,G,L SHELL GENERAL RYS QUADRATURE PROGRAMMED BY
        MICHEL DUPUIS (PACIFIC NORTHWEST NATIONAL LABORATORY).

          --------------------
          2 ELECTRON INTEGRALS
          --------------------

 THE -PK- OPTION IS OFF, THE INTEGRALS ARE NOT IN SUPERMATRIX FORM.
 STORING   15000 INTEGRALS/RECORD ON DISK, USING 12 BYTES/INTEGRAL.
 TWO ELECTRON INTEGRAL EVALUATION REQUIRES  101950 WORDS OF MEMORY.
 II,JST,KST,LST =  1  1  1  1 NREC =         1 INTLOC =    1
 II,JST,KST,LST =  2  1  1  1 NREC =         1 INTLOC =    1
 II,JST,KST,LST =  3  1  1  1 NREC =         1 INTLOC =    1
 II,JST,KST,LST =  4  1  1  1 NREC =         1 INTLOC =    1
 II,JST,KST,LST =  5  1  1  1 NREC =         1 INTLOC =    1
 II,JST,KST,LST =  6  1  1  1 NREC =         1 INTLOC =    1
 II,JST,KST,LST =  7  1  1  1 NREC =         1 INTLOC =    1
 II,JST,KST,LST =  8  1  1  1 NREC =         1 INTLOC =    1
 II,JST,KST,LST =  9  1  1  1 NREC =         1 INTLOC =    1
 II,JST,KST,LST = 10  1  1  1 NREC =         1 INTLOC =    1
 II,JST,KST,LST = 11  1  1  1 NREC =         1 INTLOC =    1
 II,JST,KST,LST = 12  1  1  1 NREC =         1 INTLOC =    1
 II,JST,KST,LST = 13  1  1  1 NREC =         1 INTLOC =    1
 II,JST,KST,LST = 14  1  1  1 NREC =         1 INTLOC =    1
 II,JST,KST,LST = 15  1  1  1 NREC =         1 INTLOC =    1
 II,JST,KST,LST = 16  1  1  1 NREC =         1 INTLOC =    1
 II,JST,KST,LST = 17  1  1  1 NREC =         1 INTLOC =    1
 II,JST,KST,LST = 18  1  1  1 NREC =         1 INTLOC =    1
 II,JST,KST,LST = 19  1  1  1 NREC =         1 INTLOC =    1
 II,JST,KST,LST = 20  1  1  1 NREC =         1 INTLOC =    1
 II,JST,KST,LST = 21  1  1  1 NREC =         1 INTLOC =    1
 II,JST,KST,LST = 22  1  1  1 NREC =         1 INTLOC =    1
 II,JST,KST,LST = 23  1  1  1 NREC =         1 INTLOC =    1
 II,JST,KST,LST = 24  1  1  1 NREC =         1 INTLOC =    1
 II,JST,KST,LST = 25  1  1  1 NREC =         1 INTLOC =    1
 II,JST,KST,LST = 26  1  1  1 NREC =         1 INTLOC =    1
 II,JST,KST,LST = 27  1  1  1 NREC =         1 INTLOC =    1
 II,JST,KST,LST = 28  1  1  1 NREC =         1 INTLOC =    1
 II,JST,KST,LST = 29  1  1  1 NREC =         1 INTLOC =    1
 II,JST,KST,LST = 30  1  1  1 NREC =         1 INTLOC =    1
 II,JST,KST,LST = 31  1  1  1 NREC =         1 INTLOC =    1
 II,JST,KST,LST = 32  1  1  1 NREC =         1 INTLOC =    3
 II,JST,KST,LST = 33  1  1  1 NREC =         1 INTLOC =   13
 II,JST,KST,LST = 34  1  1  1 NREC =         1 INTLOC =   43
 II,JST,KST,LST = 35  1  1  1 NREC =         1 INTLOC =  164
 II,JST,KST,LST = 36  1  1  1 NREC =         1 INTLOC =  622
 II,JST,KST,LST = 37  1  1  1 NREC =         1 INTLOC = 1602
 II,JST,KST,LST = 38  1  1  1 NREC =         1 INTLOC = 3736
 II,JST,KST,LST = 39  1  1  1 NREC =         1 INTLOC =11256
 II,JST,KST,LST = 40  1  1  1 NREC =         3 INTLOC = 2294
 II,JST,KST,LST = 41  1  1  1 NREC =         5 INTLOC =14136
 II,JST,KST,LST = 42  1  1  1 NREC =        10 INTLOC =10327
 II,JST,KST,LST = 43  1  1  1 NREC =        27 INTLOC = 4090
 II,JST,KST,LST = 44  1  1  1 NREC =        62 INTLOC =13146
 II,JST,KST,LST = 45  1  1  1 NREC =       124 INTLOC =12315
 II,JST,KST,LST = 46  1  1  1 NREC =       315 INTLOC = 5871
 II,JST,KST,LST = 47  1  1  1 NREC =       315 INTLOC = 5871
 II,JST,KST,LST = 48  1  1  1 NREC =       315 INTLOC = 5871
 II,JST,KST,LST = 49  1  1  1 NREC =       315 INTLOC = 5871
 II,JST,KST,LST = 50  1  1  1 NREC =       315 INTLOC = 5871
 II,JST,KST,LST = 51  1  1  1 NREC =       315 INTLOC = 5871
 II,JST,KST,LST = 52  1  1  1 NREC =       315 INTLOC = 5871
 II,JST,KST,LST = 53  1  1  1 NREC =       315 INTLOC = 5871
 II,JST,KST,LST = 54  1  1  1 NREC =       315 INTLOC = 5871
 II,JST,KST,LST = 55  1  1  1 NREC =       315 INTLOC = 5871
 II,JST,KST,LST = 56  1  1  1 NREC =       315 INTLOC = 5871
 II,JST,KST,LST = 57  1  1  1 NREC =       315 INTLOC = 5871
 II,JST,KST,LST = 58  1  1  1 NREC =       315 INTLOC = 5871
 II,JST,KST,LST = 59  1  1  1 NREC =       315 INTLOC = 5871
 II,JST,KST,LST = 60  1  1  1 NREC =       315 INTLOC = 5871
 II,JST,KST,LST = 61  1  1  1 NREC =       315 INTLOC = 5871
 II,JST,KST,LST = 62  1  1  1 NREC =       328 INTLOC =  353
 II,JST,KST,LST = 63  1  1  1 NREC =       342 INTLOC =  807
 II,JST,KST,LST = 64  1  1  1 NREC =       357 INTLOC =13782
 II,JST,KST,LST = 65  1  1  1 NREC =       374 INTLOC =13007
 II,JST,KST,LST = 66  1  1  1 NREC =       395 INTLOC = 6781
 II,JST,KST,LST = 67  1  1  1 NREC =       417 INTLOC = 8075
 II,JST,KST,LST = 68  1  1  1 NREC =       473 INTLOC = 4875
 II,JST,KST,LST = 69  1  1  1 NREC =       536 INTLOC = 7143
 II,JST,KST,LST = 70  1  1  1 NREC =       614 INTLOC =11404
 II,JST,KST,LST = 71  1  1  1 NREC =       707 INTLOC =14854
 II,JST,KST,LST = 72  1  1  1 NREC =       813 INTLOC = 1856
 II,JST,KST,LST = 73  1  1  1 NREC =      1005 INTLOC =10469
 II,JST,KST,LST = 74  1  1  1 NREC =      1264 INTLOC = 6250
 II,JST,KST,LST = 75  1  1  1 NREC =      1603 INTLOC =11150
 TOTAL NUMBER OF NONZERO TWO-ELECTRON INTEGRALS =            33882482
       2259 INTEGRAL RECORDS WERE STORED ON DISK FILE  8.
  ...... END OF TWO-ELECTRON INTEGRALS .....
 STEP CPU TIME =     2.35 TOTAL CPU TIME =        2.5 (    0.0 MIN)
 TOTAL WALL CLOCK TIME=        2.5 SECONDS, CPU UTILIZATION IS 100.00%

          --------------------------
                 RHF SCF CALCULATION
          --------------------------

     NUCLEAR ENERGY =       341.8345608452
     MAXIT =   30     NPUNCH=    2
     EXTRAP=T  DAMP=F  SHIFT=F  RSTRCT=F  DIIS=T  DEM=F  SOSCF=F
     DENSITY MATRIX CONV=  1.00E-05
     MEMORY REQUIRED FOR RHF ITERS=    454270 WORDS.

 ITER EX DEM     TOTAL ENERGY        E CHANGE  DENSITY CHANGE    DIIS ERROR
   1  0  0    -1278.5846407075 -1278.5846407075   0.386221891   2.469061507
          * * *   INITIATING DIIS PROCEDURE   * * *
   2  1  0    -1280.1207884021    -1.5361476946   0.298572039   0.140928363
   3  2  0    -1280.2756169448    -0.1548285427   0.085769239   0.060952409
   4  3  0    -1280.3273418829    -0.0517249381   0.014478528   0.008126427
   5  4  0    -1280.3283336502    -0.0009917672   0.005064422   0.002726255
   6  5  0    -1280.3284957656    -0.0001621154   0.001827842   0.001257471
   7  6  0    -1280.3285221732    -0.0000264076   0.000326195   0.000227183
   8  7  0    -1280.3285235916    -0.0000014184   0.000103698   0.000111475
   9  8  0    -1280.3285237053    -0.0000001137   0.000054074   0.000032203
  10  9  0    -1280.3285237293    -0.0000000240   0.000016682   0.000009001
  11 10  0    -1280.3285237313    -0.0000000020   0.000003356   0.000001484
  12 11  0    -1280.3285237314    -0.0000000000   0.000000733   0.000000324

          -----------------
          DENSITY CONVERGED
          -----------------
     TIME TO FORM FOCK OPERATORS=       4.3 SECONDS (       0.4 SEC/ITER)
     TIME TO SOLVE SCF EQUATIONS=       0.9 SECONDS (       0.1 SEC/ITER)

 FINAL RHF ENERGY IS    -1280.3285237314 AFTER  12 ITERATIONS

 GENERATING 182 MVO-S (  33 ORBITALS FROZEN), BY HALF-FILLING   8 VALENCE MOS.

          ------------
          EIGENVECTORS
          ------------

                      1          2          3          4          5
                  -79.8579   -79.8579   -49.0453   -49.0453   -49.0453
                     A2"        A1'        A1'        E'         E'  
    1  MG 1  S   -0.000000   0.000000   0.239426  -0.169300  -0.293236
    2  MG 1  S   -0.000000  -0.000001   0.375733  -0.265684  -0.460177
    3  MG 1  S   -0.000000   0.000008   0.002260  -0.001596  -0.002764
    4  MG 1  S   -0.000000  -0.000022   0.000300  -0.000214  -0.000371
    5  MG 1  S   -0.000000   0.000140  -0.000131   0.000063   0.000110
    6  MG 1  S   -0.000000   0.000047   0.000024   0.000073   0.000127
    7  MG 1  X   -0.000000   0.000001  -0.000043   0.000031   0.000052
    8  MG 1  Y   -0.000000  -0.000001   0.000074  -0.000052  -0.000091
    9  MG 1  Z   -0.000002  -0.000000  -0.000000   0.000000  -0.000000
   10  MG 1  X   -0.000000  -0.000003   0.000018  -0.000013  -0.000021
   11  MG 1  Y   -0.000000   0.000005  -0.000031   0.000021   0.000038
   12  MG 1  Z    0.000005  -0.000000  -0.000000   0.000000  -0.000000
   13  MG 1  X   -0.000000   0.000019  -0.000025   0.000010   0.000021
   14  MG 1  Y   -0.000000  -0.000033   0.000043  -0.000021  -0.000034
   15  MG 1  Z   -0.000038  -0.000000  -0.000000   0.000000  -0.000000
   16  MG 1  X   -0.000000   0.000050  -0.000011   0.000045   0.000029
   17  MG 1  Y   -0.000000  -0.000086   0.000019  -0.000029  -0.000078
   18  MG 1  Z   -0.000151  -0.000000  -0.000000   0.000000  -0.000000
   19  MG 1  X   -0.000000   0.000030   0.000008   0.000017   0.000014
   20  MG 1  Y   -0.000000  -0.000052  -0.000013  -0.000014  -0.000033
   21  MG 1  Z    0.000046  -0.000000  -0.000000   0.000000  -0.000000
   22  MG 1 XX   -0.000000  -0.000001  -0.000001  -0.000003   0.000002
   23  MG 1 YY   -0.000000   0.000000  -0.000002   0.000001  -0.000004
   24  MG 1 ZZ   -0.000000   0.000001   0.000003   0.000001   0.000002
   25  MG 1 XY   -0.000000  -0.000002   0.000001   0.000004   0.000002
   26  MG 1 XZ   -0.000002  -0.000000  -0.000000   0.000000  -0.000000
   27  MG 1 YZ    0.000004  -0.000000  -0.000000   0.000000  -0.000000
   28  MG 1 XX   -0.000000  -0.000022   0.000017   0.000011  -0.000017
   29  MG 1 YY   -0.000000   0.000003   0.000006  -0.000006   0.000025
   30  MG 1 ZZ   -0.000000   0.000019  -0.000022  -0.000005  -0.000008
   31  MG 1 XY   -0.000000  -0.000025   0.000011  -0.000024  -0.000018
   32  MG 1 XZ   -0.000032  -0.000000  -0.000000   0.000000  -0.000000
   33  MG 1 YZ    0.000055  -0.000000  -0.000000   0.000000  -0.000000
   34  MG 1 XX   -0.000000   0.000007  -0.000003   0.000004  -0.000006
   35  MG 1 YY   -0.000000   0.000036   0.000002  -0.000003   0.000008
   36  MG 1 ZZ   -0.000000  -0.000043   0.000000  -0.000001  -0.000003
   37  MG 1 XY   -0.000000  -0.000029  -0.000005  -0.000008  -0.000005
   38  MG 1 XZ    0.000002  -0.000000  -0.000000   0.000000  -0.000000
   39  MG 1 YZ   -0.000004  -0.000000  -0.000000   0.000000  -0.000000
   40  MG 1 XXX  -0.000000  -0.000000   0.000008   0.000002  -0.000003
   41  MG 1 YYY  -0.000000  -0.000000  -0.000010   0.000010  -0.000007
   42  MG 1 ZZZ   0.000004  -0.000000  -0.000000   0.000000  -0.000000
   43  MG 1 XXY  -0.000000  -0.000000  -0.000005  -0.000012   0.000007
   44  MG 1 XXZ  -0.000004  -0.000000  -0.000000   0.000000  -0.000000
   45  MG 1 YYX  -0.000000   0.000001  -0.000001   0.000003   0.000002
   46  MG 1 YYZ  -0.000001  -0.000000  -0.000000   0.000000  -0.000000
   47  MG 1 ZZX  -0.000000  -0.000000  -0.000011  -0.000005   0.000002
   48  MG 1 ZZY  -0.000000   0.000001   0.000019  -0.000002   0.000003
   49  MG 1 XYZ  -0.000003  -0.000000  -0.000000   0.000000  -0.000000
   50  MG 2  S   -0.000000   0.000000   0.239426  -0.169300   0.293236
   51  MG 2  S   -0.000000  -0.000001   0.375733  -0.265684   0.460177
   52  MG 2  S   -0.000000   0.000008   0.002260  -0.001596   0.002764
   53  MG 2  S   -0.000000  -0.000022   0.000300  -0.000214   0.000371
   54  MG 2  S   -0.000000   0.000140  -0.000131   0.000063  -0.000110
   55  MG 2  S   -0.000000   0.000047   0.000024   0.000073  -0.000127
   56  MG 2  X   -0.000000   0.000001  -0.000043   0.000031  -0.000052
   57  MG 2  Y   -0.000000   0.000001  -0.000074   0.000052  -0.000091
   58  MG 2  Z   -0.000002  -0.000000  -0.000000   0.000000  -0.000000
   59  MG 2  X   -0.000000  -0.000003   0.000018  -0.000013   0.000021
   60  MG 2  Y   -0.000000  -0.000005   0.000031  -0.000021   0.000038
   61  MG 2  Z    0.000005  -0.000000  -0.000000   0.000000  -0.000000
   62  MG 2  X   -0.000000   0.000019  -0.000025   0.000010  -0.000021
   63  MG 2  Y   -0.000000   0.000033  -0.000043   0.000021  -0.000034
   64  MG 2  Z   -0.000038  -0.000000  -0.000000   0.000000  -0.000000
   65  MG 2  X   -0.000000   0.000050  -0.000011   0.000045  -0.000029
   66  MG 2  Y   -0.000000   0.000086  -0.000019   0.000029  -0.000078
   67  MG 2  Z   -0.000151  -0.000000  -0.000000   0.000000  -0.000000
   68  MG 2  X   -0.000000   0.000030   0.000008   0.000017  -0.000014
   69  MG 2  Y   -0.000000   0.000052   0.000013   0.000014  -0.000033
   70  MG 2  Z    0.000046  -0.000000  -0.000000   0.000000  -0.000000
   71  MG 2 XX   -0.000000  -0.000001  -0.000001  -0.000003  -0.000002
   72  MG 2 YY   -0.000000   0.000000  -0.000002   0.000001   0.000004
   73  MG 2 ZZ   -0.000000   0.000001   0.000003   0.000001  -0.000002
   74  MG 2 XY   -0.000000   0.000002  -0.000001  -0.000004   0.000002
   75  MG 2 XZ   -0.000002  -0.000000  -0.000000   0.000000  -0.000000
   76  MG 2 YZ   -0.000004  -0.000000  -0.000000   0.000000  -0.000000
   77  MG 2 XX   -0.000000  -0.000022   0.000017   0.000011   0.000017
   78  MG 2 YY   -0.000000   0.000003   0.000006  -0.000006  -0.000025
   79  MG 2 ZZ   -0.000000   0.000019  -0.000022  -0.000005   0.000008
   80  MG 2 XY   -0.000000   0.000025  -0.000011   0.000024  -0.000018
   81  MG 2 XZ   -0.000032  -0.000000  -0.000000   0.000000  -0.000000
   82  MG 2 YZ   -0.000055  -0.000000  -0.000000   0.000000  -0.000000
   83  MG 2 XX   -0.000000   0.000007  -0.000003   0.000004   0.000006
   84  MG 2 YY   -0.000000   0.000036   0.000002  -0.000003  -0.000008
   85  MG 2 ZZ   -0.000000  -0.000043   0.000000  -0.000001   0.000003
   86  MG 2 XY   -0.000000   0.000029   0.000005   0.000008  -0.000005
   87  MG 2 XZ    0.000002  -0.000000  -0.000000   0.000000  -0.000000
   88  MG 2 YZ    0.000004  -0.000000  -0.000000   0.000000  -0.000000
   89  MG 2 XXX  -0.000000  -0.000000   0.000008   0.000002   0.000003
   90  MG 2 YYY  -0.000000   0.000000   0.000010  -0.000010  -0.000007
   91  MG 2 ZZZ   0.000004  -0.000000  -0.000000   0.000000  -0.000000
   92  MG 2 XXY  -0.000000   0.000000   0.000005   0.000012   0.000007
   93  MG 2 XXZ  -0.000004  -0.000000  -0.000000   0.000000  -0.000000
   94  MG 2 YYX  -0.000000   0.000001  -0.000001   0.000003  -0.000002
   95  MG 2 YYZ  -0.000001  -0.000000  -0.000000   0.000000  -0.000000
   96  MG 2 ZZX  -0.000000  -0.000000  -0.000011  -0.000005  -0.000002
   97  MG 2 ZZY  -0.000000  -0.000001  -0.000019   0.000002   0.000003
   98  MG 2 XYZ   0.000003  -0.000000  -0.000000   0.000000  -0.000000
   99  MG 3  S   -0.000000   0.000000   0.239426   0.338600  -0.000000
  100  MG 3  S   -0.000000  -0.000001   0.375733   0.531367  -0.000000
  101  MG 3  S   -0.000000   0.000008   0.002260   0.003192  -0.000000
  102  MG 3  S   -0.000000  -0.000022   0.000300   0.000428  -0.000000
  103  MG 3  S   -0.000000   0.000140  -0.000131  -0.000127  -0.000000
  104  MG 3  S   -0.000000   0.000047   0.000024  -0.000147  -0.000000
  105  MG 3  X   -0.000000  -0.000002   0.000085   0.000121  -0.000000
  106  MG 3  Y   -0.000000  -0.000000  -0.000000   0.000000  -0.000000
  107  MG 3  Z   -0.000002  -0.000000  -0.000000   0.000000  -0.000000
  108  MG 3  X   -0.000000   0.000006  -0.000036  -0.000051  -0.000000
  109  MG 3  Y   -0.000000  -0.000000  -0.000000   0.000000   0.000001
  110  MG 3  Z    0.000005  -0.000000  -0.000000   0.000000  -0.000000
  111  MG 3  X   -0.000000  -0.000038   0.000050   0.000047  -0.000000
  112  MG 3  Y   -0.000000  -0.000000  -0.000000   0.000000   0.000002
  113  MG 3  Z   -0.000038  -0.000000  -0.000000   0.000000  -0.000000
  114  MG 3  X   -0.000000  -0.000099   0.000022   0.000095  -0.000000
  115  MG 3  Y   -0.000000  -0.000000  -0.000000   0.000000  -0.000029
  116  MG 3  Z   -0.000151  -0.000000  -0.000000   0.000000  -0.000000
  117  MG 3  X   -0.000000  -0.000060  -0.000015   0.000041  -0.000000
  118  MG 3  Y   -0.000000  -0.000000  -0.000000   0.000000  -0.000009
  119  MG 3  Z    0.000046  -0.000000  -0.000000   0.000000  -0.000000
  120  MG 3 XX   -0.000000   0.000001  -0.000003   0.000005  -0.000000
  121  MG 3 YY   -0.000000  -0.000002  -0.000000  -0.000002  -0.000000
  122  MG 3 ZZ   -0.000000   0.000001   0.000003  -0.000003  -0.000000
  123  MG 3 XY   -0.000000  -0.000000  -0.000000   0.000000  -0.000005
  124  MG 3 XZ    0.000004  -0.000000  -0.000000   0.000000  -0.000000
  125  MG 3 YZ   -0.000000  -0.000000  -0.000000   0.000000  -0.000000
  126  MG 3 XX   -0.000000   0.000016   0.000000  -0.000032  -0.000000
  127  MG 3 YY   -0.000000  -0.000035   0.000022   0.000023  -0.000000
  128  MG 3 ZZ   -0.000000   0.000019  -0.000022   0.000010  -0.000000
  129  MG 3 XY   -0.000000  -0.000000  -0.000000   0.000000   0.000023
  130  MG 3 XZ    0.000063  -0.000000  -0.000000   0.000000  -0.000000
  131  MG 3 YZ   -0.000000  -0.000000  -0.000000   0.000000  -0.000000
  132  MG 3 XX   -0.000000   0.000050   0.000005  -0.000010  -0.000000
  133  MG 3 YY   -0.000000  -0.000007  -0.000005   0.000007  -0.000000
  134  MG 3 ZZ   -0.000000  -0.000043   0.000000   0.000003  -0.000000
  135  MG 3 XY   -0.000000  -0.000000  -0.000000   0.000000   0.000009
  136  MG 3 XZ   -0.000004  -0.000000  -0.000000   0.000000  -0.000000
  137  MG 3 YZ   -0.000000  -0.000000  -0.000000   0.000000  -0.000000
  138  MG 3 XXX  -0.000000  -0.000001  -0.000010   0.000003  -0.000000
  139  MG 3 YYY  -0.000000  -0.000000  -0.000000   0.000000   0.000008
  140  MG 3 ZZZ   0.000004  -0.000000  -0.000000   0.000000  -0.000000
  141  MG 3 XXY  -0.000000  -0.000000  -0.000000   0.000000  -0.000016
  142  MG 3 XXZ   0.000001  -0.000000  -0.000000   0.000000  -0.000000
  143  MG 3 YYX  -0.000000   0.000001  -0.000009  -0.000002  -0.000000
  144  MG 3 YYZ  -0.000006  -0.000000  -0.000000   0.000000  -0.000000
  145  MG 3 ZZX  -0.000000   0.000001   0.000021  -0.000002  -0.000000
  146  MG 3 ZZY  -0.000000  -0.000000  -0.000000   0.000000   0.000006
  147  MG 3 XYZ  -0.000000  -0.000000  -0.000000   0.000000  -0.000000
  148  P  4  S    0.294484   0.294484  -0.000000   0.000000  -0.000000
  149  P  4  S    0.458979   0.458979   0.000000   0.000000  -0.000000
  150  P  4  S    0.007918   0.007918  -0.000004   0.000000  -0.000000
  151  P  4  S   -0.001022  -0.001021   0.000010   0.000000  -0.000000
  152  P  4  S    0.000553   0.000552  -0.000058   0.000000  -0.000000
  153  P  4  S   -0.000570  -0.000600   0.000134   0.000000  -0.000000
  154  P  4  X   -0.000000  -0.000000  -0.000000   0.000003  -0.000000
  155  P  4  Y   -0.000000  -0.000000  -0.000000   0.000000  -0.000003
  156  P  4  Z    0.000061   0.000058   0.000013   0.000000  -0.000000
  157  P  4  X   -0.000000  -0.000000  -0.000000   0.000002  -0.000000
  158  P  4  Y   -0.000000  -0.000000  -0.000000   0.000000  -0.000002
  159  P  4  Z    0.000033   0.000031   0.000011   0.000000  -0.000000
  160  P  4  X   -0.000000  -0.000000  -0.000000  -0.000007  -0.000000
  161  P  4  Y   -0.000000  -0.000000  -0.000000   0.000000   0.000007
  162  P  4  Z   -0.000021  -0.000014  -0.000033   0.000000  -0.000000
  163  P  4  X   -0.000000  -0.000000  -0.000000   0.000011  -0.000000
  164  P  4  Y   -0.000000  -0.000000  -0.000000   0.000000  -0.000011
  165  P  4  Z    0.000002  -0.000010   0.000061   0.000000  -0.000000
  166  P  4  X   -0.000000  -0.000000  -0.000000   0.000026  -0.000000
  167  P  4  Y   -0.000000  -0.000000  -0.000000   0.000000  -0.000026
  168  P  4  Z   -0.000270  -0.000260   0.000057   0.000000  -0.000000
  169  P  4 XX    0.000002   0.000002   0.000000  -0.000000  -0.000000
  170  P  4 YY    0.000002   0.000002   0.000000   0.000000  -0.000000
  171  P  4 ZZ   -0.000003  -0.000003  -0.000000   0.000000  -0.000000
  172  P  4 XY   -0.000000  -0.000000  -0.000000   0.000000  -0.000001
  173  P  4 XZ   -0.000000  -0.000000  -0.000000  -0.000001  -0.000000
  174  P  4 YZ   -0.000000  -0.000000  -0.000000   0.000000   0.000001
  175  P  4 XX   -0.000005  -0.000006   0.000000   0.000001  -0.000000
  176  P  4 YY   -0.000005  -0.000006   0.000000  -0.000001  -0.000000
  177  P  4 ZZ    0.000011   0.000011  -0.000001   0.000000  -0.000000
  178  P  4 XY   -0.000000  -0.000000  -0.000000   0.000000   0.000001
  179  P  4 XZ   -0.000000  -0.000000  -0.000000   0.000002  -0.000000
  180  P  4 YZ   -0.000000  -0.000000  -0.000000   0.000000  -0.000002
  181  P  4 XX    0.000042   0.000048  -0.000015   0.000006  -0.000000
  182  P  4 YY    0.000042   0.000048  -0.000015  -0.000006  -0.000000
  183  P  4 ZZ   -0.000083  -0.000096   0.000029   0.000000  -0.000000
  184  P  4 XY   -0.000000  -0.000000  -0.000000   0.000000   0.000007
  185  P  4 XZ   -0.000000  -0.000000  -0.000000   0.000018  -0.000000
  186  P  4 YZ   -0.000000  -0.000000  -0.000000   0.000000  -0.000018
  187  P  4 XXX  -0.000005  -0.000004   0.000004  -0.000004  -0.000000
  188  P  4 YYY  -0.000000  -0.000000  -0.000000   0.000000   0.000004
  189  P  4 ZZZ   0.000001  -0.000004  -0.000002   0.000000  -0.000000
  190  P  4 XXY  -0.000000  -0.000000  -0.000000   0.000000   0.000002
  191  P  4 XXZ  -0.000001   0.000003   0.000002   0.000004  -0.000000
  192  P  4 YYX   0.000006   0.000006  -0.000006  -0.000002  -0.000000
  193  P  4 YYZ  -0.000001   0.000003   0.000002  -0.000004  -0.000000
  194  P  4 ZZX  -0.000000  -0.000000  -0.000000   0.000007  -0.000000
  195  P  4 ZZY  -0.000000  -0.000000  -0.000000   0.000000  -0.000007
  196  P  4 XYZ  -0.000000  -0.000000  -0.000000   0.000000   0.000005
  197  P  5  S   -0.294484   0.294484  -0.000000   0.000000  -0.000000
  198  P  5  S   -0.458979   0.458979   0.000000   0.000000  -0.000000
  199  P  5  S   -0.007918   0.007918  -0.000004   0.000000  -0.000000
  200  P  5  S    0.001022  -0.001021   0.000010   0.000000  -0.000000
  201  P  5  S   -0.000553   0.000552  -0.000058   0.000000  -0.000000
  202  P  5  S    0.000570  -0.000600   0.000134   0.000000  -0.000000
  203  P  5  X   -0.000000  -0.000000  -0.000000   0.000003  -0.000000
  204  P  5  Y   -0.000000  -0.000000  -0.000000   0.000000  -0.000003
  205  P  5  Z    0.000061  -0.000058  -0.000013   0.000000  -0.000000
  206  P  5  X   -0.000000  -0.000000  -0.000000   0.000002  -0.000000
  207  P  5  Y   -0.000000  -0.000000  -0.000000   0.000000  -0.000002
  208  P  5  Z    0.000033  -0.000031  -0.000011   0.000000  -0.000000
  209  P  5  X   -0.000000  -0.000000  -0.000000  -0.000007  -0.000000
  210  P  5  Y   -0.000000  -0.000000  -0.000000   0.000000   0.000007
  211  P  5  Z   -0.000021   0.000014   0.000033   0.000000  -0.000000
  212  P  5  X   -0.000000  -0.000000  -0.000000   0.000011  -0.000000
  213  P  5  Y   -0.000000  -0.000000  -0.000000   0.000000  -0.000011
  214  P  5  Z    0.000002   0.000010  -0.000061   0.000000  -0.000000
  215  P  5  X   -0.000000  -0.000000  -0.000000   0.000026  -0.000000
  216  P  5  Y   -0.000000  -0.000000  -0.000000   0.000000  -0.000026
  217  P  5  Z   -0.000270   0.000260  -0.000057   0.000000  -0.000000
  218  P  5 XX   -0.000002   0.000002   0.000000  -0.000000  -0.000000
  219  P  5 YY   -0.000002   0.000002   0.000000   0.000000  -0.000000
  220  P  5 ZZ    0.000003  -0.000003  -0.000000   0.000000  -0.000000
  221  P  5 XY   -0.000000  -0.000000  -0.000000   0.000000  -0.000001
  222  P  5 XZ   -0.000000  -0.000000  -0.000000   0.000001  -0.000000
  223  P  5 YZ   -0.000000  -0.000000  -0.000000   0.000000  -0.000001
  224  P  5 XX    0.000005  -0.000006   0.000000   0.000001  -0.000000
  225  P  5 YY    0.000005  -0.000006   0.000000  -0.000001  -0.000000
  226  P  5 ZZ   -0.000011   0.000011  -0.000001   0.000000  -0.000000
  227  P  5 XY   -0.000000  -0.000000  -0.000000   0.000000   0.000001
  228  P  5 XZ   -0.000000  -0.000000  -0.000000  -0.000002  -0.000000
  229  P  5 YZ   -0.000000  -0.000000  -0.000000   0.000000   0.000002
  230  P  5 XX   -0.000042   0.000048  -0.000015   0.000006  -0.000000
  231  P  5 YY   -0.000042   0.000048  -0.000015  -0.000006  -0.000000
  232  P  5 ZZ    0.000083  -0.000096   0.000029   0.000000  -0.000000
  233  P  5 XY   -0.000000  -0.000000  -0.000000   0.000000   0.000007
  234  P  5 XZ   -0.000000  -0.000000  -0.000000  -0.000018  -0.000000
  235  P  5 YZ   -0.000000  -0.000000  -0.000000   0.000000   0.000018
  236  P  5 XXX   0.000005  -0.000004   0.000004  -0.000004  -0.000000
  237  P  5 YYY  -0.000000  -0.000000  -0.000000   0.000000   0.000004
  238  P  5 ZZZ   0.000001   0.000004   0.000002   0.000000  -0.000000
  239  P  5 XXY  -0.000000  -0.000000  -0.000000   0.000000   0.000002
  240  P  5 XXZ  -0.000001  -0.000003  -0.000002  -0.000004  -0.000000
  241  P  5 YYX  -0.000006   0.000006  -0.000006  -0.000002  -0.000000
  242  P  5 YYZ  -0.000001  -0.000003  -0.000002   0.000004  -0.000000
  243  P  5 ZZX  -0.000000  -0.000000  -0.000000   0.000007  -0.000000
  244  P  5 ZZY  -0.000000  -0.000000  -0.000000   0.000000  -0.000007
  245  P  5 XYZ  -0.000000  -0.000000  -0.000000   0.000000  -0.000005

                      6          7          8          9         10
                   -7.3975    -7.3975    -5.2908    -5.2908    -5.2908
                     A2"        A1'        E''        E''        E'  
    1  MG 1  S    0.000000   0.000004  -0.000000   0.000000   0.000000
    2  MG 1  S    0.000000  -0.000005  -0.000000   0.000000   0.000002
    3  MG 1  S    0.000000   0.000137  -0.000000   0.000000  -0.000018
    4  MG 1  S    0.000000  -0.000622  -0.000000   0.000000   0.000080
    5  MG 1  S    0.000000   0.004151  -0.000000   0.000000  -0.000291
    6  MG 1  S    0.000000   0.002088  -0.000000   0.000000   0.000046
    7  MG 1  X    0.000000   0.000008  -0.000000   0.000000   0.000004
    8  MG 1  Y    0.000000  -0.000013  -0.000000   0.000000   0.000003
    9  MG 1  Z   -0.000008   0.000000  -0.000005   0.000003  -0.000000
   10  MG 1  X    0.000000  -0.000059  -0.000000   0.000000  -0.000019
   11  MG 1  Y    0.000000   0.000103  -0.000000   0.000000  -0.000012
   12  MG 1  Z    0.000147   0.000000   0.000068  -0.000040  -0.000000
   13  MG 1  X    0.000000   0.000529  -0.000000   0.000000  -0.000013
   14  MG 1  Y    0.000000  -0.000916  -0.000000   0.000000   0.000074
   15  MG 1  Z   -0.001287   0.000000  -0.000347   0.000200  -0.000000
   16  MG 1  X    0.000000   0.001715  -0.000000   0.000000   0.000370
   17  MG 1  Y    0.000000  -0.002970  -0.000000   0.000000   0.000109
   18  MG 1  Z   -0.005058   0.000000  -0.000419   0.000242  -0.000000
   19  MG 1  X    0.000000   0.001087  -0.000000   0.000000  -0.000650
   20  MG 1  Y    0.000000  -0.001883  -0.000000   0.000000  -0.000562
   21  MG 1  Z    0.001222   0.000000   0.001907  -0.001101  -0.000000
   22  MG 1 XX    0.000000  -0.000043  -0.000000   0.000000  -0.000021
   23  MG 1 YY    0.000000  -0.000004  -0.000000   0.000000   0.000002
   24  MG 1 ZZ    0.000000   0.000048  -0.000000   0.000000   0.000019
   25  MG 1 XY    0.000000  -0.000039  -0.000000   0.000000   0.000034
   26  MG 1 XZ   -0.000061   0.000000  -0.000021   0.000036  -0.000000
   27  MG 1 YZ    0.000105   0.000000   0.000060  -0.000021  -0.000000
   28  MG 1 XX    0.000000  -0.000733  -0.000000   0.000000   0.000416
   29  MG 1 YY    0.000000   0.000108  -0.000000   0.000000  -0.000026
   30  MG 1 ZZ    0.000000   0.000625  -0.000000   0.000000  -0.000390
   31  MG 1 XY    0.000000  -0.000841  -0.000000   0.000000  -0.000191
   32  MG 1 XZ   -0.001054   0.000000  -0.000277  -0.000089  -0.000000
   33  MG 1 YZ    0.001825   0.000000   0.000230  -0.000277  -0.000000
   34  MG 1 XX    0.000000   0.000126  -0.000000   0.000000  -0.000554
   35  MG 1 YY    0.000000   0.001144  -0.000000   0.000000   0.000276
   36  MG 1 ZZ    0.000000  -0.001270  -0.000000   0.000000   0.000279
   37  MG 1 XY    0.000000  -0.001018  -0.000000   0.000000   0.000050
   38  MG 1 XZ   -0.000052   0.000000   0.000342  -0.000285  -0.000000
   39  MG 1 YZ    0.000090   0.000000  -0.000680   0.000342  -0.000000
   40  MG 1 XXX   0.000000   0.000008  -0.000000   0.000000  -0.000016
   41  MG 1 YYY   0.000000  -0.000036  -0.000000   0.000000  -0.000045
   42  MG 1 ZZZ   0.000151   0.000000  -0.000232   0.000134  -0.000000
   43  MG 1 XXY   0.000000  -0.000016  -0.000000   0.000000  -0.000184
   44  MG 1 XXZ  -0.000146   0.000000   0.000058  -0.000227  -0.000000
   45  MG 1 YYX   0.000000   0.000027  -0.000000   0.000000   0.000028
   46  MG 1 YYZ  -0.000057   0.000000   0.000254   0.000046  -0.000000
   47  MG 1 ZZX   0.000000  -0.000037  -0.000000   0.000000  -0.000006
   48  MG 1 ZZY   0.000000   0.000065  -0.000000   0.000000   0.000244
   49  MG 1 XYZ  -0.000089   0.000000   0.000027   0.000114  -0.000000
   50  MG 2  S    0.000000   0.000004  -0.000000   0.000000   0.000000
   51  MG 2  S    0.000000  -0.000005  -0.000000   0.000000   0.000002
   52  MG 2  S    0.000000   0.000137  -0.000000   0.000000  -0.000018
   53  MG 2  S    0.000000  -0.000622  -0.000000   0.000000   0.000080
   54  MG 2  S    0.000000   0.004151  -0.000000   0.000000  -0.000291
   55  MG 2  S    0.000000   0.002088  -0.000000   0.000000   0.000046
   56  MG 2  X    0.000000   0.000008  -0.000000   0.000000   0.000004
   57  MG 2  Y    0.000000   0.000013  -0.000000   0.000000  -0.000003
   58  MG 2  Z   -0.000008   0.000000   0.000005   0.000003  -0.000000
   59  MG 2  X    0.000000  -0.000059  -0.000000   0.000000  -0.000019
   60  MG 2  Y    0.000000  -0.000103  -0.000000   0.000000   0.000012
   61  MG 2  Z    0.000147   0.000000  -0.000068  -0.000040  -0.000000
   62  MG 2  X    0.000000   0.000529  -0.000000   0.000000  -0.000013
   63  MG 2  Y    0.000000   0.000916  -0.000000   0.000000  -0.000074
   64  MG 2  Z   -0.001287   0.000000   0.000347   0.000200  -0.000000
   65  MG 2  X    0.000000   0.001715  -0.000000   0.000000   0.000370
   66  MG 2  Y    0.000000   0.002970  -0.000000   0.000000  -0.000109
   67  MG 2  Z   -0.005058   0.000000   0.000419   0.000242  -0.000000
   68  MG 2  X    0.000000   0.001087  -0.000000   0.000000  -0.000650
   69  MG 2  Y    0.000000   0.001883  -0.000000   0.000000   0.000562
   70  MG 2  Z    0.001222   0.000000  -0.001907  -0.001101  -0.000000
   71  MG 2 XX    0.000000  -0.000043  -0.000000   0.000000  -0.000021
   72  MG 2 YY    0.000000  -0.000004  -0.000000   0.000000   0.000002
   73  MG 2 ZZ    0.000000   0.000048  -0.000000   0.000000   0.000019
   74  MG 2 XY    0.000000   0.000039  -0.000000   0.000000  -0.000034
   75  MG 2 XZ   -0.000061   0.000000   0.000021   0.000036  -0.000000
   76  MG 2 YZ   -0.000105   0.000000   0.000060   0.000021  -0.000000
   77  MG 2 XX    0.000000  -0.000733  -0.000000   0.000000   0.000416
   78  MG 2 YY    0.000000   0.000108  -0.000000   0.000000  -0.000026
   79  MG 2 ZZ    0.000000   0.000625  -0.000000   0.000000  -0.000390
   80  MG 2 XY    0.000000   0.000841  -0.000000   0.000000   0.000191
   81  MG 2 XZ   -0.001054   0.000000   0.000277  -0.000089  -0.000000
   82  MG 2 YZ   -0.001825   0.000000   0.000230   0.000277  -0.000000
   83  MG 2 XX    0.000000   0.000126  -0.000000   0.000000  -0.000554
   84  MG 2 YY    0.000000   0.001144  -0.000000   0.000000   0.000276
   85  MG 2 ZZ    0.000000  -0.001270  -0.000000   0.000000   0.000279
   86  MG 2 XY    0.000000   0.001018  -0.000000   0.000000  -0.000050
   87  MG 2 XZ   -0.000052   0.000000  -0.000342  -0.000285  -0.000000
   88  MG 2 YZ   -0.000090   0.000000  -0.000680  -0.000342  -0.000000
   89  MG 2 XXX   0.000000   0.000008  -0.000000   0.000000  -0.000016
   90  MG 2 YYY   0.000000   0.000036  -0.000000   0.000000   0.000045
   91  MG 2 ZZZ   0.000151   0.000000   0.000232   0.000134  -0.000000
   92  MG 2 XXY   0.000000   0.000016  -0.000000   0.000000   0.000184
   93  MG 2 XXZ  -0.000146   0.000000  -0.000058  -0.000227  -0.000000
   94  MG 2 YYX   0.000000   0.000027  -0.000000   0.000000   0.000028
   95  MG 2 YYZ  -0.000057   0.000000  -0.000254   0.000046  -0.000000
   96  MG 2 ZZX   0.000000  -0.000037  -0.000000   0.000000  -0.000006
   97  MG 2 ZZY   0.000000  -0.000065  -0.000000   0.000000  -0.000244
   98  MG 2 XYZ   0.000089   0.000000   0.000027  -0.000114  -0.000000
   99  MG 3  S    0.000000   0.000004  -0.000000   0.000000  -0.000000
  100  MG 3  S    0.000000  -0.000005  -0.000000   0.000000  -0.000004
  101  MG 3  S    0.000000   0.000137  -0.000000   0.000000   0.000036
  102  MG 3  S    0.000000  -0.000622  -0.000000   0.000000  -0.000159
  103  MG 3  S    0.000000   0.004151  -0.000000   0.000000   0.000582
  104  MG 3  S    0.000000   0.002088  -0.000000   0.000000  -0.000092
  105  MG 3  X    0.000000  -0.000015  -0.000000   0.000000  -0.000000
  106  MG 3  Y    0.000000   0.000000  -0.000000   0.000000  -0.000000
  107  MG 3  Z   -0.000008   0.000000  -0.000000  -0.000006  -0.000000
  108  MG 3  X    0.000000   0.000119  -0.000000   0.000000   0.000002
  109  MG 3  Y    0.000000   0.000000  -0.000000   0.000000  -0.000000
  110  MG 3  Z    0.000147   0.000000  -0.000000   0.000079  -0.000000
  111  MG 3  X    0.000000  -0.001058  -0.000000   0.000000  -0.000141
  112  MG 3  Y    0.000000   0.000000  -0.000000   0.000000  -0.000000
  113  MG 3  Z   -0.001287   0.000000  -0.000000  -0.000401  -0.000000
  114  MG 3  X    0.000000  -0.003429  -0.000000   0.000000   0.000182
  115  MG 3  Y    0.000000   0.000000  -0.000000   0.000000  -0.000000
  116  MG 3  Z   -0.005058   0.000000  -0.000000  -0.000484  -0.000000
  117  MG 3  X    0.000000  -0.002175  -0.000000   0.000000   0.000322
  118  MG 3  Y    0.000000   0.000000  -0.000000   0.000000  -0.000000
  119  MG 3  Z    0.001222   0.000000  -0.000000   0.002202  -0.000000
  120  MG 3 XX    0.000000   0.000015  -0.000000   0.000000   0.000058
  121  MG 3 YY    0.000000  -0.000062  -0.000000   0.000000  -0.000020
  122  MG 3 ZZ    0.000000   0.000048  -0.000000   0.000000  -0.000038
  123  MG 3 XY    0.000000   0.000000  -0.000000   0.000000  -0.000000
  124  MG 3 XZ    0.000121   0.000000  -0.000000   0.000072  -0.000000
  125  MG 3 YZ    0.000000   0.000000   0.000024   0.000000  -0.000000
  126  MG 3 XX    0.000000   0.000529  -0.000000   0.000000  -0.000455
  127  MG 3 YY    0.000000  -0.001154  -0.000000   0.000000  -0.000324
  128  MG 3 ZZ    0.000000   0.000625  -0.000000   0.000000   0.000780
  129  MG 3 XY    0.000000   0.000000  -0.000000   0.000000  -0.000000
  130  MG 3 XZ    0.002107   0.000000  -0.000000   0.000390  -0.000000
  131  MG 3 YZ    0.000000   0.000000  -0.000249   0.000000  -0.000000
  132  MG 3 XX    0.000000   0.001653  -0.000000   0.000000  -0.000061
  133  MG 3 YY    0.000000  -0.000383  -0.000000   0.000000   0.000618
  134  MG 3 ZZ    0.000000  -0.001270  -0.000000   0.000000  -0.000557
  135  MG 3 XY    0.000000   0.000000  -0.000000   0.000000  -0.000000
  136  MG 3 XZ    0.000104   0.000000  -0.000000  -0.000878  -0.000000
  137  MG 3 YZ    0.000000   0.000000  -0.000087   0.000000  -0.000000
  138  MG 3 XXX   0.000000  -0.000055  -0.000000   0.000000   0.000279
  139  MG 3 YYY   0.000000   0.000000  -0.000000   0.000000  -0.000000
  140  MG 3 ZZZ   0.000151   0.000000  -0.000000  -0.000268  -0.000000
  141  MG 3 XXY   0.000000   0.000000  -0.000000   0.000000  -0.000000
  142  MG 3 XXZ  -0.000012   0.000000  -0.000000   0.000214  -0.000000
  143  MG 3 YYX   0.000000  -0.000001  -0.000000   0.000000   0.000055
  144  MG 3 YYZ  -0.000191   0.000000  -0.000000   0.000146  -0.000000
  145  MG 3 ZZX   0.000000   0.000075  -0.000000   0.000000  -0.000429
  146  MG 3 ZZY   0.000000   0.000000  -0.000000   0.000000  -0.000000
  147  MG 3 XYZ   0.000000   0.000000   0.000223   0.000000  -0.000000
  148  P  4  S   -0.084247  -0.084248  -0.000000   0.000000  -0.000000
  149  P  4  S   -0.224014  -0.224015  -0.000000   0.000000  -0.000000
  150  P  4  S    0.382422   0.382420  -0.000000   0.000000  -0.000000
  151  P  4  S    0.407465   0.407485  -0.000000   0.000000  -0.000000
  152  P  4  S    0.033464   0.033381  -0.000000   0.000000  -0.000000
  153  P  4  S   -0.021199  -0.022068  -0.000000   0.000000  -0.000000
  154  P  4  X    0.000000   0.000000  -0.000000   0.810132   0.810122
  155  P  4  Y    0.000000   0.000000   0.810132   0.000000  -0.000000
  156  P  4  Z    0.002324   0.002286  -0.000000   0.000000  -0.000000
  157  P  4  X    0.000000   0.000000  -0.000000   0.170990   0.170983
  158  P  4  Y    0.000000   0.000000   0.170990   0.000000  -0.000000
  159  P  4  Z    0.000290   0.000256  -0.000000   0.000000  -0.000000
  160  P  4  X    0.000000   0.000000  -0.000000   0.028018   0.028068
  161  P  4  Y    0.000000   0.000000   0.028018   0.000000  -0.000000
  162  P  4  Z    0.001594   0.001727  -0.000000   0.000000  -0.000000
  163  P  4  X    0.000000   0.000000  -0.000000  -0.003784  -0.003995
  164  P  4  Y    0.000000   0.000000  -0.003784   0.000000  -0.000000
  165  P  4  Z   -0.001204  -0.001539  -0.000000   0.000000  -0.000000
  166  P  4  X    0.000000   0.000000  -0.000000   0.001375   0.001630
  167  P  4  Y    0.000000   0.000000   0.001375   0.000000  -0.000000
  168  P  4  Z   -0.008292  -0.007975  -0.000000   0.000000  -0.000000
  169  P  4 XX    0.000130   0.000127  -0.000000  -0.000024  -0.000016
  170  P  4 YY    0.000130   0.000127  -0.000000   0.000024   0.000016
  171  P  4 ZZ   -0.000260  -0.000255  -0.000000   0.000000  -0.000000
  172  P  4 XY    0.000000   0.000000   0.000028   0.000000  -0.000000
  173  P  4 XZ    0.000000   0.000000  -0.000000   0.000503   0.000513
  174  P  4 YZ    0.000000   0.000000   0.000503   0.000000  -0.000000
  175  P  4 XX   -0.000217  -0.000215  -0.000000   0.000029  -0.000011
  176  P  4 YY   -0.000217  -0.000215  -0.000000  -0.000029   0.000011
  177  P  4 ZZ    0.000434   0.000430  -0.000000   0.000000  -0.000000
  178  P  4 XY    0.000000   0.000000  -0.000034   0.000000  -0.000000
  179  P  4 XZ    0.000000   0.000000  -0.000000   0.000050  -0.000005
  180  P  4 YZ    0.000000   0.000000   0.000050   0.000000  -0.000000
  181  P  4 XX    0.001319   0.001507  -0.000000  -0.000099  -0.000059
  182  P  4 YY    0.001319   0.001507  -0.000000   0.000099   0.000059
  183  P  4 ZZ   -0.002637  -0.003014  -0.000000   0.000000  -0.000000
  184  P  4 XY    0.000000   0.000000   0.000114   0.000000  -0.000000
  185  P  4 XZ    0.000000   0.000000  -0.000000  -0.000457  -0.000457
  186  P  4 YZ    0.000000   0.000000  -0.000457   0.000000  -0.000000
  187  P  4 XXX  -0.000104  -0.000093  -0.000000   0.000030   0.000037
  188  P  4 YYY   0.000000   0.000000   0.000030   0.000000  -0.000000
  189  P  4 ZZZ   0.000002  -0.000179  -0.000000   0.000000  -0.000000
  190  P  4 XXY   0.000000   0.000000   0.000013   0.000000  -0.000000
  191  P  4 XXZ  -0.000001   0.000120  -0.000000  -0.000009  -0.000035
  192  P  4 YYX   0.000140   0.000125  -0.000000   0.000013   0.000017
  193  P  4 YYZ  -0.000001   0.000120  -0.000000   0.000009   0.000035
  194  P  4 ZZX   0.000000   0.000000  -0.000000  -0.000053  -0.000067
  195  P  4 ZZY   0.000000   0.000000  -0.000053   0.000000  -0.000000
  196  P  4 XYZ   0.000000   0.000000   0.000010   0.000000  -0.000000
  197  P  5  S    0.084247  -0.084248  -0.000000   0.000000  -0.000000
  198  P  5  S    0.224014  -0.224015  -0.000000   0.000000  -0.000000
  199  P  5  S   -0.382422   0.382420  -0.000000   0.000000  -0.000000
  200  P  5  S   -0.407465   0.407485  -0.000000   0.000000  -0.000000
  201  P  5  S   -0.033464   0.033381  -0.000000   0.000000  -0.000000
  202  P  5  S    0.021199  -0.022068  -0.000000   0.000000  -0.000000
  203  P  5  X    0.000000   0.000000  -0.000000  -0.810132   0.810122
  204  P  5  Y    0.000000   0.000000  -0.810132   0.000000  -0.000000
  205  P  5  Z    0.002324  -0.002286  -0.000000   0.000000  -0.000000
  206  P  5  X    0.000000   0.000000  -0.000000  -0.170990   0.170983
  207  P  5  Y    0.000000   0.000000  -0.170990   0.000000  -0.000000
  208  P  5  Z    0.000290  -0.000256  -0.000000   0.000000  -0.000000
  209  P  5  X    0.000000   0.000000  -0.000000  -0.028018   0.028068
  210  P  5  Y    0.000000   0.000000  -0.028018   0.000000  -0.000000
  211  P  5  Z    0.001594  -0.001727  -0.000000   0.000000  -0.000000
  212  P  5  X    0.000000   0.000000  -0.000000   0.003784  -0.003995
  213  P  5  Y    0.000000   0.000000   0.003784   0.000000  -0.000000
  214  P  5  Z   -0.001204   0.001539  -0.000000   0.000000  -0.000000
  215  P  5  X    0.000000   0.000000  -0.000000  -0.001375   0.001630
  216  P  5  Y    0.000000   0.000000  -0.001375   0.000000  -0.000000
  217  P  5  Z   -0.008292   0.007975  -0.000000   0.000000  -0.000000
  218  P  5 XX   -0.000130   0.000127  -0.000000   0.000024  -0.000016
  219  P  5 YY   -0.000130   0.000127  -0.000000  -0.000024   0.000016
  220  P  5 ZZ    0.000260  -0.000255  -0.000000   0.000000  -0.000000
  221  P  5 XY    0.000000   0.000000  -0.000028   0.000000  -0.000000
  222  P  5 XZ    0.000000   0.000000  -0.000000   0.000503  -0.000513
  223  P  5 YZ    0.000000   0.000000   0.000503   0.000000  -0.000000
  224  P  5 XX    0.000217  -0.000215  -0.000000  -0.000029  -0.000011
  225  P  5 YY    0.000217  -0.000215  -0.000000   0.000029   0.000011
  226  P  5 ZZ   -0.000434   0.000430  -0.000000   0.000000  -0.000000
  227  P  5 XY    0.000000   0.000000   0.000034   0.000000  -0.000000
  228  P  5 XZ    0.000000   0.000000  -0.000000   0.000050   0.000005
  229  P  5 YZ    0.000000   0.000000   0.000050   0.000000  -0.000000
  230  P  5 XX   -0.001319   0.001507  -0.000000   0.000099  -0.000059
  231  P  5 YY   -0.001319   0.001507  -0.000000  -0.000099   0.000059
  232  P  5 ZZ    0.002637  -0.003014  -0.000000   0.000000  -0.000000
  233  P  5 XY    0.000000   0.000000  -0.000114   0.000000  -0.000000
  234  P  5 XZ    0.000000   0.000000  -0.000000  -0.000457   0.000457
  235  P  5 YZ    0.000000   0.000000  -0.000457   0.000000  -0.000000
  236  P  5 XXX   0.000104  -0.000093  -0.000000  -0.000030   0.000037
  237  P  5 YYY   0.000000   0.000000  -0.000030   0.000000  -0.000000
  238  P  5 ZZZ   0.000002   0.000179  -0.000000   0.000000  -0.000000
  239  P  5 XXY   0.000000   0.000000  -0.000013   0.000000  -0.000000
  240  P  5 XXZ  -0.000001  -0.000120  -0.000000  -0.000009   0.000035
  241  P  5 YYX  -0.000140   0.000125  -0.000000  -0.000013   0.000017
  242  P  5 YYZ  -0.000001  -0.000120  -0.000000   0.000009  -0.000035
  243  P  5 ZZX   0.000000   0.000000  -0.000000   0.000053  -0.000067
  244  P  5 ZZY   0.000000   0.000000   0.000053   0.000000  -0.000000
  245  P  5 XYZ   0.000000   0.000000   0.000010   0.000000  -0.000000

                     11         12         13         14         15
                   -5.2908    -5.2907    -5.2907    -3.7769    -3.7768
                     E'         A2"        A1'        A1'        E'  
    1  MG 1  S   -0.000000  -0.000000   0.000000  -0.063107   0.044631
    2  MG 1  S   -0.000003  -0.000000  -0.000007  -0.166593   0.117860
    3  MG 1  S    0.000031  -0.000000   0.000087   0.347258  -0.246006
    4  MG 1  S   -0.000138  -0.000000  -0.000345   0.297632  -0.209364
    5  MG 1  S    0.000504  -0.000000   0.001045   0.028238  -0.021632
    6  MG 1  S   -0.000080  -0.000000   0.000343  -0.004656  -0.029702
    7  MG 1  X    0.000003  -0.000000   0.000007  -0.001098   0.000774
    8  MG 1  Y    0.000001  -0.000000  -0.000011   0.001902  -0.001351
    9  MG 1  Z   -0.000000  -0.000006  -0.000000  -0.000000  -0.000000
   10  MG 1  X   -0.000012  -0.000000  -0.000036  -0.002564   0.001991
   11  MG 1  Y   -0.000005  -0.000000   0.000063   0.004440  -0.003183
   12  MG 1  Z   -0.000000   0.000103  -0.000000  -0.000000  -0.000000
   13  MG 1  X    0.000074  -0.000000   0.000189  -0.001347   0.000694
   14  MG 1  Y   -0.000098  -0.000000  -0.000328   0.002334  -0.002038
   15  MG 1  Z   -0.000000  -0.000565  -0.000000  -0.000000  -0.000000
   16  MG 1  X    0.000109  -0.000000   0.000427   0.005496  -0.016320
   17  MG 1  Y    0.000245  -0.000000  -0.000740  -0.009519   0.014103
   18  MG 1  Z   -0.000000  -0.000879  -0.000000  -0.000000  -0.000000
   19  MG 1  X   -0.000562  -0.000000   0.000068  -0.002984  -0.005114
   20  MG 1  Y   -0.000002  -0.000000  -0.000118   0.005169   0.007766
   21  MG 1  Z   -0.000000   0.000114  -0.000000  -0.000000  -0.000000
   22  MG 1 XX   -0.000013  -0.000000  -0.000025   0.000732  -0.000291
   23  MG 1 YY    0.000046  -0.000000   0.000000   0.000272  -0.000243
   24  MG 1 ZZ   -0.000033  -0.000000   0.000025  -0.001005   0.000534
   25  MG 1 XY   -0.000025  -0.000000  -0.000025   0.000460  -0.000517
   26  MG 1 XZ   -0.000000  -0.000028  -0.000000  -0.000000  -0.000000
   27  MG 1 YZ   -0.000000   0.000048  -0.000000  -0.000000  -0.000000
   28  MG 1 XX   -0.000172  -0.000000  -0.000304  -0.002516  -0.001453
   29  MG 1 YY   -0.000503  -0.000000   0.000018  -0.000298   0.000862
   30  MG 1 ZZ    0.000675  -0.000000   0.000285   0.002814   0.000591
   31  MG 1 XY   -0.000035  -0.000000  -0.000322  -0.002218   0.004962
   32  MG 1 XZ   -0.000000  -0.000432  -0.000000  -0.000000  -0.000000
   33  MG 1 YZ   -0.000000   0.000749  -0.000000  -0.000000  -0.000000
   34  MG 1 XX    0.000198  -0.000000  -0.000033   0.000180   0.000436
   35  MG 1 YY    0.000285  -0.000000   0.000093  -0.000819  -0.001027
   36  MG 1 ZZ   -0.000482  -0.000000  -0.000060   0.000639   0.000591
   37  MG 1 XY    0.000421  -0.000000  -0.000126   0.000999   0.003782
   38  MG 1 XZ   -0.000000  -0.000023  -0.000000  -0.000000  -0.000000
   39  MG 1 YZ   -0.000000   0.000040  -0.000000  -0.000000  -0.000000
   40  MG 1 XXX  -0.000103  -0.000000  -0.000112  -0.001051  -0.000235
   41  MG 1 YYY   0.000214  -0.000000   0.000131   0.001159  -0.001050
   42  MG 1 ZZZ  -0.000000   0.000077  -0.000000  -0.000000  -0.000000
   43  MG 1 XXY   0.000001  -0.000000   0.000059   0.000518   0.000677
   44  MG 1 XXZ  -0.000000   0.000041  -0.000000  -0.000000  -0.000000
   45  MG 1 YYX  -0.000106  -0.000000   0.000015   0.000214  -0.000304
   46  MG 1 YYZ  -0.000000  -0.000144  -0.000000  -0.000000  -0.000000
   47  MG 1 ZZX   0.000244  -0.000000   0.000135   0.001197   0.000619
   48  MG 1 ZZY  -0.000288  -0.000000  -0.000234  -0.002073   0.000732
   49  MG 1 XYZ  -0.000000   0.000186  -0.000000  -0.000000  -0.000000
   50  MG 2  S    0.000000  -0.000000   0.000000  -0.063107   0.044631
   51  MG 2  S    0.000003  -0.000000  -0.000007  -0.166593   0.117860
   52  MG 2  S   -0.000031  -0.000000   0.000087   0.347258  -0.246006
   53  MG 2  S    0.000138  -0.000000  -0.000345   0.297632  -0.209364
   54  MG 2  S   -0.000504  -0.000000   0.001045   0.028238  -0.021632
   55  MG 2  S    0.000080  -0.000000   0.000343  -0.004656  -0.029702
   56  MG 2  X   -0.000003  -0.000000   0.000007  -0.001098   0.000774
   57  MG 2  Y    0.000001  -0.000000   0.000011  -0.001902   0.001351
   58  MG 2  Z   -0.000000  -0.000006  -0.000000  -0.000000  -0.000000
   59  MG 2  X    0.000012  -0.000000  -0.000036  -0.002564   0.001991
   60  MG 2  Y   -0.000005  -0.000000  -0.000063  -0.004440   0.003183
   61  MG 2  Z   -0.000000   0.000103  -0.000000  -0.000000  -0.000000
   62  MG 2  X   -0.000074  -0.000000   0.000189  -0.001347   0.000694
   63  MG 2  Y   -0.000098  -0.000000   0.000328  -0.002334   0.002038
   64  MG 2  Z   -0.000000  -0.000565  -0.000000  -0.000000  -0.000000
   65  MG 2  X   -0.000109  -0.000000   0.000427   0.005496  -0.016320
   66  MG 2  Y    0.000245  -0.000000   0.000740   0.009519  -0.014103
   67  MG 2  Z   -0.000000  -0.000879  -0.000000  -0.000000  -0.000000
   68  MG 2  X    0.000562  -0.000000   0.000068  -0.002984  -0.005114
   69  MG 2  Y   -0.000002  -0.000000   0.000118  -0.005169  -0.007766
   70  MG 2  Z   -0.000000   0.000114  -0.000000  -0.000000  -0.000000
   71  MG 2 XX    0.000013  -0.000000  -0.000025   0.000732  -0.000291
   72  MG 2 YY   -0.000046  -0.000000   0.000000   0.000272  -0.000243
   73  MG 2 ZZ    0.000033  -0.000000   0.000025  -0.001005   0.000534
   74  MG 2 XY   -0.000025  -0.000000   0.000025  -0.000460   0.000517
   75  MG 2 XZ   -0.000000  -0.000028  -0.000000  -0.000000  -0.000000
   76  MG 2 YZ   -0.000000  -0.000048  -0.000000  -0.000000  -0.000000
   77  MG 2 XX    0.000172  -0.000000  -0.000304  -0.002516  -0.001453
   78  MG 2 YY    0.000503  -0.000000   0.000018  -0.000298   0.000862
   79  MG 2 ZZ   -0.000675  -0.000000   0.000285   0.002814   0.000591
   80  MG 2 XY   -0.000035  -0.000000   0.000322   0.002218  -0.004962
   81  MG 2 XZ   -0.000000  -0.000432  -0.000000  -0.000000  -0.000000
   82  MG 2 YZ   -0.000000  -0.000749  -0.000000  -0.000000  -0.000000
   83  MG 2 XX   -0.000198  -0.000000  -0.000033   0.000180   0.000436
   84  MG 2 YY   -0.000285  -0.000000   0.000093  -0.000819  -0.001027
   85  MG 2 ZZ    0.000482  -0.000000  -0.000060   0.000639   0.000591
   86  MG 2 XY    0.000421  -0.000000   0.000126  -0.000999  -0.003782
   87  MG 2 XZ   -0.000000  -0.000023  -0.000000  -0.000000  -0.000000
   88  MG 2 YZ   -0.000000  -0.000040  -0.000000  -0.000000  -0.000000
   89  MG 2 XXX   0.000103  -0.000000  -0.000112  -0.001051  -0.000235
   90  MG 2 YYY   0.000214  -0.000000  -0.000131  -0.001159   0.001050
   91  MG 2 ZZZ  -0.000000   0.000077  -0.000000  -0.000000  -0.000000
   92  MG 2 XXY   0.000001  -0.000000  -0.000059  -0.000518  -0.000677
   93  MG 2 XXZ  -0.000000   0.000041  -0.000000  -0.000000  -0.000000
   94  MG 2 YYX   0.000106  -0.000000   0.000015   0.000214  -0.000304
   95  MG 2 YYZ  -0.000000  -0.000144  -0.000000  -0.000000  -0.000000
   96  MG 2 ZZX  -0.000244  -0.000000   0.000135   0.001197   0.000619
   97  MG 2 ZZY  -0.000288  -0.000000   0.000234   0.002073  -0.000732
   98  MG 2 XYZ  -0.000000  -0.000186  -0.000000  -0.000000  -0.000000
   99  MG 3  S   -0.000000  -0.000000   0.000000  -0.063107  -0.089262
  100  MG 3  S   -0.000000  -0.000000  -0.000007  -0.166593  -0.235719
  101  MG 3  S   -0.000000  -0.000000   0.000087   0.347258   0.492012
  102  MG 3  S   -0.000000  -0.000000  -0.000345   0.297632   0.418729
  103  MG 3  S   -0.000000  -0.000000   0.001045   0.028238   0.043264
  104  MG 3  S   -0.000000  -0.000000   0.000343  -0.004656   0.059404
  105  MG 3  X   -0.000000  -0.000000  -0.000013   0.002197   0.003114
  106  MG 3  Y    0.000006  -0.000000  -0.000000  -0.000000  -0.000000
  107  MG 3  Z   -0.000000  -0.000006  -0.000000  -0.000000  -0.000000
  108  MG 3  X   -0.000000  -0.000000   0.000073   0.005127   0.007504
  109  MG 3  Y   -0.000026  -0.000000  -0.000000  -0.000000  -0.000000
  110  MG 3  Z   -0.000000   0.000103  -0.000000  -0.000000  -0.000000
  111  MG 3  X   -0.000000  -0.000000  -0.000378   0.002695   0.004225
  112  MG 3  Y    0.000030  -0.000000  -0.000000  -0.000000  -0.000000
  113  MG 3  Z   -0.000000  -0.000565  -0.000000  -0.000000  -0.000000
  114  MG 3  X   -0.000000  -0.000000  -0.000854  -0.010992  -0.040747
  115  MG 3  Y    0.000433  -0.000000  -0.000000  -0.000000  -0.000000
  116  MG 3  Z   -0.000000  -0.000879  -0.000000  -0.000000  -0.000000
  117  MG 3  X   -0.000000  -0.000000  -0.000136   0.005969  -0.018566
  118  MG 3  Y   -0.000975  -0.000000  -0.000000  -0.000000  -0.000000
  119  MG 3  Z   -0.000000   0.000114  -0.000000  -0.000000  -0.000000
  120  MG 3 XX   -0.000000  -0.000000   0.000013   0.000042  -0.000266
  121  MG 3 YY   -0.000000  -0.000000  -0.000038   0.000963   0.001334
  122  MG 3 ZZ   -0.000000  -0.000000   0.000025  -0.001005  -0.001068
  123  MG 3 XY    0.000033  -0.000000  -0.000000  -0.000000  -0.000000
  124  MG 3 XZ   -0.000000   0.000056  -0.000000  -0.000000  -0.000000
  125  MG 3 YZ   -0.000000  -0.000000  -0.000000  -0.000000  -0.000000
  126  MG 3 XX   -0.000000  -0.000000   0.000179   0.000811   0.006876
  127  MG 3 YY   -0.000000  -0.000000  -0.000465  -0.003626  -0.005694
  128  MG 3 ZZ   -0.000000  -0.000000   0.000285   0.002814  -0.001182
  129  MG 3 XY   -0.000365  -0.000000  -0.000000  -0.000000  -0.000000
  130  MG 3 XZ   -0.000000   0.000865  -0.000000  -0.000000  -0.000000
  131  MG 3 YZ   -0.000000  -0.000000  -0.000000  -0.000000  -0.000000
  132  MG 3 XX   -0.000000  -0.000000   0.000156  -0.001318   0.006996
  133  MG 3 YY   -0.000000  -0.000000  -0.000096   0.000679  -0.005813
  134  MG 3 ZZ   -0.000000  -0.000000  -0.000060   0.000639  -0.001183
  135  MG 3 XY    0.000508  -0.000000  -0.000000  -0.000000  -0.000000
  136  MG 3 XZ   -0.000000   0.000046  -0.000000  -0.000000  -0.000000
  137  MG 3 YZ   -0.000000  -0.000000  -0.000000  -0.000000  -0.000000
  138  MG 3 XXX  -0.000000  -0.000000   0.000115   0.000956   0.000140
  139  MG 3 YYY  -0.000181  -0.000000  -0.000000  -0.000000  -0.000000
  140  MG 3 ZZZ  -0.000000   0.000077  -0.000000  -0.000000  -0.000000
  141  MG 3 XXY   0.000108  -0.000000  -0.000000  -0.000000  -0.000000
  142  MG 3 XXZ  -0.000000  -0.000237  -0.000000  -0.000000  -0.000000
  143  MG 3 YYX  -0.000000  -0.000000   0.000116   0.001111   0.000460
  144  MG 3 YYZ  -0.000000   0.000134  -0.000000  -0.000000  -0.000000
  145  MG 3 ZZX  -0.000000  -0.000000  -0.000270  -0.002394  -0.000648
  146  MG 3 ZZY   0.000135  -0.000000  -0.000000  -0.000000  -0.000000
  147  MG 3 XYZ  -0.000000  -0.000000  -0.000000  -0.000000  -0.000000
  148  P  4  S   -0.000000   0.000359   0.000359   0.000029  -0.000000
  149  P  4  S   -0.000000   0.000978   0.000976   0.000069  -0.000000
  150  P  4  S   -0.000000  -0.002086  -0.002077  -0.000054  -0.000000
  151  P  4  S   -0.000000  -0.001467  -0.001481  -0.000580  -0.000000
  152  P  4  S   -0.000000   0.001939   0.001984   0.005316  -0.000000
  153  P  4  S   -0.000000  -0.003189  -0.003372  -0.018223  -0.000000
  154  P  4  X   -0.000000  -0.000000  -0.000000  -0.000000  -0.000342
  155  P  4  Y    0.810122  -0.000000  -0.000000  -0.000000  -0.000000
  156  P  4  Z   -0.000000   0.810252   0.810243  -0.000775  -0.000000
  157  P  4  X   -0.000000  -0.000000  -0.000000  -0.000000  -0.000138
  158  P  4  Y    0.170983  -0.000000  -0.000000  -0.000000  -0.000000
  159  P  4  Z   -0.000000   0.170918   0.170907  -0.000367  -0.000000
  160  P  4  X   -0.000000  -0.000000  -0.000000  -0.000000   0.000839
  161  P  4  Y    0.028068  -0.000000  -0.000000  -0.000000  -0.000000
  162  P  4  Z   -0.000000   0.027604   0.027632   0.002266  -0.000000
  163  P  4  X   -0.000000  -0.000000  -0.000000  -0.000000  -0.002811
  164  P  4  Y   -0.003995  -0.000000  -0.000000  -0.000000  -0.000000
  165  P  4  Z   -0.000000  -0.003858  -0.003887  -0.007743  -0.000000
  166  P  4  X   -0.000000  -0.000000  -0.000000  -0.000000  -0.010760
  167  P  4  Y    0.001630  -0.000000  -0.000000  -0.000000  -0.000000
  168  P  4  Z   -0.000000  -0.000159  -0.000071  -0.008118  -0.000000
  169  P  4 XX   -0.000000  -0.000344  -0.000341  -0.000038   0.000020
  170  P  4 YY   -0.000000  -0.000344  -0.000341  -0.000038  -0.000020
  171  P  4 ZZ   -0.000000   0.000687   0.000681   0.000076  -0.000000
  172  P  4 XY    0.000019  -0.000000  -0.000000  -0.000000  -0.000000
  173  P  4 XZ   -0.000000  -0.000000  -0.000000  -0.000000   0.000066
  174  P  4 YZ    0.000513  -0.000000  -0.000000  -0.000000  -0.000000
  175  P  4 XX   -0.000000  -0.000004  -0.000020   0.000192  -0.000086
  176  P  4 YY   -0.000000  -0.000004  -0.000020   0.000192   0.000086
  177  P  4 ZZ   -0.000000   0.000009   0.000040  -0.000385  -0.000000
  178  P  4 XY    0.000013  -0.000000  -0.000000  -0.000000  -0.000000
  179  P  4 XZ   -0.000000  -0.000000  -0.000000  -0.000000  -0.000273
  180  P  4 YZ   -0.000005  -0.000000  -0.000000  -0.000000  -0.000000
  181  P  4 XX   -0.000000   0.000330   0.000307   0.001311  -0.001631
  182  P  4 YY   -0.000000   0.000330   0.000307   0.001311   0.001631
  183  P  4 ZZ   -0.000000  -0.000659  -0.000613  -0.002623  -0.000000
  184  P  4 XY    0.000068  -0.000000  -0.000000  -0.000000  -0.000000
  185  P  4 XZ   -0.000000  -0.000000  -0.000000  -0.000000  -0.005272
  186  P  4 YZ   -0.000457  -0.000000  -0.000000  -0.000000  -0.000000
  187  P  4 XXX  -0.000000  -0.000017  -0.000034  -0.000195   0.000264
  188  P  4 YYY   0.000037  -0.000000  -0.000000  -0.000000  -0.000000
  189  P  4 ZZZ  -0.000000  -0.000045  -0.000035   0.000314  -0.000000
  190  P  4 XXY   0.000017  -0.000000  -0.000000  -0.000000  -0.000000
  191  P  4 XXZ  -0.000000   0.000030   0.000023  -0.000211  -0.000244
  192  P  4 YYX  -0.000000   0.000023   0.000046   0.000261   0.000118
  193  P  4 YYZ  -0.000000   0.000030   0.000023  -0.000211   0.000244
  194  P  4 ZZX  -0.000000  -0.000000  -0.000000  -0.000000  -0.000472
  195  P  4 ZZY  -0.000067  -0.000000  -0.000000  -0.000000  -0.000000
  196  P  4 XYZ   0.000040  -0.000000  -0.000000  -0.000000  -0.000000
  197  P  5  S   -0.000000  -0.000359   0.000359   0.000029  -0.000000
  198  P  5  S   -0.000000  -0.000978   0.000976   0.000069  -0.000000
  199  P  5  S   -0.000000   0.002086  -0.002077  -0.000054  -0.000000
  200  P  5  S   -0.000000   0.001467  -0.001481  -0.000580  -0.000000
  201  P  5  S   -0.000000  -0.001939   0.001984   0.005316  -0.000000
  202  P  5  S   -0.000000   0.003189  -0.003372  -0.018223  -0.000000
  203  P  5  X   -0.000000  -0.000000  -0.000000  -0.000000  -0.000342
  204  P  5  Y    0.810122  -0.000000  -0.000000  -0.000000  -0.000000
  205  P  5  Z   -0.000000   0.810252  -0.810243   0.000775  -0.000000
  206  P  5  X   -0.000000  -0.000000  -0.000000  -0.000000  -0.000138
  207  P  5  Y    0.170983  -0.000000  -0.000000  -0.000000  -0.000000
  208  P  5  Z   -0.000000   0.170918  -0.170907   0.000367  -0.000000
  209  P  5  X   -0.000000  -0.000000  -0.000000  -0.000000   0.000839
  210  P  5  Y    0.028068  -0.000000  -0.000000  -0.000000  -0.000000
  211  P  5  Z   -0.000000   0.027604  -0.027632  -0.002266  -0.000000
  212  P  5  X   -0.000000  -0.000000  -0.000000  -0.000000  -0.002811
  213  P  5  Y   -0.003995  -0.000000  -0.000000  -0.000000  -0.000000
  214  P  5  Z   -0.000000  -0.003858   0.003887   0.007743  -0.000000
  215  P  5  X   -0.000000  -0.000000  -0.000000  -0.000000  -0.010760
  216  P  5  Y    0.001630  -0.000000  -0.000000  -0.000000  -0.000000
  217  P  5  Z   -0.000000  -0.000159   0.000071   0.008118  -0.000000
  218  P  5 XX   -0.000000   0.000344  -0.000341  -0.000038   0.000020
  219  P  5 YY   -0.000000   0.000344  -0.000341  -0.000038  -0.000020
  220  P  5 ZZ   -0.000000  -0.000687   0.000681   0.000076  -0.000000
  221  P  5 XY    0.000019  -0.000000  -0.000000  -0.000000  -0.000000
  222  P  5 XZ   -0.000000  -0.000000  -0.000000  -0.000000  -0.000066
  223  P  5 YZ   -0.000513  -0.000000  -0.000000  -0.000000  -0.000000
  224  P  5 XX   -0.000000   0.000004  -0.000020   0.000192  -0.000086
  225  P  5 YY   -0.000000   0.000004  -0.000020   0.000192   0.000086
  226  P  5 ZZ   -0.000000  -0.000009   0.000040  -0.000385  -0.000000
  227  P  5 XY    0.000013  -0.000000  -0.000000  -0.000000  -0.000000
  228  P  5 XZ   -0.000000  -0.000000  -0.000000  -0.000000   0.000273
  229  P  5 YZ    0.000005  -0.000000  -0.000000  -0.000000  -0.000000
  230  P  5 XX   -0.000000  -0.000330   0.000307   0.001311  -0.001631
  231  P  5 YY   -0.000000  -0.000330   0.000307   0.001311   0.001631
  232  P  5 ZZ   -0.000000   0.000659  -0.000613  -0.002623  -0.000000
  233  P  5 XY    0.000068  -0.000000  -0.000000  -0.000000  -0.000000
  234  P  5 XZ   -0.000000  -0.000000  -0.000000  -0.000000   0.005272
  235  P  5 YZ    0.000457  -0.000000  -0.000000  -0.000000  -0.000000
  236  P  5 XXX  -0.000000   0.000017  -0.000034  -0.000195   0.000264
  237  P  5 YYY   0.000037  -0.000000  -0.000000  -0.000000  -0.000000
  238  P  5 ZZZ  -0.000000  -0.000045   0.000035  -0.000314  -0.000000
  239  P  5 XXY   0.000017  -0.000000  -0.000000  -0.000000  -0.000000
  240  P  5 XXZ  -0.000000   0.000030  -0.000023   0.000211   0.000244
  241  P  5 YYX  -0.000000  -0.000023   0.000046   0.000261   0.000118
  242  P  5 YYZ  -0.000000   0.000030  -0.000023   0.000211  -0.000244
  243  P  5 ZZX  -0.000000  -0.000000  -0.000000  -0.000000  -0.000472
  244  P  5 ZZY  -0.000067  -0.000000  -0.000000  -0.000000  -0.000000
  245  P  5 XYZ  -0.000040  -0.000000  -0.000000  -0.000000  -0.000000

                     16         17         18         19         20
                   -3.7768    -2.2995    -2.2988    -2.2988    -2.2980
                     E'         A1'        E'         E'         A2' 
    1  MG 1  S    0.077303   0.000818   0.000223  -0.000386  -0.000000
    2  MG 1  S    0.204139   0.002253   0.000611  -0.001059  -0.000000
    3  MG 1  S   -0.426095  -0.006190  -0.001649   0.002857  -0.000000
    4  MG 1  S   -0.362630  -0.001529  -0.000546   0.000946  -0.000000
    5  MG 1  S   -0.037468   0.003804   0.001356  -0.002349  -0.000000
    6  MG 1  S   -0.051446  -0.000179   0.002654  -0.004597  -0.000000
    7  MG 1  X    0.001351  -0.134259   0.229354   0.213983  -0.232997
    8  MG 1  Y   -0.002334   0.232544   0.213983  -0.017733  -0.134521
    9  MG 1  Z    0.000000  -0.000000  -0.000000  -0.000000  -0.000000
   10  MG 1  X    0.003183  -0.188545   0.322218   0.300580  -0.327188
   11  MG 1  Y   -0.005667   0.326570   0.300580  -0.024861  -0.188902
   12  MG 1  Z    0.000000  -0.000000  -0.000000  -0.000000  -0.000000
   13  MG 1  X    0.002038  -0.008717   0.014550   0.013692  -0.015189
[...]
   NUCLEUS-NUCLEUS POTENTIAL ENERGY =     341.8345608452
                                      ------------------
             TOTAL POTENTIAL ENERGY =   -2560.2029717570
               TOTAL KINETIC ENERGY =    1279.8744480256
                 VIRIAL RATIO (V/T) =       2.0003547814

          ---------------------------------------
          MULLIKEN AND LOWDIN POPULATION ANALYSES
          ---------------------------------------

     ATOMIC MULLIKEN POPULATION IN EACH MOLECULAR ORBITAL

                      1          2          3          4          5

                  2.000000   2.000000   2.000000   2.000000   2.000000

    1             0.000004   0.000006   0.666663   0.333334   0.999997
    2             0.000004   0.000006   0.666663   0.333334   0.999997
    3             0.000004   0.000006   0.666663   1.333329   0.000002
    4             0.999994   0.999991   0.000005   0.000002   0.000002
    5             0.999994   0.999991   0.000005   0.000002   0.000002

                      6          7          8          9         10

                  2.000000   2.000000   2.000000   2.000000   2.000000

    1             0.001228   0.001748   0.000030   0.000027   0.000006
    2             0.001228   0.001748   0.000030   0.000027   0.000006
    3             0.001228   0.001748   0.000026   0.000031   0.000088
    4             0.998159   0.997378   0.999957   0.999957   0.999950
    5             0.998159   0.997378   0.999957   0.999957   0.999950

                     11         12         13         14         15

                  2.000000   2.000000   2.000000   2.000000   2.000000

    1             0.000061   0.000149   0.000150   0.671353   0.333528
    2             0.000061   0.000149   0.000150   0.671353   0.333528
    3            -0.000021   0.000149   0.000150   0.671353   1.342733
    4             0.999950   0.999777   0.999775  -0.007030  -0.004895
    5             0.999950   0.999777   0.999775  -0.007030  -0.004895

                     16         17         18         19         20

                  2.000000   2.000000   2.000000   2.000000   2.000000

    1             1.006331   0.665657   0.907947   0.425104   0.666666
    2             1.006331   0.665657   0.907947   0.425104   0.666666
    3            -0.002873   0.665657   0.183683   1.149369   0.666666
    4            -0.004895   0.001514   0.000211   0.000211   0.000000
    5            -0.004895   0.001514   0.000211   0.000211   0.000000

                     21         22         23         24         25

                  2.000000   2.000000   2.000000   2.000000   2.000000

    1             0.425361   0.907668   0.666397   0.999690   0.333190
    2             0.425361   0.907668   0.666397   0.999690   0.333190
    3             1.148822   0.184208   0.666397  -0.000060   1.332941
    4             0.000228   0.000228   0.000405   0.000340   0.000340
    5             0.000228   0.000228   0.000405   0.000340   0.000340

                     26         27         28         29         30

                  2.000000   2.000000   2.000000   2.000000   2.000000

    1             0.158037   0.106362   0.166507   0.250040   0.364424
    2             0.158037   0.106362   0.166507   0.250040   0.364424
    3             0.158037   0.106362   0.166507   0.421616   0.192848
    4             0.762945   0.840457   0.750240   0.539152   0.539152
    5             0.762945   0.840457   0.750240   0.539152   0.539152

                     31         32         33

                  2.000000   2.000000   2.000000

    1             0.249807   0.126538   0.099679
    2             0.249807   0.126538   0.099679
    3             0.064904   0.311441   0.099679
    4             0.717741   0.717741   0.850481
    5             0.717741   0.717741   0.850481

               ----- POPULATIONS IN EACH AO -----
                             MULLIKEN      LOWDIN
              1  MG 1  S      0.77960     0.89700
              2  MG 1  S      1.19695     1.09139
              3  MG 1  S      1.05310     0.97997
              4  MG 1  S      0.93643     0.85385
              5  MG 1  S      0.52783     0.15830
              6  MG 1  S      0.12778     0.09041
              7  MG 1  X      0.77202     0.81281
              8  MG 1  Y      0.77220     0.81308
              9  MG 1  Z      0.78305     0.82612
             10  MG 1  X      1.20641     1.10133
             11  MG 1  Y      1.20599     1.10028
             12  MG 1  Z      1.20015     1.10012
             13  MG 1  X      0.04508     0.09176
             14  MG 1  Y      0.04528     0.09189
             15  MG 1  Z      0.12233     0.16667
             16  MG 1  X      0.08371     0.06174
             17  MG 1  Y      0.05234     0.05610
             18  MG 1  Z      0.27065     0.16388
             19  MG 1  X      0.02409     0.07702
             20  MG 1  Y      0.01194     0.07540
             21  MG 1  Z      0.07800     0.08666
             22  MG 1 XX      0.00104     0.05238
             23  MG 1 YY      0.00080     0.05419
             24  MG 1 ZZ      0.00065     0.05796
             25  MG 1 XY      0.00184     0.00056
             26  MG 1 XZ      0.00325     0.00216
             27  MG 1 YZ      0.00000     0.00407
             28  MG 1 XX      0.02954     0.07344
             29  MG 1 YY      0.01772     0.09283
             30  MG 1 ZZ      0.00986     0.15943
             31  MG 1 XY      0.03561     0.01699
             32  MG 1 XZ      0.04586     0.05290
             33  MG 1 YZ      0.00000     0.07212
             34  MG 1 XX      0.02517     0.02957
             35  MG 1 YY      0.00943     0.05142
             36  MG 1 ZZ      0.00483     0.08479
             37  MG 1 XY      0.01887     0.04175
             38  MG 1 XZ      0.00507     0.08412
             39  MG 1 YZ      0.00000     0.08461
             40  MG 1 XXX     0.00007     0.02642
             41  MG 1 YYY     0.00685     0.03786
             42  MG 1 ZZZ     0.00231     0.14714
             43  MG 1 XXY     0.00597     0.01347
             44  MG 1 XXZ     0.00602     0.05621
             45  MG 1 YYX     0.00560     0.02005
             46  MG 1 YYZ     0.00236     0.08318
             47  MG 1 ZZX     0.00000     0.03238
             48  MG 1 ZZY     0.00000     0.03815
             49  MG 1 XYZ     0.00000     0.02153
             50  MG 2  S      0.77960     0.89700
             51  MG 2  S      1.19695     1.09139
             52  MG 2  S      1.05310     0.97997
             53  MG 2  S      0.93643     0.85385
             54  MG 2  S      0.52783     0.15830
             55  MG 2  S      0.12778     0.09041
             56  MG 2  X      0.77202     0.81281
             57  MG 2  Y      0.77220     0.81308
             58  MG 2  Z      0.78305     0.82612
             59  MG 2  X      1.20641     1.10133
             60  MG 2  Y      1.20599     1.10028
             61  MG 2  Z      1.20015     1.10012
             62  MG 2  X      0.04508     0.09176
             63  MG 2  Y      0.04528     0.09189
             64  MG 2  Z      0.12233     0.16667
             65  MG 2  X      0.08371     0.06174
             66  MG 2  Y      0.05234     0.05610
             67  MG 2  Z      0.27065     0.16388
             68  MG 2  X      0.02409     0.07702
             69  MG 2  Y      0.01194     0.07540
             70  MG 2  Z      0.07800     0.08666
             71  MG 2 XX      0.00104     0.05238
             72  MG 2 YY      0.00080     0.05419
             73  MG 2 ZZ      0.00065     0.05796
             74  MG 2 XY      0.00184     0.00056
             75  MG 2 XZ      0.00325     0.00216
             76  MG 2 YZ      0.00000     0.00407
             77  MG 2 XX      0.02954     0.07344
             78  MG 2 YY      0.01772     0.09283
             79  MG 2 ZZ      0.00986     0.15943
             80  MG 2 XY      0.03561     0.01699
             81  MG 2 XZ      0.04586     0.05290
             82  MG 2 YZ      0.00000     0.07212
             83  MG 2 XX      0.02517     0.02957
             84  MG 2 YY      0.00943     0.05142
             85  MG 2 ZZ      0.00483     0.08479
             86  MG 2 XY      0.01887     0.04175
             87  MG 2 XZ      0.00507     0.08412
             88  MG 2 YZ      0.00000     0.08461
             89  MG 2 XXX     0.00007     0.02642
             90  MG 2 YYY     0.00685     0.03786
             91  MG 2 ZZZ     0.00231     0.14714
             92  MG 2 XXY     0.00597     0.01347
             93  MG 2 XXZ     0.00602     0.05621
             94  MG 2 YYX     0.00560     0.02005
             95  MG 2 YYZ     0.00236     0.08318
             96  MG 2 ZZX     0.00000     0.03238
             97  MG 2 ZZY     0.00000     0.03815
             98  MG 2 XYZ     0.00000     0.02153
             99  MG 3  S      0.77960     0.89700
            100  MG 3  S      1.19695     1.09139
            101  MG 3  S      1.05310     0.97994
            102  MG 3  S      0.93643     0.85377
            103  MG 3  S      0.52783     0.15698
            104  MG 3  S      0.12778     0.08999
            105  MG 3  X      0.77229     0.81322
            106  MG 3  Y      0.77193     0.81269
            107  MG 3  Z      0.78305     0.82612
            108  MG 3  X      1.20578     1.09940
            109  MG 3  Y      1.20662     1.10194
            110  MG 3  Z      1.20015     1.10019
            111  MG 3  X      0.04538     0.09001
            112  MG 3  Y      0.04498     0.09280
            113  MG 3  Z      0.12233     0.16715
            114  MG 3  X      0.03666     0.05234
            115  MG 3  Y      0.09940     0.06712
            116  MG 3  Z      0.27065     0.16395
            117  MG 3  X      0.00586     0.07563
            118  MG 3  Y      0.03017     0.08039
            119  MG 3  Z      0.07800     0.08667
            120  MG 3 XX      0.00104     0.05415
            121  MG 3 YY      0.00057     0.05147
            122  MG 3 ZZ      0.00088     0.05785
            123  MG 3 XY      0.00395     0.00093
            124  MG 3 XZ      0.00113     0.00502
            125  MG 3 YZ      0.00000     0.00121
            126  MG 3 XX      0.02954     0.09181
            127  MG 3 YY      0.00593     0.06233
            128  MG 3 ZZ      0.02165     0.15974
            129  MG 3 XY      0.05098     0.03010
            130  MG 3 XZ      0.03049     0.08040
            131  MG 3 YZ      0.00000     0.04290
            132  MG 3 XX      0.02517     0.05336
            133  MG 3 YY      0.00253     0.00851
            134  MG 3 ZZ      0.01174     0.08463
            135  MG 3 XY     -0.00183     0.06775
            136  MG 3 XZ      0.02578     0.08485
            137  MG 3 YZ      0.00000     0.08432
            138  MG 3 XXX     0.00007     0.03644
            139  MG 3 YYY     0.00497     0.01945
            140  MG 3 ZZZ     0.00787     0.14872
            141  MG 3 XXY     0.00597     0.03870
            142  MG 3 XXZ     0.00046     0.09300
            143  MG 3 YYX     0.00748     0.00907
            144  MG 3 YYZ     0.00236     0.04078
            145  MG 3 ZZX     0.00000     0.04062
            146  MG 3 ZZY     0.00000     0.02958
            147  MG 3 XYZ     0.00000     0.02644
            148  P  4  S      0.78639     0.90535
            149  P  4  S      1.18204     1.07198
            150  P  4  S      0.95621     0.93480
            151  P  4  S      1.03005     0.73164
            152  P  4  S      0.86733     0.30036
            153  P  4  S      0.93080     0.27703
            154  P  4  X      2.27662     1.57795
            155  P  4  Y      2.27662     1.57795
            156  P  4  Z      2.28449     1.58192
            157  P  4  X     -0.30050     0.21639
            158  P  4  Y     -0.30050     0.21638
            159  P  4  Z     -0.30559     0.22587
            160  P  4  X      0.22624     0.34670
            161  P  4  Y      0.22624     0.34651
            162  P  4  Z      0.27823     0.37514
            163  P  4  X      0.58249     0.27805
            164  P  4  Y      0.58249     0.27719
            165  P  4  Z      0.67608     0.32801
            166  P  4  X      0.43834     0.28710
            167  P  4  Y      0.43834     0.28637
            168  P  4  Z      0.49831     0.29345
            169  P  4 XX      0.00015     0.11941
            170  P  4 YY      0.00001     0.11941
            171  P  4 ZZ      0.00001     0.11879
            172  P  4 XY      0.00035     0.00001
            173  P  4 XZ      0.00035     0.00040
            174  P  4 YZ      0.00000     0.00040
            175  P  4 XX      0.00274     0.19188
            176  P  4 YY      0.00021     0.19166
            177  P  4 ZZ      0.00021     0.17769
            178  P  4 XY      0.00697     0.00024
            179  P  4 XZ      0.00697     0.00575
            180  P  4 YZ      0.00000     0.00561
            181  P  4 XX      0.00672     0.05363
            182  P  4 YY      0.00008     0.05341
            183  P  4 ZZ      0.00008     0.07379
            184  P  4 XY      0.02156     0.00250
            185  P  4 XZ      0.02156     0.02228
            186  P  4 YZ      0.00000     0.02181
            187  P  4 XXX     0.00004     0.17723
            188  P  4 YYY     0.00003     0.17711
            189  P  4 ZZZ     0.00029     0.21991
            190  P  4 XXY     0.00012     0.08008
            191  P  4 XXZ     0.00029     0.10385
            192  P  4 YYX     0.00003     0.08050
            193  P  4 YYZ     0.00000     0.10343
            194  P  4 ZZX     0.00000     0.08746
            195  P  4 ZZY     0.00000     0.08653
            196  P  4 XYZ     0.00000     0.00020
            197  P  5  S      0.78639     0.90535
            198  P  5  S      1.18204     1.07198
            199  P  5  S      0.95621     0.93480
            200  P  5  S      1.03005     0.73164
            201  P  5  S      0.86733     0.30036
            202  P  5  S      0.93080     0.27703
            203  P  5  X      2.27662     1.57795
            204  P  5  Y      2.27662     1.57795
            205  P  5  Z      2.28449     1.58192
            206  P  5  X     -0.30050     0.21639
            207  P  5  Y     -0.30050     0.21638
            208  P  5  Z     -0.30559     0.22587
            209  P  5  X      0.22624     0.34670
            210  P  5  Y      0.22624     0.34651
            211  P  5  Z      0.27823     0.37514
            212  P  5  X      0.58249     0.27805
            213  P  5  Y      0.58249     0.27719
            214  P  5  Z      0.67608     0.32801
            215  P  5  X      0.43834     0.28710
            216  P  5  Y      0.43834     0.28637
            217  P  5  Z      0.49831     0.29345
            218  P  5 XX      0.00015     0.11941
            219  P  5 YY      0.00001     0.11941
            220  P  5 ZZ      0.00001     0.11879
            221  P  5 XY      0.00035     0.00001
            222  P  5 XZ      0.00035     0.00040
            223  P  5 YZ      0.00000     0.00040
            224  P  5 XX      0.00274     0.19188
            225  P  5 YY      0.00021     0.19166
            226  P  5 ZZ      0.00021     0.17769
            227  P  5 XY      0.00697     0.00024
            228  P  5 XZ      0.00697     0.00575
            229  P  5 YZ      0.00000     0.00561
            230  P  5 XX      0.00672     0.05363
            231  P  5 YY      0.00008     0.05341
            232  P  5 ZZ      0.00008     0.07379
            233  P  5 XY      0.02156     0.00250
            234  P  5 XZ      0.02156     0.02228
            235  P  5 YZ      0.00000     0.02181
            236  P  5 XXX     0.00004     0.17723
            237  P  5 YYY     0.00003     0.17711
            238  P  5 ZZZ     0.00029     0.21991
            239  P  5 XXY     0.00012     0.08008
            240  P  5 XXZ     0.00029     0.10385
            241  P  5 YYX     0.00003     0.08050
            242  P  5 YYZ     0.00000     0.10343
            243  P  5 ZZX     0.00000     0.08746
            244  P  5 ZZY     0.00000     0.08653
            245  P  5 XYZ     0.00000     0.00020

          ----- MULLIKEN ATOMIC OVERLAP POPULATIONS -----
          (OFF-DIAGONAL ELEMENTS NEED TO BE MULTIPLIED BY 2)

             1           2           3           4           5

    1   10.7577372
    2    0.0286202  10.7577372
    3    0.0286202   0.0286202  10.7577372
    4    0.3593566   0.3593566   0.3593566  14.7167442
    5    0.3593566   0.3593566   0.3593566  -0.0953499  14.7167442

          TOTAL MULLIKEN AND LOWDIN ATOMIC POPULATIONS
       ATOM         MULL.POP.    CHARGE          LOW.POP.     CHARGE
    1 MG           11.533691    0.466309        12.187476   -0.187476
    2 MG           11.533691    0.466309        12.187476   -0.187476
    3 MG           11.533691    0.466309        12.202832   -0.202832
    4 P            15.699464   -0.699464        14.711108    0.288892
    5 P            15.699464   -0.699464        14.711108    0.288892

          MULLIKEN SPHERICAL HARMONIC POPULATIONS
       ATOM           S       P       D      F      G      H      I    TOTAL
    1 MG            4.62    6.67    0.21   0.03   0.00   0.00   0.00   11.53
    2 MG            4.62    6.67    0.21   0.03   0.00   0.00   0.00   11.53
    3 MG            4.62    6.67    0.21   0.03   0.00   0.00   0.00   11.53
    4 P             5.75    9.88    0.07   0.00   0.00   0.00   0.00   15.70
    5 P             5.75    9.88    0.07   0.00   0.00   0.00   0.00   15.70

          -------------------------------
          BOND ORDER AND VALENCE ANALYSIS     BOND ORDER THRESHOLD=0.050
          -------------------------------

                   BOND                       BOND                       BOND
  ATOM PAIR DIST  ORDER      ATOM PAIR DIST  ORDER      ATOM PAIR DIST  ORDER
    1   2  2.744  0.213        1   3  2.744  0.213        1   4  2.508  0.947
    1   5  2.508  0.947        2   3  2.744  0.213        2   4  2.508  0.947
    2   5  2.508  0.947        3   4  2.508  0.947        3   5  2.508  0.947
    4   5  3.887  0.091

                       TOTAL       BONDED        FREE
      ATOM            VALENCE     VALENCE     VALENCE
    1 MG                2.319       2.319      -0.000
    2 MG                2.319       2.319      -0.000
    3 MG                2.319       2.319      -0.000
    4 P                 2.931       2.931      -0.000
    5 P                 2.931       2.931      -0.000

          ---------------------
          ELECTROSTATIC MOMENTS
          ---------------------

 POINT   1           X           Y           Z (BOHR)    CHARGE
                -0.000000    0.000000    0.000000       -0.00 (A.U.)
         DX          DY          DZ         /D/  (DEBYE)
     0.000000    0.000000    0.000000    0.000000
 ...... END OF PROPERTY EVALUATION ......
 STEP CPU TIME =     0.14 TOTAL CPU TIME =        8.3 (    0.1 MIN)
 TOTAL WALL CLOCK TIME=        8.3 SECONDS, CPU UTILIZATION IS  99.88%
               580000  WORDS OF DYNAMIC MEMORY USED
 EXECUTION OF GAMESS TERMINATED NORMALLY Wed Aug  9 19:43:05 2017
 DDI: 263640 bytes (0.3 MB / 0 MWords) used by master data server.

 ----------------------------------------
 CPU timing information for all processes
 ========================================
 0: 7.495 + 0.812 = 8.308
 ----------------------------------------
 ddikick.x: exited gracefully.
unset echo
----- accounting info -----
Files used on the master node compute-1-8.local were:
-rw-rw-r-- 1 sarom sarom 1.1K Aug  9 19:42 /scratch/virt-mvoq.F05
-rw-rw-r-- 1 sarom sarom 388M Aug  9 19:42 /scratch/virt-mvoq.F08
-rw-rw-r-- 1 sarom sarom 5.9M Aug  9 19:43 /scratch/virt-mvoq.F10
rm: cannot remove `/scratch/tmp': Is a directory
ls: No match.
ls: No match.
ls: No match.
Wed Aug  9 19:43:08 CDT 2017
0.247u 0.207s 0:11.84 3.7%	0+0k 8+360io 0pf+0w
/opt/gridengine/default/spool/compute-1-8/active_jobs/35679.1/pe_hostfile compute-1-8.local
