----- GAMESS execution script 'rungms' -----
This job is running on host compute-3-0
under operating system Linux at Mon Nov 28 18:35:50 CST 2016
Available scratch disk space (Kbyte units) at beginning of the job is
Filesystem            1K-blocks       Used  Available Use% Mounted on
bolt.local:/export/home/sarom
                     9590469632 1552125952 7551175680  18% /home/sarom
Copying input file eda-wat2-rblyp.inp to your run's scratch directory...
cp eda-wat2-rblyp.inp .//eda-wat2-rblyp.F05
unset echo
/home/sarom/gamessGH/ddikick.x /home/sarom/gamessGH/gamess.00.x eda-wat2-rblyp -ddi 1 1 localhost -scr ./

 Distributed Data Interface kickoff program.
 Initiating 1 compute processes on 1 nodes to run the following command:
 /home/sarom/gamessGH/gamess.00.x eda-wat2-rblyp 

          ******************************************************
          *         GAMESS VERSION = 18 AUG 2016 (R1)          *
          *             FROM IOWA STATE UNIVERSITY             *
          * M.W.SCHMIDT, K.K.BALDRIDGE, J.A.BOATZ, S.T.ELBERT, *
          *   M.S.GORDON, J.H.JENSEN, S.KOSEKI, N.MATSUNAGA,   *
          *          K.A.NGUYEN, S.J.SU, T.L.WINDUS,           *
          *       TOGETHER WITH M.DUPUIS, J.A.MONTGOMERY       *
          *         J.COMPUT.CHEM.  14, 1347-1363(1993)        *
          **************** 64 BIT LINUX VERSION ****************

  SINCE 1993, STUDENTS AND POSTDOCS WORKING AT IOWA STATE UNIVERSITY
  AND ALSO IN THEIR VARIOUS JOBS AFTER LEAVING ISU HAVE MADE IMPORTANT
  CONTRIBUTIONS TO THE CODE:
     IVANA ADAMOVIC, CHRISTINE AIKENS, YURI ALEXEEV, POOJA ARORA,
     ANDREY ASADCHEV, ROB BELL, PRADIPTA BANDYOPADHYAY, JONATHAN BENTZ,
     BRETT BODE, KURT BRORSEN, CALEB CARLIN, GALINA CHABAN, WEI CHEN,
     CHEOL HO CHOI, PAUL DAY, ALBERT DEFUSCO, NUWAN DESILVA, TIM DUDLEY,
     DMITRI FEDOROV, GRAHAM FLETCHER, MARK FREITAG, KURT GLAESEMANN,
     DAN KEMP, GRANT MERRILL, NORIYUKI MINEZAWA, JONATHAN MULLIN,
     TAKESHI NAGATA, SEAN NEDD, HEATHER NETZLOFF, BOSILJKA NJEGIC, RYAN OLSON,
     MIKE PAK, SPENCER PRUITT, LUKE ROSKOP, JIM SHOEMAKER, LYUDMILA SLIPCHENKO,
     TONY SMITH, SAROM SOK LEANG, JIE SONG, TETSUYA TAKETSUGU, SIMON WEBB,
     PENG XU, SOOHAENG YOO, FEDERICO ZAHARIEV

  ADDITIONAL CODE HAS BEEN PROVIDED BY COLLABORATORS IN OTHER GROUPS:
     IOWA STATE UNIVERSITY:
          JOE IVANIC, AARON WEST, LAIMUTIS BYTAUTAS, KLAUS RUEDENBERG
     UNIVERSITY OF TOKYO: KIMIHIKO HIRAO, TAKAHITO NAKAJIMA,
          TAKAO TSUNEDA, MUNEAKI KAMIYA, SUSUMU YANAGISAWA,
          KIYOSHI YAGI, MAHITO CHIBA, SEIKEN TOKURA, NAOAKI KAWAKAMI
     UNIVERSITY OF AARHUS: FRANK JENSEN
     UNIVERSITY OF IOWA: VISVALDAS KAIRYS, HUI LI
     NATIONAL INST. OF STANDARDS AND TECHNOLOGY: WALT STEVENS, DAVID GARMER
     UNIVERSITY OF PISA: BENEDETTA MENNUCCI, JACOPO TOMASI
     UNIVERSITY OF MEMPHIS: HENRY KURTZ, PRAKASHAN KORAMBATH
     UNIVERSITY OF ALBERTA: TOBY ZENG, MARIUSZ KLOBUKOWSKI
     UNIVERSITY OF NEW ENGLAND: MARK SPACKMAN
     MIE UNIVERSITY: HIROAKI UMEDA
     NAT. INST. OF ADVANCED INDUSTRIAL SCIENCE AND TECHNOLOGY: KAZUO KITAURA
     MICHIGAN STATE UNIVERSITY:
          KAROL KOWALSKI, MARTA WLOCH, JEFFREY GOUR, JESSE LUTZ,
          WEI LI, PIOTR PIECUCH
     UNIVERSITY OF SILESIA: MONIKA MUSIAL, STANISLAW KUCHARSKI
     FACULTES UNIVERSITAIRES NOTRE-DAME DE LA PAIX:
          OLIVIER QUINET, BENOIT CHAMPAGNE
     UNIVERSITY OF CALIFORNIA - SANTA BARBARA: BERNARD KIRTMAN
     INSTITUTE FOR MOLECULAR SCIENCE:
          KAZUYA ISHIMURA, MICHIO KATOUDA, AND SHIGERU NAGASE
     UNIVERSITY OF NOTRE DAME: ANNA POMOGAEVA, DAN CHIPMAN
     KYUSHU UNIVERSITY:
          HARUYUKI NAKANO,
          FENG LONG GU, JACEK KORCHOWIEC, MARCIN MAKOWSKI, AND YURIKO AOKI,
          HIROTOSHI MORI AND EISAKU MIYOSHI
     PENNSYLVANIA STATE UNIVERSITY:
          TZVETELIN IORDANOV, CHET SWALINA, JONATHAN SKONE,
          SHARON HAMMES-SCHIFFER
     WASEDA UNIVERSITY:
          MASATO KOBAYASHI, TOMOKO AKAMA, TSUGUKI TOUMA,
          TAKESHI YOSHIKAWA, YASUHIRO IKABATA, JUNJI SEINO,
          YUYA NAKAJIMA, HIROMI NAKAI
     NANJING UNIVERSITY: SHUHUA LI
     UNIVERSITY OF NEBRASKA:
          PEIFENG SU, DEJUN SI, NANDUN THELLAMUREGE, YALI WANG, HUI LI
     UNIVERSITY OF ZURICH: ROBERTO PEVERATI, KIM BALDRIDGE
     N. COPERNICUS UNIVERSITY AND JACKSON STATE UNIVERSITY:
          MARIA BARYSZ
     UNIVERSITY OF COPENHAGEN: Jimmy Kromann, CASPER STEINMANN
     TOKYO INSTITUTE OF TECHNOLOGY: HIROYA NAKATA
     NAGOYA UNIVERSITY: YOSHIO NISHIMOTO, STEPHAN IRLE
     MOSCOW STATE UNIVERSITY: VLADIMIR MIRONOV

 EXECUTION OF GAMESS BEGUN Mon Nov 28 18:35:50 2016

            ECHO OF THE FIRST FEW INPUT CARDS -
 INPUT CARD>!  energy decomposition analysis...water dimer...closed shell DFT               
 INPUT CARD>!                                                                               
 INPUT CARD>! -------------                                                                 
 INPUT CARD>! OWN BASIS SET                                       HARTREE  KCAL/MOL         
 INPUT CARD>! -------------                                                                 
 INPUT CARD>! ELECTROSTATIC E.ERGY                  ES=         -0.011373     -7.14         
 INPUT CARD>! EXCHANGE E.ERGY                       EX=         -0.000922     -0.58         
 INPUT CARD>! REPULSION E.ERGY                     REP=          0.014165      8.89         
 INPUT CARD>! POLARIZATION E.ERGY                  POL=         -0.010744     -6.74         
 INPUT CARD>! DFT DISPERSION E.ERGY               DISP=         -0.004188     -2.63         
 INPUT CARD>! TOTAL INTERACTION E.ERGY HF OR DFT     E=         -0.013062     -8.20         
 INPUT CARD>!                                                                               
 INPUT CARD>!  this run takes 55 CPU seconds on 2.66 GHz Cloverton (3 Nov 2009)             
 INPUT CARD>!                                                                               
 INPUT CARD> $CONTRL SCFTYP=RHF RUNTYP=eda ICHARG=0 dfttyp=blyp ispher=1 $end               
 INPUT CARD> $system mwords=8 timlim=40 $end                                                
 INPUT CARD> $LMOEDA MATOM(1)=3,3 MCHARG(1)=0,0 MMULT(1)=1,1 $END                           
 INPUT CARD> $BASIS  GBASIS=ccd $END                                                        
 INPUT CARD> $SCF    DIIS=.T. SOSCF=.F. DIRSCF=.T. FDIFF=.F. CONV=1.0d-09 $END              
 INPUT CARD> $DATA                                                                          
 INPUT CARD>water dimer                                                                     
 INPUT CARD>C1                                                                              
 INPUT CARD>Oxy         8.0   4.1110849272   2.2701110691  -0.7466010588                    
 INPUT CARD>H           1.0   3.7576857645   2.8814288121  -0.0994910036                    
 INPUT CARD>H           1.0   5.0699034117   2.3288469914  -0.6405031515                    
 INPUT CARD>Oxy         8.0   7.0132175853   2.2595634263  -0.6391495442                    
 INPUT CARD>H           1.0   7.3640590582   2.4825967547  -1.5040530844                    
 INPUT CARD>H           1.0   7.3285731133   1.3688173263  -0.4716249975                    
 INPUT CARD> $END                                                                           
    8000000 WORDS OF MEMORY AVAILABLE

     BASIS OPTIONS
     -------------
     GBASIS=CCD          IGAUSS=       0      POLAR=NONE    
     NDFUNC=       0     NFFUNC=       0     DIFFSP=       F
     NPFUNC=       0      DIFFS=       F     BASNAM=        


     RUN TITLE
     ---------
 water dimer                                                                     

 THE POINT GROUP OF THE MOLECULE IS C1      
 THE ORDER OF THE PRINCIPAL AXIS IS     0

 ATOM      ATOMIC                      COORDINATES (BOHR)
           CHARGE         X                   Y                   Z
 OXY         8.0     7.7688240247        4.2898878823       -1.4108714233
 H           1.0     7.1009964429        5.4451109080       -0.1880107350
 H           1.0     9.5807282323        4.4008826811       -1.2103754506
 OXY         8.0    13.2530595285        4.2699557276       -1.2078175037
 H           1.0    13.9160537774        4.6914276044       -2.8422482005
 H           1.0    13.8489950651        2.5866896740       -0.8912420142

          INTERNUCLEAR DISTANCES (ANGS.)
          ------------------------------

                1 OXY        2 H          3 H          4 OXY        5 H     

   1 OXY     0.0000000    0.9577848 *  0.9664572 *  2.9041403 *  3.3467483  
   2 H       0.9577848 *  0.0000000    1.5231402 *  3.3580404    3.8907313  
   3 H       0.9664572 *  1.5231402 *  0.0000000    1.9445493 *  2.4561164 *
   4 OXY     2.9041403 *  3.3580404    1.9445493 *  0.0000000    0.9596310 *
   5 H       3.3467483    3.8907313    2.4561164 *  0.9596310 *  0.0000000  
   6 H       3.3526366    3.8958585    2.4600337 *  0.9596573 *  1.5191022 *

                6 H     

   1 OXY     3.3526366  
   2 H       3.8958585  
   3 H       2.4600337 *
   4 OXY     0.9596573 *
   5 H       1.5191022 *
   6 H       0.0000000  

  * ... LESS THAN  3.000


     ATOMIC BASIS SET
     ----------------
 THE CONTRACTED PRIMITIVE FUNCTIONS HAVE BEEN UNNORMALIZED
 THE CONTRACTED BASIS FUNCTIONS ARE NOW NORMALIZED TO UNITY

  SHELL TYPE  PRIMITIVE        EXPONENT          CONTRACTION COEFFICIENT(S)

 OXY       

      1   S       1         11720.0000000    0.000709645947
      1   S       2          1759.0000000    0.005467272292
      1   S       3           400.8000000    0.027823118610
      1   S       4           113.7000000    0.104747739711
      1   S       5            37.0300000    0.282920846357
      1   S       6            13.2700000    0.448495238698
      1   S       7             5.0250000    0.270816885213
      1   S       8             1.0130000    0.015450291607

      2   S       9         11720.0000000   -0.000314443412
      2   S      10          1759.0000000   -0.002482137681
      2   S      11           400.8000000   -0.012316355382
      2   S      12           113.7000000   -0.050538917344
      2   S      13            37.0300000   -0.139384903316
      2   S      14            13.2700000   -0.325077494818
      2   S      15             5.0250000   -0.229848307588
      2   S      16             1.0130000    1.095379346788

      3   S      17             0.3023000    1.000000000000

      4   P      18            17.7000000    0.062679166282
      4   P      19             3.8540000    0.333536565879
      4   P      20             1.0460000    0.741239641640

      5   P      21             0.2753000    1.000000000000

      6   D      22             1.1850000    1.000000000000

 H         

      7   S      23            13.0100000    0.033498726390
      7   S      24             1.9620000    0.234800801174
      7   S      25             0.4446000    0.813682957883

      8   S      26             0.1220000    1.000000000000

      9   P      27             0.7270000    1.000000000000

 H         

     10   S      28            13.0100000    0.033498726390
     10   S      29             1.9620000    0.234800801174
     10   S      30             0.4446000    0.813682957883

     11   S      31             0.1220000    1.000000000000

     12   P      32             0.7270000    1.000000000000

 OXY       

     13   S      33         11720.0000000    0.000709645947
     13   S      34          1759.0000000    0.005467272292
     13   S      35           400.8000000    0.027823118610
     13   S      36           113.7000000    0.104747739711
     13   S      37            37.0300000    0.282920846357
     13   S      38            13.2700000    0.448495238698
     13   S      39             5.0250000    0.270816885213
     13   S      40             1.0130000    0.015450291607

     14   S      41         11720.0000000   -0.000314443412
     14   S      42          1759.0000000   -0.002482137681
     14   S      43           400.8000000   -0.012316355382
     14   S      44           113.7000000   -0.050538917344
     14   S      45            37.0300000   -0.139384903316
     14   S      46            13.2700000   -0.325077494818
     14   S      47             5.0250000   -0.229848307588
     14   S      48             1.0130000    1.095379346788

     15   S      49             0.3023000    1.000000000000

     16   P      50            17.7000000    0.062679166282
     16   P      51             3.8540000    0.333536565879
     16   P      52             1.0460000    0.741239641640

     17   P      53             0.2753000    1.000000000000

     18   D      54             1.1850000    1.000000000000

 H         

     19   S      55            13.0100000    0.033498726390
     19   S      56             1.9620000    0.234800801174
     19   S      57             0.4446000    0.813682957883

     20   S      58             0.1220000    1.000000000000

     21   P      59             0.7270000    1.000000000000

 H         

     22   S      60            13.0100000    0.033498726390
     22   S      61             1.9620000    0.234800801174
     22   S      62             0.4446000    0.813682957883

     23   S      63             0.1220000    1.000000000000

     24   P      64             0.7270000    1.000000000000

 TOTAL NUMBER OF BASIS SET SHELLS             =   24
 NUMBER OF CARTESIAN GAUSSIAN BASIS FUNCTIONS =   50
 NOTE: THIS RUN WILL RESTRICT THE MO VARIATION SPACE TO SPHERICAL HARMONICS.
 THE NUMBER OF ORBITALS KEPT IN THE VARIATIONAL SPACE WILL BE PRINTED LATER.
 NUMBER OF ELECTRONS                          =   20
 CHARGE OF MOLECULE                           =    0
 SPIN MULTIPLICITY                            =    1
 NUMBER OF OCCUPIED ORBITALS (ALPHA)          =   10
 NUMBER OF OCCUPIED ORBITALS (BETA )          =   10
 TOTAL NUMBER OF ATOMS                        =    6
 THE NUCLEAR REPULSION ENERGY IS       36.6485670263

     LEBEDEV GRID-BASED DFT OPTIONS
     ------------------------------
     DFTTYP=BLYP    
     NRAD  =      96     NLEB  =     302
     NRAD0 =      24     NLEB0 =     110
     SWOFF =    5.00E-03 (PURE SCF -> DFT)
     SWITCH=    3.00E-04 (COARSE -> TIGHT GRID)
     THRESH=    0.00E+00 GTHRE=    1.00E+00

 GRIMME'S EMPIRICAL DISPERSION CORRECTION= F

     $CONTRL OPTIONS
     ---------------
 SCFTYP=RHF          RUNTYP=LMOEDA       EXETYP=RUN     
 MPLEVL=       0     CITYP =NONE         CCTYP =NONE         VBTYP =NONE    
 DFTTYP=BLYP         TDDFT =NONE    
 MULT  =       1     ICHARG=       0     NZVAR =       0     COORD =UNIQUE  
 PP    =NONE         RELWFN=NONE         LOCAL =NONE         NUMGRD=       F
 ISPHER=       1     NOSYM =       0     MAXIT =      30     UNITS =ANGS    
 PLTORB=       F     MOLPLT=       F     AIMPAC=       F     FRIEND=        
 NPRINT=       7     IREST =       0     GEOM  =INPUT   
 NORMF =       0     NORMP =       0     ITOL  =      20     ICUT  =       9
 INTTYP=BEST         GRDTYP=BEST         QMTTOL= 1.0E-06

     $SYSTEM OPTIONS
     ---------------
  REPLICATED MEMORY=     8000000 WORDS (ON EVERY NODE).
 DISTRIBUTED MEMDDI=           0 MILLION WORDS IN AGGREGATE,
 MEMDDI DISTRIBUTED OVER   1 PROCESSORS IS           0 WORDS/PROCESSOR.
 TOTAL MEMORY REQUESTED ON EACH PROCESSOR=     8000000 WORDS.
 TIMLIM=          40.00 MINUTES, OR       0.0 DAYS.
 PARALL= F  BALTYP=  DLB     KDIAG=    0  COREFL= F
 MXSEQ2=     300 MXSEQ3=     150  mem10=         0

          ----------------
          PROPERTIES INPUT
          ----------------

     MOMENTS            FIELD           POTENTIAL          DENSITY
 IEMOM =       1   IEFLD =       0   IEPOT =       0   IEDEN =       0
 WHERE =COMASS     WHERE =NUCLEI     WHERE =NUCLEI     WHERE =NUCLEI  
 OUTPUT=BOTH       OUTPUT=BOTH       OUTPUT=BOTH       OUTPUT=BOTH    
 IEMINT=       0   IEFINT=       0                     IEDINT=       0
                                                       MORB  =       0
          EXTRAPOLATION IN EFFECT
          DIIS IN EFFECT
 ORBITAL PRINTING OPTION: NPREO=     1    50     2     1

     -------------------------------
     INTEGRAL TRANSFORMATION OPTIONS
     -------------------------------
     NWORD  =            0
     CUTOFF = 1.0E-09     MPTRAN =       0
     DIRTRF =       T     AOINTS =DUP     

          -----------------------------
          LOCALIZATION INPUT PARAMETERS
          -----------------------------
           LOCAL=RUEDNBRG      NOUTA=       0
          PRTLOC=       F      NOUTB=       0
          MAXLOC=     250     CVGLOC=1.00E-06
           FCORE=       F     SYMLOC=       F
          MOIDON=       F     EDCOMP=       F
          DIPDCM=       F      NPROT=       0
          QADDCM=       F     DEPRNT=       F
          POLNUM=       F     ORIENT=       F
          POLDYN=       F      VMTOL=1.50E-01
          NPRDTL=       2

          ----------------------
          INTEGRAL INPUT OPTIONS
          ----------------------
 NOPK  =       1 NORDER=       0 SCHWRZ=       T

     ------------------------------------------
     THE POINT GROUP IS C1 , NAXIS= 0, ORDER= 1
     ------------------------------------------

 -- VARIATIONAL SPACE WILL BE RESTRICTED TO PURE SPHERICAL HARMONICS ONLY --
 AFTER EXCLUDING CONTAMINANT COMBINATIONS FROM THE CARTESIAN GAUSSIAN BASIS
 SET, THE NUMBER OF SPHERICAL HARMONICS KEPT IN THE VARIATION SPACE IS   48

     DIMENSIONS OF THE SYMMETRY SUBSPACES ARE
 A   =   48

 ..... DONE SETTING UP THE RUN .....
 STEP CPU TIME =     0.03 TOTAL CPU TIME =        0.0 (    0.0 MIN)
 TOTAL WALL CLOCK TIME=        0.0 SECONDS, CPU UTILIZATION IS 100.00%

          ********************
          1 ELECTRON INTEGRALS
          ********************
 ...... END OF ONE-ELECTRON INTEGRALS ......
 STEP CPU TIME =     0.00 TOTAL CPU TIME =        0.0 (    0.0 MIN)
 TOTAL WALL CLOCK TIME=        0.0 SECONDS, CPU UTILIZATION IS  75.00%

          -------------
          GUESS OPTIONS
          -------------
          GUESS =HUCKEL            NORB  =       0          NORDER=       0
          MIX   =       F          PRTMO =       F          PUNMO =       F
          TOLZ  = 1.0E-08          TOLE  = 1.0E-05
          SYMDEN=       F          PURIFY=       F

 INITIAL GUESS ORBITALS GENERATED BY HUCKEL   ROUTINE.
 HUCKEL GUESS REQUIRES     23454 WORDS.

 STATISTICS FOR GENERATION OF SYMMETRY ORBITAL -Q- MATRIX
 NUMBER OF CARTESIAN ATOMIC ORBITALS=         50
 NUMBER OF SPHERICAL CONTAMINANTS DROPPED=     2
 NUMBER OF LINEARLY DEPENDENT MOS DROPPED=     0
 TOTAL NUMBER OF MOS IN VARIATION SPACE=      48

 SYMMETRIES FOR INITIAL GUESS ORBITALS FOLLOW.   BOTH SET(S).
    10 ORBITALS ARE OCCUPIED (    2 CORE ORBITALS).
     3=A        4=A        5=A        6=A        7=A        8=A        9=A   
    10=A       11=A       12=A       13=A       14=A       15=A       16=A   
    17=A       18=A       19=A       20=A   
 ...... END OF INITIAL ORBITAL SELECTION ......
 STEP CPU TIME =     0.00 TOTAL CPU TIME =        0.0 (    0.0 MIN)
 TOTAL WALL CLOCK TIME=        0.0 SECONDS, CPU UTILIZATION IS  75.00%


          ***************************************
          *  CMO ENERGY DECOMPOSITION ANALYSIS  *
          *      - PEIFENG SU AND HUI LI -      *
          ***************************************



 =======================================================================
 LMOEDA/CMOEDA PERFORMS THE FOLLOWING CALCULATIONS:
 1. HF/DFT/MP2/CCSD/CCSD(T) FOR MONOMERS WITH
         MONOMERS OWN BASIS FUNCTIONS
         ALL BASIS FUNCTIONS (IF SUPBAS=.T.)
 2. ELECTROSTATIC ENERGY WITH HF/DFT DENSITY OF THE MONOMERS
 3. EXCHANGE ENERGY WITH HF/DFT MO OF THE MONOMERS
 4. SUPER MOLECULE ENERGY WITH ANTISYMMETRIZED HF/DFT MO OF THE MONOMERS
 5. HF/DFT/MP2/CCSD/CCSD(T) FOR THE SUPER MOLECULE
 =======================================================================

          ********************
          1 ELECTRON INTEGRALS
          ********************
 ...... END OF ONE-ELECTRON INTEGRALS ......
 STEP CPU TIME =     0.01 TOTAL CPU TIME =        0.0 (    0.0 MIN)
 TOTAL WALL CLOCK TIME=        0.0 SECONDS, CPU UTILIZATION IS  80.00%

          -------------
          GUESS OPTIONS
          -------------
          GUESS =HUCKEL            NORB  =       0          NORDER=       0
          MIX   =       F          PRTMO =       F          PUNMO =       F
          TOLZ  = 1.0E-08          TOLE  = 1.0E-05
          SYMDEN=       F          PURIFY=       F

 INITIAL GUESS ORBITALS GENERATED BY HUCKEL   ROUTINE.
 HUCKEL GUESS REQUIRES     23454 WORDS.

 STATISTICS FOR GENERATION OF SYMMETRY ORBITAL -Q- MATRIX
 NUMBER OF CARTESIAN ATOMIC ORBITALS=         50
 NUMBER OF SPHERICAL CONTAMINANTS DROPPED=     2
 NUMBER OF LINEARLY DEPENDENT MOS DROPPED=     0
 TOTAL NUMBER OF MOS IN VARIATION SPACE=      48

 SYMMETRIES FOR INITIAL GUESS ORBITALS FOLLOW.   BOTH SET(S).
    10 ORBITALS ARE OCCUPIED (    2 CORE ORBITALS).
     3=A        4=A        5=A        6=A        7=A        8=A        9=A   
    10=A       11=A       12=A       13=A       14=A       15=A       16=A   
    17=A       18=A       19=A       20=A   
 ...... END OF INITIAL ORBITAL SELECTION ......
 STEP CPU TIME =     0.01 TOTAL CPU TIME =        0.0 (    0.0 MIN)
 TOTAL WALL CLOCK TIME=        0.0 SECONDS, CPU UTILIZATION IS 100.00%

          -------------------------
          MONOMER  1 WITH OWN BASIS
          -------------------------

     ------------------------------------------
     THE POINT GROUP IS C1 , NAXIS= 0, ORDER= 1
     ------------------------------------------

 -- VARIATIONAL SPACE WILL BE RESTRICTED TO PURE SPHERICAL HARMONICS ONLY --
 AFTER EXCLUDING CONTAMINANT COMBINATIONS FROM THE CARTESIAN GAUSSIAN BASIS
 SET, THE NUMBER OF SPHERICAL HARMONICS KEPT IN THE VARIATION SPACE IS   24

     DIMENSIONS OF THE SYMMETRY SUBSPACES ARE
 A   =   24
 ...... END OF ONE-ELECTRON INTEGRALS ......
 STEP CPU TIME =     0.00 TOTAL CPU TIME =        0.0 (    0.0 MIN)
 TOTAL WALL CLOCK TIME=        0.1 SECONDS, CPU UTILIZATION IS  83.33%

          -------------
          GUESS OPTIONS
          -------------
          GUESS =HUCKEL            NORB  =       0          NORDER=       0
          MIX   =       F          PRTMO =       F          PUNMO =       F
          TOLZ  = 1.0E-08          TOLE  = 1.0E-05
          SYMDEN=       F          PURIFY=       F

 INITIAL GUESS ORBITALS GENERATED BY HUCKEL   ROUTINE.
 HUCKEL GUESS REQUIRES      7030 WORDS.

 SYMMETRIES FOR INITIAL GUESS ORBITALS FOLLOW.   BOTH SET(S).
     5 ORBITALS ARE OCCUPIED (    1 CORE ORBITALS).
     2=A        3=A        4=A        5=A        6=A        7=A        8=A   
     9=A       10=A       11=A       12=A       13=A       14=A       15=A   
 ...... END OF INITIAL ORBITAL SELECTION ......
 STEP CPU TIME =     0.01 TOTAL CPU TIME =        0.1 (    0.0 MIN)
 TOTAL WALL CLOCK TIME=        0.1 SECONDS, CPU UTILIZATION IS 100.00%

                    ----------------------
                    AO INTEGRAL TECHNOLOGY
                    ----------------------
     S,P,L SHELL ROTATED AXIS INTEGRALS, REPROGRAMMED BY
        KAZUYA ISHIMURA (IMS) AND JOSE SIERRA (SYNSTAR).
     S,P,D,L SHELL ROTATED AXIS INTEGRALS PROGRAMMED BY
        KAZUYA ISHIMURA (INSTITUTE FOR MOLECULAR SCIENCE).
     S,P,D,F,G SHELL TO TOTAL QUARTET ANGULAR MOMENTUM SUM 5,
        ERIC PROGRAM BY GRAHAM FLETCHER (ELORET AND NASA ADVANCED
        SUPERCOMPUTING DIVISION, AMES RESEARCH CENTER).
     S,P,D,F,G,L SHELL GENERAL RYS QUADRATURE PROGRAMMED BY
        MICHEL DUPUIS (PACIFIC NORTHWEST NATIONAL LABORATORY).
  ...... END OF TWO-ELECTRON INTEGRALS .....
 STEP CPU TIME =     0.01 TOTAL CPU TIME =        0.1 (    0.0 MIN)
 TOTAL WALL CLOCK TIME=        0.2 SECONDS, CPU UTILIZATION IS  35.00%

          --------------------------
              R-BLYP SCF CALCULATION
          --------------------------
         DENSITY MATRIX CONVERGENCE THRESHOLD=  2.00E-09
     COARSE -> FINE DFT GRID SWITCH THRESHOLD=  3.00E-04 (SWITCH IN $DFT)
                   HF -> DFT SWITCH THRESHOLD=  5.00E-03 (SWOFF IN $DFT)

 DIRECT SCF CALCULATION, SCHWRZ=T   FDIFF=F,  DIRTHR=  0.00E+00 NITDIR=10

     EXCHANGE FUNCTIONAL   =BECKE88   
     CORRELATION FUNCTIONAL=LYP88     
     DFT THRESHOLD         =.115E-07
     GRID CHANGE THRESHOLD =.300E-03
 FOR AN EULER-MACLAURIN QUADRATURE USING  96 RADIAL POINTS:
 SMALLEST GAUSSIAN PRIMITIVE EXPONENT=        0.1220000000 OF TYPE -S-
 ON ATOM NUMBER   2 HAS RADIAL NORMALIZATION=  1.000000
  LARGEST GAUSSIAN PRIMITIVE EXPONENT=    11720.0000000000 OF TYPE -S-
 ON ATOM NUMBER   1 HAS RADIAL NORMALIZATION=  1.000000
 DFT IS SWITCHED OFF, PERFORMING PURE SCF UNTIL SWOFF THRESHOLD IS REACHED.

                                                                                   NONZERO     BLOCKS
 ITER EX DEM     TOTAL ENERGY        E CHANGE  DENSITY CHANGE    DIIS ERROR      INTEGRALS    SKIPPED
   1  0  0      -75.7729133283   -75.7729133283   0.147958743   0.919610635          46729          0
          * * *   INITIATING DIIS PROCEDURE   * * *
   2  1  0      -76.0137615823    -0.2408482539   0.042427820   0.092665473          46729          0
   3  2  0      -76.0251915530    -0.0114299708   0.019049673   0.028465927          46729          0
   4  3  0      -76.0264210256    -0.0012294726   0.004456864   0.005036247          46729          0
 CONVERGED TO SWOFF, SO DFT CALCULATION IS NOW SWITCHED ON.
          * * *   INITIATING DIIS PROCEDURE   * * *
   5  4  0      -76.3927228205    -0.3663017948   0.039349040   0.117439848          46729          0
   6  5  0      -76.3977936427    -0.0050708223   0.024966572   0.018771683          46729          0
   7  6  0      -76.3973705596     0.0004230832   0.014582196   0.025240327          46729          0
   8  7  0      -76.3981849316    -0.0008143720   0.000909051   0.001403465          46729          0
   9  8  0      -76.3981880475    -0.0000031159   0.000057132   0.000172085          46729          0
  10  9  0      -76.3981880745    -0.0000000271   0.000007608   0.000005145          46729          0
  11 10  0      -76.3981880746    -0.0000000001   0.000001384   0.000002102          46729          0
  12 11  0      -76.3981880746    -0.0000000000   0.000000195   0.000000262          46729          0
  13 12  0      -76.3981880746     0.0000000000   0.000000006   0.000000003          46729          0
  14 13  0      -76.3981880746    -0.0000000000   0.000000001   0.000000001          46729          0
  15 14  0      -76.3981880746     0.0000000000   0.000000000   0.000000000          46729          0

          -----------------
          DENSITY CONVERGED
          -----------------
     TIME TO FORM FOCK OPERATORS=       2.2 SECONDS (       0.1 SEC/ITER)
     FOCK TIME ON FIRST ITERATION=       0.0, LAST ITERATION=       0.2
     TIME TO SOLVE SCF EQUATIONS=       0.0 SECONDS (       0.0 SEC/ITER)

 FINAL R-BLYP ENERGY IS      -76.3981880746 AFTER  15 ITERATIONS
 DFT EXCHANGE + CORRELATION ENERGY =        -9.3444480563
 TOTAL ELECTRON NUMBER             =         9.9999946748
 ...... END OF RHF CALCULATION ......
 STEP CPU TIME =     2.21 TOTAL CPU TIME =        2.3 (    0.0 MIN)
 TOTAL WALL CLOCK TIME=        3.0 SECONDS, CPU UTILIZATION IS  76.00%

          ---------------------------------------
          EDMISTON-RUEDENBERG ENERGY LOCALIZATION
          ---------------------------------------
          C.EDMISTON AND K.RUEDENBERG, REV.MOD.PHYS. 35, 457-465 (1963)

          ---------------------------------------
          EDMISTON-RUEDENBERG ENERGY LOCALIZATION
          ---------------------------------------
          C.EDMISTON AND K.RUEDENBERG, REV.MOD.PHYS. 35, 457-465 (1963)

 THIS LOCALIZATION REQUIRES     32130 WORDS OF MEMORY.
 THIS LOCALIZATION HAS    5 ORBITALS, OF WHICH   0 ARE FROZEN.
 ... DONE WITH ENERGY LOCALIZATION ...
 STEP CPU TIME =     0.02 TOTAL CPU TIME =        2.3 (    0.0 MIN)
 TOTAL WALL CLOCK TIME=        3.8 SECONDS, CPU UTILIZATION IS  60.85%

          -------------------------
          MONOMER  2 WITH OWN BASIS
          -------------------------

     ------------------------------------------
     THE POINT GROUP IS C1 , NAXIS= 0, ORDER= 1
     ------------------------------------------

 -- VARIATIONAL SPACE WILL BE RESTRICTED TO PURE SPHERICAL HARMONICS ONLY --
 AFTER EXCLUDING CONTAMINANT COMBINATIONS FROM THE CARTESIAN GAUSSIAN BASIS
 SET, THE NUMBER OF SPHERICAL HARMONICS KEPT IN THE VARIATION SPACE IS   24

     DIMENSIONS OF THE SYMMETRY SUBSPACES ARE
 A   =   24
 ...... END OF ONE-ELECTRON INTEGRALS ......
 STEP CPU TIME =     0.00 TOTAL CPU TIME =        2.3 (    0.0 MIN)
 TOTAL WALL CLOCK TIME=        3.8 SECONDS, CPU UTILIZATION IS  60.69%

          -------------
          GUESS OPTIONS
          -------------
          GUESS =HUCKEL            NORB  =       0          NORDER=       0
          MIX   =       F          PRTMO =       F          PUNMO =       F
          TOLZ  = 1.0E-08          TOLE  = 1.0E-05
          SYMDEN=       F          PURIFY=       F

 INITIAL GUESS ORBITALS GENERATED BY HUCKEL   ROUTINE.
 HUCKEL GUESS REQUIRES      7030 WORDS.

 SYMMETRIES FOR INITIAL GUESS ORBITALS FOLLOW.   BOTH SET(S).
     5 ORBITALS ARE OCCUPIED (    1 CORE ORBITALS).
     2=A        3=A        4=A        5=A        6=A        7=A        8=A   
     9=A       10=A       11=A       12=A       13=A       14=A       15=A   
 ...... END OF INITIAL ORBITAL SELECTION ......
 STEP CPU TIME =     0.01 TOTAL CPU TIME =        2.3 (    0.0 MIN)
 TOTAL WALL CLOCK TIME=        3.8 SECONDS, CPU UTILIZATION IS  60.47%
  ...... END OF TWO-ELECTRON INTEGRALS .....
 STEP CPU TIME =     0.00 TOTAL CPU TIME =        2.3 (    0.0 MIN)
 TOTAL WALL CLOCK TIME=        3.8 SECONDS, CPU UTILIZATION IS  60.47%

          --------------------------
              R-BLYP SCF CALCULATION
          --------------------------
         DENSITY MATRIX CONVERGENCE THRESHOLD=  2.00E-09
     COARSE -> FINE DFT GRID SWITCH THRESHOLD=  3.00E-04 (SWITCH IN $DFT)
                   HF -> DFT SWITCH THRESHOLD=  5.00E-03 (SWOFF IN $DFT)

 DIRECT SCF CALCULATION, SCHWRZ=T   FDIFF=F,  DIRTHR=  0.00E+00 NITDIR=10
 DFT IS SWITCHED OFF, PERFORMING PURE SCF UNTIL SWOFF THRESHOLD IS REACHED.

                                                                                   NONZERO     BLOCKS
 ITER EX DEM     TOTAL ENERGY        E CHANGE  DENSITY CHANGE    DIIS ERROR      INTEGRALS    SKIPPED
   1  0  0      -75.7725675238   -75.7725675238   0.147156894   0.926068739          46729          0
          * * *   INITIATING DIIS PROCEDURE   * * *
   2  1  0      -76.0139553857    -0.2413878620   0.045755782   0.092531116          46729          0
   3  2  0      -76.0253862080    -0.0114308222   0.019104893   0.028627143          46729          0
   4  3  0      -76.0266104744    -0.0012242664   0.004895874   0.005065050          46729          0
 CONVERGED TO SWOFF, SO DFT CALCULATION IS NOW SWITCHED ON.
          * * *   INITIATING DIIS PROCEDURE   * * *
   5  4  0      -76.3926489778    -0.3660385034   0.036355963   0.118159766          46729          0
   6  5  0      -76.3976894338    -0.0050404560   0.025730799   0.018932452          46729          0
   7  6  0      -76.3972694095     0.0004200243   0.014606907   0.025406863          46729          0
   8  7  0      -76.3980823107    -0.0008129012   0.000834706   0.001350355          46729          0
   9  8  0      -76.3980852780    -0.0000029673   0.000052597   0.000168663          46729          0
  10  9  0      -76.3980853039    -0.0000000259   0.000003921   0.000005028          46729          0
  11 10  0      -76.3980853039    -0.0000000000   0.000000288   0.000000458          46729          0
  12 11  0      -76.3980853039    -0.0000000000   0.000000008   0.000000008          46729          0
  13 12  0      -76.3980853039    -0.0000000000   0.000000002   0.000000002          46729          0
  14 13  0      -76.3980853039     0.0000000000   0.000000000   0.000000000          46729          0

          -----------------
          DENSITY CONVERGED
          -----------------
     TIME TO FORM FOCK OPERATORS=       1.7 SECONDS (       0.1 SEC/ITER)
     FOCK TIME ON FIRST ITERATION=       0.0, LAST ITERATION=       0.2
     TIME TO SOLVE SCF EQUATIONS=       0.0 SECONDS (       0.0 SEC/ITER)

 FINAL R-BLYP ENERGY IS      -76.3980853039 AFTER  14 ITERATIONS
 DFT EXCHANGE + CORRELATION ENERGY =        -9.3467369947
 TOTAL ELECTRON NUMBER             =        10.0000277939
 ...... END OF RHF CALCULATION ......
 STEP CPU TIME =     1.77 TOTAL CPU TIME =        4.1 (    0.1 MIN)
 TOTAL WALL CLOCK TIME=        6.2 SECONDS, CPU UTILIZATION IS  66.23%

          ---------------------------------------
          EDMISTON-RUEDENBERG ENERGY LOCALIZATION
          ---------------------------------------
          C.EDMISTON AND K.RUEDENBERG, REV.MOD.PHYS. 35, 457-465 (1963)

          ---------------------------------------
          EDMISTON-RUEDENBERG ENERGY LOCALIZATION
          ---------------------------------------
          C.EDMISTON AND K.RUEDENBERG, REV.MOD.PHYS. 35, 457-465 (1963)

 THIS LOCALIZATION REQUIRES     32130 WORDS OF MEMORY.
 THIS LOCALIZATION HAS    5 ORBITALS, OF WHICH   0 ARE FROZEN.
 ... DONE WITH ENERGY LOCALIZATION ...
 STEP CPU TIME =     0.01 TOTAL CPU TIME =        4.1 (    0.1 MIN)
 TOTAL WALL CLOCK TIME=        6.2 SECONDS, CPU UTILIZATION IS  66.18%

     ------------------------------------------
     THE POINT GROUP IS C1 , NAXIS= 0, ORDER= 1
     ------------------------------------------

 -- VARIATIONAL SPACE WILL BE RESTRICTED TO PURE SPHERICAL HARMONICS ONLY --
 AFTER EXCLUDING CONTAMINANT COMBINATIONS FROM THE CARTESIAN GAUSSIAN BASIS
 SET, THE NUMBER OF SPHERICAL HARMONICS KEPT IN THE VARIATION SPACE IS   48

     DIMENSIONS OF THE SYMMETRY SUBSPACES ARE
 A   =   48

          -------------------------
          MONOMER  1 WITH ALL BASIS
          -------------------------
 ...... END OF ONE-ELECTRON INTEGRALS ......
 STEP CPU TIME =     0.01 TOTAL CPU TIME =        4.1 (    0.1 MIN)
 TOTAL WALL CLOCK TIME=        6.2 SECONDS, CPU UTILIZATION IS  66.24%

          -------------
          GUESS OPTIONS
          -------------
          GUESS =HUCKEL            NORB  =       0          NORDER=       0
          MIX   =       F          PRTMO =       F          PUNMO =       F
          TOLZ  = 1.0E-08          TOLE  = 1.0E-05
          SYMDEN=       F          PURIFY=       F

 INITIAL GUESS ORBITALS GENERATED BY HUCKEL   ROUTINE.
 HUCKEL GUESS REQUIRES     22579 WORDS.

 SYMMETRIES FOR INITIAL GUESS ORBITALS FOLLOW.   BOTH SET(S).
     5 ORBITALS ARE OCCUPIED (    1 CORE ORBITALS).
     2=A        3=A        4=A        5=A        6=A        7=A        8=A   
     9=A       10=A       11=A       12=A       13=A       14=A       15=A   
 ...... END OF INITIAL ORBITAL SELECTION ......
 STEP CPU TIME =     0.00 TOTAL CPU TIME =        4.1 (    0.1 MIN)
 TOTAL WALL CLOCK TIME=        6.2 SECONDS, CPU UTILIZATION IS  66.24%
  ...... END OF TWO-ELECTRON INTEGRALS .....
 STEP CPU TIME =     0.00 TOTAL CPU TIME =        4.1 (    0.1 MIN)
 TOTAL WALL CLOCK TIME=        6.2 SECONDS, CPU UTILIZATION IS  66.24%

          --------------------------
              R-BLYP SCF CALCULATION
          --------------------------
         DENSITY MATRIX CONVERGENCE THRESHOLD=  2.00E-09
     COARSE -> FINE DFT GRID SWITCH THRESHOLD=  3.00E-04 (SWITCH IN $DFT)
                   HF -> DFT SWITCH THRESHOLD=  5.00E-03 (SWOFF IN $DFT)

 DIRECT SCF CALCULATION, SCHWRZ=T   FDIFF=F,  DIRTHR=  0.00E+00 NITDIR=10
 DFT IS SWITCHED OFF, PERFORMING PURE SCF UNTIL SWOFF THRESHOLD IS REACHED.

                                                                                   NONZERO     BLOCKS
 ITER EX DEM     TOTAL ENERGY        E CHANGE  DENSITY CHANGE    DIIS ERROR      INTEGRALS    SKIPPED
   1  0  0      -75.7723321115   -75.7723321115   0.140701658   0.681804894         608827       5708
          * * *   INITIATING DIIS PROCEDURE   * * *
   2  1  0      -76.0140196343    -0.2416875228   0.040181752   0.070903043         617922       5416
   3  2  0      -76.0255151267    -0.0114954924   0.019097985   0.013168077         619462       5375
   4  3  0      -76.0267541063    -0.0012389796   0.004314702   0.004290109         620789       5363
 CONVERGED TO SWOFF, SO DFT CALCULATION IS NOW SWITCHED ON.
          * * *   INITIATING DIIS PROCEDURE   * * *
   5  4  0      -76.3932893587    -0.3665352524   0.039084841   0.086662291         620906       5376
   6  5  0      -76.3985198505    -0.0052304918   0.024371492   0.018084123         624307       5168
   7  6  0      -76.3981069450     0.0004129055   0.014305070   0.024524797         625052       5139
   8  7  0      -76.3988862470    -0.0007793020   0.000964844   0.001207260         624357       5167
   9  8  0      -76.3988896345    -0.0000033875   0.000062099   0.000141956         624366       5166
  10  9  0      -76.3988896642    -0.0000000296   0.000010265   0.000006417         624367       5165
  11 10  0      -76.3988896643    -0.0000000001   0.000002005   0.000002718         624367       5165
  12 11  0      -76.3988896643    -0.0000000000   0.000000173   0.000000165         624367       5165
  13 12  0      -76.3988896643    -0.0000000000   0.000000008   0.000000003         624367       5165
  14 13  0      -76.3988896643     0.0000000000   0.000000001   0.000000001         624367       5165
  15 14  0      -76.3988896643     0.0000000000   0.000000000   0.000000000         624367       5165

          -----------------
          DENSITY CONVERGED
          -----------------
     TIME TO FORM FOCK OPERATORS=       6.7 SECONDS (       0.4 SEC/ITER)
     FOCK TIME ON FIRST ITERATION=       0.1, LAST ITERATION=       0.6
     TIME TO SOLVE SCF EQUATIONS=       0.0 SECONDS (       0.0 SEC/ITER)

 FINAL R-BLYP ENERGY IS      -76.3988896643 AFTER  15 ITERATIONS
 DFT EXCHANGE + CORRELATION ENERGY =        -9.3428983735
 TOTAL ELECTRON NUMBER             =         9.9999949469
 ...... END OF RHF CALCULATION ......
 STEP CPU TIME =     6.76 TOTAL CPU TIME =       10.9 (    0.2 MIN)
 TOTAL WALL CLOCK TIME=       13.3 SECONDS, CPU UTILIZATION IS  81.96%

          ---------------------------------------
          EDMISTON-RUEDENBERG ENERGY LOCALIZATION
          ---------------------------------------
          C.EDMISTON AND K.RUEDENBERG, REV.MOD.PHYS. 35, 457-465 (1963)

          ---------------------------------------
          EDMISTON-RUEDENBERG ENERGY LOCALIZATION
          ---------------------------------------
          C.EDMISTON AND K.RUEDENBERG, REV.MOD.PHYS. 35, 457-465 (1963)

 THIS LOCALIZATION REQUIRES     37780 WORDS OF MEMORY.
 THIS LOCALIZATION HAS    5 ORBITALS, OF WHICH   0 ARE FROZEN.
 ... DONE WITH ENERGY LOCALIZATION ...
 STEP CPU TIME =     0.09 TOTAL CPU TIME =       10.9 (    0.2 MIN)
 TOTAL WALL CLOCK TIME=       13.5 SECONDS, CPU UTILIZATION IS  81.23%

          -------------------------
          MONOMER  2 WITH ALL BASIS
          -------------------------
 ...... END OF ONE-ELECTRON INTEGRALS ......
 STEP CPU TIME =     0.00 TOTAL CPU TIME =       10.9 (    0.2 MIN)
 TOTAL WALL CLOCK TIME=       13.5 SECONDS, CPU UTILIZATION IS  81.23%

          -------------
          GUESS OPTIONS
          -------------
          GUESS =HUCKEL            NORB  =       0          NORDER=       0
          MIX   =       F          PRTMO =       F          PUNMO =       F
          TOLZ  = 1.0E-08          TOLE  = 1.0E-05
          SYMDEN=       F          PURIFY=       F

 INITIAL GUESS ORBITALS GENERATED BY HUCKEL   ROUTINE.
 HUCKEL GUESS REQUIRES     22579 WORDS.

 SYMMETRIES FOR INITIAL GUESS ORBITALS FOLLOW.   BOTH SET(S).
     5 ORBITALS ARE OCCUPIED (    1 CORE ORBITALS).
     2=A        3=A        4=A        5=A        6=A        7=A        8=A   
     9=A       10=A       11=A       12=A       13=A       14=A       15=A   
 ...... END OF INITIAL ORBITAL SELECTION ......
 STEP CPU TIME =     0.00 TOTAL CPU TIME =       10.9 (    0.2 MIN)
 TOTAL WALL CLOCK TIME=       13.5 SECONDS, CPU UTILIZATION IS  81.23%
  ...... END OF TWO-ELECTRON INTEGRALS .....
 STEP CPU TIME =     0.00 TOTAL CPU TIME =       10.9 (    0.2 MIN)
 TOTAL WALL CLOCK TIME=       13.5 SECONDS, CPU UTILIZATION IS  81.23%

          --------------------------
              R-BLYP SCF CALCULATION
          --------------------------
         DENSITY MATRIX CONVERGENCE THRESHOLD=  2.00E-09
     COARSE -> FINE DFT GRID SWITCH THRESHOLD=  3.00E-04 (SWITCH IN $DFT)
                   HF -> DFT SWITCH THRESHOLD=  5.00E-03 (SWOFF IN $DFT)

 DIRECT SCF CALCULATION, SCHWRZ=T   FDIFF=F,  DIRTHR=  0.00E+00 NITDIR=10
 DFT IS SWITCHED OFF, PERFORMING PURE SCF UNTIL SWOFF THRESHOLD IS REACHED.

                                                                                   NONZERO     BLOCKS
 ITER EX DEM     TOTAL ENERGY        E CHANGE  DENSITY CHANGE    DIIS ERROR      INTEGRALS    SKIPPED
   1  0  0      -75.7692793384   -75.7692793384   0.149410734   0.698953643         618258       5288
          * * *   INITIATING DIIS PROCEDURE   * * *
   2  1  0      -76.0158841022    -0.2466047638   0.046656802   0.062311177         625355       5241
   3  2  0      -76.0281594415    -0.0122753393   0.020897980   0.020084480         628484       5016
   4  3  0      -76.0295337750    -0.0013743335   0.006867848   0.004208005         629322       4954
   5  4  0      -76.0296080374    -0.0000742624   0.001268019   0.003008632         629576       4937
 CONVERGED TO SWOFF, SO DFT CALCULATION IS NOW SWITCHED ON.
          * * *   INITIATING DIIS PROCEDURE   * * *
   6  5  0      -76.3978439375    -0.3682359001   0.065982270   0.088680880         629558       4938
   7  6  0      -76.4038713216    -0.0060273841   0.017742876   0.009909592         632324       4651
   8  7  0      -76.4036543241     0.0002169975   0.010688947   0.016962155         632352       4634
   9  8  0      -76.4040293982    -0.0003750741   0.000826287   0.001638765         632183       4659
  10  9  0      -76.4040333354    -0.0000039373   0.000067894   0.000152334         632200       4656
  11 10  0      -76.4040333658    -0.0000000304   0.000004890   0.000004351         632200       4656
  12 11  0      -76.4040333659    -0.0000000001   0.000000347   0.000000360         632200       4656
  13 12  0      -76.4040333659     0.0000000000   0.000000030   0.000000041         632200       4656
  14 13  0      -76.4040333659    -0.0000000000   0.000000008   0.000000008         632200       4656
  15 14  0      -76.4040333659     0.0000000000   0.000000001   0.000000001         632200       4656
  16 15  0      -76.4040333659     0.0000000000   0.000000000   0.000000000         632200       4656

          -----------------
          DENSITY CONVERGED
          -----------------
     TIME TO FORM FOCK OPERATORS=       6.9 SECONDS (       0.4 SEC/ITER)
     FOCK TIME ON FIRST ITERATION=       0.1, LAST ITERATION=       0.6
     TIME TO SOLVE SCF EQUATIONS=       0.0 SECONDS (       0.0 SEC/ITER)

 FINAL R-BLYP ENERGY IS      -76.4040333659 AFTER  16 ITERATIONS
 DFT EXCHANGE + CORRELATION ENERGY =        -9.3328104356
 TOTAL ELECTRON NUMBER             =        10.0000355625
 ...... END OF RHF CALCULATION ......
 STEP CPU TIME =     6.96 TOTAL CPU TIME =       17.9 (    0.3 MIN)
 TOTAL WALL CLOCK TIME=       20.7 SECONDS, CPU UTILIZATION IS  86.61%

          ---------------------------------------
          EDMISTON-RUEDENBERG ENERGY LOCALIZATION
          ---------------------------------------
          C.EDMISTON AND K.RUEDENBERG, REV.MOD.PHYS. 35, 457-465 (1963)

          ---------------------------------------
          EDMISTON-RUEDENBERG ENERGY LOCALIZATION
          ---------------------------------------
          C.EDMISTON AND K.RUEDENBERG, REV.MOD.PHYS. 35, 457-465 (1963)

 THIS LOCALIZATION REQUIRES     37780 WORDS OF MEMORY.
 THIS LOCALIZATION HAS    5 ORBITALS, OF WHICH   0 ARE FROZEN.
 ... DONE WITH ENERGY LOCALIZATION ...
 STEP CPU TIME =     0.09 TOTAL CPU TIME =       18.0 (    0.3 MIN)
 TOTAL WALL CLOCK TIME=       20.8 SECONDS, CPU UTILIZATION IS  86.66%

          --------------
          SUPER MOLECULE
          --------------

     ------------------------------------------
     THE POINT GROUP IS C1 , NAXIS= 0, ORDER= 1
     ------------------------------------------

 -- VARIATIONAL SPACE WILL BE RESTRICTED TO PURE SPHERICAL HARMONICS ONLY --
 AFTER EXCLUDING CONTAMINANT COMBINATIONS FROM THE CARTESIAN GAUSSIAN BASIS
 SET, THE NUMBER OF SPHERICAL HARMONICS KEPT IN THE VARIATION SPACE IS   48

     DIMENSIONS OF THE SYMMETRY SUBSPACES ARE
 A   =   48
 ...... END OF ONE-ELECTRON INTEGRALS ......
 STEP CPU TIME =     0.00 TOTAL CPU TIME =       18.0 (    0.3 MIN)
 TOTAL WALL CLOCK TIME=       20.8 SECONDS, CPU UTILIZATION IS  86.62%

          -------------
          GUESS OPTIONS
          -------------
          GUESS =HUCKEL            NORB  =       0          NORDER=       0
          MIX   =       F          PRTMO =       F          PUNMO =       F
          TOLZ  = 1.0E-08          TOLE  = 1.0E-05
          SYMDEN=       F          PURIFY=       F

 INITIAL GUESS ORBITALS GENERATED BY HUCKEL   ROUTINE.
 HUCKEL GUESS REQUIRES     23454 WORDS.

 SYMMETRIES FOR INITIAL GUESS ORBITALS FOLLOW.   BOTH SET(S).
    10 ORBITALS ARE OCCUPIED (    2 CORE ORBITALS).
     3=A        4=A        5=A        6=A        7=A        8=A        9=A   
    10=A       11=A       12=A       13=A       14=A       15=A       16=A   
    17=A       18=A       19=A       20=A   
 ...... END OF INITIAL ORBITAL SELECTION ......
 STEP CPU TIME =     0.00 TOTAL CPU TIME =       18.0 (    0.3 MIN)
 TOTAL WALL CLOCK TIME=       20.8 SECONDS, CPU UTILIZATION IS  86.62%
  ...... END OF TWO-ELECTRON INTEGRALS .....
 STEP CPU TIME =     0.00 TOTAL CPU TIME =       18.0 (    0.3 MIN)
 TOTAL WALL CLOCK TIME=       20.8 SECONDS, CPU UTILIZATION IS  86.62%

          --------------------------
              R-BLYP SCF CALCULATION
          --------------------------
         DENSITY MATRIX CONVERGENCE THRESHOLD=  2.00E-09
     COARSE -> FINE DFT GRID SWITCH THRESHOLD=  3.00E-04 (SWITCH IN $DFT)
                   HF -> DFT SWITCH THRESHOLD=  5.00E-03 (SWOFF IN $DFT)

 DIRECT SCF CALCULATION, SCHWRZ=T   FDIFF=F,  DIRTHR=  0.00E+00 NITDIR=10
 DFT IS SWITCHED OFF, PERFORMING PURE SCF UNTIL SWOFF THRESHOLD IS REACHED.

                                                                                   NONZERO     BLOCKS
 ITER EX DEM     TOTAL ENERGY        E CHANGE  DENSITY CHANGE    DIIS ERROR      INTEGRALS    SKIPPED
   1  0  0     -151.5519361544  -151.5519361544   0.147820750   0.707454351         638949       3768
          * * *   INITIATING DIIS PROCEDURE   * * *
   2  1  0     -152.0367984935    -0.4848623391   0.055583056   0.093146466         644168       3554
   3  2  0     -152.0597427246    -0.0229442312   0.023794107   0.031546435         643954       3534
   4  3  0     -152.0621208518    -0.0023781272   0.010198977   0.008277345         644054       3537
   5  4  0     -152.0623485218    -0.0002276699   0.001433658   0.003323304         644081       3528
 CONVERGED TO SWOFF, SO DFT CALCULATION IS NOW SWITCHED ON.
          * * *   INITIATING DIIS PROCEDURE   * * *
   6  5  0     -152.7967228578    -0.7343743361   0.068916204   0.089871041         644104       3528
   7  6  0     -152.8088466062    -0.0121237483   0.024962908   0.018090612         644513       3424
   8  7  0     -152.8082740020     0.0005726041   0.015149793   0.025681855         644565       3416
   9  8  0     -152.8093318360    -0.0010578340   0.000981356   0.001217110         644490       3429
  10  9  0     -152.8093351697    -0.0000033336   0.000040400   0.000124545         644499       3426
  11 10  0     -152.8093352010    -0.0000000314   0.000012372   0.000008780         644499       3426
  12 11  0     -152.8093352010    -0.0000000000   0.000007951   0.000011498         644499       3426
  13 12  0     -152.8093352013    -0.0000000002   0.000000905   0.000001890         644499       3426
  14 13  0     -152.8093352013    -0.0000000000   0.000000201   0.000000177         644499       3426
  15 14  0     -152.8093352013    -0.0000000000   0.000000019   0.000000021         644499       3426
  16 15  0     -152.8093352013     0.0000000000   0.000000002   0.000000003         644499       3426
  17 16  0     -152.8093352013    -0.0000000000   0.000000000   0.000000000         644499       3426

          -----------------
          DENSITY CONVERGED
          -----------------
     TIME TO FORM FOCK OPERATORS=       8.3 SECONDS (       0.5 SEC/ITER)
     FOCK TIME ON FIRST ITERATION=       0.1, LAST ITERATION=       0.6
     TIME TO SOLVE SCF EQUATIONS=       0.0 SECONDS (       0.0 SEC/ITER)

 FINAL R-BLYP ENERGY IS     -152.8093352013 AFTER  17 ITERATIONS
 DFT EXCHANGE + CORRELATION ENERGY =       -18.6918108569
 TOTAL ELECTRON NUMBER             =        20.0000302328
 ...... END OF RHF CALCULATION ......
 STEP CPU TIME =     8.37 TOTAL CPU TIME =       26.4 (    0.4 MIN)
 TOTAL WALL CLOCK TIME=       29.2 SECONDS, CPU UTILIZATION IS  90.22%

          ---------------------------------------
          EDMISTON-RUEDENBERG ENERGY LOCALIZATION
          ---------------------------------------
          C.EDMISTON AND K.RUEDENBERG, REV.MOD.PHYS. 35, 457-465 (1963)

          ---------------------------------------
          EDMISTON-RUEDENBERG ENERGY LOCALIZATION
          ---------------------------------------
          C.EDMISTON AND K.RUEDENBERG, REV.MOD.PHYS. 35, 457-465 (1963)

 THIS LOCALIZATION REQUIRES     39485 WORDS OF MEMORY.
 THIS LOCALIZATION HAS   10 ORBITALS, OF WHICH   0 ARE FROZEN.
 ... DONE WITH ENERGY LOCALIZATION ...
 STEP CPU TIME =     0.10 TOTAL CPU TIME =       26.5 (    0.4 MIN)
 TOTAL WALL CLOCK TIME=       29.3 SECONDS, CPU UTILIZATION IS  90.19%

          ---------------------------------------------
          MONOMER ELECTROSTATIC INTERACTION (OWN BASIS)
          ---------------------------------------------

          ********************
          1 ELECTRON INTEGRALS
          ********************
 ...... END OF ONE-ELECTRON INTEGRALS ......
 STEP CPU TIME =     0.01 TOTAL CPU TIME =       26.5 (    0.4 MIN)
 TOTAL WALL CLOCK TIME=       29.3 SECONDS, CPU UTILIZATION IS  90.22%

          ---------------------------------------
          EDMISTON-RUEDENBERG ENERGY LOCALIZATION
          ---------------------------------------
          C.EDMISTON AND K.RUEDENBERG, REV.MOD.PHYS. 35, 457-465 (1963)

          ---------------------------------------
          EDMISTON-RUEDENBERG ENERGY LOCALIZATION
          ---------------------------------------
          C.EDMISTON AND K.RUEDENBERG, REV.MOD.PHYS. 35, 457-465 (1963)

 THIS LOCALIZATION REQUIRES     39485 WORDS OF MEMORY.
 THIS LOCALIZATION HAS   10 ORBITALS, OF WHICH   0 ARE FROZEN.
 ... DONE WITH ENERGY LOCALIZATION ...
 STEP CPU TIME =     0.10 TOTAL CPU TIME =       26.6 (    0.4 MIN)
 TOTAL WALL CLOCK TIME=       29.5 SECONDS, CPU UTILIZATION IS  90.25%

          ---------------------------------------------
          MONOMER ELECTROSTATIC INTERACTION (ALL BASIS)
          ---------------------------------------------

          ---------------------------------------
          EDMISTON-RUEDENBERG ENERGY LOCALIZATION
          ---------------------------------------
          C.EDMISTON AND K.RUEDENBERG, REV.MOD.PHYS. 35, 457-465 (1963)

          ---------------------------------------
          EDMISTON-RUEDENBERG ENERGY LOCALIZATION
          ---------------------------------------
          C.EDMISTON AND K.RUEDENBERG, REV.MOD.PHYS. 35, 457-465 (1963)

 THIS LOCALIZATION REQUIRES     39485 WORDS OF MEMORY.
 THIS LOCALIZATION HAS   10 ORBITALS, OF WHICH   0 ARE FROZEN.
 ... DONE WITH ENERGY LOCALIZATION ...
 STEP CPU TIME =     0.11 TOTAL CPU TIME =       27.4 (    0.5 MIN)
 TOTAL WALL CLOCK TIME=       30.3 SECONDS, CPU UTILIZATION IS  90.51%

          --------------------------------------------------
          MONOMER EXCHANGE-REPULSION INTERACTION (OWN BASIS)
          --------------------------------------------------

          ---------------------------------------
          EDMISTON-RUEDENBERG ENERGY LOCALIZATION
          ---------------------------------------
          C.EDMISTON AND K.RUEDENBERG, REV.MOD.PHYS. 35, 457-465 (1963)

          ---------------------------------------
          EDMISTON-RUEDENBERG ENERGY LOCALIZATION
          ---------------------------------------
          C.EDMISTON AND K.RUEDENBERG, REV.MOD.PHYS. 35, 457-465 (1963)

 THIS LOCALIZATION REQUIRES     39485 WORDS OF MEMORY.
 THIS LOCALIZATION HAS   10 ORBITALS, OF WHICH   0 ARE FROZEN.
 ... DONE WITH ENERGY LOCALIZATION ...
 STEP CPU TIME =     0.16 TOTAL CPU TIME =       28.2 (    0.5 MIN)
 TOTAL WALL CLOCK TIME=       31.3 SECONDS, CPU UTILIZATION IS  90.19%

          --------------------------------------------------
          MONOMER EXCHANGE-REPULSION INTERACTION (ALL BASIS)
          --------------------------------------------------

          ---------------------------------------
          EDMISTON-RUEDENBERG ENERGY LOCALIZATION
          ---------------------------------------
          C.EDMISTON AND K.RUEDENBERG, REV.MOD.PHYS. 35, 457-465 (1963)

          ---------------------------------------
          EDMISTON-RUEDENBERG ENERGY LOCALIZATION
          ---------------------------------------
          C.EDMISTON AND K.RUEDENBERG, REV.MOD.PHYS. 35, 457-465 (1963)

 THIS LOCALIZATION REQUIRES     39485 WORDS OF MEMORY.
 THIS LOCALIZATION HAS   10 ORBITALS, OF WHICH   0 ARE FROZEN.
 ... DONE WITH ENERGY LOCALIZATION ...
 STEP CPU TIME =     0.10 TOTAL CPU TIME =       29.0 (    0.5 MIN)
 TOTAL WALL CLOCK TIME=       32.1 SECONDS, CPU UTILIZATION IS  90.44%

          ------------------------------------
          RESULTS OF CMO INTERACTION ANALYSIS
          ------------------------------------

     CMO ENERGY
     T   ELECTRON KINETIC ENERGY
     V   ELECTRON-NUCLEUS POTENTIAL ENERGY
     X   ELECTRON-ELECTRON EXCHANGE ENERGY
     J   ELECTRON-ELECTRON REPULSION ENERGY
     N   NUCLEUS-NUCLEUS REPULSION ENERGY

 --------------
 MONOMER ENERGY
 --------------

 MONOMER    1

                   OWN BASIS           ALL BASIS

 T               76.05129858         76.04560979
 V             -199.17383503       -199.15723695
 X               -1.34723002         -1.34750273
 J               39.26443055         39.25302922
 N                9.14778164          9.14778164
 EC              -0.34063380         -0.34057063
 E              -76.39818807        -76.39888966

 MONOMER    2

                   OWN BASIS           ALL BASIS

 T               76.05952296         76.03013714
 V             -199.22378699       -199.10454337
 X               -1.34726476         -1.34759673
 J               39.28292504         39.18708901
 N                9.17123959          9.17123959
 EC              -0.34072114         -0.34035900
 E              -76.39808530        -76.40403337

 ------------------------------------------------------------
 SUPER MOLECULE ENERGY  USING NON-ANTISYMMETRIC WAVEFUNCTION
 (ELECTROSTATIC ENERGY: V J N CHANGE)
 ------------------------------------------------------------

              FROM OWN BASIS      FROM ALL BASIS
 T              152.11082153        152.07574692
 V             -435.03992066       -434.96564040
 X               -2.69449478         -2.69509946
 J               96.84873549         96.79925039
 N               36.64856703         36.64856703
 EC              -0.68135494         -0.68092963
 E             -152.80764632       -152.81810515

 ----------------------------------------------------------------------
 SUPER MOLECULE ENERGY  USING ANTISYMMETRIC NONORTHONORMAL WAVEFUNCTION
 (EXCHANGE ENERGY: ONLY X CHANGES)
 ----------------------------------------------------------------------

              FROM OWN BASIS      FROM ALL BASIS
 T              152.11082153        152.07574692
 V             -435.03992066       -434.96564040
 X               -2.69541722         -2.69934173
 J               96.84873549         96.79925039
 N               36.64856703         36.64856703
 EC              -0.68135494         -0.68092963
 E             -152.80856876       -152.82234742

 -----------------------------------------------------------------------
 SUPER MOLECULE ENERGY  USING ANTISYMMETRIC AND ORTHONORMAL WAVEFUNCTION
 (REPULSION ENERGY: T V X J CHANGE)
 -----------------------------------------------------------------------

              FROM OWN BASIS      FROM ALL BASIS
 T              152.18843572        152.21724620
 V             -435.16052970       -435.19388080
 X               -2.70470085         -2.71332802
 J               96.91517922         96.92288884
 N               36.64856703         36.64856703
 EC              -0.68135494         -0.68092963
 E             -152.79440351       -152.79943638

 ---------------------------------------------
 SUPER MOLECULE ENERGY  USING SCF WAVEFUNCTION
 (POLARIZATION ENERGY: T V X J CHANGE)
 ---------------------------------------------
 T              152.10512505        152.10512505
 V             -435.03939923       -435.03939923
 X               -3.38373770         -3.38373770
 J               97.54565257         97.54565257
 N               36.64856703         36.64856703
 EC              -0.68554292         -0.68554292
 E             -152.80933520       -152.80933520


                   *******************************
                      SUMMARY OF CMOEDA RESULTS
                      - PEIFENG SU AND HUI LI -
                   *******************************


 -------------
 OWN BASIS SET                                       HARTREE          KCAL/MOL
 -------------
 ELECTROSTATIC ENERGY                  ES=         -0.011373             -7.14
 EXCHANGE ENERGY                       EX=         -0.000922             -0.58
 REPULSION ENERGY                     REP=          0.014165              8.89
 POLARIZATION ENERGY                  POL=         -0.010744             -6.74
 DFT DISPERSION ENERGY               DISP=         -0.004188             -2.63
 TOTAL INTERACTION ENERGY HF OR DFT     E=         -0.013062             -8.20
  

 -------------
 ALL BASIS SET                                       HARTREE          KCAL/MOL
 -------------
 ELECTROSTATIC ENERGY                  ES=         -0.015182             -9.53
 EXCHANGE ENERGY                       EX=         -0.004242             -2.66
 REPULSION ENERGY                     REP=          0.022911             14.38
 POLARIZATION ENERGY                  POL=         -0.005286             -3.32
 DFT DISPERSION ENERGY               DISP=         -0.004613             -2.89
 TOTAL INTERACTION ENERGY HF OR DFT     E=         -0.006412             -4.02

                   *******************************
                   END OF CMO INTERACTION ANALYSIS
                   *******************************

 STEP CPU TIME =     0.01 TOTAL CPU TIME =       29.7 (    0.5 MIN)
 TOTAL WALL CLOCK TIME=       32.8 SECONDS, CPU UTILIZATION IS  90.64%
              6217049  WORDS OF DYNAMIC MEMORY USED
 EXECUTION OF GAMESS TERMINATED NORMALLY Mon Nov 28 18:36:23 2016
 DDI: 263640 bytes (0.3 MB / 0 MWords) used by master data server.

 ----------------------------------------
 CPU timing information for all processes
 ========================================
 0: 29.671 + 0.64 = 29.736
 ----------------------------------------
 ddikick.x: exited gracefully.
unset echo
----- accounting info -----
Files used on the master node compute-3-0 were:
-rw-rw-r-- 1 sarom sarom  137920 Nov 29  2016 .//eda-wat2-rblyp.dat
-rw-rw-r-- 1 sarom sarom    1315 Nov 29  2016 .//eda-wat2-rblyp.F05
-rw-rw-r-- 1 sarom sarom  180464 Nov 29  2016 .//eda-wat2-rblyp.F09
-rw-rw-r-- 1 sarom sarom 6282240 Nov 29  2016 .//eda-wat2-rblyp.F10
-rw-rw-r-- 1 sarom sarom    1315 Nov 28 17:27 .//eda-wat2-rblyp.inp
-rw-rw-r-- 1 sarom sarom   59957 Nov 29  2016 .//eda-wat2-rblyp.log
Mon Nov 28 18:36:26 CST 2016
0.204u 0.314s 0:36.39 1.4%	0+0k 0+136io 0pf+0w
