----- GAMESS execution script 'rungms' -----
This job is running on host compute-3-0
under operating system Linux at Mon Nov 28 18:35:50 CST 2016
Available scratch disk space (Kbyte units) at beginning of the job is
Filesystem            1K-blocks       Used  Available Use% Mounted on
bolt.local:/export/home/sarom
                     9590469632 1552125952 7551175680  18% /home/sarom
Copying input file eda-ac-wat.inp to your run's scratch directory...
cp eda-ac-wat.inp .//eda-ac-wat.F05
unset echo
/home/sarom/gamessGH/ddikick.x /home/sarom/gamessGH/gamess.00.x eda-ac-wat -ddi 1 1 localhost -scr ./

 Distributed Data Interface kickoff program.
 Initiating 1 compute processes on 1 nodes to run the following command:
 /home/sarom/gamessGH/gamess.00.x eda-ac-wat 

          ******************************************************
          *         GAMESS VERSION = 18 AUG 2016 (R1)          *
          *             FROM IOWA STATE UNIVERSITY             *
          * M.W.SCHMIDT, K.K.BALDRIDGE, J.A.BOATZ, S.T.ELBERT, *
          *   M.S.GORDON, J.H.JENSEN, S.KOSEKI, N.MATSUNAGA,   *
          *          K.A.NGUYEN, S.J.SU, T.L.WINDUS,           *
          *       TOGETHER WITH M.DUPUIS, J.A.MONTGOMERY       *
          *         J.COMPUT.CHEM.  14, 1347-1363(1993)        *
          **************** 64 BIT LINUX VERSION ****************

  SINCE 1993, STUDENTS AND POSTDOCS WORKING AT IOWA STATE UNIVERSITY
  AND ALSO IN THEIR VARIOUS JOBS AFTER LEAVING ISU HAVE MADE IMPORTANT
  CONTRIBUTIONS TO THE CODE:
     IVANA ADAMOVIC, CHRISTINE AIKENS, YURI ALEXEEV, POOJA ARORA,
     ANDREY ASADCHEV, ROB BELL, PRADIPTA BANDYOPADHYAY, JONATHAN BENTZ,
     BRETT BODE, KURT BRORSEN, CALEB CARLIN, GALINA CHABAN, WEI CHEN,
     CHEOL HO CHOI, PAUL DAY, ALBERT DEFUSCO, NUWAN DESILVA, TIM DUDLEY,
     DMITRI FEDOROV, GRAHAM FLETCHER, MARK FREITAG, KURT GLAESEMANN,
     DAN KEMP, GRANT MERRILL, NORIYUKI MINEZAWA, JONATHAN MULLIN,
     TAKESHI NAGATA, SEAN NEDD, HEATHER NETZLOFF, BOSILJKA NJEGIC, RYAN OLSON,
     MIKE PAK, SPENCER PRUITT, LUKE ROSKOP, JIM SHOEMAKER, LYUDMILA SLIPCHENKO,
     TONY SMITH, SAROM SOK LEANG, JIE SONG, TETSUYA TAKETSUGU, SIMON WEBB,
     PENG XU, SOOHAENG YOO, FEDERICO ZAHARIEV

  ADDITIONAL CODE HAS BEEN PROVIDED BY COLLABORATORS IN OTHER GROUPS:
     IOWA STATE UNIVERSITY:
          JOE IVANIC, AARON WEST, LAIMUTIS BYTAUTAS, KLAUS RUEDENBERG
     UNIVERSITY OF TOKYO: KIMIHIKO HIRAO, TAKAHITO NAKAJIMA,
          TAKAO TSUNEDA, MUNEAKI KAMIYA, SUSUMU YANAGISAWA,
          KIYOSHI YAGI, MAHITO CHIBA, SEIKEN TOKURA, NAOAKI KAWAKAMI
     UNIVERSITY OF AARHUS: FRANK JENSEN
     UNIVERSITY OF IOWA: VISVALDAS KAIRYS, HUI LI
     NATIONAL INST. OF STANDARDS AND TECHNOLOGY: WALT STEVENS, DAVID GARMER
     UNIVERSITY OF PISA: BENEDETTA MENNUCCI, JACOPO TOMASI
     UNIVERSITY OF MEMPHIS: HENRY KURTZ, PRAKASHAN KORAMBATH
     UNIVERSITY OF ALBERTA: TOBY ZENG, MARIUSZ KLOBUKOWSKI
     UNIVERSITY OF NEW ENGLAND: MARK SPACKMAN
     MIE UNIVERSITY: HIROAKI UMEDA
     NAT. INST. OF ADVANCED INDUSTRIAL SCIENCE AND TECHNOLOGY: KAZUO KITAURA
     MICHIGAN STATE UNIVERSITY:
          KAROL KOWALSKI, MARTA WLOCH, JEFFREY GOUR, JESSE LUTZ,
          WEI LI, PIOTR PIECUCH
     UNIVERSITY OF SILESIA: MONIKA MUSIAL, STANISLAW KUCHARSKI
     FACULTES UNIVERSITAIRES NOTRE-DAME DE LA PAIX:
          OLIVIER QUINET, BENOIT CHAMPAGNE
     UNIVERSITY OF CALIFORNIA - SANTA BARBARA: BERNARD KIRTMAN
     INSTITUTE FOR MOLECULAR SCIENCE:
          KAZUYA ISHIMURA, MICHIO KATOUDA, AND SHIGERU NAGASE
     UNIVERSITY OF NOTRE DAME: ANNA POMOGAEVA, DAN CHIPMAN
     KYUSHU UNIVERSITY:
          HARUYUKI NAKANO,
          FENG LONG GU, JACEK KORCHOWIEC, MARCIN MAKOWSKI, AND YURIKO AOKI,
          HIROTOSHI MORI AND EISAKU MIYOSHI
     PENNSYLVANIA STATE UNIVERSITY:
          TZVETELIN IORDANOV, CHET SWALINA, JONATHAN SKONE,
          SHARON HAMMES-SCHIFFER
     WASEDA UNIVERSITY:
          MASATO KOBAYASHI, TOMOKO AKAMA, TSUGUKI TOUMA,
          TAKESHI YOSHIKAWA, YASUHIRO IKABATA, JUNJI SEINO,
          YUYA NAKAJIMA, HIROMI NAKAI
     NANJING UNIVERSITY: SHUHUA LI
     UNIVERSITY OF NEBRASKA:
          PEIFENG SU, DEJUN SI, NANDUN THELLAMUREGE, YALI WANG, HUI LI
     UNIVERSITY OF ZURICH: ROBERTO PEVERATI, KIM BALDRIDGE
     N. COPERNICUS UNIVERSITY AND JACKSON STATE UNIVERSITY:
          MARIA BARYSZ
     UNIVERSITY OF COPENHAGEN: Jimmy Kromann, CASPER STEINMANN
     TOKYO INSTITUTE OF TECHNOLOGY: HIROYA NAKATA
     NAGOYA UNIVERSITY: YOSHIO NISHIMOTO, STEPHAN IRLE
     MOSCOW STATE UNIVERSITY: VLADIMIR MIRONOV

 EXECUTION OF GAMESS BEGUN Mon Nov 28 18:35:50 2016

            ECHO OF THE FIRST FEW INPUT CARDS -
 INPUT CARD>!        Actinium ion, plus one water...EDA analysis                            
 INPUT CARD>!  This is a test from Jean-Pierre Dognon (jean-pierre.dognon@cea.fr)           
 INPUT CARD>!  The main purpose is to test LMOEDA for ECP basis sets and f atoms.           
 INPUT CARD>!  Toggle in $CONTRL below to run with CCSD(T) or with MP2, as you like.        
 INPUT CARD>!                                                                               
 INPUT CARD>!  MP2 results:                                                                 
 INPUT CARD>!     -------------                                                             
 INPUT CARD>!     ALL BASIS SET                                 HARTREE    KCAL/MOL         
 INPUT CARD>!     -------------                                                             
 INPUT CARD>!     ELECTROSTATIC E.ERGY                  ES=   -0.109375      -68.63         
 INPUT CARD>!     EXCHANGE E.ERGY                       EX=   -0.048846      -30.65         
 INPUT CARD>!     REPULSION E.ERGY                     REP=    0.113562       71.26         
 INPUT CARD>!     POLARIZATION E.ERGY                  POL=   -0.072604      -45.56         
 INPUT CARD>!     MP2 DISPERSION E.ERGY               DISP=   -0.002018       -1.27         
 INPUT CARD>!     TOTAL INTERACTION E.ERGY HF OR DFT     E=   -0.117263      -73.58         
 INPUT CARD>!     TOTAL INTERACTION E.ERGY MP2           E=   -0.119281      -74.85         
 INPUT CARD>!        this run takes 68 seconds on 2.66 GHz Cloverton (3 Nov 2009)           
 INPUT CARD>!                                                                               
 INPUT CARD>!  CCSD(T) results:  (copied from a log file from Hui, not actually tried)      
 INPUT CARD>!     -------------                                                             
 INPUT CARD>!     ALL BASIS SET                                 HARTREE    KCAL/MOL         
 INPUT CARD>!     -------------                                                             
 INPUT CARD>!     ELECTROSTATIC E.ERGY                  ES=   -0.109375      -68.63         
 INPUT CARD>!     EXCHANGE E.ERGY                       EX=   -0.048846      -30.65         
 INPUT CARD>!     REPULSION E.ERGY                     REP=    0.113562       71.26         
 INPUT CARD>!     POLARIZATION E.ERGY                  POL=   -0.072604      -45.56         
 INPUT CARD>!     MP2 DISPERSION E.ERGY               DISP=   -0.002018       -1.27         
 INPUT CARD>!     CCSD(T) DISPERSION E.ERGY           DISP=   -0.000077       -0.05         
 INPUT CARD>!     TOTAL INTERACTION E.ERGY HF OR DFT     E=   -0.117263      -73.58         
 INPUT CARD>!     TOTAL INTERACTION E.ERGY MP2           E=   -0.119281      -74.85         
 INPUT CARD>!     TOTAL INTERACTION E.ERGY CCSD(T)       E=   -0.117340      -73.63         
 INPUT CARD>!         Hui's computer time ratio for CCSD(T)/MP2 was 3417/122 s.conds        
 INPUT CARD>!         rethink the memory if you ever try the CC run.                        
 INPUT CARD>!                                                                               
 INPUT CARD>!     Ac is beyond the initial Huckel guess, and maybe the core counting.       
 INPUT CARD>!     not sure why KDIAG was put in here.                                       
 INPUT CARD>!                                                                               
 INPUT CARD> $contrl scftyp=rhf runtyp=eda icharg=3 pp=read                                 
 INPUT CARD>         mplevl=2 cctyp=none ispher=0 $end                                      
 INPUT CARD> $system mwords=20 timlim=50 kdiag=3 $end                                       
 INPUT CARD> $guess  guess=hcore $end                                                       
 INPUT CARD> $mp2    nacore=0 $end                                                          
 INPUT CARD> $ccinp  ncore=0 $end                                                           
 INPUT CARD> $lmoeda matom(1)=1 3 mcharg(1)=3 0 mmult(1)=1 1 $end                           
 INPUT CARD> $data                                                                          
 INPUT CARD>Ac3+ H2O                                                                        
 INPUT CARD>c1                                                                              
 INPUT CARD>Ac  89.0    0.000000    0.000000    0.000000                                    
 INPUT CARD>S   1                                                                           
 INPUT CARD>  1      0.9636000              1.0000000                                       
   20000000 WORDS OF MEMORY AVAILABLE


     RUN TITLE
     ---------
 Ac3+ H2O                                                                        

 THE POINT GROUP OF THE MOLECULE IS C1      
 THE ORDER OF THE PRINCIPAL AXIS IS     0
 *** WARNING! ATOM   2 SHELL   19 TYPE S HAS NORMALIZATION   1.02401242
 *** WARNING! ATOM   2 SHELL   20 TYPE S HAS NORMALIZATION   1.71509575
 *** WARNING! ATOM   2 SHELL   23 TYPE P HAS NORMALIZATION   2.58434766
 *** WARNING! ATOM   3 SHELL   29 TYPE S HAS NORMALIZATION   4.20152657
 *** WARNING! ATOM   4 SHELL   35 TYPE S HAS NORMALIZATION   4.20152657

 ATOM      ATOMIC                      COORDINATES (BOHR)
           CHARGE         X                   Y                   Z
 AC         89.0     0.0000000000        0.0000000000        0.0000000000
 O           8.0    -0.0001574142        0.0000049511        4.5837315634
 H           1.0     1.4524371392       -0.0000308214        5.7465578771
 H           1.0    -1.4493339256       -0.0000308970        5.7508148628

          INTERNUCLEAR DISTANCES (ANGS.)
          ------------------------------

                1 AC         2 O          3 H          4 H     

   1 AC      0.0000000    2.4256065 *  3.1365752    3.1383575  
   2 O       2.4256065 *  0.0000000    0.9846389 *  0.9846389 *
   3 H       3.1365752    0.9846389 *  0.0000000    1.5355529 *
   4 H       3.1383575    0.9846389 *  1.5355529 *  0.0000000  

  * ... LESS THAN  3.000


     ATOMIC BASIS SET
     ----------------
 THE CONTRACTED PRIMITIVE FUNCTIONS HAVE BEEN UNNORMALIZED
 THE CONTRACTED BASIS FUNCTIONS ARE NOW NORMALIZED TO UNITY

  SHELL TYPE  PRIMITIVE        EXPONENT          CONTRACTION COEFFICIENT(S)

 AC        

      1   S       1             0.9636000    1.000000000000

      2   S       2             0.5266000    1.000000000000

      3   S       3             0.1513000    1.000000000000

      4   S       4             0.1194000    1.000000000000

      5   S       5             0.0357000    1.000000000000

      6   P       6             0.9402000    1.000000000000

      7   P       7             0.6756000    1.000000000000

      8   P       8             0.2585000    1.000000000000

      9   P       9             0.0906000    1.000000000000

     10   P      10             0.0289000    1.000000000000

     11   D      11             1.3667000    1.000000000000

     12   D      12             0.3422000    1.000000000000

     13   D      13             0.1329000    1.000000000000

     14   D      14             0.0463000    1.000000000000

     15   F      15             0.1110000    1.000000000000

     16   F      16             0.0239000    1.000000000000

     17   F      17             0.0080000    1.000000000000

     18   F      18             0.0032000    1.000000000000

 O         

     19   S      19         15330.0000000    0.000520198307
     19   S      20          2299.0000000    0.004023344781
     19   S      21           522.4000000    0.020729083329
     19   S      22           147.3000000    0.081082327080
     19   S      23            47.5500000    0.236226352118
     19   S      24            16.7600000    0.443518209420
     19   S      25             6.2070000    0.358670588689
     19   S      26             0.6882000   -0.008349797237

     20   S      27         15330.0000000   -0.000197236012
     20   S      28          2299.0000000   -0.001535010700
     20   S      29           522.4000000   -0.007951183914
     20   S      30           147.3000000   -0.032113452892
     20   S      31            47.5500000   -0.100269643049
     20   S      32            16.7600000   -0.234047111838
     20   S      33             6.2070000   -0.301410927756
     20   S      34             0.6882000    1.034919649508

     21   S      35             1.7520000    1.000000000000

     22   S      36             0.2384000    1.000000000000

     23   P      37            34.4600000    0.041163489568
     23   P      38             7.7490000    0.257762835858
     23   P      39             2.2800000    0.802419274427

     24   P      40             0.7156000    1.000000000000

     25   P      41             0.2140000    1.000000000000

     26   D      42             2.3140000    1.000000000000

     27   D      43             0.6450000    1.000000000000

     28   F      44             1.4280000    1.000000000000

 H         

     29   S      45            33.8700000    0.025494863235
     29   S      46             5.0950000    0.190362765893
     29   S      47             1.1590000    0.852162022245

     30   S      48             0.3258000    1.000000000000

     31   S      49             0.1027000    1.000000000000

     32   P      50             1.4070000    1.000000000000

     33   P      51             0.3880000    1.000000000000

     34   D      52             1.0570000    1.000000000000

 H         

     35   S      53            33.8700000    0.025494863235
     35   S      54             5.0950000    0.190362765893
     35   S      55             1.1590000    0.852162022245

     36   S      56             0.3258000    1.000000000000

     37   S      57             0.1027000    1.000000000000

     38   P      58             1.4070000    1.000000000000

     39   P      59             0.3880000    1.000000000000

     40   D      60             1.0570000    1.000000000000

 TOTAL NUMBER OF BASIS SET SHELLS             =   40
 NUMBER OF CARTESIAN GAUSSIAN BASIS FUNCTIONS =  149
 NUMBER OF ELECTRONS                          =   96
 CHARGE OF MOLECULE                           =    3
 SPIN MULTIPLICITY                            =    1
 NUMBER OF OCCUPIED ORBITALS (ALPHA)          =   48
 NUMBER OF OCCUPIED ORBITALS (BETA )          =   48
 TOTAL NUMBER OF ATOMS                        =    4
 THE NUCLEAR REPULSION ENERGY IS      194.2976731689
 NOTE THIS RUN IS USING CORE POTENTIALS, AND THE NUMBER OF ELECTRONS,
 OCCUPIED ORBITALS, AND NUCLEAR REPULSION ENERGY WILL BE ADJUSTED BELOW
 AFTER REMOVAL OF THE CORE CHARGES.

     $CONTRL OPTIONS
     ---------------
 SCFTYP=RHF          RUNTYP=LMOEDA       EXETYP=RUN     
 MPLEVL=       2     CITYP =NONE         CCTYP =NONE         VBTYP =NONE    
 DFTTYP=NONE         TDDFT =NONE    
 MULT  =       1     ICHARG=       3     NZVAR =       0     COORD =UNIQUE  
 PP    =READ         RELWFN=NONE         LOCAL =NONE         NUMGRD=       F
 ISPHER=       0     NOSYM =       0     MAXIT =      30     UNITS =ANGS    
 PLTORB=       F     MOLPLT=       F     AIMPAC=       F     FRIEND=        
 NPRINT=       7     IREST =       0     GEOM  =INPUT   
 NORMF =       0     NORMP =       0     ITOL  =      20     ICUT  =       9
 INTTYP=BEST         GRDTYP=BEST         QMTTOL= 1.0E-06

     $SYSTEM OPTIONS
     ---------------
  REPLICATED MEMORY=    20000000 WORDS (ON EVERY NODE).
 DISTRIBUTED MEMDDI=           0 MILLION WORDS IN AGGREGATE,
 MEMDDI DISTRIBUTED OVER   1 PROCESSORS IS           0 WORDS/PROCESSOR.
 TOTAL MEMORY REQUESTED ON EACH PROCESSOR=    20000000 WORDS.
 TIMLIM=          50.00 MINUTES, OR       0.0 DAYS.
 PARALL= F  BALTYP=  DLB     KDIAG=    3  COREFL= F
 MXSEQ2=     300 MXSEQ3=     150  mem10=         0

          --------------
          ECP POTENTIALS
          --------------

 PARAMETERS FOR "AC-ECP  " ON ATOM    1 WITH ZCORE  78 AND LMAX  4 ARE
 FOR L= 4      COEFF    N           ZETA
    1       -1.20670    2        1.11780
    2      -12.14965    2        2.49180
    3      -36.28236    2        5.99900
    4     -139.70959    2       18.06710
    5     -308.30280    2       56.65690
    6      -58.80257    1      171.80650
 FOR L= 0      COEFF    N           ZETA
    1      -22.83414    2        0.97650
    2       85.36679    2        1.16690
    3     -184.32901    2        1.54070
    4      361.85287    2        2.26390
    5     -391.65958    2        3.54770
    6      311.78583    2        5.63150
    7       31.91579    1       16.93210
    8       11.15848    0       15.99460
 FOR L= 1      COEFF    N           ZETA
    1       41.84875    2        1.28700
    2     -150.01193    2        1.48230
    3      335.78052    2        1.94240
    4     -384.57654    2        2.79510
    5      335.67944    2        4.23730
    6     -153.28929    2        6.32700
    7       59.26360    1        9.92880
    8        5.42516    0       36.35930
 FOR L= 2      COEFF    N           ZETA
    1       43.26000    2        0.75120
    2     -138.38843    2        0.86790
    3      263.83313    2        1.12770
    4     -327.39426    2        1.58730
    5      305.68561    2        2.32140
    6     -145.50319    2        3.33250
    7       48.99059    1        4.73500
    8        7.83580    0       15.27310
 FOR L= 3      COEFF    N           ZETA
    1       -2.29346    2        0.99160
    2       34.95658    2        1.79880
    3     -103.22104    2        2.35900
    4      202.08524    2        3.49050
    5     -281.09320    2        5.48510
    6      342.86887    2        8.97290
    7       27.73362    1       27.43890
    8        9.87892    0       23.89990

 THE ECP RUN REMOVES   78 CORE ELECTRONS, AND THE SAME NUMBER OF PROTONS.
 NUMBER OF ELECTRONS KEPT IN THE CALCULATION IS =   18
 NUMBER OF OCCUPIED ORBITALS (ALPHA) KEPT IS    =    9
 NUMBER OF OCCUPIED ORBITALS (BETA ) KEPT IS    =    9
 THE ADJUSTED NUCLEAR REPULSION ENERGY=       31.8524793027
          ECP ANGULAR INTS.........     0.00 SECONDS

          ----------------
          PROPERTIES INPUT
          ----------------

     MOMENTS            FIELD           POTENTIAL          DENSITY
 IEMOM =       1   IEFLD =       0   IEPOT =       0   IEDEN =       0
 WHERE =COMASS     WHERE =NUCLEI     WHERE =NUCLEI     WHERE =NUCLEI  
 OUTPUT=BOTH       OUTPUT=BOTH       OUTPUT=BOTH       OUTPUT=BOTH    
 IEMINT=       0   IEFINT=       0                     IEDINT=       0
                                                       MORB  =       0
          EXTRAPOLATION IN EFFECT
          SOSCF IN EFFECT
 ORBITAL PRINTING OPTION: NPREO=     1   149     2     1

     -------------------------------
     INTEGRAL TRANSFORMATION OPTIONS
     -------------------------------
     NWORD  =            0
     CUTOFF = 1.0E-09     MPTRAN =       0
     DIRTRF =       F     AOINTS =DUP     

          -----------------------------
          LOCALIZATION INPUT PARAMETERS
          -----------------------------
           LOCAL=RUEDNBRG      NOUTA=       0
          PRTLOC=       F      NOUTB=       0
          MAXLOC=     250     CVGLOC=1.00E-06
           FCORE=       F     SYMLOC=       F
          MOIDON=       F     EDCOMP=       F
          DIPDCM=       F      NPROT=       0
          QADDCM=       F     DEPRNT=       F
          POLNUM=       F     ORIENT=       F
          POLDYN=       F      VMTOL=1.50E-01
          NPRDTL=       2

          ----------------------
          INTEGRAL INPUT OPTIONS
          ----------------------
 NOPK  =       1 NORDER=       0 SCHWRZ=       F

          -----------------------
          MP2 CONTROL INFORMATION
          -----------------------
          NACORE =        0  NBCORE =        0
          LMOMP2 =        F  AOINTS = DUP     
          METHOD =        2  NWORD  =               0
          MP2PRP =        F  OSPT   = NONE    
          CUTOFF = 1.00E-09  CPHFBS = BASISMO 
          CODE   = IMS     

          NUMBER OF CORE -A-  ORBITALS =     0
          NUMBER OF CORE -B-  ORBITALS =     0
          NUMBER OF OCC. -A-  ORBITALS =     9
          NUMBER OF OCC. -B-  ORBITALS =     9
          NUMBER OF MOLECULAR ORBITALS =   149
          NUMBER OF   BASIS  FUNCTIONS =   149


     ------------------------------------------
     THE POINT GROUP IS C1 , NAXIS= 0, ORDER= 1
     ------------------------------------------

     DIMENSIONS OF THE SYMMETRY SUBSPACES ARE
 A   =  149

 ..... DONE SETTING UP THE RUN .....
 STEP CPU TIME =     0.06 TOTAL CPU TIME =        0.1 (    0.0 MIN)
 TOTAL WALL CLOCK TIME=        0.2 SECONDS, CPU UTILIZATION IS  30.00%

          ********************
          1 ELECTRON INTEGRALS
          ********************
 TIME TO DO ORDINARY INTEGRALS=      0.00
 TIME TO DO      ECP INTEGRALS=      0.05
 ...... END OF ONE-ELECTRON INTEGRALS ......
 STEP CPU TIME =     0.06 TOTAL CPU TIME =        0.1 (    0.0 MIN)
 TOTAL WALL CLOCK TIME=        0.3 SECONDS, CPU UTILIZATION IS  44.44%

          -------------
          GUESS OPTIONS
          -------------
          GUESS =HCORE             NORB  =       0          NORDER=       0
          MIX   =       F          PRTMO =       F          PUNMO =       F
          TOLZ  = 1.0E-08          TOLE  = 1.0E-05
          SYMDEN=       F          PURIFY=       F

 INITIAL GUESS ORBITALS GENERATED BY HCORE    ROUTINE.

 STATISTICS FOR GENERATION OF SYMMETRY ORBITAL -Q- MATRIX
 NUMBER OF CARTESIAN ATOMIC ORBITALS=        149
 NUMBER OF SPHERICAL CONTAMINANTS DROPPED=     0
 NUMBER OF LINEARLY DEPENDENT MOS DROPPED=     1
 TOTAL NUMBER OF MOS IN VARIATION SPACE=     148

 ...WARNING (SYMORB.SRC)...
 THE INPUT BASIS SET CONTAINS APPROXIMATE LINEAR DEPENDENCE.
 THE SMALLEST EIGENVALUE OF THE OVERLAP MATRIX IS   5.365124E-10
 THERE ARE    1 EIGENVALUES LESS THAN QMTTOL=  1.00E-06
 EIGENVECTORS BELOW -QMTTOL- ARE DROPPED FROM THE MO SPACE,
 IN ORDER TO ELIMINATE THE APPROXIMATE LINEAR DEPENDENCE.

 THIS WILL MOST LIKELY CHANGE THE ENERGY ON THE ORDER OF TENS OF MICROHARTREES,
 DEPENDING ON THE NUMBER OF ORBITALS REMOVED.  THE VALUE OF QMTTOL CAN BE 
 CHANGED IN $CONTRL: JOBS WITH EIGENVALUES BELOW 1.0E-07 PROBABLY WON'T
 CONVERGE.  EIGENVALUES BETWEEN 1.0E-07 AND 1.0E-06 MAY REQUIRE LOOSENING OF
 THE DENSITY CRITERION (CONV IN $SCF), MORE ACCURATE INTEGRAL EVALUATION
 (ICUT=11 IN $CONTRL), MORE ACCURATE DIRECT SCF FOCK MATRIX
 CONSTRUCTION (FDIFF=.FALSE. IN $SCF), OR CHANGING THE SCF CONVERGER
 (DIIS=.TRUE. IN $SCF).

 SYMMETRIES FOR INITIAL GUESS ORBITALS FOLLOW.   BOTH SET(S).
     9 ORBITALS ARE OCCUPIED (    5 CORE ORBITALS).
     6=A        7=A        8=A        9=A       10=A       11=A       12=A   
    13=A       14=A       15=A       16=A       17=A       18=A       19=A   
 ...... END OF INITIAL ORBITAL SELECTION ......
 STEP CPU TIME =     0.18 TOTAL CPU TIME =        0.3 (    0.0 MIN)
 TOTAL WALL CLOCK TIME=        0.5 SECONDS, CPU UTILIZATION IS  66.67%


          ***************************************
          *  CMO ENERGY DECOMPOSITION ANALYSIS  *
          *      - PEIFENG SU AND HUI LI -      *
          ***************************************



 =======================================================================
 LMOEDA/CMOEDA PERFORMS THE FOLLOWING CALCULATIONS:
 1. HF/DFT/MP2/CCSD/CCSD(T) FOR MONOMERS WITH
         MONOMERS OWN BASIS FUNCTIONS
         ALL BASIS FUNCTIONS (IF SUPBAS=.T.)
 2. ELECTROSTATIC ENERGY WITH HF/DFT DENSITY OF THE MONOMERS
 3. EXCHANGE ENERGY WITH HF/DFT MO OF THE MONOMERS
 4. SUPER MOLECULE ENERGY WITH ANTISYMMETRIZED HF/DFT MO OF THE MONOMERS
 5. HF/DFT/MP2/CCSD/CCSD(T) FOR THE SUPER MOLECULE
 =======================================================================

          ********************
          1 ELECTRON INTEGRALS
          ********************
 TIME TO DO ORDINARY INTEGRALS=      0.01
 TIME TO DO      ECP INTEGRALS=      0.04
 ...... END OF ONE-ELECTRON INTEGRALS ......
 STEP CPU TIME =     0.05 TOTAL CPU TIME =        0.3 (    0.0 MIN)
 TOTAL WALL CLOCK TIME=        0.5 SECONDS, CPU UTILIZATION IS  70.00%

          -------------
          GUESS OPTIONS
          -------------
          GUESS =HCORE             NORB  =       0          NORDER=       0
          MIX   =       F          PRTMO =       F          PUNMO =       F
          TOLZ  = 1.0E-08          TOLE  = 1.0E-05
          SYMDEN=       F          PURIFY=       F

 INITIAL GUESS ORBITALS GENERATED BY HCORE    ROUTINE.

 STATISTICS FOR GENERATION OF SYMMETRY ORBITAL -Q- MATRIX
 NUMBER OF CARTESIAN ATOMIC ORBITALS=        149
 NUMBER OF SPHERICAL CONTAMINANTS DROPPED=     0
 NUMBER OF LINEARLY DEPENDENT MOS DROPPED=     1
 TOTAL NUMBER OF MOS IN VARIATION SPACE=     148

 ...WARNING (SYMORB.SRC)...
 THE INPUT BASIS SET CONTAINS APPROXIMATE LINEAR DEPENDENCE.
 THE SMALLEST EIGENVALUE OF THE OVERLAP MATRIX IS   5.365124E-10
 THERE ARE    1 EIGENVALUES LESS THAN QMTTOL=  1.00E-06
 EIGENVECTORS BELOW -QMTTOL- ARE DROPPED FROM THE MO SPACE,
 IN ORDER TO ELIMINATE THE APPROXIMATE LINEAR DEPENDENCE.

 THIS WILL MOST LIKELY CHANGE THE ENERGY ON THE ORDER OF TENS OF MICROHARTREES,
 DEPENDING ON THE NUMBER OF ORBITALS REMOVED.  THE VALUE OF QMTTOL CAN BE 
 CHANGED IN $CONTRL: JOBS WITH EIGENVALUES BELOW 1.0E-07 PROBABLY WON'T
 CONVERGE.  EIGENVALUES BETWEEN 1.0E-07 AND 1.0E-06 MAY REQUIRE LOOSENING OF
 THE DENSITY CRITERION (CONV IN $SCF), MORE ACCURATE INTEGRAL EVALUATION
 (ICUT=11 IN $CONTRL), MORE ACCURATE DIRECT SCF FOCK MATRIX
 CONSTRUCTION (FDIFF=.FALSE. IN $SCF), OR CHANGING THE SCF CONVERGER
 (DIIS=.TRUE. IN $SCF).

 SYMMETRIES FOR INITIAL GUESS ORBITALS FOLLOW.   BOTH SET(S).
     9 ORBITALS ARE OCCUPIED (    5 CORE ORBITALS).
     6=A        7=A        8=A        9=A       10=A       11=A       12=A   
    13=A       14=A       15=A       16=A       17=A       18=A       19=A   
 ...... END OF INITIAL ORBITAL SELECTION ......
 STEP CPU TIME =     0.18 TOTAL CPU TIME =        0.5 (    0.0 MIN)
 TOTAL WALL CLOCK TIME=        0.7 SECONDS, CPU UTILIZATION IS  77.94%

          -------------------------
          MONOMER  1 WITH OWN BASIS
          -------------------------

     ------------------------------------------
     THE POINT GROUP IS C1 , NAXIS= 0, ORDER= 1
     ------------------------------------------

     DIMENSIONS OF THE SYMMETRY SUBSPACES ARE
 A   =   84

          -----------------------
          MP2 CONTROL INFORMATION
          -----------------------
          NACORE =        0  NBCORE =        0
          LMOMP2 =        F  AOINTS = DUP     
          METHOD =        2  NWORD  =               0
          MP2PRP =        F  OSPT   = NONE    
          CUTOFF = 1.00E-09  CPHFBS = BASISMO 
          CODE   = IMS     

          NUMBER OF CORE -A-  ORBITALS =     0
          NUMBER OF CORE -B-  ORBITALS =     0
          NUMBER OF OCC. -A-  ORBITALS =     4
          NUMBER OF OCC. -B-  ORBITALS =     4
          NUMBER OF MOLECULAR ORBITALS =    84
          NUMBER OF   BASIS  FUNCTIONS =    84

 ...... END OF ONE-ELECTRON INTEGRALS ......
 STEP CPU TIME =     0.01 TOTAL CPU TIME =        0.5 (    0.0 MIN)
 TOTAL WALL CLOCK TIME=        0.7 SECONDS, CPU UTILIZATION IS  78.26%

          -------------
          GUESS OPTIONS
          -------------
          GUESS =HCORE             NORB  =       0          NORDER=       0
          MIX   =       F          PRTMO =       F          PUNMO =       F
          TOLZ  = 1.0E-08          TOLE  = 1.0E-05
          SYMDEN=       F          PURIFY=       F

 INITIAL GUESS ORBITALS GENERATED BY HCORE    ROUTINE.

 ...WARNING (SYMORB.SRC)...
 THE INPUT BASIS SET CONTAINS APPROXIMATE LINEAR DEPENDENCE.
 THE SMALLEST EIGENVALUE OF THE OVERLAP MATRIX IS   5.412332E-10
 THERE ARE    1 EIGENVALUES LESS THAN QMTTOL=  1.00E-06
 EIGENVECTORS BELOW -QMTTOL- ARE DROPPED FROM THE MO SPACE,
 IN ORDER TO ELIMINATE THE APPROXIMATE LINEAR DEPENDENCE.

 SYMMETRIES FOR INITIAL GUESS ORBITALS FOLLOW.   BOTH SET(S).
     4 ORBITALS ARE OCCUPIED (    4 CORE ORBITALS).
     5=A        6=A        7=A        8=A        9=A       10=A       11=A   
    12=A       13=A       14=A   
 ...... END OF INITIAL ORBITAL SELECTION ......
 STEP CPU TIME =     0.00 TOTAL CPU TIME =        0.5 (    0.0 MIN)
 TOTAL WALL CLOCK TIME=        0.7 SECONDS, CPU UTILIZATION IS  77.14%

                    ----------------------
                    AO INTEGRAL TECHNOLOGY
                    ----------------------
     S,P,L SHELL ROTATED AXIS INTEGRALS, REPROGRAMMED BY
        KAZUYA ISHIMURA (IMS) AND JOSE SIERRA (SYNSTAR).
     S,P,D,L SHELL ROTATED AXIS INTEGRALS PROGRAMMED BY
        KAZUYA ISHIMURA (INSTITUTE FOR MOLECULAR SCIENCE).
     S,P,D,F,G SHELL TO TOTAL QUARTET ANGULAR MOMENTUM SUM 5,
        ERIC PROGRAM BY GRAHAM FLETCHER (ELORET AND NASA ADVANCED
        SUPERCOMPUTING DIVISION, AMES RESEARCH CENTER).
     S,P,D,F,G,L SHELL GENERAL RYS QUADRATURE PROGRAMMED BY
        MICHEL DUPUIS (PACIFIC NORTHWEST NATIONAL LABORATORY).
 TOTAL NUMBER OF NONZERO TWO-ELECTRON INTEGRALS =              821561
         55 INTEGRAL RECORDS WERE STORED ON DISK FILE  8.
  ...... END OF TWO-ELECTRON INTEGRALS .....
 STEP CPU TIME =     0.15 TOTAL CPU TIME =        0.7 (    0.0 MIN)
 TOTAL WALL CLOCK TIME=        0.9 SECONDS, CPU UTILIZATION IS  75.00%

          --------------------------
                 RHF SCF CALCULATION
          --------------------------
     DENSITY MATRIX CONV=  1.00E-06

 ITER EX DEM     TOTAL ENERGY        E CHANGE  DENSITY CHANGE     ORB. GRAD
   1  0  0      -27.1263793544   -27.1263793544   4.579985298   0.000000000
          ---------------START SECOND ORDER SCF---------------
   2  1  0      -27.9830410127    -0.8566616582   0.458509635   0.020685765
   3  2  0      -27.9839289547    -0.0008879420   0.023118366   0.001726681
   4  3  0      -27.9839333679    -0.0000044132   0.000822477   0.000058414
   5  4  0      -27.9839333751    -0.0000000072   0.000067218   0.000005511
   6  5  0      -27.9839333751    -0.0000000000   0.000003034   0.000000452
   7  6  0      -27.9839333751    -0.0000000000   0.000000184   0.000000027
   8  7  0      -27.9839333751    -0.0000000000   0.000000000   0.000000000

          -----------------
          DENSITY CONVERGED
          -----------------
     TIME TO FORM FOCK OPERATORS=       0.1 SECONDS (       0.0 SEC/ITER)
     TIME TO SOLVE SCF EQUATIONS=       0.0 SECONDS (       0.0 SEC/ITER)

 FINAL RHF ENERGY IS      -27.9839333751 AFTER   8 ITERATIONS
 ...... END OF RHF CALCULATION ......
 STEP CPU TIME =     0.11 TOTAL CPU TIME =        0.8 (    0.0 MIN)
 TOTAL WALL CLOCK TIME=        1.2 SECONDS, CPU UTILIZATION IS  67.80%

 --------------------------   -----------------------------
 RHF-MP2 ENERGY CALCULATION   PROGRAM WRITTEN BY K.ISHIMURA
 --------------------------   -----------------------------
 NUMBER OF OCCUPIED ORBITALS            =    4
 NUMBER OF CORRELATED OCCUPIED ORBITALS =    4
 NUMBER OF VIRTUAL ORBITALS             =   79
 NUMBER OF BASIS FUNCTIONS              =   84
 NUMBER OF BASIS SHELLS                 =   18
 AO-TRANSFORMED INTEGRAL THRESHOLD      = 1.00E-09
 HALF-TRANSFORMED INTEGRAL THRESHOLD    = 3.78E-13
 TOTAL DISK REQUIRED (ALL PROCESSORS)=              0 MBYTES
                  DISK SPACE PER CORE=              0 MBYTES, USING P=    1
 MEMORY REQUIRED FOR TRANSFORMATION OF 1ST THREE INDICES=      214365
 MEMORY REQUIRED FOR    4TH INDEX TRANSF. AND MP2 ENERGY=      100328
 BEGINNING MP2 INTEGRAL TRANSFORMATION...
 BEGINNING    1ST SHELL LOOP...

 RESULTS OF MOLLER-PLESSET 2ND ORDER CORRECTION ARE
               E(0)=       -27.9839333751
               E(1)=         0.0
               E(2)=        -0.1114377839
             E(MP2)=       -28.0953711590
 SPIN-COMPONENT-SCALED MP2 RESULTS ARE
              E(2S)=        -0.0813620622
              E(2T)=        -0.0300757217
             E(2ST)=        -0.1076597152 = 6/5 * E(2S) + 1/3 * E(2T)
            SCS-MP2=       -28.0915930903
 ..... DONE WITH MP2 ENERGY .....
 STEP CPU TIME =     0.37 TOTAL CPU TIME =        1.2 (    0.0 MIN)
 TOTAL WALL CLOCK TIME=        1.6 SECONDS, CPU UTILIZATION IS  75.00%

          ---------------------------------------
          EDMISTON-RUEDENBERG ENERGY LOCALIZATION
          ---------------------------------------
          C.EDMISTON AND K.RUEDENBERG, REV.MOD.PHYS. 35, 457-465 (1963)

          ---------------------------------------
          EDMISTON-RUEDENBERG ENERGY LOCALIZATION
          ---------------------------------------
          C.EDMISTON AND K.RUEDENBERG, REV.MOD.PHYS. 35, 457-465 (1963)

 THIS LOCALIZATION REQUIRES     51381 WORDS OF MEMORY.
 THIS LOCALIZATION HAS    4 ORBITALS, OF WHICH   0 ARE FROZEN.
 ... DONE WITH ENERGY LOCALIZATION ...
 STEP CPU TIME =     0.03 TOTAL CPU TIME =        1.2 (    0.0 MIN)
 TOTAL WALL CLOCK TIME=        1.6 SECONDS, CPU UTILIZATION IS  75.47%

          -------------------------
          MONOMER  2 WITH OWN BASIS
          -------------------------

     ------------------------------------------
     THE POINT GROUP IS C1 , NAXIS= 0, ORDER= 1
     ------------------------------------------

     DIMENSIONS OF THE SYMMETRY SUBSPACES ARE
 A   =   65

          -----------------------
          MP2 CONTROL INFORMATION
          -----------------------
          NACORE =        0  NBCORE =        0
          LMOMP2 =        F  AOINTS = DUP     
          METHOD =        2  NWORD  =               0
          MP2PRP =        F  OSPT   = NONE    
          CUTOFF = 1.00E-09  CPHFBS = BASISMO 
          CODE   = IMS     

          NUMBER OF CORE -A-  ORBITALS =     0
          NUMBER OF CORE -B-  ORBITALS =     0
          NUMBER OF OCC. -A-  ORBITALS =     5
          NUMBER OF OCC. -B-  ORBITALS =     5
          NUMBER OF MOLECULAR ORBITALS =    65
          NUMBER OF   BASIS  FUNCTIONS =    65

 ...... END OF ONE-ELECTRON INTEGRALS ......
 STEP CPU TIME =     0.00 TOTAL CPU TIME =        1.2 (    0.0 MIN)
 TOTAL WALL CLOCK TIME=        1.6 SECONDS, CPU UTILIZATION IS  75.00%

          -------------
          GUESS OPTIONS
          -------------
          GUESS =HCORE             NORB  =       0          NORDER=       0
          MIX   =       F          PRTMO =       F          PUNMO =       F
          TOLZ  = 1.0E-08          TOLE  = 1.0E-05
          SYMDEN=       F          PURIFY=       F

 INITIAL GUESS ORBITALS GENERATED BY HCORE    ROUTINE.

 SYMMETRIES FOR INITIAL GUESS ORBITALS FOLLOW.   BOTH SET(S).
     5 ORBITALS ARE OCCUPIED (    1 CORE ORBITALS).
     2=A        3=A        4=A        5=A        6=A        7=A        8=A   
     9=A       10=A       11=A       12=A       13=A       14=A       15=A   
 ...... END OF INITIAL ORBITAL SELECTION ......
 STEP CPU TIME =     0.01 TOTAL CPU TIME =        1.2 (    0.0 MIN)
 TOTAL WALL CLOCK TIME=        1.6 SECONDS, CPU UTILIZATION IS  75.16%
 TOTAL NUMBER OF NONZERO TWO-ELECTRON INTEGRALS =             2055802
        138 INTEGRAL RECORDS WERE STORED ON DISK FILE  8.
  ...... END OF TWO-ELECTRON INTEGRALS .....
 STEP CPU TIME =     0.11 TOTAL CPU TIME =        1.3 (    0.0 MIN)
 TOTAL WALL CLOCK TIME=        1.7 SECONDS, CPU UTILIZATION IS  76.30%

          --------------------------
                 RHF SCF CALCULATION
          --------------------------
     DENSITY MATRIX CONV=  1.00E-06

 ITER EX DEM     TOTAL ENERGY        E CHANGE  DENSITY CHANGE     ORB. GRAD
   1  0  0      -61.2818720418   -61.2818720418  16.941885374   0.000000000
   2  1  0      -66.3283122444    -5.0464402027  17.042133004   0.670741682
   3  2  0      -71.5216522957    -5.1933400513  11.302338292   0.992682117
   4  3  0      -69.8441466409     1.6775056548  11.304314843   0.545740786
   5  0  0      -72.8789089499    -3.0347623091   0.430893657   0.859626535
          ---------------START SECOND ORDER SCF---------------
   6  1  0      -75.8263761037    -2.9474671538   0.313386174   0.208718256
   7  2  0      -75.9553083079    -0.1289322042   0.138342718   0.151157783
   8  3  0      -76.0529556868    -0.0976473789   0.030430264   0.014777876
   9  4  0      -76.0542698387    -0.0013141520   0.006095074   0.004254261
  10  5  0      -76.0543622920    -0.0000924533   0.001865319   0.000676885
  11  6  0      -76.0543670811    -0.0000047891   0.000710703   0.000196991
  12  7  0      -76.0543674280    -0.0000003469   0.000064881   0.000035212
  13  8  0      -76.0543674404    -0.0000000124   0.000023695   0.000011368
  14  9  0      -76.0543674413    -0.0000000008   0.000005448   0.000002269
  15 10  0      -76.0543674413    -0.0000000000   0.000002968   0.000000647
  16 11  0      -76.0543674413    -0.0000000000   0.000000485   0.000000114
  17 12  0      -76.0543674413     0.0000000000   0.000000048   0.000000026

          -----------------
          DENSITY CONVERGED
          -----------------
     TIME TO FORM FOCK OPERATORS=       0.4 SECONDS (       0.0 SEC/ITER)
     TIME TO SOLVE SCF EQUATIONS=       0.0 SECONDS (       0.0 SEC/ITER)

 FINAL RHF ENERGY IS      -76.0543674413 AFTER  17 ITERATIONS
 ...... END OF RHF CALCULATION ......
 STEP CPU TIME =     0.46 TOTAL CPU TIME =        1.8 (    0.0 MIN)
 TOTAL WALL CLOCK TIME=        4.7 SECONDS, CPU UTILIZATION IS  37.71%

 --------------------------   -----------------------------
 RHF-MP2 ENERGY CALCULATION   PROGRAM WRITTEN BY K.ISHIMURA
 --------------------------   -----------------------------
 NUMBER OF OCCUPIED ORBITALS            =    5
 NUMBER OF CORRELATED OCCUPIED ORBITALS =    5
 NUMBER OF VIRTUAL ORBITALS             =   60
 NUMBER OF BASIS FUNCTIONS              =   65
 NUMBER OF BASIS SHELLS                 =   22
 AO-TRANSFORMED INTEGRAL THRESHOLD      = 1.00E-09
 HALF-TRANSFORMED INTEGRAL THRESHOLD    = 5.61E-12
 TOTAL DISK REQUIRED (ALL PROCESSORS)=              0 MBYTES
                  DISK SPACE PER CORE=              0 MBYTES, USING P=    1
 MEMORY REQUIRED FOR TRANSFORMATION OF 1ST THREE INDICES=      170614
 MEMORY REQUIRED FOR    4TH INDEX TRANSF. AND MP2 ENERGY=       78687
 BEGINNING MP2 INTEGRAL TRANSFORMATION...
 BEGINNING    1ST SHELL LOOP...

 RESULTS OF MOLLER-PLESSET 2ND ORDER CORRECTION ARE
               E(0)=       -76.0543674413
               E(1)=         0.0
               E(2)=        -0.2810406239
             E(MP2)=       -76.3354080652
 SPIN-COMPONENT-SCALED MP2 RESULTS ARE
              E(2S)=        -0.2136297586
              E(2T)=        -0.0674108653
             E(2ST)=        -0.2788259988 = 6/5 * E(2S) + 1/3 * E(2T)
            SCS-MP2=       -76.3331934401
 ..... DONE WITH MP2 ENERGY .....
 STEP CPU TIME =     0.46 TOTAL CPU TIME =        2.2 (    0.0 MIN)
 TOTAL WALL CLOCK TIME=        5.9 SECONDS, CPU UTILIZATION IS  37.90%

          ---------------------------------------
          EDMISTON-RUEDENBERG ENERGY LOCALIZATION
          ---------------------------------------
          C.EDMISTON AND K.RUEDENBERG, REV.MOD.PHYS. 35, 457-465 (1963)

          ---------------------------------------
          EDMISTON-RUEDENBERG ENERGY LOCALIZATION
          ---------------------------------------
          C.EDMISTON AND K.RUEDENBERG, REV.MOD.PHYS. 35, 457-465 (1963)

 THIS LOCALIZATION REQUIRES     42970 WORDS OF MEMORY.
 THIS LOCALIZATION HAS    5 ORBITALS, OF WHICH   0 ARE FROZEN.
 ... DONE WITH ENERGY LOCALIZATION ...
 STEP CPU TIME =     0.07 TOTAL CPU TIME =        2.3 (    0.0 MIN)
 TOTAL WALL CLOCK TIME=        6.0 SECONDS, CPU UTILIZATION IS  38.63%

     ------------------------------------------
     THE POINT GROUP IS C1 , NAXIS= 0, ORDER= 1
     ------------------------------------------

     DIMENSIONS OF THE SYMMETRY SUBSPACES ARE
 A   =  149

          -------------------------
          MONOMER  1 WITH ALL BASIS
          -------------------------

          -----------------------
          MP2 CONTROL INFORMATION
          -----------------------
          NACORE =        0  NBCORE =        0
          LMOMP2 =        F  AOINTS = DUP     
          METHOD =        2  NWORD  =               0
          MP2PRP =        F  OSPT   = NONE    
          CUTOFF = 1.00E-09  CPHFBS = BASISMO 
          CODE   = IMS     

          NUMBER OF CORE -A-  ORBITALS =     0
          NUMBER OF CORE -B-  ORBITALS =     0
          NUMBER OF OCC. -A-  ORBITALS =     4
          NUMBER OF OCC. -B-  ORBITALS =     4
          NUMBER OF MOLECULAR ORBITALS =   148
          NUMBER OF   BASIS  FUNCTIONS =   149

 ...... END OF ONE-ELECTRON INTEGRALS ......
 STEP CPU TIME =     0.06 TOTAL CPU TIME =        2.4 (    0.0 MIN)
 TOTAL WALL CLOCK TIME=        6.0 SECONDS, CPU UTILIZATION IS  39.24%

          -------------
          GUESS OPTIONS
          -------------
          GUESS =HCORE             NORB  =       0          NORDER=       0
          MIX   =       F          PRTMO =       F          PUNMO =       F
          TOLZ  = 1.0E-08          TOLE  = 1.0E-05
          SYMDEN=       F          PURIFY=       F

 INITIAL GUESS ORBITALS GENERATED BY HCORE    ROUTINE.

 ...WARNING (SYMORB.SRC)...
 THE INPUT BASIS SET CONTAINS APPROXIMATE LINEAR DEPENDENCE.
 THE SMALLEST EIGENVALUE OF THE OVERLAP MATRIX IS   5.365124E-10
 THERE ARE    1 EIGENVALUES LESS THAN QMTTOL=  1.00E-06
 EIGENVECTORS BELOW -QMTTOL- ARE DROPPED FROM THE MO SPACE,
 IN ORDER TO ELIMINATE THE APPROXIMATE LINEAR DEPENDENCE.

 SYMMETRIES FOR INITIAL GUESS ORBITALS FOLLOW.   BOTH SET(S).
     4 ORBITALS ARE OCCUPIED (    4 CORE ORBITALS).
     5=A        6=A        7=A        8=A        9=A       10=A       11=A   
    12=A       13=A       14=A   
 ...... END OF INITIAL ORBITAL SELECTION ......
 STEP CPU TIME =     0.13 TOTAL CPU TIME =        2.5 (    0.0 MIN)
 TOTAL WALL CLOCK TIME=        6.2 SECONDS, CPU UTILIZATION IS  40.45%
 TOTAL NUMBER OF NONZERO TWO-ELECTRON INTEGRALS =            31214145
       2081 INTEGRAL RECORDS WERE STORED ON DISK FILE  8.
  ...... END OF TWO-ELECTRON INTEGRALS .....
 STEP CPU TIME =     1.76 TOTAL CPU TIME =        4.3 (    0.1 MIN)
 TOTAL WALL CLOCK TIME=        8.2 SECONDS, CPU UTILIZATION IS  52.21%

          --------------------------
                 RHF SCF CALCULATION
          --------------------------
     DENSITY MATRIX CONV=  1.00E-06

 ITER EX DEM     TOTAL ENERGY        E CHANGE  DENSITY CHANGE     ORB. GRAD
   1  0  0      -27.1262785744   -27.1262785744   4.603055097   0.000000000
          ---------------START SECOND ORDER SCF---------------
   2  1  0      -27.9830821920    -0.8568036175   0.456651775   0.018176599
   3  2  0      -27.9839699110    -0.0008877191   0.022988305   0.001406491
   4  3  0      -27.9839743263    -0.0000044152   0.000834833   0.000055894
   5  4  0      -27.9839743334    -0.0000000071   0.000067235   0.000004471
   6  5  0      -27.9839743334    -0.0000000000   0.000003217   0.000000368
   7  6  0      -27.9839743334    -0.0000000000   0.000000440   0.000000041
   8  7  0      -27.9839743334     0.0000000000   0.000000000   0.000000005

          -----------------
          DENSITY CONVERGED
          -----------------
     TIME TO FORM FOCK OPERATORS=       2.6 SECONDS (       0.3 SEC/ITER)
     TIME TO SOLVE SCF EQUATIONS=       0.1 SECONDS (       0.0 SEC/ITER)

 FINAL RHF ENERGY IS      -27.9839743334 AFTER   8 ITERATIONS
 ...... END OF RHF CALCULATION ......
 STEP CPU TIME =     3.15 TOTAL CPU TIME =        7.4 (    0.1 MIN)
 TOTAL WALL CLOCK TIME=       17.8 SECONDS, CPU UTILIZATION IS  41.58%

 --------------------------   -----------------------------
 RHF-MP2 ENERGY CALCULATION   PROGRAM WRITTEN BY K.ISHIMURA
 --------------------------   -----------------------------
 NUMBER OF OCCUPIED ORBITALS            =    4
 NUMBER OF CORRELATED OCCUPIED ORBITALS =    4
 NUMBER OF VIRTUAL ORBITALS             =  144
 NUMBER OF BASIS FUNCTIONS              =  149
 NUMBER OF BASIS SHELLS                 =   40
 AO-TRANSFORMED INTEGRAL THRESHOLD      = 1.00E-09
 HALF-TRANSFORMED INTEGRAL THRESHOLD    = 3.77E-13
 TOTAL DISK REQUIRED (ALL PROCESSORS)=              1 MBYTES
                  DISK SPACE PER CORE=              1 MBYTES, USING P=    1
 MEMORY REQUIRED FOR TRANSFORMATION OF 1ST THREE INDICES=      398249
 MEMORY REQUIRED FOR    4TH INDEX TRANSF. AND MP2 ENERGY=      323213
 BEGINNING MP2 INTEGRAL TRANSFORMATION...
 BEGINNING    1ST SHELL LOOP...
 BEGINNING   26TH SHELL LOOP...

 RESULTS OF MOLLER-PLESSET 2ND ORDER CORRECTION ARE
               E(0)=       -27.9839743334
               E(1)=         0.0
               E(2)=        -0.1120353634
             E(MP2)=       -28.0960096968
 SPIN-COMPONENT-SCALED MP2 RESULTS ARE
              E(2S)=        -0.0818693289
              E(2T)=        -0.0301660345
             E(2ST)=        -0.1082985395 = 6/5 * E(2S) + 1/3 * E(2T)
            SCS-MP2=       -28.0922728730
 ..... DONE WITH MP2 ENERGY .....
 STEP CPU TIME =     6.30 TOTAL CPU TIME =       13.7 (    0.2 MIN)
 TOTAL WALL CLOCK TIME=       24.1 SECONDS, CPU UTILIZATION IS  56.82%

          ---------------------------------------
          EDMISTON-RUEDENBERG ENERGY LOCALIZATION
          ---------------------------------------
          C.EDMISTON AND K.RUEDENBERG, REV.MOD.PHYS. 35, 457-465 (1963)

          ---------------------------------------
          EDMISTON-RUEDENBERG ENERGY LOCALIZATION
          ---------------------------------------
          C.EDMISTON AND K.RUEDENBERG, REV.MOD.PHYS. 35, 457-465 (1963)

 THIS LOCALIZATION REQUIRES     96881 WORDS OF MEMORY.
 THIS LOCALIZATION HAS    4 ORBITALS, OF WHICH   0 ARE FROZEN.
 ... DONE WITH ENERGY LOCALIZATION ...
 STEP CPU TIME =     0.67 TOTAL CPU TIME =       14.4 (    0.2 MIN)
 TOTAL WALL CLOCK TIME=       24.8 SECONDS, CPU UTILIZATION IS  57.96%

          -------------------------
          MONOMER  2 WITH ALL BASIS
          -------------------------

          -----------------------
          MP2 CONTROL INFORMATION
          -----------------------
          NACORE =        0  NBCORE =        0
          LMOMP2 =        F  AOINTS = DUP     
          METHOD =        2  NWORD  =               0
          MP2PRP =        F  OSPT   = NONE    
          CUTOFF = 1.00E-09  CPHFBS = BASISMO 
          CODE   = IMS     

          NUMBER OF CORE -A-  ORBITALS =     0
          NUMBER OF CORE -B-  ORBITALS =     0
          NUMBER OF OCC. -A-  ORBITALS =     5
          NUMBER OF OCC. -B-  ORBITALS =     5
          NUMBER OF MOLECULAR ORBITALS =   148
          NUMBER OF   BASIS  FUNCTIONS =   149

 ...... END OF ONE-ELECTRON INTEGRALS ......
 STEP CPU TIME =     0.01 TOTAL CPU TIME =       14.4 (    0.2 MIN)
 TOTAL WALL CLOCK TIME=       24.8 SECONDS, CPU UTILIZATION IS  58.00%

          -------------
          GUESS OPTIONS
          -------------
          GUESS =HCORE             NORB  =       0          NORDER=       0
          MIX   =       F          PRTMO =       F          PUNMO =       F
          TOLZ  = 1.0E-08          TOLE  = 1.0E-05
          SYMDEN=       F          PURIFY=       F

 INITIAL GUESS ORBITALS GENERATED BY HCORE    ROUTINE.

 ...WARNING (SYMORB.SRC)...
 THE INPUT BASIS SET CONTAINS APPROXIMATE LINEAR DEPENDENCE.
 THE SMALLEST EIGENVALUE OF THE OVERLAP MATRIX IS   5.365124E-10
 THERE ARE    1 EIGENVALUES LESS THAN QMTTOL=  1.00E-06
 EIGENVECTORS BELOW -QMTTOL- ARE DROPPED FROM THE MO SPACE,
 IN ORDER TO ELIMINATE THE APPROXIMATE LINEAR DEPENDENCE.

 SYMMETRIES FOR INITIAL GUESS ORBITALS FOLLOW.   BOTH SET(S).
     5 ORBITALS ARE OCCUPIED (    1 CORE ORBITALS).
     2=A        3=A        4=A        5=A        6=A        7=A        8=A   
     9=A       10=A       11=A       12=A       13=A       14=A       15=A   
 ...... END OF INITIAL ORBITAL SELECTION ......
 STEP CPU TIME =     0.12 TOTAL CPU TIME =       14.5 (    0.2 MIN)
 TOTAL WALL CLOCK TIME=       24.9 SECONDS, CPU UTILIZATION IS  58.18%
 TOTAL NUMBER OF NONZERO TWO-ELECTRON INTEGRALS =            31214145
       2081 INTEGRAL RECORDS WERE STORED ON DISK FILE  8.
  ...... END OF TWO-ELECTRON INTEGRALS .....
 STEP CPU TIME =     1.69 TOTAL CPU TIME =       16.2 (    0.3 MIN)
 TOTAL WALL CLOCK TIME=       26.7 SECONDS, CPU UTILIZATION IS  60.67%

          --------------------------
                 RHF SCF CALCULATION
          --------------------------
     DENSITY MATRIX CONV=  1.00E-06

 ITER EX DEM     TOTAL ENERGY        E CHANGE  DENSITY CHANGE     ORB. GRAD
   1  0  0      -61.2752250045   -61.2752250045   4.101966559   0.000000000
   2  1  0      -59.6997644783     1.5754605262   4.104894029   0.744076143
   3  2  0      -70.6276196511   -10.9278551728   0.978564767   0.943914424
   4  3  0      -65.9466881097     4.6809315414   0.881533195   0.609298383
   5  0  0      -71.9351080543    -5.9884199446   0.530009612   0.923140719
          ---------------START SECOND ORDER SCF---------------
   6  1  0      -75.7634657615    -3.8283577072   0.322511338   0.218747336
   7  2  0      -75.9316370300    -0.1681712685   0.104445193   0.137156606
   8  3  0      -76.0536713978    -0.1220343678   0.040724101   0.017177951
   9  4  0      -76.0562521201    -0.0025807223   0.026875151   0.006464174
  10  5  0      -76.0566348322    -0.0003827121   0.010935015   0.002011498
  11  6  0      -76.0566698615    -0.0000350293   0.004344690   0.000621803
  12  7  0      -76.0566742768    -0.0000044153   0.000493143   0.000115705
  13  8  0      -76.0566745881    -0.0000003113   0.000246004   0.000044824
  14  9  0      -76.0566746399    -0.0000000517   0.000162559   0.000017133
  15 10  0      -76.0566746439    -0.0000000040   0.000089536   0.000005575
  16 11  0      -76.0566746444    -0.0000000006   0.000023223   0.000002156
  17 12  0      -76.0566746445    -0.0000000001   0.000002428   0.000000745
  18 13  0      -76.0566746445    -0.0000000000   0.000001886   0.000000191
  19 14  0      -76.0566746445    -0.0000000000   0.000001071   0.000000054

          ----------------
          ENERGY CONVERGED
          ----------------
     TIME TO FORM FOCK OPERATORS=       6.5 SECONDS (       0.3 SEC/ITER)
     TIME TO SOLVE SCF EQUATIONS=       0.4 SECONDS (       0.0 SEC/ITER)

 FINAL RHF ENERGY IS      -76.0566746445 AFTER  19 ITERATIONS
 ...... END OF RHF CALCULATION ......
 STEP CPU TIME =     6.95 TOTAL CPU TIME =       23.1 (    0.4 MIN)
 TOTAL WALL CLOCK TIME=       34.1 SECONDS, CPU UTILIZATION IS  67.95%

 --------------------------   -----------------------------
 RHF-MP2 ENERGY CALCULATION   PROGRAM WRITTEN BY K.ISHIMURA
 --------------------------   -----------------------------
 NUMBER OF OCCUPIED ORBITALS            =    5
 NUMBER OF CORRELATED OCCUPIED ORBITALS =    5
 NUMBER OF VIRTUAL ORBITALS             =  143
 NUMBER OF BASIS FUNCTIONS              =  149
 NUMBER OF BASIS SHELLS                 =   40
 AO-TRANSFORMED INTEGRAL THRESHOLD      = 1.00E-09
 HALF-TRANSFORMED INTEGRAL THRESHOLD    = 6.12E-13
 TOTAL DISK REQUIRED (ALL PROCESSORS)=              2 MBYTES
                  DISK SPACE PER CORE=              2 MBYTES, USING P=    1
 MEMORY REQUIRED FOR TRANSFORMATION OF 1ST THREE INDICES=      407999
 MEMORY REQUIRED FOR    4TH INDEX TRANSF. AND MP2 ENERGY=      427677
 BEGINNING MP2 INTEGRAL TRANSFORMATION...
 BEGINNING    1ST SHELL LOOP...
 BEGINNING   26TH SHELL LOOP...

 RESULTS OF MOLLER-PLESSET 2ND ORDER CORRECTION ARE
               E(0)=       -76.0566746445
               E(1)=         0.0
               E(2)=        -0.2831303796
             E(MP2)=       -76.3398050241
 SPIN-COMPONENT-SCALED MP2 RESULTS ARE
              E(2S)=        -0.2150090944
              E(2T)=        -0.0681212852
             E(2ST)=        -0.2807180083 = 6/5 * E(2S) + 1/3 * E(2T)
            SCS-MP2=       -76.3373926528
 ..... DONE WITH MP2 ENERGY .....
 STEP CPU TIME =     6.44 TOTAL CPU TIME =       29.6 (    0.5 MIN)
 TOTAL WALL CLOCK TIME=       40.5 SECONDS, CPU UTILIZATION IS  72.99%

          ---------------------------------------
          EDMISTON-RUEDENBERG ENERGY LOCALIZATION
          ---------------------------------------
          C.EDMISTON AND K.RUEDENBERG, REV.MOD.PHYS. 35, 457-465 (1963)

          ---------------------------------------
          EDMISTON-RUEDENBERG ENERGY LOCALIZATION
          ---------------------------------------
          C.EDMISTON AND K.RUEDENBERG, REV.MOD.PHYS. 35, 457-465 (1963)

 THIS LOCALIZATION REQUIRES     96982 WORDS OF MEMORY.
 THIS LOCALIZATION HAS    5 ORBITALS, OF WHICH   0 ARE FROZEN.
 ... DONE WITH ENERGY LOCALIZATION ...
 STEP CPU TIME =     0.94 TOTAL CPU TIME =       30.5 (    0.5 MIN)
 TOTAL WALL CLOCK TIME=       41.5 SECONDS, CPU UTILIZATION IS  73.60%

          --------------
          SUPER MOLECULE
          --------------

     ------------------------------------------
     THE POINT GROUP IS C1 , NAXIS= 0, ORDER= 1
     ------------------------------------------

     DIMENSIONS OF THE SYMMETRY SUBSPACES ARE
 A   =  149

          -----------------------
          MP2 CONTROL INFORMATION
          -----------------------
          NACORE =        0  NBCORE =        0
          LMOMP2 =        F  AOINTS = DUP     
          METHOD =        2  NWORD  =               0
          MP2PRP =        F  OSPT   = NONE    
          CUTOFF = 1.00E-09  CPHFBS = BASISMO 
          CODE   = IMS     

          NUMBER OF CORE -A-  ORBITALS =     0
          NUMBER OF CORE -B-  ORBITALS =     0
          NUMBER OF OCC. -A-  ORBITALS =     9
          NUMBER OF OCC. -B-  ORBITALS =     9
          NUMBER OF MOLECULAR ORBITALS =   148
          NUMBER OF   BASIS  FUNCTIONS =   149

 ...... END OF ONE-ELECTRON INTEGRALS ......
 STEP CPU TIME =     0.03 TOTAL CPU TIME =       30.6 (    0.5 MIN)
 TOTAL WALL CLOCK TIME=       41.5 SECONDS, CPU UTILIZATION IS  73.60%

          -------------
          GUESS OPTIONS
          -------------
          GUESS =HCORE             NORB  =       0          NORDER=       0
          MIX   =       F          PRTMO =       F          PUNMO =       F
          TOLZ  = 1.0E-08          TOLE  = 1.0E-05
          SYMDEN=       F          PURIFY=       F

 INITIAL GUESS ORBITALS GENERATED BY HCORE    ROUTINE.

 ...WARNING (SYMORB.SRC)...
 THE INPUT BASIS SET CONTAINS APPROXIMATE LINEAR DEPENDENCE.
 THE SMALLEST EIGENVALUE OF THE OVERLAP MATRIX IS   5.365124E-10
 THERE ARE    1 EIGENVALUES LESS THAN QMTTOL=  1.00E-06
 EIGENVECTORS BELOW -QMTTOL- ARE DROPPED FROM THE MO SPACE,
 IN ORDER TO ELIMINATE THE APPROXIMATE LINEAR DEPENDENCE.

 SYMMETRIES FOR INITIAL GUESS ORBITALS FOLLOW.   BOTH SET(S).
     9 ORBITALS ARE OCCUPIED (    5 CORE ORBITALS).
     6=A        7=A        8=A        9=A       10=A       11=A       12=A   
    13=A       14=A       15=A       16=A       17=A       18=A       19=A   
 ...... END OF INITIAL ORBITAL SELECTION ......
 STEP CPU TIME =     0.15 TOTAL CPU TIME =       30.7 (    0.5 MIN)
 TOTAL WALL CLOCK TIME=       41.7 SECONDS, CPU UTILIZATION IS  73.70%
 TOTAL NUMBER OF NONZERO TWO-ELECTRON INTEGRALS =            31214145
       2081 INTEGRAL RECORDS WERE STORED ON DISK FILE  8.
  ...... END OF TWO-ELECTRON INTEGRALS .....
 STEP CPU TIME =     1.72 TOTAL CPU TIME =       32.4 (    0.5 MIN)
 TOTAL WALL CLOCK TIME=       46.6 SECONDS, CPU UTILIZATION IS  69.53%

          --------------------------
                 RHF SCF CALCULATION
          --------------------------
     DENSITY MATRIX CONV=  1.00E-06

 ITER EX DEM     TOTAL ENERGY        E CHANGE  DENSITY CHANGE     ORB. GRAD
   1  0  0      -62.2651997701   -62.2651997701   6.198216938   0.000000000
   2  1  0      -77.5023003316   -15.2371005615  11.118885356   0.644782330
   3  2  0      -57.9168264654    19.5854738661   7.900282864   1.514854738
   4  3  0      -76.5424273549   -18.6256008895   7.900285536   0.727246132
   5  0  0      -58.3144524518    18.2279749031   4.609279718   1.574522717
   6  1  0     -102.5634001270   -44.2489476753   0.979810998   0.514997629
   7  2  0     -103.5683815761    -1.0049814491   0.476755224   0.282688382
          ---------------START SECOND ORDER SCF---------------
   8  3  0     -103.8132493525    -0.2448677764   0.298761590   0.207132531
   9  4  0     -103.8660666414    -0.0528172889   0.140231406   0.100194150
  10  5  0     -104.1285476662    -0.2624810248   0.167634309   0.056779005
  11  6  0     -104.1167617952     0.0117858710   0.099606645   0.096624921
  12  7  0     -104.1564619193    -0.0397001241   0.016938066   0.015413991
  13  8  0     -104.1578443078    -0.0013823885   0.004764379   0.001921125
  14  9  0     -104.1579021100    -0.0000578023   0.001677577   0.001258891
  15 10  0     -104.1579109124    -0.0000088024   0.000353971   0.000286639
  16 11  0     -104.1579115926    -0.0000006802   0.000122757   0.000072394
  17 12  0     -104.1579116372    -0.0000000446   0.000022900   0.000014107
  18 13  0     -104.1579116403    -0.0000000031   0.000004927   0.000001912
  19 14  0     -104.1579116404    -0.0000000001   0.000002729   0.000001280
  20 15  0     -104.1579116404    -0.0000000000   0.000000936   0.000000660
  21 16  0     -104.1579116404    -0.0000000000   0.000000217   0.000000109

          -----------------
          DENSITY CONVERGED
          -----------------
     TIME TO FORM FOCK OPERATORS=       7.2 SECONDS (       0.3 SEC/ITER)
     TIME TO SOLVE SCF EQUATIONS=       0.5 SECONDS (       0.0 SEC/ITER)

 FINAL RHF ENERGY IS     -104.1579116404 AFTER  21 ITERATIONS
 ...... END OF RHF CALCULATION ......
 STEP CPU TIME =     7.82 TOTAL CPU TIME =       40.3 (    0.7 MIN)
 TOTAL WALL CLOCK TIME=       60.3 SECONDS, CPU UTILIZATION IS  66.78%

 --------------------------   -----------------------------
 RHF-MP2 ENERGY CALCULATION   PROGRAM WRITTEN BY K.ISHIMURA
 --------------------------   -----------------------------
 NUMBER OF OCCUPIED ORBITALS            =    9
 NUMBER OF CORRELATED OCCUPIED ORBITALS =    9
 NUMBER OF VIRTUAL ORBITALS             =  139
 NUMBER OF BASIS FUNCTIONS              =  149
 NUMBER OF BASIS SHELLS                 =   40
 AO-TRANSFORMED INTEGRAL THRESHOLD      = 1.00E-09
 HALF-TRANSFORMED INTEGRAL THRESHOLD    = 4.08E-13
 TOTAL DISK REQUIRED (ALL PROCESSORS)=              7 MBYTES
                  DISK SPACE PER CORE=              7 MBYTES, USING P=    1
 MEMORY REQUIRED FOR TRANSFORMATION OF 1ST THREE INDICES=      464679
 MEMORY REQUIRED FOR    4TH INDEX TRANSF. AND MP2 ENERGY=     1037773
 BEGINNING MP2 INTEGRAL TRANSFORMATION...
 BEGINNING    1ST SHELL LOOP...
 BEGINNING   26TH SHELL LOOP...

 RESULTS OF MOLLER-PLESSET 2ND ORDER CORRECTION ARE
               E(0)=      -104.1579116404
               E(1)=         0.0
               E(2)=        -0.3971836236
             E(MP2)=      -104.5550952640
 SPIN-COMPONENT-SCALED MP2 RESULTS ARE
              E(2S)=        -0.2960474419
              E(2T)=        -0.1011361817
             E(2ST)=        -0.3889689909 = 6/5 * E(2S) + 1/3 * E(2T)
            SCS-MP2=      -104.5468806312
 ..... DONE WITH MP2 ENERGY .....
 STEP CPU TIME =     6.61 TOTAL CPU TIME =       46.9 (    0.8 MIN)
 TOTAL WALL CLOCK TIME=       67.0 SECONDS, CPU UTILIZATION IS  69.99%

          ---------------------------------------
          EDMISTON-RUEDENBERG ENERGY LOCALIZATION
          ---------------------------------------
          C.EDMISTON AND K.RUEDENBERG, REV.MOD.PHYS. 35, 457-465 (1963)

          ---------------------------------------
          EDMISTON-RUEDENBERG ENERGY LOCALIZATION
          ---------------------------------------
          C.EDMISTON AND K.RUEDENBERG, REV.MOD.PHYS. 35, 457-465 (1963)

 THIS LOCALIZATION REQUIRES     98111 WORDS OF MEMORY.
 THIS LOCALIZATION HAS    9 ORBITALS, OF WHICH   0 ARE FROZEN.
 ... DONE WITH ENERGY LOCALIZATION ...
 STEP CPU TIME =     1.47 TOTAL CPU TIME =       48.3 (    0.8 MIN)
 TOTAL WALL CLOCK TIME=       68.4 SECONDS, CPU UTILIZATION IS  70.64%

          ---------------------------------------------
          MONOMER ELECTROSTATIC INTERACTION (OWN BASIS)
          ---------------------------------------------

          ********************
          1 ELECTRON INTEGRALS
          ********************
 TIME TO DO ORDINARY INTEGRALS=      0.00
 TIME TO DO      ECP INTEGRALS=      0.03
 ...... END OF ONE-ELECTRON INTEGRALS ......
 STEP CPU TIME =     0.03 TOTAL CPU TIME =       48.4 (    0.8 MIN)
 TOTAL WALL CLOCK TIME=       68.5 SECONDS, CPU UTILIZATION IS  70.65%

          ---------------------------------------
          EDMISTON-RUEDENBERG ENERGY LOCALIZATION
          ---------------------------------------
          C.EDMISTON AND K.RUEDENBERG, REV.MOD.PHYS. 35, 457-465 (1963)

          ---------------------------------------
          EDMISTON-RUEDENBERG ENERGY LOCALIZATION
          ---------------------------------------
          C.EDMISTON AND K.RUEDENBERG, REV.MOD.PHYS. 35, 457-465 (1963)

 THIS LOCALIZATION REQUIRES     98111 WORDS OF MEMORY.
 THIS LOCALIZATION HAS    9 ORBITALS, OF WHICH   0 ARE FROZEN.
 ... DONE WITH ENERGY LOCALIZATION ...
 STEP CPU TIME =     1.45 TOTAL CPU TIME =       49.8 (    0.8 MIN)
 TOTAL WALL CLOCK TIME=       70.0 SECONDS, CPU UTILIZATION IS  71.19%

          ---------------------------------------------
          MONOMER ELECTROSTATIC INTERACTION (ALL BASIS)
          ---------------------------------------------

          ---------------------------------------
          EDMISTON-RUEDENBERG ENERGY LOCALIZATION
          ---------------------------------------
          C.EDMISTON AND K.RUEDENBERG, REV.MOD.PHYS. 35, 457-465 (1963)

          ---------------------------------------
          EDMISTON-RUEDENBERG ENERGY LOCALIZATION
          ---------------------------------------
          C.EDMISTON AND K.RUEDENBERG, REV.MOD.PHYS. 35, 457-465 (1963)

 THIS LOCALIZATION REQUIRES     98111 WORDS OF MEMORY.
 THIS LOCALIZATION HAS    9 ORBITALS, OF WHICH   0 ARE FROZEN.
 ... DONE WITH ENERGY LOCALIZATION ...
 STEP CPU TIME =     1.46 TOTAL CPU TIME =       51.3 (    0.9 MIN)
 TOTAL WALL CLOCK TIME=       72.0 SECONDS, CPU UTILIZATION IS  71.24%

          --------------------------------------------------
          MONOMER EXCHANGE-REPULSION INTERACTION (OWN BASIS)
          --------------------------------------------------

          ---------------------------------------
          EDMISTON-RUEDENBERG ENERGY LOCALIZATION
          ---------------------------------------
          C.EDMISTON AND K.RUEDENBERG, REV.MOD.PHYS. 35, 457-465 (1963)

          ---------------------------------------
          EDMISTON-RUEDENBERG ENERGY LOCALIZATION
          ---------------------------------------
          C.EDMISTON AND K.RUEDENBERG, REV.MOD.PHYS. 35, 457-465 (1963)

 THIS LOCALIZATION REQUIRES     98111 WORDS OF MEMORY.
 THIS LOCALIZATION HAS    9 ORBITALS, OF WHICH   0 ARE FROZEN.
 ... DONE WITH ENERGY LOCALIZATION ...
 STEP CPU TIME =     1.47 TOTAL CPU TIME =       52.7 (    0.9 MIN)
 TOTAL WALL CLOCK TIME=       73.5 SECONDS, CPU UTILIZATION IS  71.72%

          --------------------------------------------------
          MONOMER EXCHANGE-REPULSION INTERACTION (ALL BASIS)
          --------------------------------------------------

          ---------------------------------------
          EDMISTON-RUEDENBERG ENERGY LOCALIZATION
          ---------------------------------------
          C.EDMISTON AND K.RUEDENBERG, REV.MOD.PHYS. 35, 457-465 (1963)

          ---------------------------------------
          EDMISTON-RUEDENBERG ENERGY LOCALIZATION
          ---------------------------------------
          C.EDMISTON AND K.RUEDENBERG, REV.MOD.PHYS. 35, 457-465 (1963)

 THIS LOCALIZATION REQUIRES     98111 WORDS OF MEMORY.
 THIS LOCALIZATION HAS    9 ORBITALS, OF WHICH   0 ARE FROZEN.
 ... DONE WITH ENERGY LOCALIZATION ...
 STEP CPU TIME =     1.46 TOTAL CPU TIME =       54.2 (    0.9 MIN)
 TOTAL WALL CLOCK TIME=       75.0 SECONDS, CPU UTILIZATION IS  72.26%

          ------------------------------------
          RESULTS OF CMO INTERACTION ANALYSIS
          ------------------------------------

     CMO ENERGY
     T   ELECTRON KINETIC ENERGY
     V   ELECTRON-NUCLEUS POTENTIAL ENERGY
     X   ELECTRON-ELECTRON EXCHANGE ENERGY
     J   ELECTRON-ELECTRON REPULSION ENERGY
     N   NUCLEUS-NUCLEUS REPULSION ENERGY

 --------------
 MONOMER ENERGY
 --------------

 MONOMER    1

                   OWN BASIS           ALL BASIS

 T                6.05428196          6.05439657
 V              -46.52197441        -46.52215675
 X               -0.90376797         -0.90376174
 J               13.38752704         13.38754758
 N                0.00000000          0.00000000
 E              -27.98393338        -27.98397433
 E(MP2)         -28.09537116        -28.09600970

 MONOMER    2

                   OWN BASIS           ALL BASIS

 T               75.90183402         75.87462784
 V             -198.55938906       -198.48181605
 X               -1.32340946         -1.32053656
 J               38.98305535         38.92750842
 N                8.94354171          8.94354171
 E              -76.05436744        -76.05667464
 E(MP2)         -76.33540807        -76.33980502

 ------------------------------------------------------------
 SUPER MOLECULE ENERGY  USING NON-ANTISYMMETRIC WAVEFUNCTION
 (ELECTROSTATIC ENERGY: V J N CHANGE)
 ------------------------------------------------------------

              FROM OWN BASIS      FROM ALL BASIS
 T               81.95611597         81.92902441
 V             -285.02553810       -284.94185438
 X               -2.22717743         -2.22429830
 J               69.29430528         69.23462472
 N               31.85247930         31.85247930
 E             -104.14981498       -104.15002426

 ----------------------------------------------------------------------
 SUPER MOLECULE ENERGY  USING ANTISYMMETRIC NONORTHONORMAL WAVEFUNCTION
 (EXCHANGE ENERGY: ONLY X CHANGES)
 ----------------------------------------------------------------------

              FROM OWN BASIS      FROM ALL BASIS
 T               81.95611597         81.92902441
 V             -285.02553810       -284.94185438
 X               -2.27395601         -2.27314383
 J               69.29430528         69.23462472
 N               31.85247930         31.85247930
 E             -104.19659355       -104.19886979

 -----------------------------------------------------------------------
 SUPER MOLECULE ENERGY  USING ANTISYMMETRIC AND ORTHONORMAL WAVEFUNCTION
 (REPULSION ENERGY: T V X J CHANGE)
 -----------------------------------------------------------------------

              FROM OWN BASIS      FROM ALL BASIS
 T               82.18518538         82.17043241
 V             -285.26369750       -285.20086788
 X               -2.25649981         -2.25411825
 J               69.39326666         69.34676688
 N               31.85247930         31.85247930
 E             -104.08926597       -104.08530753

 ---------------------------------------------
 SUPER MOLECULE ENERGY  USING SCF WAVEFUNCTION
 (POLARIZATION ENERGY: T V X J CHANGE)
 ---------------------------------------------
 T               82.05103403         82.05103403
 V             -285.48879172       -285.48879172
 X               -2.37615277         -2.37615277
 J               69.80351952         69.80351952
 N               31.85247930         31.85247930
 E             -104.15791164       -104.15791164
 E(MP2)        -104.55509526       -104.55509526


                   *******************************
                      SUMMARY OF CMOEDA RESULTS
                      - PEIFENG SU AND HUI LI -
                   *******************************


 -------------
 OWN BASIS SET                                       HARTREE          KCAL/MOL
 -------------
 ELECTROSTATIC ENERGY                  ES=         -0.111514            -69.98
 EXCHANGE ENERGY                       EX=         -0.046779            -29.35
 REPULSION ENERGY                     REP=          0.107328             67.35
 POLARIZATION ENERGY                  POL=         -0.068646            -43.08
 MP2 DISPERSION ENERGY               DISP=         -0.004705             -2.95
 TOTAL INTERACTION ENERGY HF OR DFT     E=         -0.119611            -75.06
 TOTAL INTERACTION ENERGY MP2           E=         -0.124316            -78.01
  

 -------------
 ALL BASIS SET                                       HARTREE          KCAL/MOL
 -------------
 ELECTROSTATIC ENERGY                  ES=         -0.109375            -68.63
 EXCHANGE ENERGY                       EX=         -0.048846            -30.65
 REPULSION ENERGY                     REP=          0.113562             71.26
 POLARIZATION ENERGY                  POL=         -0.072604            -45.56
 MP2 DISPERSION ENERGY               DISP=         -0.002018             -1.27
 TOTAL INTERACTION ENERGY HF OR DFT     E=         -0.117263            -73.58
 TOTAL INTERACTION ENERGY MP2           E=         -0.119281            -74.85

                   *******************************
                   END OF CMO INTERACTION ANALYSIS
                   *******************************

 STEP CPU TIME =     0.00 TOTAL CPU TIME =       54.2 (    0.9 MIN)
 TOTAL WALL CLOCK TIME=       75.0 SECONDS, CPU UTILIZATION IS  72.25%
             13425105  WORDS OF DYNAMIC MEMORY USED
 EXECUTION OF GAMESS TERMINATED NORMALLY Mon Nov 28 18:37:05 2016
 DDI: 263640 bytes (0.3 MB / 0 MWords) used by master data server.

 ----------------------------------------
 CPU timing information for all processes
 ========================================
 0: 48.506 + 5.701 = 54.207
 ----------------------------------------
 ddikick.x: exited gracefully.
unset echo
----- accounting info -----
Files used on the master node compute-3-0 were:
-rw-rw-r-- 1 sarom sarom   1258560 Nov 29  2016 .//eda-ac-wat.dat
-rw-rw-r-- 1 sarom sarom      7787 Nov 29  2016 .//eda-ac-wat.F05
-rw-rw-r-- 1 sarom sarom 374613296 Nov 29  2016 .//eda-ac-wat.F08
-rw-rw-r-- 1 sarom sarom    180384 Nov 29  2016 .//eda-ac-wat.F09
-rw-rw-r-- 1 sarom sarom   9914160 Nov 29  2016 .//eda-ac-wat.F10
-rw-rw-r-- 1 sarom sarom      7787 Nov 28 17:27 .//eda-ac-wat.inp
-rw-rw-r-- 1 sarom sarom     70465 Nov 29  2016 .//eda-ac-wat.log
Mon Nov 28 18:37:08 CST 2016
0.218u 0.352s 1:18.73 0.7%	0+0k 0+144io 0pf+0w
