-catch_rsh /opt/gridengine/default/spool/compute-0-8/active_jobs/23519.1/pe_hostfile
compute-0-8
The primary node assigned by SGE to this run is compute-0-8
Warning: no access to tty (Bad file descriptor).
Thus no job control in this shell.
Deleting shmid=2785280.
Deleting shmid=2818049.
source /home/sarom/gamess.github.2017-05-31.14.06/install.info
setenv GMS_PATH /home/sarom/gamess.github.2017-05-31.14.06
setenv GMS_BUILD_DIR /home/sarom/gamess.github.2017-05-31.14.06
setenv GMS_TARGET linux64
setenv GMS_FORTRAN gfortran
setenv GMS_GFORTRAN_VERNO 4.4
setenv GMS_MATHLIB mkl-so
setenv GMS_MATHLIB_PATH /share/apps/intel/compilers_and_libraries_2017.1.132/linux/mkl/lib/intel64
setenv GMS_MKL_VERNO 12
setenv GMS_DDI_COMM sockets
setenv GMS_LIBCCHEM false
setenv GMS_EIGEN_PATH
setenv GMS_PHI false
setenv GMS_SHMTYPE sysv
setenv GMS_OPENMP false
unset echo
eda-c2h6-zapt
tests/eda
----- GAMESS execution script 'rungms' -----
This job is running on host compute-0-8.local
under operating system Linux at Fri Jun 2 00:59:42 CDT 2017
Available scratch disk space (Kbyte units) at beginning of the job is
Filesystem           1K-blocks      Used Available Use% Mounted on
/dev/sda1             16126920   3867344  11440376  26% /
GAMESS temporary binary files will be written to /scratch
GAMESS supplementary output files will be written to /home/sarom/restart
Copying input file eda-c2h6-zapt.inp to your run's scratch directory...
cp tests/eda/eda-c2h6-zapt.inp /scratch/eda-c2h6-zapt.F05
unset echo
The generated host list is
compute-0-8.local
/home/sarom/gamess.github.2017-05-31.14.06/ddikick.x /home/sarom/gamess.github.2017-05-31.14.06/gamess.00.x eda-c2h6-zapt -ddi 1 1 compute-0-8.local -scr /scratch

 Distributed Data Interface kickoff program.
 Initiating 1 compute processes on 1 nodes to run the following command:
 /home/sarom/gamess.github.2017-05-31.14.06/gamess.00.x eda-c2h6-zapt 

          ******************************************************
          *         GAMESS VERSION = 20 APR 2017 (R1)          *
          *             FROM IOWA STATE UNIVERSITY             *
          * M.W.SCHMIDT, K.K.BALDRIDGE, J.A.BOATZ, S.T.ELBERT, *
          *   M.S.GORDON, J.H.JENSEN, S.KOSEKI, N.MATSUNAGA,   *
          *          K.A.NGUYEN, S.J.SU, T.L.WINDUS,           *
          *       TOGETHER WITH M.DUPUIS, J.A.MONTGOMERY       *
          *         J.COMPUT.CHEM.  14, 1347-1363(1993)        *
          **************** 64 BIT LINUX VERSION ****************

  SINCE 1993, STUDENTS AND POSTDOCS WORKING AT IOWA STATE UNIVERSITY
  AND ALSO IN THEIR VARIOUS JOBS AFTER LEAVING ISU HAVE MADE IMPORTANT
  CONTRIBUTIONS TO THE CODE:
     IVANA ADAMOVIC, CHRISTINE AIKENS, YURI ALEXEEV, POOJA ARORA,
     ANDREY ASADCHEV, ROB BELL, PRADIPTA BANDYOPADHYAY, JONATHAN BENTZ,
     BRETT BODE, KURT BRORSEN, CALEB CARLIN, GALINA CHABAN, WEI CHEN,
     CHEOL HO CHOI, PAUL DAY, ALBERT DEFUSCO, NUWAN DESILVA, TIM DUDLEY,
     DMITRI FEDOROV, GRAHAM FLETCHER, MARK FREITAG, KURT GLAESEMANN,
     DAN KEMP, GRANT MERRILL, NORIYUKI MINEZAWA, JONATHAN MULLIN,
     TAKESHI NAGATA, SEAN NEDD, HEATHER NETZLOFF, BOSILJKA NJEGIC, RYAN OLSON,
     MIKE PAK, SPENCER PRUITT, LUKE ROSKOP, JIM SHOEMAKER, LYUDMILA SLIPCHENKO,
     TONY SMITH, SAROM SOK LEANG, JIE SONG, TETSUYA TAKETSUGU, SIMON WEBB,
     PENG XU, SOOHAENG YOO, FEDERICO ZAHARIEV

  ADDITIONAL CODE HAS BEEN PROVIDED BY COLLABORATORS IN OTHER GROUPS:
     IOWA STATE UNIVERSITY:
          JOE IVANIC, AARON WEST, LAIMUTIS BYTAUTAS, KLAUS RUEDENBERG
     UNIVERSITY OF TOKYO: KIMIHIKO HIRAO, TAKAHITO NAKAJIMA,
          TAKAO TSUNEDA, MUNEAKI KAMIYA, SUSUMU YANAGISAWA,
          KIYOSHI YAGI, MAHITO CHIBA, SEIKEN TOKURA, NAOAKI KAWAKAMI
     UNIVERSITY OF AARHUS: FRANK JENSEN
     UNIVERSITY OF IOWA: VISVALDAS KAIRYS, HUI LI
     NATIONAL INST. OF STANDARDS AND TECHNOLOGY: WALT STEVENS, DAVID GARMER
     UNIVERSITY OF PISA: BENEDETTA MENNUCCI, JACOPO TOMASI
     UNIVERSITY OF MEMPHIS: HENRY KURTZ, PRAKASHAN KORAMBATH
     UNIVERSITY OF ALBERTA: TOBY ZENG, MARIUSZ KLOBUKOWSKI
     UNIVERSITY OF NEW ENGLAND: MARK SPACKMAN
     MIE UNIVERSITY: HIROAKI UMEDA
     NAT. INST. OF ADVANCED INDUSTRIAL SCIENCE AND TECHNOLOGY: KAZUO KITAURA
     MICHIGAN STATE UNIVERSITY:
          KAROL KOWALSKI, MARTA WLOCH, JEFFREY GOUR, JESSE LUTZ,
          WEI LI, PIOTR PIECUCH
     UNIVERSITY OF SILESIA: MONIKA MUSIAL, STANISLAW KUCHARSKI
     FACULTES UNIVERSITAIRES NOTRE-DAME DE LA PAIX:
          OLIVIER QUINET, BENOIT CHAMPAGNE
     UNIVERSITY OF CALIFORNIA - SANTA BARBARA: BERNARD KIRTMAN
     INSTITUTE FOR MOLECULAR SCIENCE:
          KAZUYA ISHIMURA, MICHIO KATOUDA, AND SHIGERU NAGASE
     UNIVERSITY OF NOTRE DAME: ANNA POMOGAEVA, DAN CHIPMAN
     KYUSHU UNIVERSITY:
          HARUYUKI NAKANO,
          FENG LONG GU, JACEK KORCHOWIEC, MARCIN MAKOWSKI, AND YURIKO AOKI,
          HIROTOSHI MORI AND EISAKU MIYOSHI
     PENNSYLVANIA STATE UNIVERSITY:
          TZVETELIN IORDANOV, CHET SWALINA, JONATHAN SKONE,
          SHARON HAMMES-SCHIFFER
     WASEDA UNIVERSITY:
          MASATO KOBAYASHI, TOMOKO AKAMA, TSUGUKI TOUMA,
          TAKESHI YOSHIKAWA, YASUHIRO IKABATA, JUNJI SEINO,
          YUYA NAKAJIMA, HIROMI NAKAI
     NANJING UNIVERSITY: SHUHUA LI
     UNIVERSITY OF NEBRASKA:
          PEIFENG SU, DEJUN SI, NANDUN THELLAMUREGE, YALI WANG, HUI LI
     UNIVERSITY OF ZURICH: ROBERTO PEVERATI, KIM BALDRIDGE
     N. COPERNICUS UNIVERSITY AND JACKSON STATE UNIVERSITY:
          MARIA BARYSZ
     UNIVERSITY OF COPENHAGEN: Jimmy Kromann, CASPER STEINMANN
     TOKYO INSTITUTE OF TECHNOLOGY: HIROYA NAKATA
     NAGOYA UNIVERSITY: YOSHIO NISHIMOTO, STEPHAN IRLE
     MOSCOW STATE UNIVERSITY: VLADIMIR MIRONOV

 EXECUTION OF GAMESS BEGUN Fri Jun  2 00:59:42 2017

            ECHO OF THE FIRST FEW INPUT CARDS -
 INPUT CARD>Takes about 2 minutes on a 2.67GHz Sandy Bridge processor                       
 INPUT CARD>                                                                                
 INPUT CARD> -------------                                                                  
 INPUT CARD> ALL BASIS SET                                       HARTREE          KCAL/MOL  
 INPUT CARD> -------------                                                                  
 INPUT CARD> ELECTROSTATIC E.ERGY                  ES=         -0.234295           -147.02  
 INPUT CARD> EXCHANGE E.ERGY                       EX=         -0.309505           -194.22  
 INPUT CARD> REPULSION E.ERGY                     REP=          0.648591            407.00  
 INPUT CARD> POLARIZATION E.ERGY                  POL=         -0.236727           -148.55  
 INPUT CARD> MP2 DISPERSION E.ERGY               DISP=         -0.040920            -25.68  
 INPUT CARD> TOTAL INTERACTION E.ERGY HF OR DFT     E=         -0.131936            -82.79  
 INPUT CARD> TOTAL INTERACTION E.ERGY MP2           E=         -0.172856           -108.47  
 INPUT CARD>                                                                                
 INPUT CARD>                                                                                
 INPUT CARD> $CONTRL SCFTYP=ROHF RUNTYP=eda mult=1 ICHARG=0 mplevl=2 ispher=1 $end          
 INPUT CARD> $SYSTEM MWORDS=50 MEMDDI=0 $END                                                
 INPUT CARD> $LMOEDA MATOM(1)=4 4 MCHARG(1)=0 0 MMULT(1)=2 -2 $END                          
 INPUT CARD> $BASIS  GBASIS=accd $END                                                       
 INPUT CARD> $SCF    DIIS=.T. SOSCF=.F. DIRSCF=.T. FDIFF=.F. NPUNCH=1 $END                  
 INPUT CARD> $DATA                                                                          
 INPUT CARD>rotated by 60 degrees from mp2/accq staggered geometry                          
 INPUT CARD>C1                                                                              
 INPUT CARD>C     6.0    -0.49027225     0.46910772    -0.00444996                          
 INPUT CARD>H     1.0    -0.22655283     1.07803512     0.85698873                          
 INPUT CARD>H     1.0    -1.10423672    -0.35536841     0.35016090                          
 INPUT CARD>H     1.0    -1.10425293     1.07811451    -0.66366345                          
 INPUT CARD>C     6.0     0.75166166    -0.03806581    -0.72153479                          
 INPUT CARD>H     1.0     0.78037816    -1.12496066    -0.73800385                          
 INPUT CARD>H     1.0     1.65830922     0.30850673    -0.23127511                          
 INPUT CARD>H     1.0     0.78075457     0.30863136    -1.75175524                          
 INPUT CARD> $END                                                                           
   50000000 WORDS OF MEMORY AVAILABLE

     BASIS OPTIONS
     -------------
     GBASIS=ACCD         IGAUSS=       0      POLAR=NONE    
     NDFUNC=       0     NFFUNC=       0     DIFFSP=       F
     NPFUNC=       0      DIFFS=       F     BASNAM=        


     RUN TITLE
     ---------
 rotated by 60 degrees from mp2/accq staggered geometry                          

 THE POINT GROUP OF THE MOLECULE IS C1      
 THE ORDER OF THE PRINCIPAL AXIS IS     0

 ATOM      ATOMIC                      COORDINATES (BOHR)
           CHARGE         X                   Y                   Z
 C           6.0    -0.9264802119        0.8864850495       -0.0084092051
 H           1.0    -0.4281227704        2.0371909819        1.6194738743
 H           1.0    -2.0867048264       -0.6715489196        0.6617081526
 H           1.0    -2.0867354588        2.0373410073       -1.2541420686
 C           6.0     1.4204345729       -0.0719339504       -1.3635030437
 H           1.0     1.4747008892       -2.1258673944       -1.3946250544
 H           1.0     3.1337500287        0.5829931851       -0.4370465857
 H           1.0     1.4754122010        0.5832287016       -3.3103374012

          INTERNUCLEAR DISTANCES (ANGS.)
          ------------------------------

                1 C          2 H          3 H          4 H          5 C     

   1 C       0.0000000    1.0873901 *  1.0874107 *  1.0873932 *  1.5211297 *
   2 H       1.0873901 *  0.0000000    1.7555196 *  1.7557735 *  2.1666383 *
   3 H       1.0874107 *  1.7555196 *  0.0000000    1.7557657 *  2.1664652 *
   4 H       1.0873932 *  1.7557735 *  1.7557657 *  0.0000000    2.1664779 *
   5 C       1.5211297 *  2.1666383 *  2.1664652 *  2.1664779 *  0.0000000  
   6 H       2.1664967 *  2.9001900 *  2.3082781 *  2.9001553 *  1.0873989 *
   7 H       2.1664821 *  2.3085054 *  2.9000790 *  2.9001733 *  1.0874175 *
   8 H       2.1666420 *  2.9003785 *  2.9003688 *  2.3085280 *  1.0873819 *

                6 H          7 H          8 H     

   1 C       2.1664967 *  2.1664821 *  2.1666420 *
   2 H       2.9001900 *  2.3085054 *  2.9003785 *
   3 H       2.3082781 *  2.9000790 *  2.9003688 *
   4 H       2.9001553 *  2.9001733 *  2.3085280 *
   5 C       1.0873989 *  1.0874175 *  1.0873819 *
   6 H       0.0000000    1.7556667 *  1.7558127 *
   7 H       1.7556667 *  0.0000000    1.7555518 *
   8 H       1.7558127 *  1.7555518 *  0.0000000  

  * ... LESS THAN  3.000


     ATOMIC BASIS SET
     ----------------
 THE CONTRACTED PRIMITIVE FUNCTIONS HAVE BEEN UNNORMALIZED
 THE CONTRACTED BASIS FUNCTIONS ARE NOW NORMALIZED TO UNITY

  SHELL TYPE  PRIMITIVE        EXPONENT          CONTRACTION COEFFICIENT(S)

 C         

      1   S       1          6665.0000000    0.000691583963
      1   S       2          1000.0000000    0.005325796153
      1   S       3           228.0000000    0.027060721042
      1   S       4            64.7100000    0.101656846141
      1   S       5            21.0600000    0.274574823617
      1   S       6             7.4950000    0.448294318924
      1   S       7             2.7970000    0.284902610715
      1   S       8             0.5215000    0.015194859206

      2   S       9          6665.0000000   -0.000293269653
      2   S      10          1000.0000000   -0.002318035474
      2   S      11           228.0000000   -0.011499786039
      2   S      12            64.7100000   -0.046826727010
      2   S      13            21.0600000   -0.128466168750
      2   S      14             7.4950000   -0.301266272463
      2   S      15             2.7970000   -0.255630702330
      2   S      16             0.5215000    1.093793361012

      3   S      17             0.1596000    1.000000000000

      4   P      18             9.4390000    0.056979251590
      4   P      19             2.0020000    0.313207211501
      4   P      20             0.5456000    0.760376741738

      5   P      21             0.1517000    1.000000000000

      6   D      22             0.5500000    1.000000000000

      7   S      23             0.0469000    1.000000000000

      8   P      24             0.0404100    1.000000000000

      9   D      25             0.1510000    1.000000000000

 H         

     10   S      26            13.0100000    0.033498726390
     10   S      27             1.9620000    0.234800801174
     10   S      28             0.4446000    0.813682957883

     11   S      29             0.1220000    1.000000000000

     12   P      30             0.7270000    1.000000000000

     13   S      31             0.0297400    1.000000000000

     14   P      32             0.1410000    1.000000000000

 H         

     15   S      33            13.0100000    0.033498726390
     15   S      34             1.9620000    0.234800801174
     15   S      35             0.4446000    0.813682957883

     16   S      36             0.1220000    1.000000000000

     17   P      37             0.7270000    1.000000000000

     18   S      38             0.0297400    1.000000000000

     19   P      39             0.1410000    1.000000000000

 H         

     20   S      40            13.0100000    0.033498726390
     20   S      41             1.9620000    0.234800801174
     20   S      42             0.4446000    0.813682957883

     21   S      43             0.1220000    1.000000000000

     22   P      44             0.7270000    1.000000000000

     23   S      45             0.0297400    1.000000000000

     24   P      46             0.1410000    1.000000000000

 C         

     25   S      47          6665.0000000    0.000691583963
     25   S      48          1000.0000000    0.005325796153
     25   S      49           228.0000000    0.027060721042
     25   S      50            64.7100000    0.101656846141
     25   S      51            21.0600000    0.274574823617
     25   S      52             7.4950000    0.448294318924
     25   S      53             2.7970000    0.284902610715
     25   S      54             0.5215000    0.015194859206

     26   S      55          6665.0000000   -0.000293269653
     26   S      56          1000.0000000   -0.002318035474
     26   S      57           228.0000000   -0.011499786039
     26   S      58            64.7100000   -0.046826727010
     26   S      59            21.0600000   -0.128466168750
     26   S      60             7.4950000   -0.301266272463
     26   S      61             2.7970000   -0.255630702330
     26   S      62             0.5215000    1.093793361012

     27   S      63             0.1596000    1.000000000000

     28   P      64             9.4390000    0.056979251590
     28   P      65             2.0020000    0.313207211501
     28   P      66             0.5456000    0.760376741738

     29   P      67             0.1517000    1.000000000000

     30   D      68             0.5500000    1.000000000000

     31   S      69             0.0469000    1.000000000000

     32   P      70             0.0404100    1.000000000000

     33   D      71             0.1510000    1.000000000000

 H         

     34   S      72            13.0100000    0.033498726390
     34   S      73             1.9620000    0.234800801174
     34   S      74             0.4446000    0.813682957883

     35   S      75             0.1220000    1.000000000000

     36   P      76             0.7270000    1.000000000000

     37   S      77             0.0297400    1.000000000000

     38   P      78             0.1410000    1.000000000000

 H         

     39   S      79            13.0100000    0.033498726390
     39   S      80             1.9620000    0.234800801174
     39   S      81             0.4446000    0.813682957883

     40   S      82             0.1220000    1.000000000000

     41   P      83             0.7270000    1.000000000000

     42   S      84             0.0297400    1.000000000000

     43   P      85             0.1410000    1.000000000000

 H         

     44   S      86            13.0100000    0.033498726390
     44   S      87             1.9620000    0.234800801174
     44   S      88             0.4446000    0.813682957883

     45   S      89             0.1220000    1.000000000000

     46   P      90             0.7270000    1.000000000000

     47   S      91             0.0297400    1.000000000000

     48   P      92             0.1410000    1.000000000000

 TOTAL NUMBER OF BASIS SET SHELLS             =   48
 NUMBER OF CARTESIAN GAUSSIAN BASIS FUNCTIONS =  104
 NOTE: THIS RUN WILL RESTRICT THE MO VARIATION SPACE TO SPHERICAL HARMONICS.
 THE NUMBER OF ORBITALS KEPT IN THE VARIATIONAL SPACE WILL BE PRINTED LATER.
 NUMBER OF ELECTRONS                          =   18
 CHARGE OF MOLECULE                           =    0
 SPIN MULTIPLICITY                            =    1
 NUMBER OF OCCUPIED ORBITALS (ALPHA)          =    9
 NUMBER OF OCCUPIED ORBITALS (BETA )          =    9
 TOTAL NUMBER OF ATOMS                        =    8
 THE NUCLEAR REPULSION ENERGY IS       42.4270079524

     $CONTRL OPTIONS
     ---------------
 SCFTYP=ROHF         RUNTYP=LMOEDA       EXETYP=RUN     
 MPLEVL=       2     CITYP =NONE         CCTYP =NONE         VBTYP =NONE    
 DFTTYP=NONE         TDDFT =NONE    
 MULT  =       1     ICHARG=       0     NZVAR =       0     COORD =UNIQUE  
 PP    =NONE         RELWFN=NONE         LOCAL =NONE         NUMGRD=       F
 ISPHER=       1     NOSYM =       0     MAXIT =      30     UNITS =ANGS    
 PLTORB=       F     MOLPLT=       F     AIMPAC=       F     FRIEND=        
 NPRINT=       7     IREST =       0     GEOM  =INPUT   
 NORMF =       0     NORMP =       0     ITOL  =      20     ICUT  =       9
 INTTYP=BEST         GRDTYP=BEST         QMTTOL= 1.0E-06

     $SYSTEM OPTIONS
     ---------------
  REPLICATED MEMORY=    50000000 WORDS (ON EVERY NODE).
 DISTRIBUTED MEMDDI=           0 MILLION WORDS IN AGGREGATE,
 MEMDDI DISTRIBUTED OVER   1 PROCESSORS IS           0 WORDS/PROCESSOR.
 TOTAL MEMORY REQUESTED ON EACH PROCESSOR=    50000000 WORDS.
 TIMLIM=      525600.00 MINUTES, OR     365.0 DAYS.
 PARALL= F  BALTYP=  DLB     KDIAG=    0  COREFL= F
 MXSEQ2=     300 MXSEQ3=     150  mem10=         0

          ----------------
          PROPERTIES INPUT
          ----------------

     MOMENTS            FIELD           POTENTIAL          DENSITY
 IEMOM =       1   IEFLD =       0   IEPOT =       0   IEDEN =       0
 WHERE =COMASS     WHERE =NUCLEI     WHERE =NUCLEI     WHERE =NUCLEI  
 OUTPUT=BOTH       OUTPUT=BOTH       OUTPUT=BOTH       OUTPUT=BOTH    
 IEMINT=       0   IEFINT=       0                     IEDINT=       0
                                                       MORB  =       0
          EXTRAPOLATION IN EFFECT
          DIIS IN EFFECT
 ORBITAL PRINTING OPTION: NPREO=     1   104     2     1

     -------------------------------
     INTEGRAL TRANSFORMATION OPTIONS
     -------------------------------
     NWORD  =            0
     CUTOFF = 1.0E-09     MPTRAN =       0
     DIRTRF =       T     AOINTS =DUP     

          -----------------------------
          LOCALIZATION INPUT PARAMETERS
          -----------------------------
           LOCAL=RUEDNBRG      NOUTA=       0
          PRTLOC=       F      NOUTB=       0
          MAXLOC=     250     CVGLOC=1.00E-06
           FCORE=       F     SYMLOC=       F
          MOIDON=       F     EDCOMP=       F
          DIPDCM=       F      NPROT=       0
          QADDCM=       F     DEPRNT=       F
          POLNUM=       F     ORIENT=       F
          POLDYN=       F      VMTOL=1.50E-01
          NPRDTL=       2

          ----------------------
          INTEGRAL INPUT OPTIONS
          ----------------------
 NOPK  =       1 NORDER=       0 SCHWRZ=       T

          -----------------------
          MP2 CONTROL INFORMATION
          -----------------------
          NACORE =        2  NBCORE =        2
          LMOMP2 =        F  AOINTS = DUP     
          METHOD =        2  NWORD  =               0
          MP2PRP =        F  OSPT   = ZAPT    
          CUTOFF = 1.00E-09  CPHFBS = BASISAO 
          CODE   = SERIAL  

          NUMBER OF CORE -A-  ORBITALS =     2
          NUMBER OF CORE -B-  ORBITALS =     2
          NUMBER OF OCC. -A-  ORBITALS =     9
          NUMBER OF OCC. -B-  ORBITALS =     9
          NUMBER OF MOLECULAR ORBITALS =   104
          NUMBER OF   BASIS  FUNCTIONS =   104


     ------------------------------------------
     THE POINT GROUP IS C1 , NAXIS= 0, ORDER= 1
     ------------------------------------------

 -- VARIATIONAL SPACE WILL BE RESTRICTED TO PURE SPHERICAL HARMONICS ONLY --
 AFTER EXCLUDING CONTAMINANT COMBINATIONS FROM THE CARTESIAN GAUSSIAN BASIS
 SET, THE NUMBER OF SPHERICAL HARMONICS KEPT IN THE VARIATION SPACE IS  100

     DIMENSIONS OF THE SYMMETRY SUBSPACES ARE
 A   =  100

 ..... DONE SETTING UP THE RUN .....
 STEP CPU TIME =     0.01 TOTAL CPU TIME =        0.0 (    0.0 MIN)
 TOTAL WALL CLOCK TIME=        0.0 SECONDS, CPU UTILIZATION IS  33.33%

          ********************
          1 ELECTRON INTEGRALS
          ********************
 ...... END OF ONE-ELECTRON INTEGRALS ......
 STEP CPU TIME =     0.02 TOTAL CPU TIME =        0.0 (    0.0 MIN)
 TOTAL WALL CLOCK TIME=        0.0 SECONDS, CPU UTILIZATION IS  75.00%

          -------------
          GUESS OPTIONS
          -------------
          GUESS =HUCKEL            NORB  =       0          NORDER=       0
          MIX   =       F          PRTMO =       F          PUNMO =       F
          TOLZ  = 1.0E-08          TOLE  = 1.0E-05
          SYMDEN=       F          PURIFY=       F

 INITIAL GUESS ORBITALS GENERATED BY HUCKEL   ROUTINE.
 HUCKEL GUESS REQUIRES     84856 WORDS.

 STATISTICS FOR GENERATION OF SYMMETRY ORBITAL -Q- MATRIX
 NUMBER OF CARTESIAN ATOMIC ORBITALS=        104
 NUMBER OF SPHERICAL CONTAMINANTS DROPPED=     4
 NUMBER OF LINEARLY DEPENDENT MOS DROPPED=     0
 TOTAL NUMBER OF MOS IN VARIATION SPACE=     100

 SYMMETRIES FOR INITIAL GUESS ORBITALS FOLLOW.  ALPHA SET(S).
     9 ORBITALS ARE OCCUPIED (    2 CORE ORBITALS).
     3=A        4=A        5=A        6=A        7=A        8=A        9=A   
    10=A       11=A       12=A       13=A       14=A       15=A       16=A   
    17=A       18=A       19=A   

 SYMMETRIES FOR INITIAL GUESS ORBITALS FOLLOW.   BETA SET(S).
     9 ORBITALS ARE OCCUPIED (    2 CORE ORBITALS).
     3=A        4=A        5=A        6=A        7=A        8=A        9=A   
    10=A       11=A       12=A       13=A       14=A       15=A       16=A   
    17=A       18=A       19=A   
 ...... END OF INITIAL ORBITAL SELECTION ......
 STEP CPU TIME =     0.01 TOTAL CPU TIME =        0.0 (    0.0 MIN)
 TOTAL WALL CLOCK TIME=        0.0 SECONDS, CPU UTILIZATION IS  80.00%


          ***************************************
          *  CMO ENERGY DECOMPOSITION ANALYSIS  *
          *      - PEIFENG SU AND HUI LI -      *
          ***************************************



 =======================================================================
 LMOEDA/CMOEDA PERFORMS THE FOLLOWING CALCULATIONS:
 1. HF/DFT/MP2/CCSD/CCSD(T) FOR MONOMERS WITH
         MONOMERS OWN BASIS FUNCTIONS
         ALL BASIS FUNCTIONS (IF SUPBAS=.T.)
 2. ELECTROSTATIC ENERGY WITH HF/DFT DENSITY OF THE MONOMERS
 3. EXCHANGE ENERGY WITH HF/DFT MO OF THE MONOMERS
 4. SUPER MOLECULE ENERGY WITH ANTISYMMETRIZED HF/DFT MO OF THE MONOMERS
 5. HF/DFT/MP2/CCSD/CCSD(T) FOR THE SUPER MOLECULE
 =======================================================================

          ********************
          1 ELECTRON INTEGRALS
          ********************
 ...... END OF ONE-ELECTRON INTEGRALS ......
 STEP CPU TIME =     0.00 TOTAL CPU TIME =        0.0 (    0.0 MIN)
 TOTAL WALL CLOCK TIME=        0.0 SECONDS, CPU UTILIZATION IS  80.00%

          -------------
          GUESS OPTIONS
          -------------
          GUESS =HUCKEL            NORB  =       0          NORDER=       0
          MIX   =       F          PRTMO =       F          PUNMO =       F
          TOLZ  = 1.0E-08          TOLE  = 1.0E-05
          SYMDEN=       F          PURIFY=       F

 INITIAL GUESS ORBITALS GENERATED BY HUCKEL   ROUTINE.
 HUCKEL GUESS REQUIRES     84856 WORDS.

 STATISTICS FOR GENERATION OF SYMMETRY ORBITAL -Q- MATRIX
 NUMBER OF CARTESIAN ATOMIC ORBITALS=        104
 NUMBER OF SPHERICAL CONTAMINANTS DROPPED=     4
 NUMBER OF LINEARLY DEPENDENT MOS DROPPED=     0
 TOTAL NUMBER OF MOS IN VARIATION SPACE=     100

 SYMMETRIES FOR INITIAL GUESS ORBITALS FOLLOW.  ALPHA SET(S).
     9 ORBITALS ARE OCCUPIED (    2 CORE ORBITALS).
     3=A        4=A        5=A        6=A        7=A        8=A        9=A   
    10=A       11=A       12=A       13=A       14=A       15=A       16=A   
    17=A       18=A       19=A   

 SYMMETRIES FOR INITIAL GUESS ORBITALS FOLLOW.   BETA SET(S).
     9 ORBITALS ARE OCCUPIED (    2 CORE ORBITALS).
     3=A        4=A        5=A        6=A        7=A        8=A        9=A   
    10=A       11=A       12=A       13=A       14=A       15=A       16=A   
    17=A       18=A       19=A   
 ...... END OF INITIAL ORBITAL SELECTION ......
 STEP CPU TIME =     0.01 TOTAL CPU TIME =        0.0 (    0.0 MIN)
 TOTAL WALL CLOCK TIME=        0.1 SECONDS, CPU UTILIZATION IS  71.43%

          -------------------------
          MONOMER  1 WITH OWN BASIS
          -------------------------

     ------------------------------------------
     THE POINT GROUP IS C1 , NAXIS= 0, ORDER= 1
     ------------------------------------------

 -- VARIATIONAL SPACE WILL BE RESTRICTED TO PURE SPHERICAL HARMONICS ONLY --
 AFTER EXCLUDING CONTAMINANT COMBINATIONS FROM THE CARTESIAN GAUSSIAN BASIS
 SET, THE NUMBER OF SPHERICAL HARMONICS KEPT IN THE VARIATION SPACE IS   50

     DIMENSIONS OF THE SYMMETRY SUBSPACES ARE
 A   =   50

          -----------------------
          MP2 CONTROL INFORMATION
          -----------------------
          NACORE =        1  NBCORE =        1
          LMOMP2 =        F  AOINTS = DUP     
          METHOD =        2  NWORD  =               0
          MP2PRP =        F  OSPT   = ZAPT    
          CUTOFF = 1.00E-09  CPHFBS = BASISAO 
          CODE   = SERIAL  

          NUMBER OF CORE -A-  ORBITALS =     1
          NUMBER OF CORE -B-  ORBITALS =     1
          NUMBER OF OCC. -A-  ORBITALS =     5
          NUMBER OF OCC. -B-  ORBITALS =     4
          NUMBER OF MOLECULAR ORBITALS =    52
          NUMBER OF   BASIS  FUNCTIONS =    52

 ...... END OF ONE-ELECTRON INTEGRALS ......
 STEP CPU TIME =     0.01 TOTAL CPU TIME =        0.1 (    0.0 MIN)
 TOTAL WALL CLOCK TIME=        0.1 SECONDS, CPU UTILIZATION IS  85.71%

          -------------
          GUESS OPTIONS
          -------------
          GUESS =HUCKEL            NORB  =       0          NORDER=       0
          MIX   =       F          PRTMO =       F          PUNMO =       F
          TOLZ  = 1.0E-08          TOLE  = 1.0E-05
          SYMDEN=       F          PURIFY=       F

 INITIAL GUESS ORBITALS GENERATED BY HUCKEL   ROUTINE.
 HUCKEL GUESS REQUIRES     22892 WORDS.

 SYMMETRIES FOR INITIAL GUESS ORBITALS FOLLOW.  ALPHA SET(S).
     5 ORBITALS ARE OCCUPIED (    1 CORE ORBITALS).
     2=A        3=A        4=A        5=A        6=A        7=A        8=A   
     9=A       10=A       11=A       12=A       13=A       14=A       15=A   

 SYMMETRIES FOR INITIAL GUESS ORBITALS FOLLOW.   BETA SET(S).
     4 ORBITALS ARE OCCUPIED (    1 CORE ORBITALS).
     2=A        3=A        4=A        5=A        6=A        7=A        8=A   
     9=A       10=A       11=A       12=A       13=A       14=A   
 ...... END OF INITIAL ORBITAL SELECTION ......
 STEP CPU TIME =     0.00 TOTAL CPU TIME =        0.1 (    0.0 MIN)
 TOTAL WALL CLOCK TIME=        0.1 SECONDS, CPU UTILIZATION IS  85.71%

                    ----------------------
                    AO INTEGRAL TECHNOLOGY
                    ----------------------
     S,P,L SHELL ROTATED AXIS INTEGRALS, REPROGRAMMED BY
        KAZUYA ISHIMURA (IMS) AND JOSE SIERRA (SYNSTAR).
     S,P,D,L SHELL ROTATED AXIS INTEGRALS PROGRAMMED BY
        KAZUYA ISHIMURA (INSTITUTE FOR MOLECULAR SCIENCE).
     S,P,D,F,G SHELL TO TOTAL QUARTET ANGULAR MOMENTUM SUM 5,
        ERIC PROGRAM BY GRAHAM FLETCHER (ELORET AND NASA ADVANCED
        SUPERCOMPUTING DIVISION, AMES RESEARCH CENTER).
     S,P,D,F,G,L SHELL GENERAL RYS QUADRATURE PROGRAMMED BY
        MICHEL DUPUIS (PACIFIC NORTHWEST NATIONAL LABORATORY).
  ...... END OF TWO-ELECTRON INTEGRALS .....
 STEP CPU TIME =     0.02 TOTAL CPU TIME =        0.1 (    0.0 MIN)
 TOTAL WALL CLOCK TIME=        0.1 SECONDS, CPU UTILIZATION IS  88.89%

          ---------------------------
                 ROHF SCF CALCULATION
          ---------------------------
     DENSITY MATRIX CONV=  2.00E-06

 DIRECT SCF CALCULATION, SCHWRZ=T   FDIFF=F

                                                                                NONZERO     BLOCKS
 ITER EX      TOTAL ENERGY        E CHANGE  DENSITY CHANGE    DIIS ERROR      INTEGRALS    SKIPPED
          * * *   INITIATING DIIS PROCEDURE   * * *
   1  0      -39.4499169924   -39.4499169924   0.328450343   0.469578509         902632          0
   2  1      -39.5463700400    -0.0964530476   0.053416238   0.027150092         902632          0
   3  2      -39.5488461667    -0.0024761267   0.011076793   0.007820272         902632          0
   4  3      -39.5490119314    -0.0001657647   0.010416791   0.001183026         902632          0
   5  4      -39.5490251075    -0.0000131761   0.008134481   0.000510749         902632          0
   6  5      -39.5490289991    -0.0000038916   0.002467385   0.000129554         902632          0
   7  6      -39.5490292105    -0.0000002114   0.000428011   0.000025416         902632          0
   8  7      -39.5490292175    -0.0000000070   0.000007825   0.000004700         902632          0
   9  8      -39.5490292176    -0.0000000001   0.000007841   0.000000883         902632          0
  10  9      -39.5490292176    -0.0000000000   0.000002648   0.000000261         902632          0
  11 10      -39.5490292176    -0.0000000000   0.000000294   0.000000048         902632          0

          -----------------
          DENSITY CONVERGED
          -----------------
     TIME TO FORM FOCK OPERATORS=       0.8 SECONDS (       0.1 SEC/ITER)
     FOCK TIME ON FIRST ITERATION=       0.1, LAST ITERATION=       0.1
     TIME TO SOLVE SCF EQUATIONS=       0.0 SECONDS (       0.0 SEC/ITER)

 FINAL ROHF ENERGY IS      -39.5490292176 AFTER  11 ITERATIONS

          --------------------
          SPIN SZ   =    0.500
          S-SQUARED =    0.750
          --------------------
 ...... END OF ROHF CALCULATION ......
 STEP CPU TIME =     0.84 TOTAL CPU TIME =        0.9 (    0.0 MIN)
 TOTAL WALL CLOCK TIME=        0.9 SECONDS, CPU UTILIZATION IS  97.87%

 -------------------------------     -----------------------------
 2ND-ORDER ZAPT SINGLE POINT MP2     PROGRAM WRITTEN BY R. L. BELL
 -------------------------------     -----------------------------
 NUMBER OF CORE MOS=   1
 NUMBER OF DOUBLY OCCUPIED MOS=    3
 NUMBER OF SINGLY OCCUPIED MOS=    1
 NUMBER OF VIRTUAL MOS=   45

 THIS IS A DIRECT CALCULATION

 MEMORY REQUIREMENTS FOR ZAPT TRANSFORMATIONS
   MINIMUM=         155724 WORDS FOR 1 MOLECULAR ORBITAL PER PASS
   MAXIMUM=         299036 WORDS FOR MAKING ONLY 1 INTEGRAL PASS

   TOTAL MEMORY USED =          299036

 START TRANSFORMATION OF ALL-SINGLES INTEGRALS
     TIME FOR ALL-SINGLES TRANSFORMATION TOOK        0.08 SECONDS.

 START EVALUATION OF TERM 7 INTEGRALS AND ENERGY
     TIME FOR TERM 7 TOOK        0.00 SECONDS.

 START OF PASSES OVER DOUBLY OCCUPIED MOS
    NUMBER OF MOS/PASS =    3
    NUMBER OF PASSES   =    1
 CLOSED-SHELL PASS #   1 TOOK        0.09 SECONDS.

        E1 = -0.0974277733   CLOSED SHELL-LIKE TERM
        E2 = -0.0050490336   SINGLY UNOCCUPIED
        E3 =  0.0000000000   2 SINGLY OCCUPIED
        E4 = -0.0024817039   SINGLY UNOCCUPIED/OCCUPIED
        E5 = -0.0016746462   "FOCK MATRIX CONTRIBUTION"
        E6 = -0.0274469924   SINGLY OCCUPIED
        E7 =  0.0000000000   2 SINGLY UNOCCUPIED
   -----------------------
   E(ZAPT) = -0.1340801494

 RESULTS OF 2ND-ORDER ZAPT CORRECTION
           E(HF)   =       -39.5490292176
           E(ZAPT) =        -0.1340801494
      -----------------------------------
           E(MP2)  =       -39.6831093670

 ..... DONE WITH MP2 ENERGY .....
 STEP CPU TIME =     0.17 TOTAL CPU TIME =        1.1 (    0.0 MIN)
 TOTAL WALL CLOCK TIME=        1.1 SECONDS, CPU UTILIZATION IS  98.20%

          ---------------------------------------
          EDMISTON-RUEDENBERG ENERGY LOCALIZATION
          ---------------------------------------
          C.EDMISTON AND K.RUEDENBERG, REV.MOD.PHYS. 35, 457-465 (1963)

          ---------------------------------------
          EDMISTON-RUEDENBERG ENERGY LOCALIZATION
          ---------------------------------------
          C.EDMISTON AND K.RUEDENBERG, REV.MOD.PHYS. 35, 457-465 (1963)

 THIS LOCALIZATION REQUIRES     38394 WORDS OF MEMORY.
 THIS LOCALIZATION HAS    5 ORBITALS, OF WHICH   0 ARE FROZEN.
 ... DONE WITH ENERGY LOCALIZATION ...
 STEP CPU TIME =     0.10 TOTAL CPU TIME =        1.2 (    0.0 MIN)
 TOTAL WALL CLOCK TIME=        1.2 SECONDS, CPU UTILIZATION IS  99.17%

          ---------------------------------------
          EDMISTON-RUEDENBERG ENERGY LOCALIZATION
          ---------------------------------------
          C.EDMISTON AND K.RUEDENBERG, REV.MOD.PHYS. 35, 457-465 (1963)

 ***** ALPHA ORBITAL LOCALIZATION *****

          ---------------------------------------
          EDMISTON-RUEDENBERG ENERGY LOCALIZATION
          ---------------------------------------
          C.EDMISTON AND K.RUEDENBERG, REV.MOD.PHYS. 35, 457-465 (1963)

 ***** ALPHA ORBITAL LOCALIZATION *****

 THIS LOCALIZATION REQUIRES     38394 WORDS OF MEMORY.
 THIS LOCALIZATION HAS    5 ORBITALS, OF WHICH   0 ARE FROZEN.

 ****** BETA ORBITAL LOCALIZATION *****

          ---------------------------------------
          EDMISTON-RUEDENBERG ENERGY LOCALIZATION
          ---------------------------------------
          C.EDMISTON AND K.RUEDENBERG, REV.MOD.PHYS. 35, 457-465 (1963)

 ****** BETA ORBITAL LOCALIZATION *****

 THIS LOCALIZATION REQUIRES     38293 WORDS OF MEMORY.
 THIS LOCALIZATION HAS    4 ORBITALS, OF WHICH   0 ARE FROZEN.
 ... DONE WITH ENERGY LOCALIZATION ...
 STEP CPU TIME =     0.18 TOTAL CPU TIME =        1.4 (    0.0 MIN)
 TOTAL WALL CLOCK TIME=        1.4 SECONDS, CPU UTILIZATION IS  99.28%

          ---------------------------------------
          EDMISTON-RUEDENBERG ENERGY LOCALIZATION
          ---------------------------------------
          C.EDMISTON AND K.RUEDENBERG, REV.MOD.PHYS. 35, 457-465 (1963)

          ---------------------------------------
          EDMISTON-RUEDENBERG ENERGY LOCALIZATION
          ---------------------------------------
          C.EDMISTON AND K.RUEDENBERG, REV.MOD.PHYS. 35, 457-465 (1963)

 THIS LOCALIZATION REQUIRES     39523 WORDS OF MEMORY.
 THIS LOCALIZATION HAS    9 ORBITALS, OF WHICH   0 ARE FROZEN.
 ... DONE WITH ENERGY LOCALIZATION ...
 STEP CPU TIME =     0.10 TOTAL CPU TIME =        1.5 (    0.0 MIN)
 TOTAL WALL CLOCK TIME=        1.5 SECONDS, CPU UTILIZATION IS  99.32%

          -------------------------
          MONOMER  2 WITH OWN BASIS
          -------------------------

     ------------------------------------------
     THE POINT GROUP IS C1 , NAXIS= 0, ORDER= 1
     ------------------------------------------

 -- VARIATIONAL SPACE WILL BE RESTRICTED TO PURE SPHERICAL HARMONICS ONLY --
 AFTER EXCLUDING CONTAMINANT COMBINATIONS FROM THE CARTESIAN GAUSSIAN BASIS
 SET, THE NUMBER OF SPHERICAL HARMONICS KEPT IN THE VARIATION SPACE IS   50

     DIMENSIONS OF THE SYMMETRY SUBSPACES ARE
 A   =   50

          -----------------------
          MP2 CONTROL INFORMATION
          -----------------------
          NACORE =        1  NBCORE =        1
          LMOMP2 =        F  AOINTS = DUP     
          METHOD =        2  NWORD  =               0
          MP2PRP =        F  OSPT   = ZAPT    
          CUTOFF = 1.00E-09  CPHFBS = BASISAO 
          CODE   = SERIAL  

          NUMBER OF CORE -A-  ORBITALS =     1
          NUMBER OF CORE -B-  ORBITALS =     1
          NUMBER OF OCC. -A-  ORBITALS =     5
          NUMBER OF OCC. -B-  ORBITALS =     4
          NUMBER OF MOLECULAR ORBITALS =    52
          NUMBER OF   BASIS  FUNCTIONS =    52

 ...... END OF ONE-ELECTRON INTEGRALS ......
 STEP CPU TIME =     0.00 TOTAL CPU TIME =        1.5 (    0.0 MIN)
 TOTAL WALL CLOCK TIME=        1.5 SECONDS, CPU UTILIZATION IS  98.66%

          -------------
          GUESS OPTIONS
          -------------
          GUESS =HUCKEL            NORB  =       0          NORDER=       0
          MIX   =       F          PRTMO =       F          PUNMO =       F
          TOLZ  = 1.0E-08          TOLE  = 1.0E-05
          SYMDEN=       F          PURIFY=       F

 INITIAL GUESS ORBITALS GENERATED BY HUCKEL   ROUTINE.
 HUCKEL GUESS REQUIRES     22892 WORDS.

 SYMMETRIES FOR INITIAL GUESS ORBITALS FOLLOW.  ALPHA SET(S).
     5 ORBITALS ARE OCCUPIED (    1 CORE ORBITALS).
     2=A        3=A        4=A        5=A        6=A        7=A        8=A   
     9=A       10=A       11=A       12=A       13=A       14=A       15=A   

 SYMMETRIES FOR INITIAL GUESS ORBITALS FOLLOW.   BETA SET(S).
     4 ORBITALS ARE OCCUPIED (    1 CORE ORBITALS).
     2=A        3=A        4=A        5=A        6=A        7=A        8=A   
     9=A       10=A       11=A       12=A       13=A       14=A   
 ...... END OF INITIAL ORBITAL SELECTION ......
 STEP CPU TIME =     0.00 TOTAL CPU TIME =        1.5 (    0.0 MIN)
 TOTAL WALL CLOCK TIME=        1.5 SECONDS, CPU UTILIZATION IS  98.66%
  ...... END OF TWO-ELECTRON INTEGRALS .....
 STEP CPU TIME =     0.00 TOTAL CPU TIME =        1.5 (    0.0 MIN)
 TOTAL WALL CLOCK TIME=        1.5 SECONDS, CPU UTILIZATION IS  98.66%

          ---------------------------
                 ROHF SCF CALCULATION
          ---------------------------
     DENSITY MATRIX CONV=  2.00E-06

 DIRECT SCF CALCULATION, SCHWRZ=T   FDIFF=F

                                                                                NONZERO     BLOCKS
 ITER EX      TOTAL ENERGY        E CHANGE  DENSITY CHANGE    DIIS ERROR      INTEGRALS    SKIPPED
          * * *   INITIATING DIIS PROCEDURE   * * *
   1  0      -39.4499147491   -39.4499147491   0.328450165   0.469578081         902625          0
   2  1      -39.5463681587    -0.0964534096   0.053409787   0.027150228         902625          0
   3  2      -39.5488442758    -0.0024761171   0.011012480   0.007820426         902625          0
   4  3      -39.5490100371    -0.0001657614   0.010416021   0.001183064         902625          0
   5  4      -39.5490232139    -0.0000131768   0.008133893   0.000510761         902625          0
   6  5      -39.5490271059    -0.0000038919   0.002467255   0.000129553         902625          0
   7  6      -39.5490273173    -0.0000002114   0.000427991   0.000025417         902625          0
   8  7      -39.5490273243    -0.0000000070   0.000007815   0.000004693         902625          0
   9  8      -39.5490273244    -0.0000000001   0.000007834   0.000000882         902625          0
  10  9      -39.5490273244    -0.0000000000   0.000002649   0.000000261         902625          0
  11 10      -39.5490273244    -0.0000000000   0.000000294   0.000000048         902625          0

          -----------------
          DENSITY CONVERGED
          -----------------
     TIME TO FORM FOCK OPERATORS=       0.8 SECONDS (       0.1 SEC/ITER)
     FOCK TIME ON FIRST ITERATION=       0.1, LAST ITERATION=       0.1
     TIME TO SOLVE SCF EQUATIONS=       0.0 SECONDS (       0.0 SEC/ITER)

 FINAL ROHF ENERGY IS      -39.5490273244 AFTER  11 ITERATIONS

          --------------------
          SPIN SZ   =    0.500
          S-SQUARED =    0.750
          --------------------
 ...... END OF ROHF CALCULATION ......
 STEP CPU TIME =     0.85 TOTAL CPU TIME =        2.3 (    0.0 MIN)
 TOTAL WALL CLOCK TIME=        2.3 SECONDS, CPU UTILIZATION IS  99.15%

 -------------------------------     -----------------------------
 2ND-ORDER ZAPT SINGLE POINT MP2     PROGRAM WRITTEN BY R. L. BELL
 -------------------------------     -----------------------------
 NUMBER OF CORE MOS=   1
 NUMBER OF DOUBLY OCCUPIED MOS=    3
 NUMBER OF SINGLY OCCUPIED MOS=    1
 NUMBER OF VIRTUAL MOS=   45

 THIS IS A DIRECT CALCULATION

 MEMORY REQUIREMENTS FOR ZAPT TRANSFORMATIONS
   MINIMUM=         155724 WORDS FOR 1 MOLECULAR ORBITAL PER PASS
   MAXIMUM=         299036 WORDS FOR MAKING ONLY 1 INTEGRAL PASS

   TOTAL MEMORY USED =          299036

 START TRANSFORMATION OF ALL-SINGLES INTEGRALS
     TIME FOR ALL-SINGLES TRANSFORMATION TOOK        0.08 SECONDS.

 START EVALUATION OF TERM 7 INTEGRALS AND ENERGY
     TIME FOR TERM 7 TOOK        0.00 SECONDS.

 START OF PASSES OVER DOUBLY OCCUPIED MOS
    NUMBER OF MOS/PASS =    3
    NUMBER OF PASSES   =    1
 CLOSED-SHELL PASS #   1 TOOK        0.09 SECONDS.

        E1 = -0.0974280198   CLOSED SHELL-LIKE TERM
        E2 = -0.0050490595   SINGLY UNOCCUPIED
        E3 =  0.0000000000   2 SINGLY OCCUPIED
        E4 = -0.0024816652   SINGLY UNOCCUPIED/OCCUPIED
        E5 = -0.0016746233   "FOCK MATRIX CONTRIBUTION"
        E6 = -0.0274468615   SINGLY OCCUPIED
        E7 =  0.0000000000   2 SINGLY UNOCCUPIED
   -----------------------
   E(ZAPT) = -0.1340802294

 RESULTS OF 2ND-ORDER ZAPT CORRECTION
           E(HF)   =       -39.5490273244
           E(ZAPT) =        -0.1340802294
      -----------------------------------
           E(MP2)  =       -39.6831075538

 ..... DONE WITH MP2 ENERGY .....
 STEP CPU TIME =     0.17 TOTAL CPU TIME =        2.5 (    0.0 MIN)
 TOTAL WALL CLOCK TIME=        2.5 SECONDS, CPU UTILIZATION IS  99.20%

          ---------------------------------------
          EDMISTON-RUEDENBERG ENERGY LOCALIZATION
          ---------------------------------------
          C.EDMISTON AND K.RUEDENBERG, REV.MOD.PHYS. 35, 457-465 (1963)

          ---------------------------------------
          EDMISTON-RUEDENBERG ENERGY LOCALIZATION
          ---------------------------------------
          C.EDMISTON AND K.RUEDENBERG, REV.MOD.PHYS. 35, 457-465 (1963)

 THIS LOCALIZATION REQUIRES     38394 WORDS OF MEMORY.
 THIS LOCALIZATION HAS    5 ORBITALS, OF WHICH   0 ARE FROZEN.
 ... DONE WITH ENERGY LOCALIZATION ...
 STEP CPU TIME =     0.08 TOTAL CPU TIME =        2.6 (    0.0 MIN)
 TOTAL WALL CLOCK TIME=        2.6 SECONDS, CPU UTILIZATION IS  98.85%

          ---------------------------------------
          EDMISTON-RUEDENBERG ENERGY LOCALIZATION
          ---------------------------------------
          C.EDMISTON AND K.RUEDENBERG, REV.MOD.PHYS. 35, 457-465 (1963)

 ***** ALPHA ORBITAL LOCALIZATION *****

          ---------------------------------------
          EDMISTON-RUEDENBERG ENERGY LOCALIZATION
          ---------------------------------------
          C.EDMISTON AND K.RUEDENBERG, REV.MOD.PHYS. 35, 457-465 (1963)

 ***** ALPHA ORBITAL LOCALIZATION *****

 THIS LOCALIZATION REQUIRES     38394 WORDS OF MEMORY.
 THIS LOCALIZATION HAS    5 ORBITALS, OF WHICH   0 ARE FROZEN.

 ****** BETA ORBITAL LOCALIZATION *****

          ---------------------------------------
          EDMISTON-RUEDENBERG ENERGY LOCALIZATION
          ---------------------------------------
          C.EDMISTON AND K.RUEDENBERG, REV.MOD.PHYS. 35, 457-465 (1963)

 ****** BETA ORBITAL LOCALIZATION *****

 THIS LOCALIZATION REQUIRES     38293 WORDS OF MEMORY.
 THIS LOCALIZATION HAS    4 ORBITALS, OF WHICH   0 ARE FROZEN.
 ... DONE WITH ENERGY LOCALIZATION ...
 STEP CPU TIME =     0.18 TOTAL CPU TIME =        2.8 (    0.0 MIN)
 TOTAL WALL CLOCK TIME=        2.8 SECONDS, CPU UTILIZATION IS  98.92%

          ---------------------------------------
          EDMISTON-RUEDENBERG ENERGY LOCALIZATION
          ---------------------------------------
          C.EDMISTON AND K.RUEDENBERG, REV.MOD.PHYS. 35, 457-465 (1963)

          ---------------------------------------
          EDMISTON-RUEDENBERG ENERGY LOCALIZATION
          ---------------------------------------
          C.EDMISTON AND K.RUEDENBERG, REV.MOD.PHYS. 35, 457-465 (1963)

 THIS LOCALIZATION REQUIRES     39523 WORDS OF MEMORY.
 THIS LOCALIZATION HAS    9 ORBITALS, OF WHICH   0 ARE FROZEN.
 ... DONE WITH ENERGY LOCALIZATION ...
 STEP CPU TIME =     0.10 TOTAL CPU TIME =        2.8 (    0.0 MIN)
 TOTAL WALL CLOCK TIME=        2.9 SECONDS, CPU UTILIZATION IS  98.96%

     ------------------------------------------
     THE POINT GROUP IS C1 , NAXIS= 0, ORDER= 1
     ------------------------------------------

 -- VARIATIONAL SPACE WILL BE RESTRICTED TO PURE SPHERICAL HARMONICS ONLY --
 AFTER EXCLUDING CONTAMINANT COMBINATIONS FROM THE CARTESIAN GAUSSIAN BASIS
 SET, THE NUMBER OF SPHERICAL HARMONICS KEPT IN THE VARIATION SPACE IS  100

     DIMENSIONS OF THE SYMMETRY SUBSPACES ARE
 A   =  100

          -------------------------
          MONOMER  1 WITH ALL BASIS
          -------------------------

          -----------------------
          MP2 CONTROL INFORMATION
          -----------------------
          NACORE =        1  NBCORE =        1
          LMOMP2 =        F  AOINTS = DUP     
          METHOD =        2  NWORD  =               0
          MP2PRP =        F  OSPT   = ZAPT    
          CUTOFF = 1.00E-09  CPHFBS = BASISAO 
          CODE   = SERIAL  

          NUMBER OF CORE -A-  ORBITALS =     1
          NUMBER OF CORE -B-  ORBITALS =     1
          NUMBER OF OCC. -A-  ORBITALS =     5
          NUMBER OF OCC. -B-  ORBITALS =     4
          NUMBER OF MOLECULAR ORBITALS =   100
          NUMBER OF   BASIS  FUNCTIONS =   104

 ...... END OF ONE-ELECTRON INTEGRALS ......
 STEP CPU TIME =     0.01 TOTAL CPU TIME =        2.9 (    0.0 MIN)
 TOTAL WALL CLOCK TIME=        2.9 SECONDS, CPU UTILIZATION IS  99.31%

          -------------
          GUESS OPTIONS
          -------------
          GUESS =HUCKEL            NORB  =       0          NORDER=       0
          MIX   =       F          PRTMO =       F          PUNMO =       F
          TOLZ  = 1.0E-08          TOLE  = 1.0E-05
          SYMDEN=       F          PURIFY=       F

 INITIAL GUESS ORBITALS GENERATED BY HUCKEL   ROUTINE.
 HUCKEL GUESS REQUIRES     83352 WORDS.

 SYMMETRIES FOR INITIAL GUESS ORBITALS FOLLOW.  ALPHA SET(S).
     5 ORBITALS ARE OCCUPIED (    1 CORE ORBITALS).
     2=A        3=A        4=A        5=A        6=A        7=A        8=A   
     9=A       10=A       11=A       12=A       13=A       14=A       15=A   

 SYMMETRIES FOR INITIAL GUESS ORBITALS FOLLOW.   BETA SET(S).
     4 ORBITALS ARE OCCUPIED (    1 CORE ORBITALS).
     2=A        3=A        4=A        5=A        6=A        7=A        8=A   
     9=A       10=A       11=A       12=A       13=A       14=A   
 ...... END OF INITIAL ORBITAL SELECTION ......
 STEP CPU TIME =     0.01 TOTAL CPU TIME =        2.9 (    0.0 MIN)
 TOTAL WALL CLOCK TIME=        2.9 SECONDS, CPU UTILIZATION IS  98.97%
  ...... END OF TWO-ELECTRON INTEGRALS .....
 STEP CPU TIME =     0.00 TOTAL CPU TIME =        2.9 (    0.0 MIN)
 TOTAL WALL CLOCK TIME=        2.9 SECONDS, CPU UTILIZATION IS  98.97%

          ---------------------------
                 ROHF SCF CALCULATION
          ---------------------------
     DENSITY MATRIX CONV=  2.00E-06

 DIRECT SCF CALCULATION, SCHWRZ=T   FDIFF=F

                                                                                NONZERO     BLOCKS
 ITER EX      TOTAL ENERGY        E CHANGE  DENSITY CHANGE    DIIS ERROR      INTEGRALS    SKIPPED
          * * *   INITIATING DIIS PROCEDURE   * * *
   1  0      -39.4484180550   -39.4484180550   0.527727067   0.212047816       14810152        107
   2  1      -39.5472205093    -0.0988024544   0.049442678   0.014655187       14809403        166
   3  2      -39.5496840434    -0.0024635341   0.041167230   0.004536947       14809604        147
   4  3      -39.5498649735    -0.0001809300   0.043506141   0.001078052       14809585        149
   5  4      -39.5498870472    -0.0000220737   0.020454126   0.000784892       14809585        149
   6  5      -39.5499006016    -0.0000135544   0.001125490   0.000072774       14809638        147
   7  6      -39.5499007595    -0.0000001579   0.000483836   0.000022667       14809638        147
   8  7      -39.5499007704    -0.0000000109   0.000122020   0.000007476       14809638        147
   9  8      -39.5499007713    -0.0000000009   0.000097565   0.000002567       14809638        147
  10  9      -39.5499007715    -0.0000000002   0.000015800   0.000000668       14809638        147
  11 10      -39.5499007715    -0.0000000000   0.000005827   0.000000118       14809638        147
  12 11      -39.5499007715    -0.0000000000   0.000002293   0.000000027       14809638        147
  13 12      -39.5499007715    -0.0000000000   0.000000397   0.000000006       14809638        147

          -----------------
          DENSITY CONVERGED
          -----------------
     TIME TO FORM FOCK OPERATORS=      14.4 SECONDS (       1.1 SEC/ITER)
     FOCK TIME ON FIRST ITERATION=       1.1, LAST ITERATION=       1.1
     TIME TO SOLVE SCF EQUATIONS=       0.1 SECONDS (       0.0 SEC/ITER)

 FINAL ROHF ENERGY IS      -39.5499007715 AFTER  13 ITERATIONS

          --------------------
          SPIN SZ   =    0.500
          S-SQUARED =    0.750
          --------------------
 ...... END OF ROHF CALCULATION ......
 STEP CPU TIME =    14.51 TOTAL CPU TIME =       17.4 (    0.3 MIN)
 TOTAL WALL CLOCK TIME=       17.4 SECONDS, CPU UTILIZATION IS  99.60%

 -------------------------------     -----------------------------
 2ND-ORDER ZAPT SINGLE POINT MP2     PROGRAM WRITTEN BY R. L. BELL
 -------------------------------     -----------------------------
 NUMBER OF CORE MOS=   1
 NUMBER OF DOUBLY OCCUPIED MOS=    3
 NUMBER OF SINGLY OCCUPIED MOS=    1
 NUMBER OF VIRTUAL MOS=   95

 THIS IS A DIRECT CALCULATION

 MEMORY REQUIREMENTS FOR ZAPT TRANSFORMATIONS
   MINIMUM=         677380 WORDS FOR 1 MOLECULAR ORBITAL PER PASS
   MAXIMUM=        1813060 WORDS FOR MAKING ONLY 1 INTEGRAL PASS

   TOTAL MEMORY USED =         1813060

 START TRANSFORMATION OF ALL-SINGLES INTEGRALS
     TIME FOR ALL-SINGLES TRANSFORMATION TOOK        1.19 SECONDS.

 START EVALUATION OF TERM 7 INTEGRALS AND ENERGY
     TIME FOR TERM 7 TOOK        0.01 SECONDS.

 START OF PASSES OVER DOUBLY OCCUPIED MOS
    NUMBER OF MOS/PASS =    3
    NUMBER OF PASSES   =    1
 CLOSED-SHELL PASS #   1 TOOK        1.27 SECONDS.

        E1 = -0.0986671089   CLOSED SHELL-LIKE TERM
        E2 = -0.0051041117   SINGLY UNOCCUPIED
        E3 =  0.0000000000   2 SINGLY OCCUPIED
        E4 = -0.0025215137   SINGLY UNOCCUPIED/OCCUPIED
        E5 = -0.0017016766   "FOCK MATRIX CONTRIBUTION"
        E6 = -0.0282404926   SINGLY OCCUPIED
        E7 =  0.0000000000   2 SINGLY UNOCCUPIED
   -----------------------
   E(ZAPT) = -0.1362349036

 RESULTS OF 2ND-ORDER ZAPT CORRECTION
           E(HF)   =       -39.5499007715
           E(ZAPT) =        -0.1362349036
      -----------------------------------
           E(MP2)  =       -39.6861356751

 ..... DONE WITH MP2 ENERGY .....
 STEP CPU TIME =     2.47 TOTAL CPU TIME =       19.9 (    0.3 MIN)
 TOTAL WALL CLOCK TIME=       19.9 SECONDS, CPU UTILIZATION IS  99.60%

          ---------------------------------------
          EDMISTON-RUEDENBERG ENERGY LOCALIZATION
          ---------------------------------------
          C.EDMISTON AND K.RUEDENBERG, REV.MOD.PHYS. 35, 457-465 (1963)

          ---------------------------------------
          EDMISTON-RUEDENBERG ENERGY LOCALIZATION
          ---------------------------------------
          C.EDMISTON AND K.RUEDENBERG, REV.MOD.PHYS. 35, 457-465 (1963)

 THIS LOCALIZATION REQUIRES     62782 WORDS OF MEMORY.
 THIS LOCALIZATION HAS    5 ORBITALS, OF WHICH   0 ARE FROZEN.
 ... DONE WITH ENERGY LOCALIZATION ...
 STEP CPU TIME =     1.32 TOTAL CPU TIME =       21.2 (    0.4 MIN)
 TOTAL WALL CLOCK TIME=       21.3 SECONDS, CPU UTILIZATION IS  99.58%

          ---------------------------------------
          EDMISTON-RUEDENBERG ENERGY LOCALIZATION
          ---------------------------------------
          C.EDMISTON AND K.RUEDENBERG, REV.MOD.PHYS. 35, 457-465 (1963)

 ***** ALPHA ORBITAL LOCALIZATION *****

          ---------------------------------------
          EDMISTON-RUEDENBERG ENERGY LOCALIZATION
          ---------------------------------------
          C.EDMISTON AND K.RUEDENBERG, REV.MOD.PHYS. 35, 457-465 (1963)

 ***** ALPHA ORBITAL LOCALIZATION *****

 THIS LOCALIZATION REQUIRES     62782 WORDS OF MEMORY.
 THIS LOCALIZATION HAS    5 ORBITALS, OF WHICH   0 ARE FROZEN.

 ****** BETA ORBITAL LOCALIZATION *****

          ---------------------------------------
          EDMISTON-RUEDENBERG ENERGY LOCALIZATION
          ---------------------------------------
          C.EDMISTON AND K.RUEDENBERG, REV.MOD.PHYS. 35, 457-465 (1963)

 ****** BETA ORBITAL LOCALIZATION *****

 THIS LOCALIZATION REQUIRES     62681 WORDS OF MEMORY.
 THIS LOCALIZATION HAS    4 ORBITALS, OF WHICH   0 ARE FROZEN.
 ... DONE WITH ENERGY LOCALIZATION ...
 STEP CPU TIME =     2.61 TOTAL CPU TIME =       23.8 (    0.4 MIN)
 TOTAL WALL CLOCK TIME=       23.9 SECONDS, CPU UTILIZATION IS  99.62%

          ---------------------------------------
          EDMISTON-RUEDENBERG ENERGY LOCALIZATION
          ---------------------------------------
          C.EDMISTON AND K.RUEDENBERG, REV.MOD.PHYS. 35, 457-465 (1963)

          ---------------------------------------
          EDMISTON-RUEDENBERG ENERGY LOCALIZATION
          ---------------------------------------
          C.EDMISTON AND K.RUEDENBERG, REV.MOD.PHYS. 35, 457-465 (1963)

 THIS LOCALIZATION REQUIRES     63911 WORDS OF MEMORY.
 THIS LOCALIZATION HAS    9 ORBITALS, OF WHICH   0 ARE FROZEN.
 ... DONE WITH ENERGY LOCALIZATION ...
 STEP CPU TIME =     1.51 TOTAL CPU TIME =       25.3 (    0.4 MIN)
 TOTAL WALL CLOCK TIME=       25.4 SECONDS, CPU UTILIZATION IS  99.61%

          -------------------------
          MONOMER  2 WITH ALL BASIS
          -------------------------

          -----------------------
          MP2 CONTROL INFORMATION
          -----------------------
          NACORE =        1  NBCORE =        1
          LMOMP2 =        F  AOINTS = DUP     
          METHOD =        2  NWORD  =               0
          MP2PRP =        F  OSPT   = ZAPT    
          CUTOFF = 1.00E-09  CPHFBS = BASISAO 
          CODE   = SERIAL  

          NUMBER OF CORE -A-  ORBITALS =     1
          NUMBER OF CORE -B-  ORBITALS =     1
          NUMBER OF OCC. -A-  ORBITALS =     5
          NUMBER OF OCC. -B-  ORBITALS =     4
          NUMBER OF MOLECULAR ORBITALS =   100
          NUMBER OF   BASIS  FUNCTIONS =   104

 ...... END OF ONE-ELECTRON INTEGRALS ......
 STEP CPU TIME =     0.01 TOTAL CPU TIME =       25.3 (    0.4 MIN)
 TOTAL WALL CLOCK TIME=       25.4 SECONDS, CPU UTILIZATION IS  99.65%

          -------------
          GUESS OPTIONS
          -------------
          GUESS =HUCKEL            NORB  =       0          NORDER=       0
          MIX   =       F          PRTMO =       F          PUNMO =       F
          TOLZ  = 1.0E-08          TOLE  = 1.0E-05
          SYMDEN=       F          PURIFY=       F

 INITIAL GUESS ORBITALS GENERATED BY HUCKEL   ROUTINE.
 HUCKEL GUESS REQUIRES     83352 WORDS.

 SYMMETRIES FOR INITIAL GUESS ORBITALS FOLLOW.  ALPHA SET(S).
     5 ORBITALS ARE OCCUPIED (    1 CORE ORBITALS).
     2=A        3=A        4=A        5=A        6=A        7=A        8=A   
     9=A       10=A       11=A       12=A       13=A       14=A       15=A   

 SYMMETRIES FOR INITIAL GUESS ORBITALS FOLLOW.   BETA SET(S).
     4 ORBITALS ARE OCCUPIED (    1 CORE ORBITALS).
     2=A        3=A        4=A        5=A        6=A        7=A        8=A   
     9=A       10=A       11=A       12=A       13=A       14=A   
 ...... END OF INITIAL ORBITAL SELECTION ......
 STEP CPU TIME =     0.01 TOTAL CPU TIME =       25.3 (    0.4 MIN)
 TOTAL WALL CLOCK TIME=       25.4 SECONDS, CPU UTILIZATION IS  99.61%
  ...... END OF TWO-ELECTRON INTEGRALS .....
 STEP CPU TIME =     0.00 TOTAL CPU TIME =       25.3 (    0.4 MIN)
 TOTAL WALL CLOCK TIME=       25.4 SECONDS, CPU UTILIZATION IS  99.61%

          ---------------------------
                 ROHF SCF CALCULATION
          ---------------------------
     DENSITY MATRIX CONV=  2.00E-06

 DIRECT SCF CALCULATION, SCHWRZ=T   FDIFF=F

                                                                                NONZERO     BLOCKS
 ITER EX      TOTAL ENERGY        E CHANGE  DENSITY CHANGE    DIIS ERROR      INTEGRALS    SKIPPED
          * * *   INITIATING DIIS PROCEDURE   * * *
   1  0      -39.4484158236   -39.4484158236   0.527714190   0.212028018       14810184        102
   2  1      -39.5472186105    -0.0988027869   0.049440951   0.014655185       14809585        150
   3  2      -39.5496821376    -0.0024635271   0.041164164   0.004537033       14809871        126
   4  3      -39.5498630609    -0.0001809233   0.043504139   0.001078031       14809799        134
   5  4      -39.5498851364    -0.0000220755   0.020452610   0.000784921       14809799        134
   6  5      -39.5498986915    -0.0000135552   0.001125449   0.000072769       14809799        134
   7  6      -39.5498988495    -0.0000001579   0.000483874   0.000022665       14809799        134
   8  7      -39.5498988604    -0.0000000109   0.000121985   0.000007476       14809799        134
   9  8      -39.5498988612    -0.0000000009   0.000097558   0.000002567       14809799        134
  10  9      -39.5498988614    -0.0000000002   0.000015803   0.000000668       14809799        134
  11 10      -39.5498988614    -0.0000000000   0.000005825   0.000000118       14809799        134
  12 11      -39.5498988614    -0.0000000000   0.000002293   0.000000027       14809799        134
  13 12      -39.5498988614     0.0000000000   0.000000397   0.000000006       14809799        134

          -----------------
          DENSITY CONVERGED
          -----------------
     TIME TO FORM FOCK OPERATORS=      14.3 SECONDS (       1.1 SEC/ITER)
     FOCK TIME ON FIRST ITERATION=       1.1, LAST ITERATION=       1.1
     TIME TO SOLVE SCF EQUATIONS=       0.1 SECONDS (       0.0 SEC/ITER)

 FINAL ROHF ENERGY IS      -39.5498988614 AFTER  13 ITERATIONS

          --------------------
          SPIN SZ   =    0.500
          S-SQUARED =    0.750
          --------------------
 ...... END OF ROHF CALCULATION ......
 STEP CPU TIME =    14.50 TOTAL CPU TIME =       39.8 (    0.7 MIN)
 TOTAL WALL CLOCK TIME=       40.0 SECONDS, CPU UTILIZATION IS  99.62%

 -------------------------------     -----------------------------
 2ND-ORDER ZAPT SINGLE POINT MP2     PROGRAM WRITTEN BY R. L. BELL
 -------------------------------     -----------------------------
 NUMBER OF CORE MOS=   1
 NUMBER OF DOUBLY OCCUPIED MOS=    3
 NUMBER OF SINGLY OCCUPIED MOS=    1
 NUMBER OF VIRTUAL MOS=   95

 THIS IS A DIRECT CALCULATION

 MEMORY REQUIREMENTS FOR ZAPT TRANSFORMATIONS
   MINIMUM=         677380 WORDS FOR 1 MOLECULAR ORBITAL PER PASS
   MAXIMUM=        1813060 WORDS FOR MAKING ONLY 1 INTEGRAL PASS

   TOTAL MEMORY USED =         1813060

 START TRANSFORMATION OF ALL-SINGLES INTEGRALS
     TIME FOR ALL-SINGLES TRANSFORMATION TOOK        1.19 SECONDS.

 START EVALUATION OF TERM 7 INTEGRALS AND ENERGY
     TIME FOR TERM 7 TOOK        0.01 SECONDS.

 START OF PASSES OVER DOUBLY OCCUPIED MOS
    NUMBER OF MOS/PASS =    3
    NUMBER OF PASSES   =    1
 CLOSED-SHELL PASS #   1 TOOK        1.27 SECONDS.

        E1 = -0.0986673694   CLOSED SHELL-LIKE TERM
        E2 = -0.0051041364   SINGLY UNOCCUPIED
        E3 =  0.0000000000   2 SINGLY OCCUPIED
        E4 = -0.0025214739   SINGLY UNOCCUPIED/OCCUPIED
        E5 = -0.0017016530   "FOCK MATRIX CONTRIBUTION"
        E6 = -0.0282403510   SINGLY OCCUPIED
        E7 =  0.0000000000   2 SINGLY UNOCCUPIED
   -----------------------
   E(ZAPT) = -0.1362349837

 RESULTS OF 2ND-ORDER ZAPT CORRECTION
           E(HF)   =       -39.5498988614
           E(ZAPT) =        -0.1362349837
      -----------------------------------
           E(MP2)  =       -39.6861338451

 ..... DONE WITH MP2 ENERGY .....
 STEP CPU TIME =     2.47 TOTAL CPU TIME =       42.3 (    0.7 MIN)
 TOTAL WALL CLOCK TIME=       42.4 SECONDS, CPU UTILIZATION IS  99.62%

          ---------------------------------------
          EDMISTON-RUEDENBERG ENERGY LOCALIZATION
          ---------------------------------------
          C.EDMISTON AND K.RUEDENBERG, REV.MOD.PHYS. 35, 457-465 (1963)

          ---------------------------------------
          EDMISTON-RUEDENBERG ENERGY LOCALIZATION
          ---------------------------------------
          C.EDMISTON AND K.RUEDENBERG, REV.MOD.PHYS. 35, 457-465 (1963)

 THIS LOCALIZATION REQUIRES     62782 WORDS OF MEMORY.
 THIS LOCALIZATION HAS    5 ORBITALS, OF WHICH   0 ARE FROZEN.
 ... DONE WITH ENERGY LOCALIZATION ...
 STEP CPU TIME =     1.33 TOTAL CPU TIME =       43.6 (    0.7 MIN)
 TOTAL WALL CLOCK TIME=       43.8 SECONDS, CPU UTILIZATION IS  99.63%

          ---------------------------------------
          EDMISTON-RUEDENBERG ENERGY LOCALIZATION
          ---------------------------------------
          C.EDMISTON AND K.RUEDENBERG, REV.MOD.PHYS. 35, 457-465 (1963)

 ***** ALPHA ORBITAL LOCALIZATION *****

          ---------------------------------------
          EDMISTON-RUEDENBERG ENERGY LOCALIZATION
          ---------------------------------------
          C.EDMISTON AND K.RUEDENBERG, REV.MOD.PHYS. 35, 457-465 (1963)

 ***** ALPHA ORBITAL LOCALIZATION *****

 THIS LOCALIZATION REQUIRES     62782 WORDS OF MEMORY.
 THIS LOCALIZATION HAS    5 ORBITALS, OF WHICH   0 ARE FROZEN.

 ****** BETA ORBITAL LOCALIZATION *****

          ---------------------------------------
          EDMISTON-RUEDENBERG ENERGY LOCALIZATION
          ---------------------------------------
          C.EDMISTON AND K.RUEDENBERG, REV.MOD.PHYS. 35, 457-465 (1963)

 ****** BETA ORBITAL LOCALIZATION *****

 THIS LOCALIZATION REQUIRES     62681 WORDS OF MEMORY.
 THIS LOCALIZATION HAS    4 ORBITALS, OF WHICH   0 ARE FROZEN.
 ... DONE WITH ENERGY LOCALIZATION ...
 STEP CPU TIME =     2.60 TOTAL CPU TIME =       46.2 (    0.8 MIN)
 TOTAL WALL CLOCK TIME=       46.4 SECONDS, CPU UTILIZATION IS  99.61%

          ---------------------------------------
          EDMISTON-RUEDENBERG ENERGY LOCALIZATION
          ---------------------------------------
          C.EDMISTON AND K.RUEDENBERG, REV.MOD.PHYS. 35, 457-465 (1963)

          ---------------------------------------
          EDMISTON-RUEDENBERG ENERGY LOCALIZATION
          ---------------------------------------
          C.EDMISTON AND K.RUEDENBERG, REV.MOD.PHYS. 35, 457-465 (1963)

 THIS LOCALIZATION REQUIRES     63911 WORDS OF MEMORY.
 THIS LOCALIZATION HAS    9 ORBITALS, OF WHICH   0 ARE FROZEN.
 ... DONE WITH ENERGY LOCALIZATION ...
 STEP CPU TIME =     1.51 TOTAL CPU TIME =       47.7 (    0.8 MIN)
 TOTAL WALL CLOCK TIME=       47.9 SECONDS, CPU UTILIZATION IS  99.62%

          --------------
          SUPER MOLECULE
          --------------

     ------------------------------------------
     THE POINT GROUP IS C1 , NAXIS= 0, ORDER= 1
     ------------------------------------------

 -- VARIATIONAL SPACE WILL BE RESTRICTED TO PURE SPHERICAL HARMONICS ONLY --
 AFTER EXCLUDING CONTAMINANT COMBINATIONS FROM THE CARTESIAN GAUSSIAN BASIS
 SET, THE NUMBER OF SPHERICAL HARMONICS KEPT IN THE VARIATION SPACE IS  100

     DIMENSIONS OF THE SYMMETRY SUBSPACES ARE
 A   =  100

          -----------------------
          MP2 CONTROL INFORMATION
          -----------------------
          NACORE =        2  NBCORE =        2
          LMOMP2 =        F  AOINTS = DUP     
          METHOD =        2  NWORD  =               0
          MP2PRP =        F  OSPT   = ZAPT    
          CUTOFF = 1.00E-09  CPHFBS = BASISAO 
          CODE   = SERIAL  

          NUMBER OF CORE -A-  ORBITALS =     2
          NUMBER OF CORE -B-  ORBITALS =     2
          NUMBER OF OCC. -A-  ORBITALS =     9
          NUMBER OF OCC. -B-  ORBITALS =     9
          NUMBER OF MOLECULAR ORBITALS =   100
          NUMBER OF   BASIS  FUNCTIONS =   104

 ...... END OF ONE-ELECTRON INTEGRALS ......
 STEP CPU TIME =     0.00 TOTAL CPU TIME =       47.7 (    0.8 MIN)
 TOTAL WALL CLOCK TIME=       47.9 SECONDS, CPU UTILIZATION IS  99.60%

          -------------
          GUESS OPTIONS
          -------------
          GUESS =HUCKEL            NORB  =       0          NORDER=       0
          MIX   =       F          PRTMO =       F          PUNMO =       F
          TOLZ  = 1.0E-08          TOLE  = 1.0E-05
          SYMDEN=       F          PURIFY=       F

 INITIAL GUESS ORBITALS GENERATED BY HUCKEL   ROUTINE.
 HUCKEL GUESS REQUIRES     84856 WORDS.

 SYMMETRIES FOR INITIAL GUESS ORBITALS FOLLOW.  ALPHA SET(S).
     9 ORBITALS ARE OCCUPIED (    2 CORE ORBITALS).
     3=A        4=A        5=A        6=A        7=A        8=A        9=A   
    10=A       11=A       12=A       13=A       14=A       15=A       16=A   
    17=A       18=A       19=A   

 SYMMETRIES FOR INITIAL GUESS ORBITALS FOLLOW.   BETA SET(S).
     9 ORBITALS ARE OCCUPIED (    2 CORE ORBITALS).
     3=A        4=A        5=A        6=A        7=A        8=A        9=A   
    10=A       11=A       12=A       13=A       14=A       15=A       16=A   
    17=A       18=A       19=A   
 ...... END OF INITIAL ORBITAL SELECTION ......
 STEP CPU TIME =     0.02 TOTAL CPU TIME =       47.7 (    0.8 MIN)
 TOTAL WALL CLOCK TIME=       47.9 SECONDS, CPU UTILIZATION IS  99.62%
  ...... END OF TWO-ELECTRON INTEGRALS .....
 STEP CPU TIME =     0.00 TOTAL CPU TIME =       47.7 (    0.8 MIN)
 TOTAL WALL CLOCK TIME=       47.9 SECONDS, CPU UTILIZATION IS  99.62%

          ---------------------------
                 ROHF SCF CALCULATION
          ---------------------------
     DENSITY MATRIX CONV=  2.00E-06

 DIRECT SCF CALCULATION, SCHWRZ=T   FDIFF=F

                                                                                NONZERO     BLOCKS
 ITER EX      TOTAL ENERGY        E CHANGE  DENSITY CHANGE    DIIS ERROR      INTEGRALS    SKIPPED
          * * *   INITIATING DIIS PROCEDURE   * * *
   1  0      -79.0327826751   -79.0327826751   0.444388386   0.408805050       14811838         21
   2  1      -79.2183658256    -0.1855831504   0.052762540   0.041967610       14810768         72
   3  2      -79.2295527575    -0.0111869319   0.015757927   0.031823946       14810842         69
   4  3      -79.2316467239    -0.0020939665   0.004446663   0.003549938       14810815         70
   5  4      -79.2317346262    -0.0000879023   0.000459721   0.000478008       14810815         70
   6  5      -79.2317357788    -0.0000011526   0.000096877   0.000084234       14810815         70
   7  6      -79.2317358283    -0.0000000495   0.000015258   0.000012704       14810815         70
   8  7      -79.2317358290    -0.0000000007   0.000001222   0.000000791       14810815         70
   9  8      -79.2317358290    -0.0000000000   0.000000194   0.000000093       14810815         70

          -----------------
          DENSITY CONVERGED
          -----------------
     TIME TO FORM FOCK OPERATORS=       9.9 SECONDS (       1.1 SEC/ITER)
     FOCK TIME ON FIRST ITERATION=       1.1, LAST ITERATION=       1.1
     TIME TO SOLVE SCF EQUATIONS=       0.1 SECONDS (       0.0 SEC/ITER)

 FINAL ROHF ENERGY IS      -79.2317358290 AFTER   9 ITERATIONS

          --------------------
          SPIN SZ   =    0.000
          S-SQUARED =   -0.000
          --------------------
 ...... END OF ROHF CALCULATION ......
 STEP CPU TIME =    10.06 TOTAL CPU TIME =       57.8 (    1.0 MIN)
 TOTAL WALL CLOCK TIME=       58.0 SECONDS, CPU UTILIZATION IS  99.64%

 -------------------------------     -----------------------------
 2ND-ORDER ZAPT SINGLE POINT MP2     PROGRAM WRITTEN BY R. L. BELL
 -------------------------------     -----------------------------
 NUMBER OF CORE MOS=   2
 NUMBER OF DOUBLY OCCUPIED MOS=    7
 NUMBER OF SINGLY OCCUPIED MOS=    0
 NUMBER OF VIRTUAL MOS=   91

 THIS IS A DIRECT CALCULATION

 MEMORY REQUIREMENTS FOR ZAPT TRANSFORMATIONS
   MINIMUM=         109436 WORDS FOR 1 MOLECULAR ORBITAL PER PASS
   MAXIMUM=        4084316 WORDS FOR MAKING ONLY 1 INTEGRAL PASS

   TOTAL MEMORY USED =         4084316

 START TRANSFORMATION OF ALL-SINGLES INTEGRALS
     TIME FOR ALL-SINGLES TRANSFORMATION TOOK        1.07 SECONDS.

 START EVALUATION OF TERM 7 INTEGRALS AND ENERGY
     TIME FOR TERM 7 TOOK        0.00 SECONDS.

 START OF PASSES OVER DOUBLY OCCUPIED MOS
    NUMBER OF MOS/PASS =    7
    NUMBER OF PASSES   =    1
 CLOSED-SHELL PASS #   1 TOOK        1.52 SECONDS.

        E1 = -0.3133901832   CLOSED SHELL-LIKE TERM
        E2 =  0.0000000000   SINGLY UNOCCUPIED
        E3 =  0.0000000000   2 SINGLY OCCUPIED
        E4 =  0.0000000000   SINGLY UNOCCUPIED/OCCUPIED
        E5 =  0.0000000000   "FOCK MATRIX CONTRIBUTION"
        E6 =  0.0000000000   SINGLY OCCUPIED
        E7 =  0.0000000000   2 SINGLY UNOCCUPIED
   -----------------------
   E(ZAPT) = -0.3133901832

 RESULTS OF 2ND-ORDER ZAPT CORRECTION
           E(HF)   =       -79.2317358290
           E(ZAPT) =        -0.3133901832
      -----------------------------------
           E(MP2)  =       -79.5451260121

 ..... DONE WITH MP2 ENERGY .....
 STEP CPU TIME =     2.59 TOTAL CPU TIME =       60.4 (    1.0 MIN)
 TOTAL WALL CLOCK TIME=       60.6 SECONDS, CPU UTILIZATION IS  99.64%

          ---------------------------------------
          EDMISTON-RUEDENBERG ENERGY LOCALIZATION
          ---------------------------------------
          C.EDMISTON AND K.RUEDENBERG, REV.MOD.PHYS. 35, 457-465 (1963)

          ---------------------------------------
          EDMISTON-RUEDENBERG ENERGY LOCALIZATION
          ---------------------------------------
          C.EDMISTON AND K.RUEDENBERG, REV.MOD.PHYS. 35, 457-465 (1963)

 THIS LOCALIZATION REQUIRES     63911 WORDS OF MEMORY.
 THIS LOCALIZATION HAS    9 ORBITALS, OF WHICH   0 ARE FROZEN.
 ... DONE WITH ENERGY LOCALIZATION ...
 STEP CPU TIME =     1.51 TOTAL CPU TIME =       61.9 (    1.0 MIN)
 TOTAL WALL CLOCK TIME=       62.1 SECONDS, CPU UTILIZATION IS  99.65%

          ---------------------------------------
          EDMISTON-RUEDENBERG ENERGY LOCALIZATION
          ---------------------------------------
          C.EDMISTON AND K.RUEDENBERG, REV.MOD.PHYS. 35, 457-465 (1963)

 ***** ALPHA ORBITAL LOCALIZATION *****

          ---------------------------------------
          EDMISTON-RUEDENBERG ENERGY LOCALIZATION
          ---------------------------------------
          C.EDMISTON AND K.RUEDENBERG, REV.MOD.PHYS. 35, 457-465 (1963)

 ***** ALPHA ORBITAL LOCALIZATION *****

 THIS LOCALIZATION REQUIRES     63911 WORDS OF MEMORY.
 THIS LOCALIZATION HAS    9 ORBITALS, OF WHICH   0 ARE FROZEN.

 ****** BETA ORBITAL LOCALIZATION *****

          ---------------------------------------
          EDMISTON-RUEDENBERG ENERGY LOCALIZATION
          ---------------------------------------
          C.EDMISTON AND K.RUEDENBERG, REV.MOD.PHYS. 35, 457-465 (1963)

 ****** BETA ORBITAL LOCALIZATION *****

 THIS LOCALIZATION REQUIRES     63911 WORDS OF MEMORY.
 THIS LOCALIZATION HAS    9 ORBITALS, OF WHICH   0 ARE FROZEN.
 ... DONE WITH ENERGY LOCALIZATION ...
 STEP CPU TIME =     3.02 TOTAL CPU TIME =       64.9 (    1.1 MIN)
 TOTAL WALL CLOCK TIME=       65.1 SECONDS, CPU UTILIZATION IS  99.65%

          ---------------------------------------
          EDMISTON-RUEDENBERG ENERGY LOCALIZATION
          ---------------------------------------
          C.EDMISTON AND K.RUEDENBERG, REV.MOD.PHYS. 35, 457-465 (1963)

          ---------------------------------------
          EDMISTON-RUEDENBERG ENERGY LOCALIZATION
          ---------------------------------------
          C.EDMISTON AND K.RUEDENBERG, REV.MOD.PHYS. 35, 457-465 (1963)

 THIS LOCALIZATION REQUIRES     78473 WORDS OF MEMORY.
 THIS LOCALIZATION HAS   18 ORBITALS, OF WHICH   0 ARE FROZEN.
 ... DONE WITH ENERGY LOCALIZATION ...
 STEP CPU TIME =     1.94 TOTAL CPU TIME =       66.9 (    1.1 MIN)
 TOTAL WALL CLOCK TIME=       67.1 SECONDS, CPU UTILIZATION IS  99.64%

          ---------------------------------------------
          MONOMER ELECTROSTATIC INTERACTION (OWN BASIS)
          ---------------------------------------------

          ********************
          1 ELECTRON INTEGRALS
          ********************
 ...... END OF ONE-ELECTRON INTEGRALS ......
 STEP CPU TIME =     0.01 TOTAL CPU TIME =       66.9 (    1.1 MIN)
 TOTAL WALL CLOCK TIME=       67.1 SECONDS, CPU UTILIZATION IS  99.64%

          ---------------------------------------
          EDMISTON-RUEDENBERG ENERGY LOCALIZATION
          ---------------------------------------
          C.EDMISTON AND K.RUEDENBERG, REV.MOD.PHYS. 35, 457-465 (1963)

 ***** ALPHA ORBITAL LOCALIZATION *****

          ---------------------------------------
          EDMISTON-RUEDENBERG ENERGY LOCALIZATION
          ---------------------------------------
          C.EDMISTON AND K.RUEDENBERG, REV.MOD.PHYS. 35, 457-465 (1963)

 ***** ALPHA ORBITAL LOCALIZATION *****

 THIS LOCALIZATION REQUIRES     63911 WORDS OF MEMORY.
 THIS LOCALIZATION HAS    9 ORBITALS, OF WHICH   0 ARE FROZEN.

 ****** BETA ORBITAL LOCALIZATION *****

          ---------------------------------------
          EDMISTON-RUEDENBERG ENERGY LOCALIZATION
          ---------------------------------------
          C.EDMISTON AND K.RUEDENBERG, REV.MOD.PHYS. 35, 457-465 (1963)

 ****** BETA ORBITAL LOCALIZATION *****

 THIS LOCALIZATION REQUIRES     63911 WORDS OF MEMORY.
 THIS LOCALIZATION HAS    9 ORBITALS, OF WHICH   0 ARE FROZEN.
 ... DONE WITH ENERGY LOCALIZATION ...
 STEP CPU TIME =     3.01 TOTAL CPU TIME =       69.9 (    1.2 MIN)
 TOTAL WALL CLOCK TIME=       70.1 SECONDS, CPU UTILIZATION IS  99.63%

          ---------------------------------------
          EDMISTON-RUEDENBERG ENERGY LOCALIZATION
          ---------------------------------------
          C.EDMISTON AND K.RUEDENBERG, REV.MOD.PHYS. 35, 457-465 (1963)

          ---------------------------------------
          EDMISTON-RUEDENBERG ENERGY LOCALIZATION
          ---------------------------------------
          C.EDMISTON AND K.RUEDENBERG, REV.MOD.PHYS. 35, 457-465 (1963)

 THIS LOCALIZATION REQUIRES     78473 WORDS OF MEMORY.
 THIS LOCALIZATION HAS   18 ORBITALS, OF WHICH   0 ARE FROZEN.
 ... DONE WITH ENERGY LOCALIZATION ...
 STEP CPU TIME =     1.94 TOTAL CPU TIME =       71.8 (    1.2 MIN)
 TOTAL WALL CLOCK TIME=       72.1 SECONDS, CPU UTILIZATION IS  99.63%

          ---------------------------------------------
          MONOMER ELECTROSTATIC INTERACTION (ALL BASIS)
          ---------------------------------------------

          ---------------------------------------
          EDMISTON-RUEDENBERG ENERGY LOCALIZATION
          ---------------------------------------
          C.EDMISTON AND K.RUEDENBERG, REV.MOD.PHYS. 35, 457-465 (1963)

 ***** ALPHA ORBITAL LOCALIZATION *****

          ---------------------------------------
          EDMISTON-RUEDENBERG ENERGY LOCALIZATION
          ---------------------------------------
          C.EDMISTON AND K.RUEDENBERG, REV.MOD.PHYS. 35, 457-465 (1963)

 ***** ALPHA ORBITAL LOCALIZATION *****

 THIS LOCALIZATION REQUIRES     63911 WORDS OF MEMORY.
 THIS LOCALIZATION HAS    9 ORBITALS, OF WHICH   0 ARE FROZEN.

 ****** BETA ORBITAL LOCALIZATION *****

          ---------------------------------------
          EDMISTON-RUEDENBERG ENERGY LOCALIZATION
          ---------------------------------------
          C.EDMISTON AND K.RUEDENBERG, REV.MOD.PHYS. 35, 457-465 (1963)

 ****** BETA ORBITAL LOCALIZATION *****

 THIS LOCALIZATION REQUIRES     63911 WORDS OF MEMORY.
 THIS LOCALIZATION HAS    9 ORBITALS, OF WHICH   0 ARE FROZEN.
 ... DONE WITH ENERGY LOCALIZATION ...
 STEP CPU TIME =     3.02 TOTAL CPU TIME =       74.8 (    1.2 MIN)
 TOTAL WALL CLOCK TIME=       75.1 SECONDS, CPU UTILIZATION IS  99.64%

          ---------------------------------------
          EDMISTON-RUEDENBERG ENERGY LOCALIZATION
          ---------------------------------------
          C.EDMISTON AND K.RUEDENBERG, REV.MOD.PHYS. 35, 457-465 (1963)

          ---------------------------------------
          EDMISTON-RUEDENBERG ENERGY LOCALIZATION
          ---------------------------------------
          C.EDMISTON AND K.RUEDENBERG, REV.MOD.PHYS. 35, 457-465 (1963)

 THIS LOCALIZATION REQUIRES     78473 WORDS OF MEMORY.
 THIS LOCALIZATION HAS   18 ORBITALS, OF WHICH   0 ARE FROZEN.
 ... DONE WITH ENERGY LOCALIZATION ...
 STEP CPU TIME =     1.94 TOTAL CPU TIME =       76.8 (    1.3 MIN)
 TOTAL WALL CLOCK TIME=       77.1 SECONDS, CPU UTILIZATION IS  99.64%

          --------------------------------------------------
          MONOMER EXCHANGE-REPULSION INTERACTION (OWN BASIS)
          --------------------------------------------------

          ---------------------------------------
          EDMISTON-RUEDENBERG ENERGY LOCALIZATION
          ---------------------------------------
          C.EDMISTON AND K.RUEDENBERG, REV.MOD.PHYS. 35, 457-465 (1963)

 ***** ALPHA ORBITAL LOCALIZATION *****

          ---------------------------------------
          EDMISTON-RUEDENBERG ENERGY LOCALIZATION
          ---------------------------------------
          C.EDMISTON AND K.RUEDENBERG, REV.MOD.PHYS. 35, 457-465 (1963)

 ***** ALPHA ORBITAL LOCALIZATION *****

 THIS LOCALIZATION REQUIRES     63911 WORDS OF MEMORY.
 THIS LOCALIZATION HAS    9 ORBITALS, OF WHICH   0 ARE FROZEN.

 ****** BETA ORBITAL LOCALIZATION *****

          ---------------------------------------
          EDMISTON-RUEDENBERG ENERGY LOCALIZATION
          ---------------------------------------
          C.EDMISTON AND K.RUEDENBERG, REV.MOD.PHYS. 35, 457-465 (1963)

 ****** BETA ORBITAL LOCALIZATION *****

 THIS LOCALIZATION REQUIRES     63911 WORDS OF MEMORY.
 THIS LOCALIZATION HAS    9 ORBITALS, OF WHICH   0 ARE FROZEN.
 ... DONE WITH ENERGY LOCALIZATION ...
 STEP CPU TIME =     3.03 TOTAL CPU TIME =       79.8 (    1.3 MIN)
 TOTAL WALL CLOCK TIME=       80.1 SECONDS, CPU UTILIZATION IS  99.64%

          ---------------------------------------
          EDMISTON-RUEDENBERG ENERGY LOCALIZATION
          ---------------------------------------
          C.EDMISTON AND K.RUEDENBERG, REV.MOD.PHYS. 35, 457-465 (1963)

          ---------------------------------------
          EDMISTON-RUEDENBERG ENERGY LOCALIZATION
          ---------------------------------------
          C.EDMISTON AND K.RUEDENBERG, REV.MOD.PHYS. 35, 457-465 (1963)

 THIS LOCALIZATION REQUIRES     78473 WORDS OF MEMORY.
 THIS LOCALIZATION HAS   18 ORBITALS, OF WHICH   0 ARE FROZEN.
 ... DONE WITH ENERGY LOCALIZATION ...
 STEP CPU TIME =     1.94 TOTAL CPU TIME =       81.8 (    1.4 MIN)
 TOTAL WALL CLOCK TIME=       82.0 SECONDS, CPU UTILIZATION IS  99.63%

          --------------------------------------------------
          MONOMER EXCHANGE-REPULSION INTERACTION (ALL BASIS)
          --------------------------------------------------

          ---------------------------------------
          EDMISTON-RUEDENBERG ENERGY LOCALIZATION
          ---------------------------------------
          C.EDMISTON AND K.RUEDENBERG, REV.MOD.PHYS. 35, 457-465 (1963)

 ***** ALPHA ORBITAL LOCALIZATION *****

          ---------------------------------------
          EDMISTON-RUEDENBERG ENERGY LOCALIZATION
          ---------------------------------------
          C.EDMISTON AND K.RUEDENBERG, REV.MOD.PHYS. 35, 457-465 (1963)

 ***** ALPHA ORBITAL LOCALIZATION *****

 THIS LOCALIZATION REQUIRES     63911 WORDS OF MEMORY.
 THIS LOCALIZATION HAS    9 ORBITALS, OF WHICH   0 ARE FROZEN.

 ****** BETA ORBITAL LOCALIZATION *****

          ---------------------------------------
          EDMISTON-RUEDENBERG ENERGY LOCALIZATION
          ---------------------------------------
          C.EDMISTON AND K.RUEDENBERG, REV.MOD.PHYS. 35, 457-465 (1963)

 ****** BETA ORBITAL LOCALIZATION *****

 THIS LOCALIZATION REQUIRES     63911 WORDS OF MEMORY.
 THIS LOCALIZATION HAS    9 ORBITALS, OF WHICH   0 ARE FROZEN.
 ... DONE WITH ENERGY LOCALIZATION ...
 STEP CPU TIME =     3.03 TOTAL CPU TIME =       84.8 (    1.4 MIN)
 TOTAL WALL CLOCK TIME=       85.1 SECONDS, CPU UTILIZATION IS  99.64%

          ---------------------------------------
          EDMISTON-RUEDENBERG ENERGY LOCALIZATION
          ---------------------------------------
          C.EDMISTON AND K.RUEDENBERG, REV.MOD.PHYS. 35, 457-465 (1963)

          ---------------------------------------
          EDMISTON-RUEDENBERG ENERGY LOCALIZATION
          ---------------------------------------
          C.EDMISTON AND K.RUEDENBERG, REV.MOD.PHYS. 35, 457-465 (1963)

 THIS LOCALIZATION REQUIRES     78473 WORDS OF MEMORY.
 THIS LOCALIZATION HAS   18 ORBITALS, OF WHICH   0 ARE FROZEN.
 ... DONE WITH ENERGY LOCALIZATION ...
 STEP CPU TIME =     1.93 TOTAL CPU TIME =       86.7 (    1.4 MIN)
 TOTAL WALL CLOCK TIME=       87.0 SECONDS, CPU UTILIZATION IS  99.63%

          ------------------------------------
          RESULTS OF CMO INTERACTION ANALYSIS
          ------------------------------------

     CMO ENERGY
     T   ELECTRON KINETIC ENERGY
     V   ELECTRON-NUCLEUS POTENTIAL ENERGY
     X   ELECTRON-ELECTRON EXCHANGE ENERGY
     J   ELECTRON-ELECTRON REPULSION ENERGY
     N   NUCLEUS-NUCLEUS REPULSION ENERGY

 --------------
 MONOMER ENERGY
 --------------

 MONOMER    1

                   OWN BASIS           ALL BASIS

 T               39.49622997         39.49710602
 V             -110.97748293       -110.98113437
 X               -0.81883837         -0.81910630
 J               23.08722173         23.08939350
 N                9.66384038          9.66384038
 E              -39.54902922        -39.54990077
 E(MP2)         -39.68310937        -39.68613568

 MONOMER    2

                   OWN BASIS           ALL BASIS

 T               39.49622536         39.49710142
 V             -110.97746222       -110.98111357
 X               -0.81883859         -0.81910648
 J               23.08721466         23.08938631
 N                9.66383346          9.66383346
 E              -39.54902732        -39.54989886
 E(MP2)         -39.68310755        -39.68613385

 ------------------------------------------------------------
 SUPER MOLECULE ENERGY  USING NON-ANTISYMMETRIC WAVEFUNCTION
 (ELECTROSTATIC ENERGY: V J N CHANGE)
 ------------------------------------------------------------

              FROM OWN BASIS      FROM ALL BASIS
 T               78.99245534         78.99420744
 V             -268.35868227       -268.37731605
 X               -1.63767695         -1.63821277
 J               69.24736087         69.26021839
 N               42.42700795         42.42700795
 E              -79.32953506        -79.33409505

 ----------------------------------------------------------------------
 SUPER MOLECULE ENERGY  USING ANTISYMMETRIC NONORTHONORMAL WAVEFUNCTION
 (EXCHANGE ENERGY: ONLY X CHANGES)
 ----------------------------------------------------------------------

              FROM OWN BASIS      FROM ALL BASIS
 T               78.99245534         78.99420744
 V             -268.35868227       -268.37731605
 X               -1.94947231         -1.94771731
 J               69.24736087         69.26021839
 N               42.42700795         42.42700795
 E              -79.64133042        -79.64359958

 -----------------------------------------------------------------------
 SUPER MOLECULE ENERGY  USING ANTISYMMETRIC AND ORTHONORMAL WAVEFUNCTION
 (REPULSION ENERGY: T V X J CHANGE)
 -----------------------------------------------------------------------

              FROM OWN BASIS      FROM ALL BASIS
 T               79.73155600         79.72218344
 V             -268.72340376       -268.71909096
 X               -1.78063580         -1.78042764
 J               69.35731069         69.35531823
 N               42.42700795         42.42700795
 E              -78.98816491        -78.99500897

 ---------------------------------------------
 SUPER MOLECULE ENERGY  USING SCF WAVEFUNCTION
 (POLARIZATION ENERGY: T V X J CHANGE)
 ---------------------------------------------
 T               79.18522274         79.18522274
 V             -268.57521872       -268.57521872
 X               -5.80000153         -5.80000153
 J               73.53125373         73.53125373
 N               42.42700795         42.42700795
 E              -79.23173583        -79.23173583
 E(MP2)         -79.54512601        -79.54512601


                   *******************************
                      SUMMARY OF CMOEDA RESULTS
                      - PEIFENG SU AND HUI LI -
                   *******************************


 -------------
 OWN BASIS SET                                       HARTREE          KCAL/MOL
 -------------
 ELECTROSTATIC ENERGY                  ES=         -0.231479           -145.26
 EXCHANGE ENERGY                       EX=         -0.311795           -195.65
 REPULSION ENERGY                     REP=          0.653166            409.87
 POLARIZATION ENERGY                  POL=         -0.243571           -152.84
 MP2 DISPERSION ENERGY               DISP=         -0.045230            -28.38
 TOTAL INTERACTION ENERGY HF OR DFT     E=         -0.133679            -83.89
 TOTAL INTERACTION ENERGY MP2           E=         -0.178909           -112.27
  

 -------------
 ALL BASIS SET                                       HARTREE          KCAL/MOL
 -------------
 ELECTROSTATIC ENERGY                  ES=         -0.234295           -147.02
 EXCHANGE ENERGY                       EX=         -0.309505           -194.22
 REPULSION ENERGY                     REP=          0.648591            407.00
 POLARIZATION ENERGY                  POL=         -0.236727           -148.55
 MP2 DISPERSION ENERGY               DISP=         -0.040920            -25.68
 TOTAL INTERACTION ENERGY HF OR DFT     E=         -0.131936            -82.79
 TOTAL INTERACTION ENERGY MP2           E=         -0.172856           -108.47

                   *******************************
                   END OF CMO INTERACTION ANALYSIS
                   *******************************

 STEP CPU TIME =     0.00 TOTAL CPU TIME =       86.7 (    1.4 MIN)
 TOTAL WALL CLOCK TIME=       87.0 SECONDS, CPU UTILIZATION IS  99.63%
             15207894  WORDS OF DYNAMIC MEMORY USED
 EXECUTION OF GAMESS TERMINATED NORMALLY Fri Jun  2 01:01:09 2017
 DDI: 263640 bytes (0.3 MB / 0 MWords) used by master data server.

 ----------------------------------------
 CPU timing information for all processes
 ========================================
 0: 86.640 + 0.85 = 86.726
 ----------------------------------------
 ddikick.x: exited gracefully.
unset echo
----- accounting info -----
Files used on the master node compute-0-8.local were:
-rw-rw-r-- 1 sarom sarom     1482 Jun  2 00:59 /scratch/eda-c2h6-zapt.F05
-rw-rw-r-- 1 sarom sarom   181392 Jun  2 01:01 /scratch/eda-c2h6-zapt.F09
-rw-rw-r-- 1 sarom sarom 11746480 Jun  2 01:01 /scratch/eda-c2h6-zapt.F10
rm: cannot remove `/scratch/sarom': Is a directory
rm: cannot remove `/scratch/tmp': Is a directory
ls: No match.
ls: No match.
ls: No match.
Fri Jun  2 01:01:12 CDT 2017
0.251u 0.212s 1:30.57 0.5%	0+0k 8+368io 0pf+0w
Deleting shmid=2785280.
Deleting shmid=2818049.
/opt/gridengine/default/spool/compute-0-8/active_jobs/23519.1/pe_hostfile compute-0-8.local
