-catch_rsh /opt/gridengine/default/spool/compute-0-7/active_jobs/23521.1/pe_hostfile
compute-0-7
The primary node assigned by SGE to this run is compute-0-7
Warning: no access to tty (Bad file descriptor).
Thus no job control in this shell.
Deleting shmid=2523136.
Deleting shmid=2555905.
Deleting shmid=2785282.
source /home/sarom/gamess.github.2017-05-31.14.06/install.info
setenv GMS_PATH /home/sarom/gamess.github.2017-05-31.14.06
setenv GMS_BUILD_DIR /home/sarom/gamess.github.2017-05-31.14.06
setenv GMS_TARGET linux64
setenv GMS_FORTRAN gfortran
setenv GMS_GFORTRAN_VERNO 4.4
setenv GMS_MATHLIB mkl-so
setenv GMS_MATHLIB_PATH /share/apps/intel/compilers_and_libraries_2017.1.132/linux/mkl/lib/intel64
setenv GMS_MKL_VERNO 12
setenv GMS_DDI_COMM sockets
setenv GMS_LIBCCHEM false
setenv GMS_EIGEN_PATH
setenv GMS_PHI false
setenv GMS_SHMTYPE sysv
setenv GMS_OPENMP false
unset echo
eda-n-n-ump2
tests/eda
----- GAMESS execution script 'rungms' -----
This job is running on host compute-0-7.local
under operating system Linux at Fri Jun 2 01:00:42 CDT 2017
Available scratch disk space (Kbyte units) at beginning of the job is
Filesystem           1K-blocks      Used Available Use% Mounted on
/dev/sda1             16126920   3867340  11440380  26% /
GAMESS temporary binary files will be written to /scratch
GAMESS supplementary output files will be written to /home/sarom/restart
Copying input file eda-n-n-ump2.inp to your run's scratch directory...
cp tests/eda/eda-n-n-ump2.inp /scratch/eda-n-n-ump2.F05
unset echo
The generated host list is
compute-0-7.local
/home/sarom/gamess.github.2017-05-31.14.06/ddikick.x /home/sarom/gamess.github.2017-05-31.14.06/gamess.00.x eda-n-n-ump2 -ddi 1 1 compute-0-7.local -scr /scratch

 Distributed Data Interface kickoff program.
 Initiating 1 compute processes on 1 nodes to run the following command:
 /home/sarom/gamess.github.2017-05-31.14.06/gamess.00.x eda-n-n-ump2 

          ******************************************************
          *         GAMESS VERSION = 20 APR 2017 (R1)          *
          *             FROM IOWA STATE UNIVERSITY             *
          * M.W.SCHMIDT, K.K.BALDRIDGE, J.A.BOATZ, S.T.ELBERT, *
          *   M.S.GORDON, J.H.JENSEN, S.KOSEKI, N.MATSUNAGA,   *
          *          K.A.NGUYEN, S.J.SU, T.L.WINDUS,           *
          *       TOGETHER WITH M.DUPUIS, J.A.MONTGOMERY       *
          *         J.COMPUT.CHEM.  14, 1347-1363(1993)        *
          **************** 64 BIT LINUX VERSION ****************

  SINCE 1993, STUDENTS AND POSTDOCS WORKING AT IOWA STATE UNIVERSITY
  AND ALSO IN THEIR VARIOUS JOBS AFTER LEAVING ISU HAVE MADE IMPORTANT
  CONTRIBUTIONS TO THE CODE:
     IVANA ADAMOVIC, CHRISTINE AIKENS, YURI ALEXEEV, POOJA ARORA,
     ANDREY ASADCHEV, ROB BELL, PRADIPTA BANDYOPADHYAY, JONATHAN BENTZ,
     BRETT BODE, KURT BRORSEN, CALEB CARLIN, GALINA CHABAN, WEI CHEN,
     CHEOL HO CHOI, PAUL DAY, ALBERT DEFUSCO, NUWAN DESILVA, TIM DUDLEY,
     DMITRI FEDOROV, GRAHAM FLETCHER, MARK FREITAG, KURT GLAESEMANN,
     DAN KEMP, GRANT MERRILL, NORIYUKI MINEZAWA, JONATHAN MULLIN,
     TAKESHI NAGATA, SEAN NEDD, HEATHER NETZLOFF, BOSILJKA NJEGIC, RYAN OLSON,
     MIKE PAK, SPENCER PRUITT, LUKE ROSKOP, JIM SHOEMAKER, LYUDMILA SLIPCHENKO,
     TONY SMITH, SAROM SOK LEANG, JIE SONG, TETSUYA TAKETSUGU, SIMON WEBB,
     PENG XU, SOOHAENG YOO, FEDERICO ZAHARIEV

  ADDITIONAL CODE HAS BEEN PROVIDED BY COLLABORATORS IN OTHER GROUPS:
     IOWA STATE UNIVERSITY:
          JOE IVANIC, AARON WEST, LAIMUTIS BYTAUTAS, KLAUS RUEDENBERG
     UNIVERSITY OF TOKYO: KIMIHIKO HIRAO, TAKAHITO NAKAJIMA,
          TAKAO TSUNEDA, MUNEAKI KAMIYA, SUSUMU YANAGISAWA,
          KIYOSHI YAGI, MAHITO CHIBA, SEIKEN TOKURA, NAOAKI KAWAKAMI
     UNIVERSITY OF AARHUS: FRANK JENSEN
     UNIVERSITY OF IOWA: VISVALDAS KAIRYS, HUI LI
     NATIONAL INST. OF STANDARDS AND TECHNOLOGY: WALT STEVENS, DAVID GARMER
     UNIVERSITY OF PISA: BENEDETTA MENNUCCI, JACOPO TOMASI
     UNIVERSITY OF MEMPHIS: HENRY KURTZ, PRAKASHAN KORAMBATH
     UNIVERSITY OF ALBERTA: TOBY ZENG, MARIUSZ KLOBUKOWSKI
     UNIVERSITY OF NEW ENGLAND: MARK SPACKMAN
     MIE UNIVERSITY: HIROAKI UMEDA
     NAT. INST. OF ADVANCED INDUSTRIAL SCIENCE AND TECHNOLOGY: KAZUO KITAURA
     MICHIGAN STATE UNIVERSITY:
          KAROL KOWALSKI, MARTA WLOCH, JEFFREY GOUR, JESSE LUTZ,
          WEI LI, PIOTR PIECUCH
     UNIVERSITY OF SILESIA: MONIKA MUSIAL, STANISLAW KUCHARSKI
     FACULTES UNIVERSITAIRES NOTRE-DAME DE LA PAIX:
          OLIVIER QUINET, BENOIT CHAMPAGNE
     UNIVERSITY OF CALIFORNIA - SANTA BARBARA: BERNARD KIRTMAN
     INSTITUTE FOR MOLECULAR SCIENCE:
          KAZUYA ISHIMURA, MICHIO KATOUDA, AND SHIGERU NAGASE
     UNIVERSITY OF NOTRE DAME: ANNA POMOGAEVA, DAN CHIPMAN
     KYUSHU UNIVERSITY:
          HARUYUKI NAKANO,
          FENG LONG GU, JACEK KORCHOWIEC, MARCIN MAKOWSKI, AND YURIKO AOKI,
          HIROTOSHI MORI AND EISAKU MIYOSHI
     PENNSYLVANIA STATE UNIVERSITY:
          TZVETELIN IORDANOV, CHET SWALINA, JONATHAN SKONE,
          SHARON HAMMES-SCHIFFER
     WASEDA UNIVERSITY:
          MASATO KOBAYASHI, TOMOKO AKAMA, TSUGUKI TOUMA,
          TAKESHI YOSHIKAWA, YASUHIRO IKABATA, JUNJI SEINO,
          YUYA NAKAJIMA, HIROMI NAKAI
     NANJING UNIVERSITY: SHUHUA LI
     UNIVERSITY OF NEBRASKA:
          PEIFENG SU, DEJUN SI, NANDUN THELLAMUREGE, YALI WANG, HUI LI
     UNIVERSITY OF ZURICH: ROBERTO PEVERATI, KIM BALDRIDGE
     N. COPERNICUS UNIVERSITY AND JACKSON STATE UNIVERSITY:
          MARIA BARYSZ
     UNIVERSITY OF COPENHAGEN: Jimmy Kromann, CASPER STEINMANN
     TOKYO INSTITUTE OF TECHNOLOGY: HIROYA NAKATA
     NAGOYA UNIVERSITY: YOSHIO NISHIMOTO, STEPHAN IRLE
     MOSCOW STATE UNIVERSITY: VLADIMIR MIRONOV

 EXECUTION OF GAMESS BEGUN Fri Jun  2 01:00:42 2017

            ECHO OF THE FIRST FEW INPUT CARDS -
 INPUT CARD>!   energy decomposition analysis...N/N in a bonded N2 molecule                 
 INPUT CARD>!                                                                               
 INPUT CARD>! -------------                                                                 
 INPUT CARD>! OWN BASIS SET                                       HARTREE  KCAL/MOL         
 INPUT CARD>! -------------                                                                 
 INPUT CARD>! ELECTROSTATIC E.ERGY                  ES=         -0.524426   -329.08         
 INPUT CARD>! EXCHANGE E.ERGY                       EX=         -0.755290   -473.95         
 INPUT CARD>! REPULSION E.ERGY                     REP=          2.041149   1280.84         
 INPUT CARD>! POLARIZATION E.ERGY                  POL=         -0.932999   -585.47         
 INPUT CARD>! MP2 DISPERSION E.ERGY               DISP=         -0.165510   -103.86         
 INPUT CARD>! TOTAL INTERACTION E.ERGY HF OR DFT     E=         -0.171567   -107.66         
 INPUT CARD>! TOTAL INTERACTION E.ERGY MP2           E=         -0.337077   -211.52         
 INPUT CARD>!                                                                               
 INPUT CARD>!                                                                               
 INPUT CARD>! -------------------------------------                                         
 INPUT CARD>! IN SUPER MOL (FOR SPECIAL COMPARISON)               HARTREE  KCAL/MOL         
 INPUT CARD>! -------------------------------------                                         
 INPUT CARD>! ELECTROSTATIC E.ERGY                  ES=         -4.939882  -3099.83         
 INPUT CARD>! EXCHANGE E.ERGY                       EX=         -0.258440   -162.17         
 INPUT CARD>! TOTAL INTERACTION E.ERGY HF OR DFT     E=         -5.198322  -3262.00         
 INPUT CARD>!                                                                               
 INPUT CARD>!   this run takes 2 seconds on 2.66 GHz Cloverton (3 Nov 2009)                 
 INPUT CARD>!                                                                               
 INPUT CARD> $CONTRL SCFTYP=UHF RUNTYP=eda ICHARG=0 mplevl=2 ispher=1 $end                  
 INPUT CARD> $SYSTEM MWORDS=8 timlim=2 $END                                                 
 INPUT CARD> $LMOEDA MATOM(1)=1 1 MCHARG(1)=0 0 MMULT(1)=4  -4 $END                         
 INPUT CARD> $BASIS  GBASIS=ccd $END                                                        
 INPUT CARD> $SCF    DIIS=.T. SOSCF=.F. DIRSCF=.T. FDIFF=.F. $END                           
 INPUT CARD> $DATA                                                                          
 INPUT CARD>N2...near a normal bond distance                                                
 INPUT CARD>C1                                                                              
 INPUT CARD>N          7.0   0.0000000000   0.0000000000   0.0                              
 INPUT CARD>N          7.0   0.0000000000   0.0000000000   1.1                              
 INPUT CARD> $END                                                                           
    8000000 WORDS OF MEMORY AVAILABLE

     BASIS OPTIONS
     -------------
     GBASIS=CCD          IGAUSS=       0      POLAR=NONE    
     NDFUNC=       0     NFFUNC=       0     DIFFSP=       F
     NPFUNC=       0      DIFFS=       F     BASNAM=        


     RUN TITLE
     ---------
 N2...near a normal bond distance                                                

 THE POINT GROUP OF THE MOLECULE IS C1      
 THE ORDER OF THE PRINCIPAL AXIS IS     0

 ATOM      ATOMIC                      COORDINATES (BOHR)
           CHARGE         X                   Y                   Z
 N           7.0     0.0000000000        0.0000000000        0.0000000000
 N           7.0     0.0000000000        0.0000000000        2.0786985865

          INTERNUCLEAR DISTANCES (ANGS.)
          ------------------------------

                1 N          2 N     

   1 N       0.0000000    1.1000000 *
   2 N       1.1000000 *  0.0000000  

  * ... LESS THAN  3.000


     ATOMIC BASIS SET
     ----------------
 THE CONTRACTED PRIMITIVE FUNCTIONS HAVE BEEN UNNORMALIZED
 THE CONTRACTED BASIS FUNCTIONS ARE NOW NORMALIZED TO UNITY

  SHELL TYPE  PRIMITIVE        EXPONENT          CONTRACTION COEFFICIENT(S)

 N         

      1   S       1          9046.0000000    0.000699617413
      1   S       2          1357.0000000    0.005386054630
      1   S       3           309.3000000    0.027391021189
      1   S       4            87.7300000    0.103150591982
      1   S       5            28.5600000    0.278570663317
      1   S       6            10.2100000    0.448294849454
      1   S       7             3.8380000    0.278085928395
      1   S       8             0.7466000    0.015431561233

      2   S       9          9046.0000000   -0.000304990096
      2   S      10          1357.0000000   -0.002408026379
      2   S      11           309.3000000   -0.011944448725
      2   S      12            87.7300000   -0.048925992909
      2   S      13            28.5600000   -0.134472724725
      2   S      14            10.2100000   -0.315112577700
      2   S      15             3.8380000   -0.242857832550
      2   S      16             0.7466000    1.094382206854

      3   S      17             0.2248000    1.000000000000

      4   P      18            13.5500000    0.058905676772
      4   P      19             2.9170000    0.320461106714
      4   P      20             0.7973000    0.753042061792

      5   P      21             0.2185000    1.000000000000

      6   D      22             0.8170000    1.000000000000

 N         

      7   S      23          9046.0000000    0.000699617413
      7   S      24          1357.0000000    0.005386054630
      7   S      25           309.3000000    0.027391021189
      7   S      26            87.7300000    0.103150591982
      7   S      27            28.5600000    0.278570663317
      7   S      28            10.2100000    0.448294849454
      7   S      29             3.8380000    0.278085928395
      7   S      30             0.7466000    0.015431561233

      8   S      31          9046.0000000   -0.000304990096
      8   S      32          1357.0000000   -0.002408026379
      8   S      33           309.3000000   -0.011944448725
      8   S      34            87.7300000   -0.048925992909
      8   S      35            28.5600000   -0.134472724725
      8   S      36            10.2100000   -0.315112577700
      8   S      37             3.8380000   -0.242857832550
      8   S      38             0.7466000    1.094382206854

      9   S      39             0.2248000    1.000000000000

     10   P      40            13.5500000    0.058905676772
     10   P      41             2.9170000    0.320461106714
     10   P      42             0.7973000    0.753042061792

     11   P      43             0.2185000    1.000000000000

     12   D      44             0.8170000    1.000000000000

 TOTAL NUMBER OF BASIS SET SHELLS             =   12
 NUMBER OF CARTESIAN GAUSSIAN BASIS FUNCTIONS =   30
 NOTE: THIS RUN WILL RESTRICT THE MO VARIATION SPACE TO SPHERICAL HARMONICS.
 THE NUMBER OF ORBITALS KEPT IN THE VARIATIONAL SPACE WILL BE PRINTED LATER.
 NUMBER OF ELECTRONS                          =   14
 CHARGE OF MOLECULE                           =    0
 SPIN MULTIPLICITY                            =    1
 NUMBER OF OCCUPIED ORBITALS (ALPHA)          =    7
 NUMBER OF OCCUPIED ORBITALS (BETA )          =    7
 TOTAL NUMBER OF ATOMS                        =    2
 THE NUCLEAR REPULSION ENERGY IS       23.5724411025

 THIS MOLECULE IS RECOGNIZED AS BEING LINEAR,
 ORBITAL LZ DEGENERACY TOLERANCE ETOLLZ= 1.00E-06

     $CONTRL OPTIONS
     ---------------
 SCFTYP=UHF          RUNTYP=LMOEDA       EXETYP=RUN     
 MPLEVL=       2     CITYP =NONE         CCTYP =NONE         VBTYP =NONE    
 DFTTYP=NONE         TDDFT =NONE    
 MULT  =       1     ICHARG=       0     NZVAR =       0     COORD =UNIQUE  
 PP    =NONE         RELWFN=NONE         LOCAL =NONE         NUMGRD=       F
 ISPHER=       1     NOSYM =       0     MAXIT =      30     UNITS =ANGS    
 PLTORB=       F     MOLPLT=       F     AIMPAC=       F     FRIEND=        
 NPRINT=       7     IREST =       0     GEOM  =INPUT   
 NORMF =       0     NORMP =       0     ITOL  =      20     ICUT  =       9
 INTTYP=BEST         GRDTYP=BEST         QMTTOL= 1.0E-06

     $SYSTEM OPTIONS
     ---------------
  REPLICATED MEMORY=     8000000 WORDS (ON EVERY NODE).
 DISTRIBUTED MEMDDI=           0 MILLION WORDS IN AGGREGATE,
 MEMDDI DISTRIBUTED OVER   1 PROCESSORS IS           0 WORDS/PROCESSOR.
 TOTAL MEMORY REQUESTED ON EACH PROCESSOR=     8000000 WORDS.
 TIMLIM=           2.00 MINUTES, OR       0.0 DAYS.
 PARALL= F  BALTYP=  DLB     KDIAG=    0  COREFL= F
 MXSEQ2=     300 MXSEQ3=     150  mem10=         0

          ----------------
          PROPERTIES INPUT
          ----------------

     MOMENTS            FIELD           POTENTIAL          DENSITY
 IEMOM =       1   IEFLD =       0   IEPOT =       0   IEDEN =       0
 WHERE =COMASS     WHERE =NUCLEI     WHERE =NUCLEI     WHERE =NUCLEI  
 OUTPUT=BOTH       OUTPUT=BOTH       OUTPUT=BOTH       OUTPUT=BOTH    
 IEMINT=       0   IEFINT=       0                     IEDINT=       0
                                                       MORB  =       0
          EXTRAPOLATION IN EFFECT
          DIIS IN EFFECT
          DIIS or SOSCF will be reset if energy rises
 ORBITAL PRINTING OPTION: NPREO=     1    30     2     1

     -------------------------------
     INTEGRAL TRANSFORMATION OPTIONS
     -------------------------------
     NWORD  =            0
     CUTOFF = 1.0E-09     MPTRAN =       0
     DIRTRF =       T     AOINTS =DUP     

          -----------------------------
          LOCALIZATION INPUT PARAMETERS
          -----------------------------
           LOCAL=RUEDNBRG      NOUTA=       0
          PRTLOC=       F      NOUTB=       0
          MAXLOC=     250     CVGLOC=1.00E-06
           FCORE=       F     SYMLOC=       F
          MOIDON=       F     EDCOMP=       F
          DIPDCM=       F      NPROT=       0
          QADDCM=       F     DEPRNT=       F
          POLNUM=       F     ORIENT=       F
          POLDYN=       F      VMTOL=1.50E-01
          NPRDTL=       2

          ----------------------
          INTEGRAL INPUT OPTIONS
          ----------------------
 NOPK  =       1 NORDER=       0 SCHWRZ=       T

          -----------------------
          MP2 CONTROL INFORMATION
          -----------------------
          NACORE =        2  NBCORE =        2
          LMOMP2 =        F  AOINTS = DUP     
          METHOD =        2  NWORD  =               0
          MP2PRP =        F  OSPT   = UMP     
          CUTOFF = 1.00E-09  CPHFBS = BASISAO 
          CODE   = SERIAL  

          NUMBER OF CORE -A-  ORBITALS =     2
          NUMBER OF CORE -B-  ORBITALS =     2
          NUMBER OF OCC. -A-  ORBITALS =     7
          NUMBER OF OCC. -B-  ORBITALS =     7
          NUMBER OF MOLECULAR ORBITALS =    30
          NUMBER OF   BASIS  FUNCTIONS =    30


     ------------------------------------------
     THE POINT GROUP IS C1 , NAXIS= 0, ORDER= 1
     ------------------------------------------

 -- VARIATIONAL SPACE WILL BE RESTRICTED TO PURE SPHERICAL HARMONICS ONLY --
 AFTER EXCLUDING CONTAMINANT COMBINATIONS FROM THE CARTESIAN GAUSSIAN BASIS
 SET, THE NUMBER OF SPHERICAL HARMONICS KEPT IN THE VARIATION SPACE IS   28

     DIMENSIONS OF THE SYMMETRY SUBSPACES ARE
 A   =   28

 ..... DONE SETTING UP THE RUN .....
 STEP CPU TIME =     0.03 TOTAL CPU TIME =        0.0 (    0.0 MIN)
 TOTAL WALL CLOCK TIME=        0.0 SECONDS, CPU UTILIZATION IS 100.00%

          ********************
          1 ELECTRON INTEGRALS
          ********************
 ...... END OF ONE-ELECTRON INTEGRALS ......
 STEP CPU TIME =     0.00 TOTAL CPU TIME =        0.0 (    0.0 MIN)
 TOTAL WALL CLOCK TIME=        0.0 SECONDS, CPU UTILIZATION IS 100.00%

          -------------
          GUESS OPTIONS
          -------------
          GUESS =HUCKEL            NORB  =       0          NORDER=       0
          MIX   =       F          PRTMO =       F          PUNMO =       F
          TOLZ  = 1.0E-08          TOLE  = 1.0E-05
          SYMDEN=       F          PURIFY=       F

 INITIAL GUESS ORBITALS GENERATED BY HUCKEL   ROUTINE.
 HUCKEL GUESS REQUIRES      8706 WORDS.

 STATISTICS FOR GENERATION OF SYMMETRY ORBITAL -Q- MATRIX
 NUMBER OF CARTESIAN ATOMIC ORBITALS=         30
 NUMBER OF SPHERICAL CONTAMINANTS DROPPED=     2
 NUMBER OF LINEARLY DEPENDENT MOS DROPPED=     0
 TOTAL NUMBER OF MOS IN VARIATION SPACE=      28

 SYMMETRIES FOR INITIAL GUESS ORBITALS FOLLOW.  ALPHA SET(S).
     7 ORBITALS ARE OCCUPIED (    2 CORE ORBITALS).
     3=A        4=A        5=A        6=A        7=A        8=A        9=A   
    10=A       11=A       12=A       13=A       14=A       15=A       16=A   
    17=A   

 SYMMETRIES FOR INITIAL GUESS ORBITALS FOLLOW.   BETA SET(S).
     7 ORBITALS ARE OCCUPIED (    2 CORE ORBITALS).
     3=A        4=A        5=A        6=A        7=A        8=A        9=A   
    10=A       11=A       12=A       13=A       14=A       15=A       16=A   
    17=A   
 ...... END OF INITIAL ORBITAL SELECTION ......
 STEP CPU TIME =     0.00 TOTAL CPU TIME =        0.0 (    0.0 MIN)
 TOTAL WALL CLOCK TIME=        0.0 SECONDS, CPU UTILIZATION IS 100.00%


          ***************************************
          *  CMO ENERGY DECOMPOSITION ANALYSIS  *
          *      - PEIFENG SU AND HUI LI -      *
          ***************************************



 =======================================================================
 LMOEDA/CMOEDA PERFORMS THE FOLLOWING CALCULATIONS:
 1. HF/DFT/MP2/CCSD/CCSD(T) FOR MONOMERS WITH
         MONOMERS OWN BASIS FUNCTIONS
         ALL BASIS FUNCTIONS (IF SUPBAS=.T.)
 2. ELECTROSTATIC ENERGY WITH HF/DFT DENSITY OF THE MONOMERS
 3. EXCHANGE ENERGY WITH HF/DFT MO OF THE MONOMERS
 4. SUPER MOLECULE ENERGY WITH ANTISYMMETRIZED HF/DFT MO OF THE MONOMERS
 5. HF/DFT/MP2/CCSD/CCSD(T) FOR THE SUPER MOLECULE
 =======================================================================

          ********************
          1 ELECTRON INTEGRALS
          ********************
 ...... END OF ONE-ELECTRON INTEGRALS ......
 STEP CPU TIME =     0.00 TOTAL CPU TIME =        0.0 (    0.0 MIN)
 TOTAL WALL CLOCK TIME=        0.0 SECONDS, CPU UTILIZATION IS 100.00%

          -------------
          GUESS OPTIONS
          -------------
          GUESS =HUCKEL            NORB  =       0          NORDER=       0
          MIX   =       F          PRTMO =       F          PUNMO =       F
          TOLZ  = 1.0E-08          TOLE  = 1.0E-05
          SYMDEN=       F          PURIFY=       F

 INITIAL GUESS ORBITALS GENERATED BY HUCKEL   ROUTINE.
 HUCKEL GUESS REQUIRES      8706 WORDS.

 STATISTICS FOR GENERATION OF SYMMETRY ORBITAL -Q- MATRIX
 NUMBER OF CARTESIAN ATOMIC ORBITALS=         30
 NUMBER OF SPHERICAL CONTAMINANTS DROPPED=     2
 NUMBER OF LINEARLY DEPENDENT MOS DROPPED=     0
 TOTAL NUMBER OF MOS IN VARIATION SPACE=      28

 SYMMETRIES FOR INITIAL GUESS ORBITALS FOLLOW.  ALPHA SET(S).
     7 ORBITALS ARE OCCUPIED (    2 CORE ORBITALS).
     3=A        4=A        5=A        6=A        7=A        8=A        9=A   
    10=A       11=A       12=A       13=A       14=A       15=A       16=A   
    17=A   

 SYMMETRIES FOR INITIAL GUESS ORBITALS FOLLOW.   BETA SET(S).
     7 ORBITALS ARE OCCUPIED (    2 CORE ORBITALS).
     3=A        4=A        5=A        6=A        7=A        8=A        9=A   
    10=A       11=A       12=A       13=A       14=A       15=A       16=A   
    17=A   
 ...... END OF INITIAL ORBITAL SELECTION ......
 STEP CPU TIME =     0.00 TOTAL CPU TIME =        0.0 (    0.0 MIN)
 TOTAL WALL CLOCK TIME=        0.0 SECONDS, CPU UTILIZATION IS  75.00%

          -------------------------
          MONOMER  1 WITH OWN BASIS
          -------------------------

     ------------------------------------------
     THE POINT GROUP IS C1 , NAXIS= 0, ORDER= 1
     ------------------------------------------

 -- VARIATIONAL SPACE WILL BE RESTRICTED TO PURE SPHERICAL HARMONICS ONLY --
 AFTER EXCLUDING CONTAMINANT COMBINATIONS FROM THE CARTESIAN GAUSSIAN BASIS
 SET, THE NUMBER OF SPHERICAL HARMONICS KEPT IN THE VARIATION SPACE IS   14

     DIMENSIONS OF THE SYMMETRY SUBSPACES ARE
 A   =   14

          -----------------------
          MP2 CONTROL INFORMATION
          -----------------------
          NACORE =        1  NBCORE =        1
          LMOMP2 =        F  AOINTS = DUP     
          METHOD =        2  NWORD  =               0
          MP2PRP =        F  OSPT   = UMP     
          CUTOFF = 1.00E-09  CPHFBS = BASISAO 
          CODE   = SERIAL  

          NUMBER OF CORE -A-  ORBITALS =     1
          NUMBER OF CORE -B-  ORBITALS =     1
          NUMBER OF OCC. -A-  ORBITALS =     5
          NUMBER OF OCC. -B-  ORBITALS =     2
          NUMBER OF MOLECULAR ORBITALS =    15
          NUMBER OF   BASIS  FUNCTIONS =    15

 ...... END OF ONE-ELECTRON INTEGRALS ......
 STEP CPU TIME =     0.01 TOTAL CPU TIME =        0.0 (    0.0 MIN)
 TOTAL WALL CLOCK TIME=        0.0 SECONDS, CPU UTILIZATION IS 100.00%

          -------------
          GUESS OPTIONS
          -------------
          GUESS =HUCKEL            NORB  =       0          NORDER=       0
          MIX   =       F          PRTMO =       F          PUNMO =       F
          TOLZ  = 1.0E-08          TOLE  = 1.0E-05
          SYMDEN=       F          PURIFY=       F

 INITIAL GUESS ORBITALS GENERATED BY HUCKEL   ROUTINE.
 HUCKEL GUESS REQUIRES      2628 WORDS.

 SYMMETRIES FOR INITIAL GUESS ORBITALS FOLLOW.  ALPHA SET(S).
     5 ORBITALS ARE OCCUPIED (    1 CORE ORBITALS).
     2=A        3=A        4=A        5=A        6=A        7=A        8=A   
     9=A       10=A       11=A       12=A       13=A       14=A   

 SYMMETRIES FOR INITIAL GUESS ORBITALS FOLLOW.   BETA SET(S).
     2 ORBITALS ARE OCCUPIED (    1 CORE ORBITALS).
     2=A        3=A        4=A        5=A        6=A        7=A        8=A   
     9=A       10=A       11=A       12=A   
 ...... END OF INITIAL ORBITAL SELECTION ......
 STEP CPU TIME =     0.00 TOTAL CPU TIME =        0.0 (    0.0 MIN)
 TOTAL WALL CLOCK TIME=        0.0 SECONDS, CPU UTILIZATION IS 100.00%

                    ----------------------
                    AO INTEGRAL TECHNOLOGY
                    ----------------------
     S,P,L SHELL ROTATED AXIS INTEGRALS, REPROGRAMMED BY
        KAZUYA ISHIMURA (IMS) AND JOSE SIERRA (SYNSTAR).
     S,P,D,L SHELL ROTATED AXIS INTEGRALS PROGRAMMED BY
        KAZUYA ISHIMURA (INSTITUTE FOR MOLECULAR SCIENCE).
     S,P,D,F,G SHELL TO TOTAL QUARTET ANGULAR MOMENTUM SUM 5,
        ERIC PROGRAM BY GRAHAM FLETCHER (ELORET AND NASA ADVANCED
        SUPERCOMPUTING DIVISION, AMES RESEARCH CENTER).
     S,P,D,F,G,L SHELL GENERAL RYS QUADRATURE PROGRAMMED BY
        MICHEL DUPUIS (PACIFIC NORTHWEST NATIONAL LABORATORY).
  ...... END OF TWO-ELECTRON INTEGRALS .....
 STEP CPU TIME =     0.01 TOTAL CPU TIME =        0.0 (    0.0 MIN)
 TOTAL WALL CLOCK TIME=        0.1 SECONDS, CPU UTILIZATION IS 100.00%

          ---------------------------
                  UHF SCF CALCULATION
          ---------------------------
     DENSITY MATRIX CONV=  2.00E-06

 DIRECT SCF CALCULATION, SCHWRZ=T   FDIFF=F

                                                                                NONZERO     BLOCKS
 ITER EX      TOTAL ENERGY        E CHANGE  DENSITY CHANGE    DIIS ERROR      INTEGRALS    SKIPPED
   1  0      -54.3574161080   -54.3574161080   0.167855259   0.777212189            996         18
          * * *   INITIATING DIIS PROCEDURE   * * *
   2  1      -54.3907420068    -0.0333258987   0.012830990   0.025192236            996         18
   3  2      -54.3910863692    -0.0003443625   0.007297919   0.007164329            996         18
   4  3      -54.3911106623    -0.0000242931   0.003342289   0.002382158            996         18
   5  4      -54.3911144731    -0.0000038108   0.000569204   0.000347617            996         18
   6  5      -54.3911145618    -0.0000000888   0.000033314   0.000026910            996         18
   7  6      -54.3911145622    -0.0000000004   0.000000012   0.000000007            996         18
   8  7      -54.3911145622     0.0000000000   0.000000000   0.000000000            996         18

          -----------------
          DENSITY CONVERGED
          -----------------
     TIME TO FORM FOCK OPERATORS=       0.0 SECONDS (       0.0 SEC/ITER)
     FOCK TIME ON FIRST ITERATION=       0.0, LAST ITERATION=       0.0
     TIME TO SOLVE SCF EQUATIONS=       0.0 SECONDS (       0.0 SEC/ITER)

 FINAL UHF ENERGY IS      -54.3911145622 AFTER   8 ITERATIONS

          --------------------
          SPIN SZ   =    1.500
          S-SQUARED =    3.754
          --------------------

 LZ VALUE ANALYSIS FOR THE MOS
 ----------------------------------------
 MO     1 (    1) HAS LZ(WEIGHT)= 0.00(100.0%) 
 MO     2 (    2) HAS LZ(WEIGHT)= 0.00(100.0%) 
 MO     3 (    3) HAS LZ(WEIGHT)=-1.00( 38.0%) -0.00( 24.0%)  1.00( 38.0%) 
 MO     4 (    3) HAS LZ(WEIGHT)=-1.00( 19.7%) -0.00( 60.6%)  1.00( 19.7%) 
 MO     5 (    3) HAS LZ(WEIGHT)=-1.00( 42.3%) -0.00( 15.4%)  1.00( 42.3%) 
 MO     6 (    4) HAS LZ(WEIGHT)=-1.00( 49.9%)  1.00( 49.9%) 
 MO     7 (    4) HAS LZ(WEIGHT)=-1.00( 27.3%)  0.00( 45.5%)  1.00( 27.3%) 
 MO     8 (    4) HAS LZ(WEIGHT)=-1.00( 22.8%)  0.00( 54.4%)  1.00( 22.8%) 
 MO     9 (    5) HAS LZ(WEIGHT)= 0.00(100.0%) 
 MO    10 (    6) HAS LZ(WEIGHT)=-1.00( 50.0%)  1.00( 50.0%) 
 MO    11 (    6) HAS LZ(WEIGHT)=-2.00( 49.7%)  2.00( 49.7%) 
 MO    12 (    6) HAS LZ(WEIGHT)=-1.00( 49.7%)  1.00( 49.7%) 
 MO    13 (    6) HAS LZ(WEIGHT)= 0.00( 99.9%) 
 MO    14 (    6) HAS LZ(WEIGHT)=-2.00( 50.0%)  2.00( 50.0%) 

 LZ VALUE ANALYSIS FOR THE MOS
 ----------------------------------------
 MO     1 (    1) HAS LZ(WEIGHT)= 0.00(100.0%) 
 MO     2 (    2) HAS LZ(WEIGHT)= 0.00(100.0%) 
 MO     3 (    3) HAS LZ(WEIGHT)= 0.00(100.0%) 
 MO     4 (    3) HAS LZ(WEIGHT)=-1.00( 50.0%)  1.00( 50.0%) 
 MO     5 (    3) HAS LZ(WEIGHT)=-1.00( 50.0%)  1.00( 50.0%) 
 MO     6 (    4) HAS LZ(WEIGHT)= 0.00(100.0%) 
 MO     7 (    4) HAS LZ(WEIGHT)=-1.00( 50.0%)  1.00( 50.0%) 
 MO     8 (    4) HAS LZ(WEIGHT)=-1.00( 50.0%)  1.00( 50.0%) 
 MO     9 (    5) HAS LZ(WEIGHT)= 0.00(100.0%) 
 MO    10 (    6) HAS LZ(WEIGHT)=-2.00( 50.0%)  2.00( 50.0%) 
 MO    11 (    6) HAS LZ(WEIGHT)=-1.00( 50.0%)  1.00( 50.0%) 
 MO    12 (    6) HAS LZ(WEIGHT)=-1.00( 50.0%)  1.00( 50.0%) 
 MO    13 (    6) HAS LZ(WEIGHT)= 0.00(100.0%) 
 MO    14 (    6) HAS LZ(WEIGHT)=-2.00( 50.0%)  2.00( 50.0%) 
 ...... END OF UHF CALCULATION ......
 STEP CPU TIME =     0.01 TOTAL CPU TIME =        0.1 (    0.0 MIN)
 TOTAL WALL CLOCK TIME=        0.1 SECONDS, CPU UTILIZATION IS  85.71%

 -------------------   ---------------------------------------
 UHF-MP2 CALCULATION   PROGRAM WRITTEN BY S.MALUENDES,M.DUPUIS
 -------------------   ---------------------------------------
 NACORE,NBCORE=   1   1 NALPHA,NBETA OCC=    5    2 NMOS=   14 NAOS=   15

 MEMORY REQUIREMENTS FOR SEGMENTED MP2 TRANSFORMATION
   MINIMUM=          80037 WORDS, USING 1 MOLECULAR ORBITAL PER PASS
   MAXIMUM=          85437 WORDS, MAKING ONLY 1 INTEGRAL PASS
 CHOOSING THE SEGMENTED MP2 TRANSFORMATION...
   NUMBER OF MOS/PASS =    4
   NUMBER OF PASSES   =    1
   MEMORY USED =           90837 WORDS.

 RESULTS OF MOLLER-PLESSET 2ND ORDER CORRECTION ARE
               E(0)=       -54.3911145622
               E(1)=         0.0
               E(2)=        -0.0707405233
             E(MP2)=       -54.4618550855
 ..... DONE WITH MP2 ENERGY .....
 STEP CPU TIME =     0.00 TOTAL CPU TIME =        0.1 (    0.0 MIN)
 TOTAL WALL CLOCK TIME=        0.1 SECONDS, CPU UTILIZATION IS  85.71%

          ---------------------------------------
          EDMISTON-RUEDENBERG ENERGY LOCALIZATION
          ---------------------------------------
          C.EDMISTON AND K.RUEDENBERG, REV.MOD.PHYS. 35, 457-465 (1963)

 ***** ALPHA ORBITAL LOCALIZATION *****

          ---------------------------------------
          EDMISTON-RUEDENBERG ENERGY LOCALIZATION
          ---------------------------------------
          C.EDMISTON AND K.RUEDENBERG, REV.MOD.PHYS. 35, 457-465 (1963)

 ***** ALPHA ORBITAL LOCALIZATION *****

 THIS LOCALIZATION REQUIRES     30920 WORDS OF MEMORY.
 THIS LOCALIZATION HAS    5 ORBITALS, OF WHICH   0 ARE FROZEN.

 ****** BETA ORBITAL LOCALIZATION *****

          ---------------------------------------
          EDMISTON-RUEDENBERG ENERGY LOCALIZATION
          ---------------------------------------
          C.EDMISTON AND K.RUEDENBERG, REV.MOD.PHYS. 35, 457-465 (1963)

 ****** BETA ORBITAL LOCALIZATION *****

 THIS LOCALIZATION REQUIRES     30719 WORDS OF MEMORY.
 THIS LOCALIZATION HAS    2 ORBITALS, OF WHICH   0 ARE FROZEN.
 ... DONE WITH ENERGY LOCALIZATION ...
 STEP CPU TIME =     0.01 TOTAL CPU TIME =        0.1 (    0.0 MIN)
 TOTAL WALL CLOCK TIME=        0.1 SECONDS, CPU UTILIZATION IS  87.50%

          ---------------------------------------
          EDMISTON-RUEDENBERG ENERGY LOCALIZATION
          ---------------------------------------
          C.EDMISTON AND K.RUEDENBERG, REV.MOD.PHYS. 35, 457-465 (1963)

          ---------------------------------------
          EDMISTON-RUEDENBERG ENERGY LOCALIZATION
          ---------------------------------------
          C.EDMISTON AND K.RUEDENBERG, REV.MOD.PHYS. 35, 457-465 (1963)

 THIS LOCALIZATION REQUIRES     31299 WORDS OF MEMORY.
 THIS LOCALIZATION HAS    7 ORBITALS, OF WHICH   0 ARE FROZEN.
 ... DONE WITH ENERGY LOCALIZATION ...
 STEP CPU TIME =     0.00 TOTAL CPU TIME =        0.1 (    0.0 MIN)
 TOTAL WALL CLOCK TIME=        0.1 SECONDS, CPU UTILIZATION IS  87.50%

          -------------------------
          MONOMER  2 WITH OWN BASIS
          -------------------------

     ------------------------------------------
     THE POINT GROUP IS C1 , NAXIS= 0, ORDER= 1
     ------------------------------------------

 -- VARIATIONAL SPACE WILL BE RESTRICTED TO PURE SPHERICAL HARMONICS ONLY --
 AFTER EXCLUDING CONTAMINANT COMBINATIONS FROM THE CARTESIAN GAUSSIAN BASIS
 SET, THE NUMBER OF SPHERICAL HARMONICS KEPT IN THE VARIATION SPACE IS   14

     DIMENSIONS OF THE SYMMETRY SUBSPACES ARE
 A   =   14

          -----------------------
          MP2 CONTROL INFORMATION
          -----------------------
          NACORE =        1  NBCORE =        1
          LMOMP2 =        F  AOINTS = DUP     
          METHOD =        2  NWORD  =               0
          MP2PRP =        F  OSPT   = UMP     
          CUTOFF = 1.00E-09  CPHFBS = BASISAO 
          CODE   = SERIAL  

          NUMBER OF CORE -A-  ORBITALS =     1
          NUMBER OF CORE -B-  ORBITALS =     1
          NUMBER OF OCC. -A-  ORBITALS =     5
          NUMBER OF OCC. -B-  ORBITALS =     2
          NUMBER OF MOLECULAR ORBITALS =    15
          NUMBER OF   BASIS  FUNCTIONS =    15

 ...... END OF ONE-ELECTRON INTEGRALS ......
 STEP CPU TIME =     0.02 TOTAL CPU TIME =        0.1 (    0.0 MIN)
 TOTAL WALL CLOCK TIME=        0.1 SECONDS, CPU UTILIZATION IS 100.00%

          -------------
          GUESS OPTIONS
          -------------
          GUESS =HUCKEL            NORB  =       0          NORDER=       0
          MIX   =       F          PRTMO =       F          PUNMO =       F
          TOLZ  = 1.0E-08          TOLE  = 1.0E-05
          SYMDEN=       F          PURIFY=       F

 INITIAL GUESS ORBITALS GENERATED BY HUCKEL   ROUTINE.
 HUCKEL GUESS REQUIRES      2628 WORDS.

 SYMMETRIES FOR INITIAL GUESS ORBITALS FOLLOW.  ALPHA SET(S).
     5 ORBITALS ARE OCCUPIED (    1 CORE ORBITALS).
     2=A        3=A        4=A        5=A        6=A        7=A        8=A   
     9=A       10=A       11=A       12=A       13=A       14=A   

 SYMMETRIES FOR INITIAL GUESS ORBITALS FOLLOW.   BETA SET(S).
     2 ORBITALS ARE OCCUPIED (    1 CORE ORBITALS).
     2=A        3=A        4=A        5=A        6=A        7=A        8=A   
     9=A       10=A       11=A       12=A   
 ...... END OF INITIAL ORBITAL SELECTION ......
 STEP CPU TIME =     0.00 TOTAL CPU TIME =        0.1 (    0.0 MIN)
 TOTAL WALL CLOCK TIME=        0.1 SECONDS, CPU UTILIZATION IS 100.00%
  ...... END OF TWO-ELECTRON INTEGRALS .....
 STEP CPU TIME =     0.00 TOTAL CPU TIME =        0.1 (    0.0 MIN)
 TOTAL WALL CLOCK TIME=        0.1 SECONDS, CPU UTILIZATION IS 100.00%

          ---------------------------
                  UHF SCF CALCULATION
          ---------------------------
     DENSITY MATRIX CONV=  2.00E-06

 DIRECT SCF CALCULATION, SCHWRZ=T   FDIFF=F

                                                                                NONZERO     BLOCKS
 ITER EX      TOTAL ENERGY        E CHANGE  DENSITY CHANGE    DIIS ERROR      INTEGRALS    SKIPPED
   1  0      -54.3574161080   -54.3574161080   0.167855259   0.777212189            996         18
          * * *   INITIATING DIIS PROCEDURE   * * *
   2  1      -54.3907420068    -0.0333258987   0.012830990   0.025192236            996         18
   3  2      -54.3910863692    -0.0003443625   0.007297919   0.007164329            996         18
   4  3      -54.3911106623    -0.0000242931   0.003342289   0.002382158            996         18
   5  4      -54.3911144731    -0.0000038108   0.000569204   0.000347617            996         18
   6  5      -54.3911145618    -0.0000000888   0.000033314   0.000026910            996         18
   7  6      -54.3911145622    -0.0000000004   0.000000012   0.000000007            996         18
   8  7      -54.3911145622     0.0000000000   0.000000000   0.000000000            996         18

          -----------------
          DENSITY CONVERGED
          -----------------
     TIME TO FORM FOCK OPERATORS=       0.0 SECONDS (       0.0 SEC/ITER)
     FOCK TIME ON FIRST ITERATION=       0.0, LAST ITERATION=       0.0
     TIME TO SOLVE SCF EQUATIONS=       0.0 SECONDS (       0.0 SEC/ITER)

 FINAL UHF ENERGY IS      -54.3911145622 AFTER   8 ITERATIONS

          --------------------
          SPIN SZ   =    1.500
          S-SQUARED =    3.754
          --------------------

 LZ VALUE ANALYSIS FOR THE MOS
 ----------------------------------------
 MO     1 (    1) HAS LZ(WEIGHT)= 0.00(100.0%) 
 MO     2 (    2) HAS LZ(WEIGHT)= 0.00(100.0%) 
 MO     3 (    3) HAS LZ(WEIGHT)= 0.00( 99.9%) 
 MO     4 (    3) HAS LZ(WEIGHT)=-1.00( 50.0%)  1.00( 50.0%) 
 MO     5 (    3) HAS LZ(WEIGHT)=-1.00( 50.0%)  1.00( 50.0%) 
 MO     6 (    4) HAS LZ(WEIGHT)= 0.00(100.0%) 
 MO     7 (    4) HAS LZ(WEIGHT)=-1.00( 50.0%)  1.00( 50.0%) 
 MO     8 (    4) HAS LZ(WEIGHT)=-1.00( 50.0%)  1.00( 50.0%) 
 MO     9 (    5) HAS LZ(WEIGHT)= 0.00(100.0%) 
 MO    10 (    6) HAS LZ(WEIGHT)=-1.00( 49.5%)  1.00( 49.5%) 
 MO    11 (    6) HAS LZ(WEIGHT)=-2.00( 41.5%) -1.00(  8.4%)  1.00(  8.4%)  2.00( 41.5%) 
 MO    12 (    6) HAS LZ(WEIGHT)=-2.00(  9.1%) -1.00( 40.9%)  1.00( 40.9%)  2.00(  9.1%) 
 MO    13 (    6) HAS LZ(WEIGHT)=-0.00( 98.5%) 
 MO    14 (    6) HAS LZ(WEIGHT)=-2.00( 48.3%) -1.00(  1.0%) -0.00(  1.2%)  1.00(  1.0%)  2.00( 48.3%) 

 LZ VALUE ANALYSIS FOR THE MOS
 ----------------------------------------
 MO     1 (    1) HAS LZ(WEIGHT)= 0.00(100.0%) 
 MO     2 (    2) HAS LZ(WEIGHT)= 0.00(100.0%) 
 MO     3 (    3) HAS LZ(WEIGHT)= 0.00(100.0%) 
 MO     4 (    3) HAS LZ(WEIGHT)=-1.00( 50.0%)  1.00( 50.0%) 
 MO     5 (    3) HAS LZ(WEIGHT)=-1.00( 50.0%)  1.00( 50.0%) 
 MO     6 (    4) HAS LZ(WEIGHT)= 0.00(100.0%) 
 MO     7 (    4) HAS LZ(WEIGHT)=-1.00( 50.0%)  1.00( 50.0%) 
 MO     8 (    4) HAS LZ(WEIGHT)=-1.00( 50.0%)  1.00( 50.0%) 
 MO     9 (    5) HAS LZ(WEIGHT)= 0.00(100.0%) 
 MO    10 (    6) HAS LZ(WEIGHT)=-1.00( 50.0%)  1.00( 50.0%) 
 MO    11 (    6) HAS LZ(WEIGHT)=-2.00( 50.0%)  2.00( 50.0%) 
 MO    12 (    6) HAS LZ(WEIGHT)=-1.00( 50.0%)  1.00( 50.0%) 
 MO    13 (    6) HAS LZ(WEIGHT)= 0.00(100.0%) 
 MO    14 (    6) HAS LZ(WEIGHT)=-2.00( 50.0%)  2.00( 50.0%) 
 ...... END OF UHF CALCULATION ......
 STEP CPU TIME =     0.01 TOTAL CPU TIME =        0.1 (    0.0 MIN)
 TOTAL WALL CLOCK TIME=        0.1 SECONDS, CPU UTILIZATION IS 100.00%

 -------------------   ---------------------------------------
 UHF-MP2 CALCULATION   PROGRAM WRITTEN BY S.MALUENDES,M.DUPUIS
 -------------------   ---------------------------------------
 NACORE,NBCORE=   1   1 NALPHA,NBETA OCC=    5    2 NMOS=   14 NAOS=   15

 MEMORY REQUIREMENTS FOR SEGMENTED MP2 TRANSFORMATION
   MINIMUM=          80037 WORDS, USING 1 MOLECULAR ORBITAL PER PASS
   MAXIMUM=          85437 WORDS, MAKING ONLY 1 INTEGRAL PASS
 CHOOSING THE SEGMENTED MP2 TRANSFORMATION...
   NUMBER OF MOS/PASS =    4
   NUMBER OF PASSES   =    1
   MEMORY USED =           90837 WORDS.

 RESULTS OF MOLLER-PLESSET 2ND ORDER CORRECTION ARE
               E(0)=       -54.3911145622
               E(1)=         0.0
               E(2)=        -0.0707405233
             E(MP2)=       -54.4618550855
 ..... DONE WITH MP2 ENERGY .....
 STEP CPU TIME =     0.00 TOTAL CPU TIME =        0.1 (    0.0 MIN)
 TOTAL WALL CLOCK TIME=        0.1 SECONDS, CPU UTILIZATION IS 100.00%

          ---------------------------------------
          EDMISTON-RUEDENBERG ENERGY LOCALIZATION
          ---------------------------------------
          C.EDMISTON AND K.RUEDENBERG, REV.MOD.PHYS. 35, 457-465 (1963)

 ***** ALPHA ORBITAL LOCALIZATION *****

          ---------------------------------------
          EDMISTON-RUEDENBERG ENERGY LOCALIZATION
          ---------------------------------------
          C.EDMISTON AND K.RUEDENBERG, REV.MOD.PHYS. 35, 457-465 (1963)

 ***** ALPHA ORBITAL LOCALIZATION *****

 THIS LOCALIZATION REQUIRES     30920 WORDS OF MEMORY.
 THIS LOCALIZATION HAS    5 ORBITALS, OF WHICH   0 ARE FROZEN.

 ****** BETA ORBITAL LOCALIZATION *****

          ---------------------------------------
          EDMISTON-RUEDENBERG ENERGY LOCALIZATION
          ---------------------------------------
          C.EDMISTON AND K.RUEDENBERG, REV.MOD.PHYS. 35, 457-465 (1963)

 ****** BETA ORBITAL LOCALIZATION *****

 THIS LOCALIZATION REQUIRES     30719 WORDS OF MEMORY.
 THIS LOCALIZATION HAS    2 ORBITALS, OF WHICH   0 ARE FROZEN.
 ... DONE WITH ENERGY LOCALIZATION ...
 STEP CPU TIME =     0.01 TOTAL CPU TIME =        0.1 (    0.0 MIN)
 TOTAL WALL CLOCK TIME=        0.1 SECONDS, CPU UTILIZATION IS 100.00%

          ---------------------------------------
          EDMISTON-RUEDENBERG ENERGY LOCALIZATION
          ---------------------------------------
          C.EDMISTON AND K.RUEDENBERG, REV.MOD.PHYS. 35, 457-465 (1963)

          ---------------------------------------
          EDMISTON-RUEDENBERG ENERGY LOCALIZATION
          ---------------------------------------
          C.EDMISTON AND K.RUEDENBERG, REV.MOD.PHYS. 35, 457-465 (1963)

 THIS LOCALIZATION REQUIRES     31299 WORDS OF MEMORY.
 THIS LOCALIZATION HAS    7 ORBITALS, OF WHICH   0 ARE FROZEN.
 ... DONE WITH ENERGY LOCALIZATION ...
 STEP CPU TIME =     0.00 TOTAL CPU TIME =        0.1 (    0.0 MIN)
 TOTAL WALL CLOCK TIME=        0.1 SECONDS, CPU UTILIZATION IS 100.00%

     ------------------------------------------
     THE POINT GROUP IS C1 , NAXIS= 0, ORDER= 1
     ------------------------------------------

 -- VARIATIONAL SPACE WILL BE RESTRICTED TO PURE SPHERICAL HARMONICS ONLY --
 AFTER EXCLUDING CONTAMINANT COMBINATIONS FROM THE CARTESIAN GAUSSIAN BASIS
 SET, THE NUMBER OF SPHERICAL HARMONICS KEPT IN THE VARIATION SPACE IS   28

     DIMENSIONS OF THE SYMMETRY SUBSPACES ARE
 A   =   28

          -------------------------
          MONOMER  1 WITH ALL BASIS
          -------------------------

          -----------------------
          MP2 CONTROL INFORMATION
          -----------------------
          NACORE =        1  NBCORE =        1
          LMOMP2 =        F  AOINTS = DUP     
          METHOD =        2  NWORD  =               0
          MP2PRP =        F  OSPT   = UMP     
          CUTOFF = 1.00E-09  CPHFBS = BASISAO 
          CODE   = SERIAL  

          NUMBER OF CORE -A-  ORBITALS =     1
          NUMBER OF CORE -B-  ORBITALS =     1
          NUMBER OF OCC. -A-  ORBITALS =     5
          NUMBER OF OCC. -B-  ORBITALS =     2
          NUMBER OF MOLECULAR ORBITALS =    28
          NUMBER OF   BASIS  FUNCTIONS =    30

 ...... END OF ONE-ELECTRON INTEGRALS ......
 STEP CPU TIME =     0.00 TOTAL CPU TIME =        0.1 (    0.0 MIN)
 TOTAL WALL CLOCK TIME=        0.1 SECONDS, CPU UTILIZATION IS  91.67%

          -------------
          GUESS OPTIONS
          -------------
          GUESS =HUCKEL            NORB  =       0          NORDER=       0
          MIX   =       F          PRTMO =       F          PUNMO =       F
          TOLZ  = 1.0E-08          TOLE  = 1.0E-05
          SYMDEN=       F          PURIFY=       F

 INITIAL GUESS ORBITALS GENERATED BY HUCKEL   ROUTINE.
 HUCKEL GUESS REQUIRES      8271 WORDS.

 SYMMETRIES FOR INITIAL GUESS ORBITALS FOLLOW.  ALPHA SET(S).
     5 ORBITALS ARE OCCUPIED (    1 CORE ORBITALS).
     2=A        3=A        4=A        5=A        6=A        7=A        8=A   
     9=A       10=A       11=A       12=A       13=A       14=A       15=A   

 SYMMETRIES FOR INITIAL GUESS ORBITALS FOLLOW.   BETA SET(S).
     2 ORBITALS ARE OCCUPIED (    1 CORE ORBITALS).
     2=A        3=A        4=A        5=A        6=A        7=A        8=A   
     9=A       10=A       11=A       12=A   
 ...... END OF INITIAL ORBITAL SELECTION ......
 STEP CPU TIME =     0.00 TOTAL CPU TIME =        0.1 (    0.0 MIN)
 TOTAL WALL CLOCK TIME=        0.1 SECONDS, CPU UTILIZATION IS  91.67%
  ...... END OF TWO-ELECTRON INTEGRALS .....
 STEP CPU TIME =     0.00 TOTAL CPU TIME =        0.1 (    0.0 MIN)
 TOTAL WALL CLOCK TIME=        0.1 SECONDS, CPU UTILIZATION IS  91.67%

          ---------------------------
                  UHF SCF CALCULATION
          ---------------------------
     DENSITY MATRIX CONV=  2.00E-06

 DIRECT SCF CALCULATION, SCHWRZ=T   FDIFF=F

                                                                                NONZERO     BLOCKS
 ITER EX      TOTAL ENERGY        E CHANGE  DENSITY CHANGE    DIIS ERROR      INTEGRALS    SKIPPED
          * * *   INITIATING DIIS PROCEDURE   * * *
   1  0      -54.3542271618   -54.3542271618   0.168321108   0.291460517          28697          0
   2  1      -54.3910138402    -0.0367866784   0.016787744   0.014471731          28697          0
   3  2      -54.3914627120    -0.0004488718   0.006735364   0.003724478          28697          0
   4  3      -54.3914959921    -0.0000332801   0.002960020   0.001163067          28697          0
   5  4      -54.3915009277    -0.0000049356   0.000411775   0.000124825          28697          0
   6  5      -54.3915009894    -0.0000000616   0.000045475   0.000033994          28697          0
   7  6      -54.3915009930    -0.0000000037   0.000035277   0.000016500          28697          0
   8  7      -54.3915009944    -0.0000000014   0.000006118   0.000002563          28697          0
   9  8      -54.3915009944    -0.0000000000   0.000000447   0.000000277          28697          0
  10  9      -54.3915009944    -0.0000000000   0.000000106   0.000000051          28697          0

          -----------------
          DENSITY CONVERGED
          -----------------
     TIME TO FORM FOCK OPERATORS=       0.2 SECONDS (       0.0 SEC/ITER)
     FOCK TIME ON FIRST ITERATION=       0.0, LAST ITERATION=       0.0
     TIME TO SOLVE SCF EQUATIONS=       0.0 SECONDS (       0.0 SEC/ITER)

 FINAL UHF ENERGY IS      -54.3915009944 AFTER  10 ITERATIONS

          --------------------
          SPIN SZ   =    1.500
          S-SQUARED =    3.755
          --------------------

 LZ VALUE ANALYSIS FOR THE MOS
 ----------------------------------------
 MO     1 (    1) HAS LZ(WEIGHT)= 0.00(100.0%) 
 MO     2 (    2) HAS LZ(WEIGHT)= 0.00(100.0%) 
 MO     3 (    3) HAS LZ(WEIGHT)=-1.00( 50.0%)  1.00( 50.0%) 
 MO     4 (    3) HAS LZ(WEIGHT)=-1.00( 50.0%)  1.00( 50.0%) 
 MO     5 (    4) HAS LZ(WEIGHT)= 0.00(100.0%) 
 MO     6 (    5) HAS LZ(WEIGHT)= 0.00(100.0%) 
 MO     7 (    6) HAS LZ(WEIGHT)=-1.00( 50.0%)  1.00( 50.0%) 
 MO     8 (    6) HAS LZ(WEIGHT)=-1.00( 50.0%)  1.00( 50.0%) 
 MO     9 (    7) HAS LZ(WEIGHT)= 0.00(100.0%) 
 MO    10 (    8) HAS LZ(WEIGHT)=-1.00( 50.0%)  1.00( 50.0%) 
 MO    11 (    8) HAS LZ(WEIGHT)=-1.00( 50.0%)  1.00( 50.0%) 
 MO    12 (    9) HAS LZ(WEIGHT)= 0.00(100.0%) 
 MO    13 (   10) HAS LZ(WEIGHT)= 0.00(100.0%) 
 MO    14 (   11) HAS LZ(WEIGHT)=-2.00( 50.0%)  2.00( 50.0%) 
 MO    15 (   11) HAS LZ(WEIGHT)=-2.00( 50.0%)  2.00( 50.0%) 
 MO    16 (   12) HAS LZ(WEIGHT)=-1.00( 50.0%)  1.00( 50.0%) 
 MO    17 (   12) HAS LZ(WEIGHT)=-1.00( 50.0%)  1.00( 50.0%) 
 MO    18 (   13) HAS LZ(WEIGHT)= 0.00(100.0%) 
 MO    19 (   14) HAS LZ(WEIGHT)= 0.00(100.0%) 
 MO    20 (   15) HAS LZ(WEIGHT)=-2.00( 50.0%)  2.00( 50.0%) 
 MO    21 (   15) HAS LZ(WEIGHT)=-2.00( 50.0%)  2.00( 50.0%) 
 MO    22 (   16) HAS LZ(WEIGHT)=-1.00( 50.0%)  1.00( 50.0%) 
 MO    23 (   16) HAS LZ(WEIGHT)=-1.00( 50.0%)  1.00( 50.0%) 
 MO    24 (   17) HAS LZ(WEIGHT)= 0.00(100.0%) 
 MO    25 (   18) HAS LZ(WEIGHT)=-1.00( 50.0%)  1.00( 50.0%) 
 MO    26 (   18) HAS LZ(WEIGHT)=-1.00( 50.0%)  1.00( 50.0%) 
 MO    27 (   19) HAS LZ(WEIGHT)= 0.00(100.0%) 
 MO    28 (   20) HAS LZ(WEIGHT)= 0.00(100.0%) 

 LZ VALUE ANALYSIS FOR THE MOS
 ----------------------------------------
 MO     1 (    1) HAS LZ(WEIGHT)= 0.00(100.0%) 
 MO     2 (    2) HAS LZ(WEIGHT)= 0.00(100.0%) 
 MO     3 (    3) HAS LZ(WEIGHT)= 0.00(100.0%) 
 MO     4 (    4) HAS LZ(WEIGHT)=-1.00( 50.0%)  1.00( 50.0%) 
 MO     5 (    4) HAS LZ(WEIGHT)=-1.00( 50.0%)  1.00( 50.0%) 
 MO     6 (    5) HAS LZ(WEIGHT)= 0.00(100.0%) 
 MO     7 (    6) HAS LZ(WEIGHT)=-1.00( 50.0%)  1.00( 50.0%) 
 MO     8 (    6) HAS LZ(WEIGHT)=-1.00( 50.0%)  1.00( 50.0%) 
 MO     9 (    7) HAS LZ(WEIGHT)= 0.00(100.0%) 
 MO    10 (    8) HAS LZ(WEIGHT)=-1.00( 50.0%)  1.00( 50.0%) 
 MO    11 (    8) HAS LZ(WEIGHT)=-1.00( 50.0%)  1.00( 50.0%) 
 MO    12 (    9) HAS LZ(WEIGHT)= 0.00(100.0%) 
 MO    13 (   10) HAS LZ(WEIGHT)= 0.00(100.0%) 
 MO    14 (   11) HAS LZ(WEIGHT)=-2.00( 50.0%)  2.00( 50.0%) 
 MO    15 (   11) HAS LZ(WEIGHT)=-2.00( 50.0%)  2.00( 50.0%) 
 MO    16 (   12) HAS LZ(WEIGHT)= 0.00(100.0%) 
 MO    17 (   13) HAS LZ(WEIGHT)=-1.00( 50.0%)  1.00( 50.0%) 
 MO    18 (   13) HAS LZ(WEIGHT)=-1.00( 50.0%)  1.00( 50.0%) 
 MO    19 (   14) HAS LZ(WEIGHT)= 0.00(100.0%) 
 MO    20 (   15) HAS LZ(WEIGHT)=-2.00( 50.0%)  2.00( 50.0%) 
 MO    21 (   15) HAS LZ(WEIGHT)=-2.00( 50.0%)  2.00( 50.0%) 
 MO    22 (   16) HAS LZ(WEIGHT)=-1.00( 50.0%)  1.00( 50.0%) 
 MO    23 (   16) HAS LZ(WEIGHT)=-1.00( 50.0%)  1.00( 50.0%) 
 MO    24 (   17) HAS LZ(WEIGHT)= 0.00(100.0%) 
 MO    25 (   18) HAS LZ(WEIGHT)=-1.00( 50.0%)  1.00( 50.0%) 
 MO    26 (   18) HAS LZ(WEIGHT)=-1.00( 50.0%)  1.00( 50.0%) 
 MO    27 (   19) HAS LZ(WEIGHT)= 0.00(100.0%) 
 MO    28 (   20) HAS LZ(WEIGHT)= 0.00(100.0%) 
 ...... END OF UHF CALCULATION ......
 STEP CPU TIME =     0.19 TOTAL CPU TIME =        0.3 (    0.0 MIN)
 TOTAL WALL CLOCK TIME=        0.3 SECONDS, CPU UTILIZATION IS  96.77%

 -------------------   ---------------------------------------
 UHF-MP2 CALCULATION   PROGRAM WRITTEN BY S.MALUENDES,M.DUPUIS
 -------------------   ---------------------------------------
 NACORE,NBCORE=   1   1 NALPHA,NBETA OCC=    5    2 NMOS=   28 NAOS=   30

 MEMORY REQUIREMENTS FOR SEGMENTED MP2 TRANSFORMATION
   MINIMUM=         107214 WORDS, USING 1 MOLECULAR ORBITAL PER PASS
   MAXIMUM=         149064 WORDS, MAKING ONLY 1 INTEGRAL PASS
 CHOOSING THE SEGMENTED MP2 TRANSFORMATION...
   NUMBER OF MOS/PASS =    4
   NUMBER OF PASSES   =    1
   MEMORY USED =          190914 WORDS.

 RESULTS OF MOLLER-PLESSET 2ND ORDER CORRECTION ARE
               E(0)=       -54.3915009944
               E(1)=         0.0
               E(2)=        -0.0738367934
             E(MP2)=       -54.4653377878
 ..... DONE WITH MP2 ENERGY .....
 STEP CPU TIME =     0.02 TOTAL CPU TIME =        0.3 (    0.0 MIN)
 TOTAL WALL CLOCK TIME=        0.3 SECONDS, CPU UTILIZATION IS  96.97%

          ---------------------------------------
          EDMISTON-RUEDENBERG ENERGY LOCALIZATION
          ---------------------------------------
          C.EDMISTON AND K.RUEDENBERG, REV.MOD.PHYS. 35, 457-465 (1963)

 ***** ALPHA ORBITAL LOCALIZATION *****

          ---------------------------------------
          EDMISTON-RUEDENBERG ENERGY LOCALIZATION
          ---------------------------------------
          C.EDMISTON AND K.RUEDENBERG, REV.MOD.PHYS. 35, 457-465 (1963)

 ***** ALPHA ORBITAL LOCALIZATION *****

 THIS LOCALIZATION REQUIRES     32960 WORDS OF MEMORY.
 THIS LOCALIZATION HAS    5 ORBITALS, OF WHICH   0 ARE FROZEN.

 ****** BETA ORBITAL LOCALIZATION *****

          ---------------------------------------
          EDMISTON-RUEDENBERG ENERGY LOCALIZATION
          ---------------------------------------
          C.EDMISTON AND K.RUEDENBERG, REV.MOD.PHYS. 35, 457-465 (1963)

 ****** BETA ORBITAL LOCALIZATION *****

 THIS LOCALIZATION REQUIRES     32759 WORDS OF MEMORY.
 THIS LOCALIZATION HAS    2 ORBITALS, OF WHICH   0 ARE FROZEN.
 ... DONE WITH ENERGY LOCALIZATION ...
 STEP CPU TIME =     0.05 TOTAL CPU TIME =        0.4 (    0.0 MIN)
 TOTAL WALL CLOCK TIME=        0.4 SECONDS, CPU UTILIZATION IS  97.37%

          ---------------------------------------
          EDMISTON-RUEDENBERG ENERGY LOCALIZATION
          ---------------------------------------
          C.EDMISTON AND K.RUEDENBERG, REV.MOD.PHYS. 35, 457-465 (1963)

          ---------------------------------------
          EDMISTON-RUEDENBERG ENERGY LOCALIZATION
          ---------------------------------------
          C.EDMISTON AND K.RUEDENBERG, REV.MOD.PHYS. 35, 457-465 (1963)

 THIS LOCALIZATION REQUIRES     33339 WORDS OF MEMORY.
 THIS LOCALIZATION HAS    7 ORBITALS, OF WHICH   0 ARE FROZEN.
 ... DONE WITH ENERGY LOCALIZATION ...
 STEP CPU TIME =     0.02 TOTAL CPU TIME =        0.4 (    0.0 MIN)
 TOTAL WALL CLOCK TIME=        0.4 SECONDS, CPU UTILIZATION IS  97.50%

          -------------------------
          MONOMER  2 WITH ALL BASIS
          -------------------------

          -----------------------
          MP2 CONTROL INFORMATION
          -----------------------
          NACORE =        1  NBCORE =        1
          LMOMP2 =        F  AOINTS = DUP     
          METHOD =        2  NWORD  =               0
          MP2PRP =        F  OSPT   = UMP     
          CUTOFF = 1.00E-09  CPHFBS = BASISAO 
          CODE   = SERIAL  

          NUMBER OF CORE -A-  ORBITALS =     1
          NUMBER OF CORE -B-  ORBITALS =     1
          NUMBER OF OCC. -A-  ORBITALS =     5
          NUMBER OF OCC. -B-  ORBITALS =     2
          NUMBER OF MOLECULAR ORBITALS =    28
          NUMBER OF   BASIS  FUNCTIONS =    30

 ...... END OF ONE-ELECTRON INTEGRALS ......
 STEP CPU TIME =     0.00 TOTAL CPU TIME =        0.4 (    0.0 MIN)
 TOTAL WALL CLOCK TIME=        0.4 SECONDS, CPU UTILIZATION IS  97.50%

          -------------
          GUESS OPTIONS
          -------------
          GUESS =HUCKEL            NORB  =       0          NORDER=       0
          MIX   =       F          PRTMO =       F          PUNMO =       F
          TOLZ  = 1.0E-08          TOLE  = 1.0E-05
          SYMDEN=       F          PURIFY=       F

 INITIAL GUESS ORBITALS GENERATED BY HUCKEL   ROUTINE.
 HUCKEL GUESS REQUIRES      8271 WORDS.

 SYMMETRIES FOR INITIAL GUESS ORBITALS FOLLOW.  ALPHA SET(S).
     5 ORBITALS ARE OCCUPIED (    1 CORE ORBITALS).
     2=A        3=A        4=A        5=A        6=A        7=A        8=A   
     9=A       10=A       11=A       12=A       13=A       14=A       15=A   

 SYMMETRIES FOR INITIAL GUESS ORBITALS FOLLOW.   BETA SET(S).
     2 ORBITALS ARE OCCUPIED (    1 CORE ORBITALS).
     2=A        3=A        4=A        5=A        6=A        7=A        8=A   
     9=A       10=A       11=A       12=A   
 ...... END OF INITIAL ORBITAL SELECTION ......
 STEP CPU TIME =     0.01 TOTAL CPU TIME =        0.4 (    0.0 MIN)
 TOTAL WALL CLOCK TIME=        0.4 SECONDS, CPU UTILIZATION IS 100.00%
  ...... END OF TWO-ELECTRON INTEGRALS .....
 STEP CPU TIME =     0.00 TOTAL CPU TIME =        0.4 (    0.0 MIN)
 TOTAL WALL CLOCK TIME=        0.4 SECONDS, CPU UTILIZATION IS 100.00%

          ---------------------------
                  UHF SCF CALCULATION
          ---------------------------
     DENSITY MATRIX CONV=  2.00E-06

 DIRECT SCF CALCULATION, SCHWRZ=T   FDIFF=F

                                                                                NONZERO     BLOCKS
 ITER EX      TOTAL ENERGY        E CHANGE  DENSITY CHANGE    DIIS ERROR      INTEGRALS    SKIPPED
          * * *   INITIATING DIIS PROCEDURE   * * *
   1  0      -54.3542271618   -54.3542271618   0.168321108   0.291460517          28697          0
   2  1      -54.3910138402    -0.0367866784   0.016787744   0.014471731          28697          0
   3  2      -54.3914627120    -0.0004488718   0.006735364   0.003724478          28697          0
   4  3      -54.3914959921    -0.0000332801   0.002960020   0.001163067          28697          0
   5  4      -54.3915009277    -0.0000049356   0.000411775   0.000124825          28697          0
   6  5      -54.3915009894    -0.0000000616   0.000045475   0.000033994          28697          0
   7  6      -54.3915009930    -0.0000000037   0.000035277   0.000016500          28697          0
   8  7      -54.3915009944    -0.0000000014   0.000006118   0.000002563          28697          0
   9  8      -54.3915009944    -0.0000000000   0.000000447   0.000000277          28697          0
  10  9      -54.3915009944    -0.0000000000   0.000000106   0.000000051          28697          0

          -----------------
          DENSITY CONVERGED
          -----------------
     TIME TO FORM FOCK OPERATORS=       0.2 SECONDS (       0.0 SEC/ITER)
     FOCK TIME ON FIRST ITERATION=       0.0, LAST ITERATION=       0.0
     TIME TO SOLVE SCF EQUATIONS=       0.0 SECONDS (       0.0 SEC/ITER)

 FINAL UHF ENERGY IS      -54.3915009944 AFTER  10 ITERATIONS

          --------------------
          SPIN SZ   =    1.500
          S-SQUARED =    3.755
          --------------------

 LZ VALUE ANALYSIS FOR THE MOS
 ----------------------------------------
 MO     1 (    1) HAS LZ(WEIGHT)= 0.00(100.0%) 
 MO     2 (    2) HAS LZ(WEIGHT)= 0.00(100.0%) 
 MO     3 (    3) HAS LZ(WEIGHT)=-1.00( 50.0%)  1.00( 50.0%) 
 MO     4 (    3) HAS LZ(WEIGHT)=-1.00( 50.0%)  1.00( 50.0%) 
 MO     5 (    4) HAS LZ(WEIGHT)= 0.00(100.0%) 
 MO     6 (    5) HAS LZ(WEIGHT)= 0.00(100.0%) 
 MO     7 (    6) HAS LZ(WEIGHT)=-1.00( 50.0%)  1.00( 50.0%) 
 MO     8 (    6) HAS LZ(WEIGHT)=-1.00( 50.0%)  1.00( 50.0%) 
 MO     9 (    7) HAS LZ(WEIGHT)= 0.00(100.0%) 
 MO    10 (    8) HAS LZ(WEIGHT)=-1.00( 50.0%)  1.00( 50.0%) 
 MO    11 (    8) HAS LZ(WEIGHT)=-1.00( 50.0%)  1.00( 50.0%) 
 MO    12 (    9) HAS LZ(WEIGHT)= 0.00(100.0%) 
 MO    13 (   10) HAS LZ(WEIGHT)= 0.00(100.0%) 
 MO    14 (   11) HAS LZ(WEIGHT)=-2.00( 50.0%)  2.00( 50.0%) 
 MO    15 (   11) HAS LZ(WEIGHT)=-2.00( 50.0%)  2.00( 50.0%) 
 MO    16 (   12) HAS LZ(WEIGHT)=-1.00( 50.0%)  1.00( 50.0%) 
 MO    17 (   12) HAS LZ(WEIGHT)=-1.00( 50.0%)  1.00( 50.0%) 
 MO    18 (   13) HAS LZ(WEIGHT)= 0.00(100.0%) 
 MO    19 (   14) HAS LZ(WEIGHT)= 0.00(100.0%) 
 MO    20 (   15) HAS LZ(WEIGHT)=-2.00( 50.0%)  2.00( 50.0%) 
 MO    21 (   15) HAS LZ(WEIGHT)=-2.00( 50.0%)  2.00( 50.0%) 
 MO    22 (   16) HAS LZ(WEIGHT)=-1.00( 50.0%)  1.00( 50.0%) 
 MO    23 (   16) HAS LZ(WEIGHT)=-1.00( 50.0%)  1.00( 50.0%) 
 MO    24 (   17) HAS LZ(WEIGHT)= 0.00(100.0%) 
 MO    25 (   18) HAS LZ(WEIGHT)=-1.00( 50.0%)  1.00( 50.0%) 
 MO    26 (   18) HAS LZ(WEIGHT)=-1.00( 50.0%)  1.00( 50.0%) 
 MO    27 (   19) HAS LZ(WEIGHT)= 0.00(100.0%) 
 MO    28 (   20) HAS LZ(WEIGHT)= 0.00(100.0%) 

 LZ VALUE ANALYSIS FOR THE MOS
 ----------------------------------------
 MO     1 (    1) HAS LZ(WEIGHT)= 0.00(100.0%) 
 MO     2 (    2) HAS LZ(WEIGHT)= 0.00(100.0%) 
 MO     3 (    3) HAS LZ(WEIGHT)= 0.00(100.0%) 
 MO     4 (    4) HAS LZ(WEIGHT)=-1.00( 50.0%)  1.00( 50.0%) 
 MO     5 (    4) HAS LZ(WEIGHT)=-1.00( 50.0%)  1.00( 50.0%) 
 MO     6 (    5) HAS LZ(WEIGHT)= 0.00(100.0%) 
 MO     7 (    6) HAS LZ(WEIGHT)=-1.00( 50.0%)  1.00( 50.0%) 
 MO     8 (    6) HAS LZ(WEIGHT)=-1.00( 50.0%)  1.00( 50.0%) 
 MO     9 (    7) HAS LZ(WEIGHT)= 0.00(100.0%) 
 MO    10 (    8) HAS LZ(WEIGHT)=-1.00( 50.0%)  1.00( 50.0%) 
 MO    11 (    8) HAS LZ(WEIGHT)=-1.00( 50.0%)  1.00( 50.0%) 
 MO    12 (    9) HAS LZ(WEIGHT)= 0.00(100.0%) 
 MO    13 (   10) HAS LZ(WEIGHT)= 0.00(100.0%) 
 MO    14 (   11) HAS LZ(WEIGHT)=-2.00( 50.0%)  2.00( 50.0%) 
 MO    15 (   11) HAS LZ(WEIGHT)=-2.00( 50.0%)  2.00( 50.0%) 
 MO    16 (   12) HAS LZ(WEIGHT)= 0.00(100.0%) 
 MO    17 (   13) HAS LZ(WEIGHT)=-1.00( 50.0%)  1.00( 50.0%) 
 MO    18 (   13) HAS LZ(WEIGHT)=-1.00( 50.0%)  1.00( 50.0%) 
 MO    19 (   14) HAS LZ(WEIGHT)= 0.00(100.0%) 
 MO    20 (   15) HAS LZ(WEIGHT)=-2.00( 50.0%)  2.00( 50.0%) 
 MO    21 (   15) HAS LZ(WEIGHT)=-2.00( 50.0%)  2.00( 50.0%) 
 MO    22 (   16) HAS LZ(WEIGHT)=-1.00( 50.0%)  1.00( 50.0%) 
 MO    23 (   16) HAS LZ(WEIGHT)=-1.00( 50.0%)  1.00( 50.0%) 
 MO    24 (   17) HAS LZ(WEIGHT)= 0.00(100.0%) 
 MO    25 (   18) HAS LZ(WEIGHT)=-1.00( 50.0%)  1.00( 50.0%) 
 MO    26 (   18) HAS LZ(WEIGHT)=-1.00( 50.0%)  1.00( 50.0%) 
 MO    27 (   19) HAS LZ(WEIGHT)= 0.00(100.0%) 
 MO    28 (   20) HAS LZ(WEIGHT)= 0.00(100.0%) 
 ...... END OF UHF CALCULATION ......
 STEP CPU TIME =     0.19 TOTAL CPU TIME =        0.6 (    0.0 MIN)
 TOTAL WALL CLOCK TIME=        0.6 SECONDS, CPU UTILIZATION IS 100.00%

 -------------------   ---------------------------------------
 UHF-MP2 CALCULATION   PROGRAM WRITTEN BY S.MALUENDES,M.DUPUIS
 -------------------   ---------------------------------------
 NACORE,NBCORE=   1   1 NALPHA,NBETA OCC=    5    2 NMOS=   28 NAOS=   30

 MEMORY REQUIREMENTS FOR SEGMENTED MP2 TRANSFORMATION
   MINIMUM=         107214 WORDS, USING 1 MOLECULAR ORBITAL PER PASS
   MAXIMUM=         149064 WORDS, MAKING ONLY 1 INTEGRAL PASS
 CHOOSING THE SEGMENTED MP2 TRANSFORMATION...
   NUMBER OF MOS/PASS =    4
   NUMBER OF PASSES   =    1
   MEMORY USED =          190914 WORDS.

 RESULTS OF MOLLER-PLESSET 2ND ORDER CORRECTION ARE
               E(0)=       -54.3915009944
               E(1)=         0.0
               E(2)=        -0.0738367934
             E(MP2)=       -54.4653377878
 ..... DONE WITH MP2 ENERGY .....
 STEP CPU TIME =     0.02 TOTAL CPU TIME =        0.6 (    0.0 MIN)
 TOTAL WALL CLOCK TIME=        0.6 SECONDS, CPU UTILIZATION IS 100.00%

          ---------------------------------------
          EDMISTON-RUEDENBERG ENERGY LOCALIZATION
          ---------------------------------------
          C.EDMISTON AND K.RUEDENBERG, REV.MOD.PHYS. 35, 457-465 (1963)

 ***** ALPHA ORBITAL LOCALIZATION *****

          ---------------------------------------
          EDMISTON-RUEDENBERG ENERGY LOCALIZATION
          ---------------------------------------
          C.EDMISTON AND K.RUEDENBERG, REV.MOD.PHYS. 35, 457-465 (1963)

 ***** ALPHA ORBITAL LOCALIZATION *****

 THIS LOCALIZATION REQUIRES     32960 WORDS OF MEMORY.
 THIS LOCALIZATION HAS    5 ORBITALS, OF WHICH   0 ARE FROZEN.

 ****** BETA ORBITAL LOCALIZATION *****

          ---------------------------------------
          EDMISTON-RUEDENBERG ENERGY LOCALIZATION
          ---------------------------------------
          C.EDMISTON AND K.RUEDENBERG, REV.MOD.PHYS. 35, 457-465 (1963)

 ****** BETA ORBITAL LOCALIZATION *****

 THIS LOCALIZATION REQUIRES     32759 WORDS OF MEMORY.
 THIS LOCALIZATION HAS    2 ORBITALS, OF WHICH   0 ARE FROZEN.
 ... DONE WITH ENERGY LOCALIZATION ...
 STEP CPU TIME =     0.04 TOTAL CPU TIME =        0.7 (    0.0 MIN)
 TOTAL WALL CLOCK TIME=        0.7 SECONDS, CPU UTILIZATION IS  98.48%

          ---------------------------------------
          EDMISTON-RUEDENBERG ENERGY LOCALIZATION
          ---------------------------------------
          C.EDMISTON AND K.RUEDENBERG, REV.MOD.PHYS. 35, 457-465 (1963)

          ---------------------------------------
          EDMISTON-RUEDENBERG ENERGY LOCALIZATION
          ---------------------------------------
          C.EDMISTON AND K.RUEDENBERG, REV.MOD.PHYS. 35, 457-465 (1963)

 THIS LOCALIZATION REQUIRES     33339 WORDS OF MEMORY.
 THIS LOCALIZATION HAS    7 ORBITALS, OF WHICH   0 ARE FROZEN.
 ... DONE WITH ENERGY LOCALIZATION ...
 STEP CPU TIME =     0.02 TOTAL CPU TIME =        0.7 (    0.0 MIN)
 TOTAL WALL CLOCK TIME=        0.7 SECONDS, CPU UTILIZATION IS  98.53%

          --------------
          SUPER MOLECULE
          --------------

     ------------------------------------------
     THE POINT GROUP IS C1 , NAXIS= 0, ORDER= 1
     ------------------------------------------

 -- VARIATIONAL SPACE WILL BE RESTRICTED TO PURE SPHERICAL HARMONICS ONLY --
 AFTER EXCLUDING CONTAMINANT COMBINATIONS FROM THE CARTESIAN GAUSSIAN BASIS
 SET, THE NUMBER OF SPHERICAL HARMONICS KEPT IN THE VARIATION SPACE IS   28

     DIMENSIONS OF THE SYMMETRY SUBSPACES ARE
 A   =   28

          -----------------------
          MP2 CONTROL INFORMATION
          -----------------------
          NACORE =        2  NBCORE =        2
          LMOMP2 =        F  AOINTS = DUP     
          METHOD =        2  NWORD  =               0
          MP2PRP =        F  OSPT   = UMP     
          CUTOFF = 1.00E-09  CPHFBS = BASISAO 
          CODE   = SERIAL  

          NUMBER OF CORE -A-  ORBITALS =     2
          NUMBER OF CORE -B-  ORBITALS =     2
          NUMBER OF OCC. -A-  ORBITALS =     7
          NUMBER OF OCC. -B-  ORBITALS =     7
          NUMBER OF MOLECULAR ORBITALS =    28
          NUMBER OF   BASIS  FUNCTIONS =    30

 ...... END OF ONE-ELECTRON INTEGRALS ......
 STEP CPU TIME =     0.00 TOTAL CPU TIME =        0.7 (    0.0 MIN)
 TOTAL WALL CLOCK TIME=        0.7 SECONDS, CPU UTILIZATION IS  98.53%

          -------------
          GUESS OPTIONS
          -------------
          GUESS =HUCKEL            NORB  =       0          NORDER=       0
          MIX   =       F          PRTMO =       F          PUNMO =       F
          TOLZ  = 1.0E-08          TOLE  = 1.0E-05
          SYMDEN=       F          PURIFY=       F

 INITIAL GUESS ORBITALS GENERATED BY HUCKEL   ROUTINE.
 HUCKEL GUESS REQUIRES      8706 WORDS.

 SYMMETRIES FOR INITIAL GUESS ORBITALS FOLLOW.  ALPHA SET(S).
     7 ORBITALS ARE OCCUPIED (    2 CORE ORBITALS).
     3=A        4=A        5=A        6=A        7=A        8=A        9=A   
    10=A       11=A       12=A       13=A       14=A       15=A       16=A   
    17=A   

 SYMMETRIES FOR INITIAL GUESS ORBITALS FOLLOW.   BETA SET(S).
     7 ORBITALS ARE OCCUPIED (    2 CORE ORBITALS).
     3=A        4=A        5=A        6=A        7=A        8=A        9=A   
    10=A       11=A       12=A       13=A       14=A       15=A       16=A   
    17=A   
 ...... END OF INITIAL ORBITAL SELECTION ......
 STEP CPU TIME =     0.00 TOTAL CPU TIME =        0.7 (    0.0 MIN)
 TOTAL WALL CLOCK TIME=        0.7 SECONDS, CPU UTILIZATION IS  98.53%
  ...... END OF TWO-ELECTRON INTEGRALS .....
 STEP CPU TIME =     0.00 TOTAL CPU TIME =        0.7 (    0.0 MIN)
 TOTAL WALL CLOCK TIME=        0.7 SECONDS, CPU UTILIZATION IS  98.53%

          ---------------------------
                  UHF SCF CALCULATION
          ---------------------------
     DENSITY MATRIX CONV=  2.00E-06

 DIRECT SCF CALCULATION, SCHWRZ=T   FDIFF=F

                                                                                NONZERO     BLOCKS
 ITER EX      TOTAL ENERGY        E CHANGE  DENSITY CHANGE    DIIS ERROR      INTEGRALS    SKIPPED
   1  0     -108.6114379531  -108.6114379531   0.198154566   0.764878500          28697          0
          * * *   INITIATING DIIS PROCEDURE   * * *
   2  1     -108.9463027273    -0.3348647742   0.069892819   0.062387015          28697          0
   3  2     -108.9533290717    -0.0070263444   0.011541519   0.015483540          28697          0
   4  3     -108.9537652180    -0.0004361464   0.007566975   0.003586443          28697          0
   5  4     -108.9537959874    -0.0000307694   0.000762820   0.000385191          28697          0
   6  5     -108.9537962511    -0.0000002637   0.000081435   0.000029816          28697          0
   7  6     -108.9537962529    -0.0000000018   0.000009797   0.000004507          28697          0
   8  7     -108.9537962529    -0.0000000000   0.000000956   0.000000977          28697          0
   9  8     -108.9537962529    -0.0000000000   0.000000141   0.000000041          28697          0

          -----------------
          DENSITY CONVERGED
          -----------------
     TIME TO FORM FOCK OPERATORS=       0.2 SECONDS (       0.0 SEC/ITER)
     FOCK TIME ON FIRST ITERATION=       0.0, LAST ITERATION=       0.0
     TIME TO SOLVE SCF EQUATIONS=       0.0 SECONDS (       0.0 SEC/ITER)

 FINAL UHF ENERGY IS     -108.9537962529 AFTER   9 ITERATIONS

          --------------------
          SPIN SZ   =    0.000
          S-SQUARED =   -0.000
          --------------------

 LZ VALUE ANALYSIS FOR THE MOS
 ----------------------------------------
 MO     1 (    1) HAS LZ(WEIGHT)= 0.00(100.0%) 
 MO     2 (    2) HAS LZ(WEIGHT)= 0.00(100.0%) 
 MO     3 (    3) HAS LZ(WEIGHT)= 0.00(100.0%) 
 MO     4 (    4) HAS LZ(WEIGHT)= 0.00(100.0%) 
 MO     5 (    5) HAS LZ(WEIGHT)= 0.00(100.0%) 
 MO     6 (    6) HAS LZ(WEIGHT)=-1.00( 50.0%)  1.00( 50.0%) 
 MO     7 (    6) HAS LZ(WEIGHT)=-1.00( 50.0%)  1.00( 50.0%) 
 MO     8 (    7) HAS LZ(WEIGHT)=-1.00( 50.0%)  1.00( 50.0%) 
 MO     9 (    7) HAS LZ(WEIGHT)=-1.00( 50.0%)  1.00( 50.0%) 
 MO    10 (    8) HAS LZ(WEIGHT)= 0.00(100.0%) 
 MO    11 (    9) HAS LZ(WEIGHT)= 0.00(100.0%) 
 MO    12 (   10) HAS LZ(WEIGHT)=-1.00( 50.0%)  1.00( 50.0%) 
 MO    13 (   10) HAS LZ(WEIGHT)=-1.00( 50.0%)  1.00( 50.0%) 
 MO    14 (   11) HAS LZ(WEIGHT)= 0.00(100.0%) 
 MO    15 (   12) HAS LZ(WEIGHT)=-1.00( 50.0%)  1.00( 50.0%) 
 MO    16 (   12) HAS LZ(WEIGHT)=-1.00( 50.0%)  1.00( 50.0%) 
 MO    17 (   13) HAS LZ(WEIGHT)= 0.00(100.0%) 
 MO    18 (   14) HAS LZ(WEIGHT)= 0.00(100.0%) 
 MO    19 (   15) HAS LZ(WEIGHT)=-2.00( 50.0%)  2.00( 50.0%) 
 MO    20 (   15) HAS LZ(WEIGHT)=-2.00( 50.0%)  2.00( 50.0%) 
 MO    21 (   16) HAS LZ(WEIGHT)=-1.00( 50.0%)  1.00( 50.0%) 
 MO    22 (   16) HAS LZ(WEIGHT)=-1.00( 50.0%)  1.00( 50.0%) 
 MO    23 (   17) HAS LZ(WEIGHT)=-2.00( 50.0%)  2.00( 50.0%) 
 MO    24 (   17) HAS LZ(WEIGHT)=-2.00( 50.0%)  2.00( 50.0%) 
 MO    25 (   18) HAS LZ(WEIGHT)= 0.00(100.0%) 
 MO    26 (   19) HAS LZ(WEIGHT)=-1.00( 50.0%)  1.00( 50.0%) 
 MO    27 (   19) HAS LZ(WEIGHT)=-1.00( 50.0%)  1.00( 50.0%) 
 MO    28 (   20) HAS LZ(WEIGHT)= 0.00(100.0%) 

 LZ VALUE ANALYSIS FOR THE MOS
 ----------------------------------------
 MO     1 (    1) HAS LZ(WEIGHT)= 0.00(100.0%) 
 MO     2 (    2) HAS LZ(WEIGHT)= 0.00(100.0%) 
 MO     3 (    3) HAS LZ(WEIGHT)= 0.00(100.0%) 
 MO     4 (    4) HAS LZ(WEIGHT)= 0.00(100.0%) 
 MO     5 (    5) HAS LZ(WEIGHT)= 0.00(100.0%) 
 MO     6 (    6) HAS LZ(WEIGHT)=-1.00( 50.0%)  1.00( 50.0%) 
 MO     7 (    6) HAS LZ(WEIGHT)=-1.00( 50.0%)  1.00( 50.0%) 
 MO     8 (    7) HAS LZ(WEIGHT)=-1.00( 50.0%)  1.00( 50.0%) 
 MO     9 (    7) HAS LZ(WEIGHT)=-1.00( 50.0%)  1.00( 50.0%) 
 MO    10 (    8) HAS LZ(WEIGHT)= 0.00(100.0%) 
 MO    11 (    9) HAS LZ(WEIGHT)= 0.00(100.0%) 
 MO    12 (   10) HAS LZ(WEIGHT)=-1.00( 50.0%)  1.00( 50.0%) 
 MO    13 (   10) HAS LZ(WEIGHT)=-1.00( 50.0%)  1.00( 50.0%) 
 MO    14 (   11) HAS LZ(WEIGHT)= 0.00(100.0%) 
 MO    15 (   12) HAS LZ(WEIGHT)=-1.00( 50.0%)  1.00( 50.0%) 
 MO    16 (   12) HAS LZ(WEIGHT)=-1.00( 50.0%)  1.00( 50.0%) 
 MO    17 (   13) HAS LZ(WEIGHT)= 0.00(100.0%) 
 MO    18 (   14) HAS LZ(WEIGHT)= 0.00(100.0%) 
 MO    19 (   15) HAS LZ(WEIGHT)=-2.00( 50.0%)  2.00( 50.0%) 
 MO    20 (   15) HAS LZ(WEIGHT)=-2.00( 50.0%)  2.00( 50.0%) 
 MO    21 (   16) HAS LZ(WEIGHT)=-1.00( 50.0%)  1.00( 50.0%) 
 MO    22 (   16) HAS LZ(WEIGHT)=-1.00( 50.0%)  1.00( 50.0%) 
 MO    23 (   17) HAS LZ(WEIGHT)=-2.00( 50.0%)  2.00( 50.0%) 
 MO    24 (   17) HAS LZ(WEIGHT)=-2.00( 50.0%)  2.00( 50.0%) 
 MO    25 (   18) HAS LZ(WEIGHT)= 0.00(100.0%) 
 MO    26 (   19) HAS LZ(WEIGHT)=-1.00( 50.0%)  1.00( 50.0%) 
 MO    27 (   19) HAS LZ(WEIGHT)=-1.00( 50.0%)  1.00( 50.0%) 
 MO    28 (   20) HAS LZ(WEIGHT)= 0.00(100.0%) 
 ...... END OF UHF CALCULATION ......
 STEP CPU TIME =     0.18 TOTAL CPU TIME =        0.9 (    0.0 MIN)
 TOTAL WALL CLOCK TIME=        0.9 SECONDS, CPU UTILIZATION IS  98.84%

 -------------------   ---------------------------------------
 UHF-MP2 CALCULATION   PROGRAM WRITTEN BY S.MALUENDES,M.DUPUIS
 -------------------   ---------------------------------------
 NACORE,NBCORE=   2   2 NALPHA,NBETA OCC=    7    7 NMOS=   28 NAOS=   30

 MEMORY REQUIREMENTS FOR SEGMENTED MP2 TRANSFORMATION
   MINIMUM=         107214 WORDS, USING 1 MOLECULAR ORBITAL PER PASS
   MAXIMUM=         218814 WORDS, MAKING ONLY 1 INTEGRAL PASS
 CHOOSING THE SEGMENTED MP2 TRANSFORMATION...
   NUMBER OF MOS/PASS =    5
   NUMBER OF PASSES   =    1
   MEMORY USED =          218814 WORDS.

 RESULTS OF MOLLER-PLESSET 2ND ORDER CORRECTION ARE
               E(0)=      -108.9537962529
               E(1)=         0.0
               E(2)=        -0.3069909984
             E(MP2)=      -109.2607872513
 ..... DONE WITH MP2 ENERGY .....
 STEP CPU TIME =     0.02 TOTAL CPU TIME =        0.9 (    0.0 MIN)
 TOTAL WALL CLOCK TIME=        0.9 SECONDS, CPU UTILIZATION IS  98.86%

          ---------------------------------------
          EDMISTON-RUEDENBERG ENERGY LOCALIZATION
          ---------------------------------------
          C.EDMISTON AND K.RUEDENBERG, REV.MOD.PHYS. 35, 457-465 (1963)

 ***** ALPHA ORBITAL LOCALIZATION *****

          ---------------------------------------
          EDMISTON-RUEDENBERG ENERGY LOCALIZATION
          ---------------------------------------
          C.EDMISTON AND K.RUEDENBERG, REV.MOD.PHYS. 35, 457-465 (1963)

 ***** ALPHA ORBITAL LOCALIZATION *****

 THIS LOCALIZATION REQUIRES     33339 WORDS OF MEMORY.
 THIS LOCALIZATION HAS    7 ORBITALS, OF WHICH   0 ARE FROZEN.

 ****** BETA ORBITAL LOCALIZATION *****

          ---------------------------------------
          EDMISTON-RUEDENBERG ENERGY LOCALIZATION
          ---------------------------------------
          C.EDMISTON AND K.RUEDENBERG, REV.MOD.PHYS. 35, 457-465 (1963)

 ****** BETA ORBITAL LOCALIZATION *****

 THIS LOCALIZATION REQUIRES     33339 WORDS OF MEMORY.
 THIS LOCALIZATION HAS    7 ORBITALS, OF WHICH   0 ARE FROZEN.
 ... DONE WITH ENERGY LOCALIZATION ...
 STEP CPU TIME =     0.04 TOTAL CPU TIME =        0.9 (    0.0 MIN)
 TOTAL WALL CLOCK TIME=        0.9 SECONDS, CPU UTILIZATION IS  98.91%

          ---------------------------------------
          EDMISTON-RUEDENBERG ENERGY LOCALIZATION
          ---------------------------------------
          C.EDMISTON AND K.RUEDENBERG, REV.MOD.PHYS. 35, 457-465 (1963)

          ---------------------------------------
          EDMISTON-RUEDENBERG ENERGY LOCALIZATION
          ---------------------------------------
          C.EDMISTON AND K.RUEDENBERG, REV.MOD.PHYS. 35, 457-465 (1963)

 THIS LOCALIZATION REQUIRES     39044 WORDS OF MEMORY.
 THIS LOCALIZATION HAS   14 ORBITALS, OF WHICH   0 ARE FROZEN.
 ... DONE WITH ENERGY LOCALIZATION ...
 STEP CPU TIME =     0.03 TOTAL CPU TIME =        0.9 (    0.0 MIN)
 TOTAL WALL CLOCK TIME=        1.0 SECONDS, CPU UTILIZATION IS  98.95%

          ---------------------------------------------
          MONOMER ELECTROSTATIC INTERACTION (OWN BASIS)
          ---------------------------------------------

          ********************
          1 ELECTRON INTEGRALS
          ********************
 ...... END OF ONE-ELECTRON INTEGRALS ......
 STEP CPU TIME =     0.00 TOTAL CPU TIME =        0.9 (    0.0 MIN)
 TOTAL WALL CLOCK TIME=        1.0 SECONDS, CPU UTILIZATION IS  98.95%

          ---------------------------------------
          EDMISTON-RUEDENBERG ENERGY LOCALIZATION
          ---------------------------------------
          C.EDMISTON AND K.RUEDENBERG, REV.MOD.PHYS. 35, 457-465 (1963)

 ***** ALPHA ORBITAL LOCALIZATION *****

          ---------------------------------------
          EDMISTON-RUEDENBERG ENERGY LOCALIZATION
          ---------------------------------------
          C.EDMISTON AND K.RUEDENBERG, REV.MOD.PHYS. 35, 457-465 (1963)

 ***** ALPHA ORBITAL LOCALIZATION *****

 THIS LOCALIZATION REQUIRES     33339 WORDS OF MEMORY.
 THIS LOCALIZATION HAS    7 ORBITALS, OF WHICH   0 ARE FROZEN.

 ****** BETA ORBITAL LOCALIZATION *****

          ---------------------------------------
          EDMISTON-RUEDENBERG ENERGY LOCALIZATION
          ---------------------------------------
          C.EDMISTON AND K.RUEDENBERG, REV.MOD.PHYS. 35, 457-465 (1963)

 ****** BETA ORBITAL LOCALIZATION *****

 THIS LOCALIZATION REQUIRES     33339 WORDS OF MEMORY.
 THIS LOCALIZATION HAS    7 ORBITALS, OF WHICH   0 ARE FROZEN.
 ... DONE WITH ENERGY LOCALIZATION ...
 STEP CPU TIME =     0.05 TOTAL CPU TIME =        1.0 (    0.0 MIN)
 TOTAL WALL CLOCK TIME=        1.0 SECONDS, CPU UTILIZATION IS 100.00%

          ---------------------------------------
          EDMISTON-RUEDENBERG ENERGY LOCALIZATION
          ---------------------------------------
          C.EDMISTON AND K.RUEDENBERG, REV.MOD.PHYS. 35, 457-465 (1963)

          ---------------------------------------
          EDMISTON-RUEDENBERG ENERGY LOCALIZATION
          ---------------------------------------
          C.EDMISTON AND K.RUEDENBERG, REV.MOD.PHYS. 35, 457-465 (1963)

 THIS LOCALIZATION REQUIRES     39044 WORDS OF MEMORY.
 THIS LOCALIZATION HAS   14 ORBITALS, OF WHICH   0 ARE FROZEN.
 ... DONE WITH ENERGY LOCALIZATION ...
 STEP CPU TIME =     0.02 TOTAL CPU TIME =        1.0 (    0.0 MIN)
 TOTAL WALL CLOCK TIME=        1.0 SECONDS, CPU UTILIZATION IS 100.00%

          ---------------------------------------------
          MONOMER ELECTROSTATIC INTERACTION (ALL BASIS)
          ---------------------------------------------

          ---------------------------------------
          EDMISTON-RUEDENBERG ENERGY LOCALIZATION
          ---------------------------------------
          C.EDMISTON AND K.RUEDENBERG, REV.MOD.PHYS. 35, 457-465 (1963)

 ***** ALPHA ORBITAL LOCALIZATION *****

          ---------------------------------------
          EDMISTON-RUEDENBERG ENERGY LOCALIZATION
          ---------------------------------------
          C.EDMISTON AND K.RUEDENBERG, REV.MOD.PHYS. 35, 457-465 (1963)

 ***** ALPHA ORBITAL LOCALIZATION *****

 THIS LOCALIZATION REQUIRES     33339 WORDS OF MEMORY.
 THIS LOCALIZATION HAS    7 ORBITALS, OF WHICH   0 ARE FROZEN.

 ****** BETA ORBITAL LOCALIZATION *****

          ---------------------------------------
          EDMISTON-RUEDENBERG ENERGY LOCALIZATION
          ---------------------------------------
          C.EDMISTON AND K.RUEDENBERG, REV.MOD.PHYS. 35, 457-465 (1963)

 ****** BETA ORBITAL LOCALIZATION *****

 THIS LOCALIZATION REQUIRES     33339 WORDS OF MEMORY.
 THIS LOCALIZATION HAS    7 ORBITALS, OF WHICH   0 ARE FROZEN.
 ... DONE WITH ENERGY LOCALIZATION ...
 STEP CPU TIME =     0.04 TOTAL CPU TIME =        1.0 (    0.0 MIN)
 TOTAL WALL CLOCK TIME=        1.1 SECONDS, CPU UTILIZATION IS  99.06%

          ---------------------------------------
          EDMISTON-RUEDENBERG ENERGY LOCALIZATION
          ---------------------------------------
          C.EDMISTON AND K.RUEDENBERG, REV.MOD.PHYS. 35, 457-465 (1963)

          ---------------------------------------
          EDMISTON-RUEDENBERG ENERGY LOCALIZATION
          ---------------------------------------
          C.EDMISTON AND K.RUEDENBERG, REV.MOD.PHYS. 35, 457-465 (1963)

 THIS LOCALIZATION REQUIRES     39044 WORDS OF MEMORY.
 THIS LOCALIZATION HAS   14 ORBITALS, OF WHICH   0 ARE FROZEN.
 ... DONE WITH ENERGY LOCALIZATION ...
 STEP CPU TIME =     0.02 TOTAL CPU TIME =        1.1 (    0.0 MIN)
 TOTAL WALL CLOCK TIME=        1.1 SECONDS, CPU UTILIZATION IS  99.07%

          --------------------------------------------------
          MONOMER EXCHANGE-REPULSION INTERACTION (OWN BASIS)
          --------------------------------------------------

          ---------------------------------------
          EDMISTON-RUEDENBERG ENERGY LOCALIZATION
          ---------------------------------------
          C.EDMISTON AND K.RUEDENBERG, REV.MOD.PHYS. 35, 457-465 (1963)

 ***** ALPHA ORBITAL LOCALIZATION *****

          ---------------------------------------
          EDMISTON-RUEDENBERG ENERGY LOCALIZATION
          ---------------------------------------
          C.EDMISTON AND K.RUEDENBERG, REV.MOD.PHYS. 35, 457-465 (1963)

 ***** ALPHA ORBITAL LOCALIZATION *****

 THIS LOCALIZATION REQUIRES     33339 WORDS OF MEMORY.
 THIS LOCALIZATION HAS    7 ORBITALS, OF WHICH   0 ARE FROZEN.

 ****** BETA ORBITAL LOCALIZATION *****

          ---------------------------------------
          EDMISTON-RUEDENBERG ENERGY LOCALIZATION
          ---------------------------------------
          C.EDMISTON AND K.RUEDENBERG, REV.MOD.PHYS. 35, 457-465 (1963)

 ****** BETA ORBITAL LOCALIZATION *****

 THIS LOCALIZATION REQUIRES     33339 WORDS OF MEMORY.
 THIS LOCALIZATION HAS    7 ORBITALS, OF WHICH   0 ARE FROZEN.
 ... DONE WITH ENERGY LOCALIZATION ...
 STEP CPU TIME =     0.04 TOTAL CPU TIME =        1.1 (    0.0 MIN)
 TOTAL WALL CLOCK TIME=        1.1 SECONDS, CPU UTILIZATION IS  99.11%

          ---------------------------------------
          EDMISTON-RUEDENBERG ENERGY LOCALIZATION
          ---------------------------------------
          C.EDMISTON AND K.RUEDENBERG, REV.MOD.PHYS. 35, 457-465 (1963)

          ---------------------------------------
          EDMISTON-RUEDENBERG ENERGY LOCALIZATION
          ---------------------------------------
          C.EDMISTON AND K.RUEDENBERG, REV.MOD.PHYS. 35, 457-465 (1963)

 THIS LOCALIZATION REQUIRES     39044 WORDS OF MEMORY.
 THIS LOCALIZATION HAS   14 ORBITALS, OF WHICH   0 ARE FROZEN.
 ... DONE WITH ENERGY LOCALIZATION ...
 STEP CPU TIME =     0.03 TOTAL CPU TIME =        1.1 (    0.0 MIN)
 TOTAL WALL CLOCK TIME=        1.2 SECONDS, CPU UTILIZATION IS  99.13%

          --------------------------------------------------
          MONOMER EXCHANGE-REPULSION INTERACTION (ALL BASIS)
          --------------------------------------------------

          ---------------------------------------
          EDMISTON-RUEDENBERG ENERGY LOCALIZATION
          ---------------------------------------
          C.EDMISTON AND K.RUEDENBERG, REV.MOD.PHYS. 35, 457-465 (1963)

 ***** ALPHA ORBITAL LOCALIZATION *****

          ---------------------------------------
          EDMISTON-RUEDENBERG ENERGY LOCALIZATION
          ---------------------------------------
          C.EDMISTON AND K.RUEDENBERG, REV.MOD.PHYS. 35, 457-465 (1963)

 ***** ALPHA ORBITAL LOCALIZATION *****

 THIS LOCALIZATION REQUIRES     33339 WORDS OF MEMORY.
 THIS LOCALIZATION HAS    7 ORBITALS, OF WHICH   0 ARE FROZEN.

 ****** BETA ORBITAL LOCALIZATION *****

          ---------------------------------------
          EDMISTON-RUEDENBERG ENERGY LOCALIZATION
          ---------------------------------------
          C.EDMISTON AND K.RUEDENBERG, REV.MOD.PHYS. 35, 457-465 (1963)

 ****** BETA ORBITAL LOCALIZATION *****

 THIS LOCALIZATION REQUIRES     33339 WORDS OF MEMORY.
 THIS LOCALIZATION HAS    7 ORBITALS, OF WHICH   0 ARE FROZEN.
 ... DONE WITH ENERGY LOCALIZATION ...
 STEP CPU TIME =     0.04 TOTAL CPU TIME =        1.2 (    0.0 MIN)
 TOTAL WALL CLOCK TIME=        1.2 SECONDS, CPU UTILIZATION IS  99.16%

          ---------------------------------------
          EDMISTON-RUEDENBERG ENERGY LOCALIZATION
          ---------------------------------------
          C.EDMISTON AND K.RUEDENBERG, REV.MOD.PHYS. 35, 457-465 (1963)

          ---------------------------------------
          EDMISTON-RUEDENBERG ENERGY LOCALIZATION
          ---------------------------------------
          C.EDMISTON AND K.RUEDENBERG, REV.MOD.PHYS. 35, 457-465 (1963)

 THIS LOCALIZATION REQUIRES     39044 WORDS OF MEMORY.
 THIS LOCALIZATION HAS   14 ORBITALS, OF WHICH   0 ARE FROZEN.
 ... DONE WITH ENERGY LOCALIZATION ...
 STEP CPU TIME =     0.03 TOTAL CPU TIME =        1.2 (    0.0 MIN)
 TOTAL WALL CLOCK TIME=        1.2 SECONDS, CPU UTILIZATION IS 100.00%

          ------------------------------------
          RESULTS OF CMO INTERACTION ANALYSIS
          ------------------------------------

     CMO ENERGY
     T   ELECTRON KINETIC ENERGY
     V   ELECTRON-NUCLEUS POTENTIAL ENERGY
     X   ELECTRON-ELECTRON EXCHANGE ENERGY
     J   ELECTRON-ELECTRON REPULSION ENERGY
     N   NUCLEUS-NUCLEUS REPULSION ENERGY

 --------------
 MONOMER ENERGY
 --------------

 MONOMER    1

                   OWN BASIS           ALL BASIS

 T               54.40169122         54.39877681
 V             -128.36275360       -128.35676628
 X               -0.73958307         -0.73965077
 J               20.30953089         20.30613924
 N                0.00000000          0.00000000
 E              -54.39111456        -54.39150099
 E(MP2)         -54.46185509        -54.46533779

 MONOMER    2

                   OWN BASIS           ALL BASIS

 T               54.40169122         54.39877681
 V             -128.36275360       -128.35676628
 X               -0.73958307         -0.73965077
 J               20.30953089         20.30613924
 N                0.00000000          0.00000000
 E              -54.39111456        -54.39150099
 E(MP2)         -54.46185509        -54.46533779

 ------------------------------------------------------------
 SUPER MOLECULE ENERGY  USING NON-ANTISYMMETRIC WAVEFUNCTION
 (ELECTROSTATIC ENERGY: V J N CHANGE)
 ------------------------------------------------------------

              FROM OWN BASIS      FROM ALL BASIS
 T              108.80338245        108.79755362
 V             -302.98630516       -302.97363513
 X               -1.47916614         -1.47930154
 J               62.78299218         62.77465972
 N               23.57244110         23.57244110
 E             -109.30665556       -109.30828222

 ----------------------------------------------------------------------
 SUPER MOLECULE ENERGY  USING ANTISYMMETRIC NONORTHONORMAL WAVEFUNCTION
 (EXCHANGE ENERGY: ONLY X CHANGES)
 ----------------------------------------------------------------------

              FROM OWN BASIS      FROM ALL BASIS
 T              108.80338245        108.79755362
 V             -302.98630516       -302.97363513
 X               -2.23445624         -2.23472911
 J               62.78299218         62.77465972
 N               23.57244110         23.57244110
 E             -110.06194567       -110.06370980

 -----------------------------------------------------------------------
 SUPER MOLECULE ENERGY  USING ANTISYMMETRIC AND ORTHONORMAL WAVEFUNCTION
 (REPULSION ENERGY: T V X J CHANGE)
 -----------------------------------------------------------------------

              FROM OWN BASIS      FROM ALL BASIS
 T              111.28091375        111.26780283
 V             -303.98612222       -303.95736194
 X               -1.75985540         -1.75991667
 J               62.87182598         62.85455523
 N               23.57244110         23.57244110
 E             -108.02079678       -108.02247944

 ---------------------------------------------
 SUPER MOLECULE ENERGY  USING SCF WAVEFUNCTION
 (POLARIZATION ENERGY: T V X J CHANGE)
 ---------------------------------------------
 T              108.69977343        108.69977343
 V             -302.84084564       -302.84084564
 X               -5.43534906         -5.43534906
 J               67.05018390         67.05018390
 N               23.57244110         23.57244110
 E             -108.95379625       -108.95379625
 E(MP2)        -109.26078725       -109.26078725


                   *******************************
                      SUMMARY OF CMOEDA RESULTS
                      - PEIFENG SU AND HUI LI -
                   *******************************


 -------------
 OWN BASIS SET                                       HARTREE          KCAL/MOL
 -------------
 ELECTROSTATIC ENERGY                  ES=         -0.524426           -329.08
 EXCHANGE ENERGY                       EX=         -0.755290           -473.95
 REPULSION ENERGY                     REP=          2.041149           1280.84
 POLARIZATION ENERGY                  POL=         -0.932999           -585.47
 MP2 DISPERSION ENERGY               DISP=         -0.165510           -103.86
 TOTAL INTERACTION ENERGY HF OR DFT     E=         -0.171567           -107.66
 TOTAL INTERACTION ENERGY MP2           E=         -0.337077           -211.52
  

 -------------
 ALL BASIS SET                                       HARTREE          KCAL/MOL
 -------------
 ELECTROSTATIC ENERGY                  ES=         -0.525280           -329.62
 EXCHANGE ENERGY                       EX=         -0.755428           -474.04
 REPULSION ENERGY                     REP=          2.041230           1280.89
 POLARIZATION ENERGY                  POL=         -0.931317           -584.41
 MP2 DISPERSION ENERGY               DISP=         -0.159317            -99.97
 TOTAL INTERACTION ENERGY HF OR DFT     E=         -0.170794           -107.18
 TOTAL INTERACTION ENERGY MP2           E=         -0.330112           -207.15

                   *******************************
                   END OF CMO INTERACTION ANALYSIS
                   *******************************

 STEP CPU TIME =     0.00 TOTAL CPU TIME =        1.2 (    0.0 MIN)
 TOTAL WALL CLOCK TIME=        1.2 SECONDS, CPU UTILIZATION IS 100.00%
              6192528  WORDS OF DYNAMIC MEMORY USED
 EXECUTION OF GAMESS TERMINATED NORMALLY Fri Jun  2 01:00:44 2017
 DDI: 263640 bytes (0.3 MB / 0 MWords) used by master data server.

 ----------------------------------------
 CPU timing information for all processes
 ========================================
 0: 1.151 + 0.63 = 1.215
 ----------------------------------------
 ddikick.x: exited gracefully.
unset echo
----- accounting info -----
Files used on the master node compute-0-7.local were:
-rw-rw-r-- 1 sarom sarom     1495 Jun  2 01:00 /scratch/eda-n-n-ump2.F05
-rw-rw-r-- 1 sarom sarom   180864 Jun  2 01:00 /scratch/eda-n-n-ump2.F09
-rw-rw-r-- 1 sarom sarom 10503120 Jun  2 01:00 /scratch/eda-n-n-ump2.F10
rm: cannot remove `/scratch/sarom': Is a directory
rm: cannot remove `/scratch/tmp': Is a directory
ls: No match.
ls: No match.
ls: No match.
Fri Jun  2 01:00:47 CDT 2017
0.250u 0.174s 0:04.73 8.8%	0+0k 8+376io 0pf+0w
Deleting shmid=2523136.
Deleting shmid=2555905.
Deleting shmid=2785282.
/opt/gridengine/default/spool/compute-0-7/active_jobs/23521.1/pe_hostfile compute-0-7.local
