-catch_rsh /opt/gridengine/default/spool/compute-0-1/active_jobs/24062.1/pe_hostfile
compute-0-1
The primary node assigned by SGE to this run is compute-0-1
Warning: no access to tty (Bad file descriptor).
Thus no job control in this shell.
source /home/sarom/gamess.github.2017-05-31.14.06/install.info
setenv GMS_PATH /home/sarom/gamess.github.2017-05-31.14.06
setenv GMS_BUILD_DIR /home/sarom/gamess.github.2017-05-31.14.06
setenv GMS_TARGET linux64
setenv GMS_FORTRAN gfortran
setenv GMS_GFORTRAN_VERNO 4.4
setenv GMS_MATHLIB mkl-so
setenv GMS_MATHLIB_PATH /share/apps/intel/compilers_and_libraries_2017.1.132/linux/mkl/lib/intel64
setenv GMS_MKL_VERNO 12
setenv GMS_DDI_COMM sockets
setenv GMS_LIBCCHEM false
setenv GMS_EIGEN_PATH
setenv GMS_PHI false
setenv GMS_SHMTYPE sysv
setenv GMS_OPENMP false
unset echo
scrf-h2cnh
tests/solvent/scrf
----- GAMESS execution script 'rungms' -----
This job is running on host compute-0-1.local
under operating system Linux at Fri Jun 2 05:19:42 CDT 2017
Available scratch disk space (Kbyte units) at beginning of the job is
Filesystem           1K-blocks      Used Available Use% Mounted on
/dev/sda1             16126920   3867344  11440376  26% /
GAMESS temporary binary files will be written to /scratch
GAMESS supplementary output files will be written to /home/sarom/restart
Copying input file scrf-h2cnh.inp to your run's scratch directory...
cp tests/solvent/scrf/scrf-h2cnh.inp /scratch/scrf-h2cnh.F05
unset echo
The generated host list is
compute-0-1.local
/home/sarom/gamess.github.2017-05-31.14.06/ddikick.x /home/sarom/gamess.github.2017-05-31.14.06/gamess.00.x scrf-h2cnh -ddi 1 1 compute-0-1.local -scr /scratch

 Distributed Data Interface kickoff program.
 Initiating 1 compute processes on 1 nodes to run the following command:
 /home/sarom/gamess.github.2017-05-31.14.06/gamess.00.x scrf-h2cnh 

          ******************************************************
          *         GAMESS VERSION = 20 APR 2017 (R1)          *
          *             FROM IOWA STATE UNIVERSITY             *
          * M.W.SCHMIDT, K.K.BALDRIDGE, J.A.BOATZ, S.T.ELBERT, *
          *   M.S.GORDON, J.H.JENSEN, S.KOSEKI, N.MATSUNAGA,   *
          *          K.A.NGUYEN, S.J.SU, T.L.WINDUS,           *
          *       TOGETHER WITH M.DUPUIS, J.A.MONTGOMERY       *
          *         J.COMPUT.CHEM.  14, 1347-1363(1993)        *
          **************** 64 BIT LINUX VERSION ****************

  SINCE 1993, STUDENTS AND POSTDOCS WORKING AT IOWA STATE UNIVERSITY
  AND ALSO IN THEIR VARIOUS JOBS AFTER LEAVING ISU HAVE MADE IMPORTANT
  CONTRIBUTIONS TO THE CODE:
     IVANA ADAMOVIC, CHRISTINE AIKENS, YURI ALEXEEV, POOJA ARORA,
     ANDREY ASADCHEV, ROB BELL, PRADIPTA BANDYOPADHYAY, JONATHAN BENTZ,
     BRETT BODE, KURT BRORSEN, CALEB CARLIN, GALINA CHABAN, WEI CHEN,
     CHEOL HO CHOI, PAUL DAY, ALBERT DEFUSCO, NUWAN DESILVA, TIM DUDLEY,
     DMITRI FEDOROV, GRAHAM FLETCHER, MARK FREITAG, KURT GLAESEMANN,
     DAN KEMP, GRANT MERRILL, NORIYUKI MINEZAWA, JONATHAN MULLIN,
     TAKESHI NAGATA, SEAN NEDD, HEATHER NETZLOFF, BOSILJKA NJEGIC, RYAN OLSON,
     MIKE PAK, SPENCER PRUITT, LUKE ROSKOP, JIM SHOEMAKER, LYUDMILA SLIPCHENKO,
     TONY SMITH, SAROM SOK LEANG, JIE SONG, TETSUYA TAKETSUGU, SIMON WEBB,
     PENG XU, SOOHAENG YOO, FEDERICO ZAHARIEV

  ADDITIONAL CODE HAS BEEN PROVIDED BY COLLABORATORS IN OTHER GROUPS:
     IOWA STATE UNIVERSITY:
          JOE IVANIC, AARON WEST, LAIMUTIS BYTAUTAS, KLAUS RUEDENBERG
     UNIVERSITY OF TOKYO: KIMIHIKO HIRAO, TAKAHITO NAKAJIMA,
          TAKAO TSUNEDA, MUNEAKI KAMIYA, SUSUMU YANAGISAWA,
          KIYOSHI YAGI, MAHITO CHIBA, SEIKEN TOKURA, NAOAKI KAWAKAMI
     UNIVERSITY OF AARHUS: FRANK JENSEN
     UNIVERSITY OF IOWA: VISVALDAS KAIRYS, HUI LI
     NATIONAL INST. OF STANDARDS AND TECHNOLOGY: WALT STEVENS, DAVID GARMER
     UNIVERSITY OF PISA: BENEDETTA MENNUCCI, JACOPO TOMASI
     UNIVERSITY OF MEMPHIS: HENRY KURTZ, PRAKASHAN KORAMBATH
     UNIVERSITY OF ALBERTA: TOBY ZENG, MARIUSZ KLOBUKOWSKI
     UNIVERSITY OF NEW ENGLAND: MARK SPACKMAN
     MIE UNIVERSITY: HIROAKI UMEDA
     NAT. INST. OF ADVANCED INDUSTRIAL SCIENCE AND TECHNOLOGY: KAZUO KITAURA
     MICHIGAN STATE UNIVERSITY:
          KAROL KOWALSKI, MARTA WLOCH, JEFFREY GOUR, JESSE LUTZ,
          WEI LI, PIOTR PIECUCH
     UNIVERSITY OF SILESIA: MONIKA MUSIAL, STANISLAW KUCHARSKI
     FACULTES UNIVERSITAIRES NOTRE-DAME DE LA PAIX:
          OLIVIER QUINET, BENOIT CHAMPAGNE
     UNIVERSITY OF CALIFORNIA - SANTA BARBARA: BERNARD KIRTMAN
     INSTITUTE FOR MOLECULAR SCIENCE:
          KAZUYA ISHIMURA, MICHIO KATOUDA, AND SHIGERU NAGASE
     UNIVERSITY OF NOTRE DAME: ANNA POMOGAEVA, DAN CHIPMAN
     KYUSHU UNIVERSITY:
          HARUYUKI NAKANO,
          FENG LONG GU, JACEK KORCHOWIEC, MARCIN MAKOWSKI, AND YURIKO AOKI,
          HIROTOSHI MORI AND EISAKU MIYOSHI
     PENNSYLVANIA STATE UNIVERSITY:
          TZVETELIN IORDANOV, CHET SWALINA, JONATHAN SKONE,
          SHARON HAMMES-SCHIFFER
     WASEDA UNIVERSITY:
          MASATO KOBAYASHI, TOMOKO AKAMA, TSUGUKI TOUMA,
          TAKESHI YOSHIKAWA, YASUHIRO IKABATA, JUNJI SEINO,
          YUYA NAKAJIMA, HIROMI NAKAI
     NANJING UNIVERSITY: SHUHUA LI
     UNIVERSITY OF NEBRASKA:
          PEIFENG SU, DEJUN SI, NANDUN THELLAMUREGE, YALI WANG, HUI LI
     UNIVERSITY OF ZURICH: ROBERTO PEVERATI, KIM BALDRIDGE
     N. COPERNICUS UNIVERSITY AND JACKSON STATE UNIVERSITY:
          MARIA BARYSZ
     UNIVERSITY OF COPENHAGEN: Jimmy Kromann, CASPER STEINMANN
     TOKYO INSTITUTE OF TECHNOLOGY: HIROYA NAKATA
     NAGOYA UNIVERSITY: YOSHIO NISHIMOTO, STEPHAN IRLE
     MOSCOW STATE UNIVERSITY: VLADIMIR MIRONOV

 EXECUTION OF GAMESS BEGUN Fri Jun  2 05:19:42 2017

            ECHO OF THE FIRST FEW INPUT CARDS -
 INPUT CARD>!  twisted H2CNH...MCSCF/TZV++(2df,2pd)//MCSCF/3-21G(d)                         
 INPUT CARD>!  There are 128 AOs, and 18 1A'' determinants in Cs symmetry.                  
 INPUT CARD>!                                                                               
 INPUT CARD>!  experimental spectrum:  J.Phys.Chem.A 108, 4433-4439(2004)                   
 INPUT CARD>!                                                                               
 INPUT CARD>!  FINAL energy= -94.0160248275, 11 iters, for 1-A'' state                      
 INPUT CARD>!  a lower root= -94.0170204171 appears for 3-A'' state, if determinants.       
 INPUT CARD>!                                                                               
 INPUT CARD>!  This run takes 65 seconds on a 2.66 GHz Cloverton (11 Apr 2013)              
 INPUT CARD>!                                                                               
 INPUT CARD> $contrl scftyp=mcscf runtyp=energy nzvar=9 $end                                
 INPUT CARD> $system mwords=2 memddi=10 $end                                                
 INPUT CARD> $guess  guess=moread norb=10                                                   
 INPUT CARD>         norder=1 iorder(3)=4,5,6,7,  3,8,9,10 $end                             
 INPUT CARD> $zmat   izmat(1)= 1,2,1,  1,3,2,  2,3,2,1,  1,5,3,  2,5,3,2,                   
 INPUT CARD>            3,5,3,2,1,  1,4,3,  2,4,3,2,  3,4,3,2,1  $end                       
 INPUT CARD> $scrf   radius=2.00 dielec=80.0 $end                                           
 INPUT CARD>                                                                                
 INPUT CARD> $mcscf  cistep=aldet fullnr=.true. $end                                        
 INPUT CARD> $drt    group=cs istsym=2 fors=.true.                                          
 INPUT CARD>         nmcc=6 ndoc=1 naos=1 nbos=1 nval=1 $end                                
 INPUT CARD>!              nstate is two so we find also the 3-A'' state                    
 INPUT CARD> $det    istsym=2 ncore=6 nact=4 nels=4 nstate=2 $end                           
 INPUT CARD>                                                                                
 INPUT CARD> $data                                                                          
 INPUT CARD>H2C=NH...at the rotational transition state                                     
 INPUT CARD>Cs                                                                              
 INPUT CARD>                                                                                
 INPUT CARD>H           1.0     -1.1182540878       .8561180363       .0000000000           
 INPUT CARD>   tzv                                                                          
 INPUT CARD>   s 1 ; 1 0.036  1.0                                                           
 INPUT CARD>   p 1 ; 1 2.0    1.0                                                           
 INPUT CARD>   p 1 ; 1 0.5    1.0                                                           
 INPUT CARD>   d 1 ; 1 1.0    1.0                                                           
 INPUT CARD>                                                                                
 INPUT CARD>N           7.0      -.7231013873      -.0878084615       .0000000000           
 INPUT CARD>   tzv                                                                          
 INPUT CARD>   l 1 ; 1 0.0639 1.0 1.0                                                       
 INPUT CARD>   d 1 ; 1 1.96   1.0                                                           
 INPUT CARD>   d 1 ; 1 0.49   1.0                                                           
 INPUT CARD>   f 1 ; 1 1.0    1.0                                                           
 INPUT CARD>                                                                                
 INPUT CARD>C           6.0       .7315113444       .0629083616       .0000000000           
 INPUT CARD>   tzv                                                                          
 INPUT CARD>   l 1 ; 1 0.0438 1.0 1.0                                                       
 INPUT CARD>   d 1 ; 1 1.44   1.0                                                           
 INPUT CARD>   d 1 ; 1 0.36   1.0                                                           
 INPUT CARD>   f 1 ; 1 1.0    1.0                                                           
 INPUT CARD>                                                                                
 INPUT CARD>H           1.0      1.2276474767      -.1925579665       .9251216425           
    2000000 WORDS OF MEMORY AVAILABLE


     RUN TITLE
     ---------
 H2C=NH...at the rotational transition state                                     

 THE POINT GROUP OF THE MOLECULE IS CS      
 THE ORDER OF THE PRINCIPAL AXIS IS     0

 ATOM      ATOMIC                      COORDINATES (BOHR)
           CHARGE         X                   Y                   Z
 H           1.0    -2.1131938106        1.6178285018        0.0000000000
 N           7.0    -1.3664634833       -0.1659339316        0.0000000000
 C           6.0     1.3823559978        0.1188795658        0.0000000000
 H           1.0     2.3199173405       -0.3638817934       -1.7482264096
 H           1.0     2.3199173405       -0.3638817934        1.7482264096

          INTERNUCLEAR DISTANCES (ANGS.)
          ------------------------------

                1 H          2 N          3 C          4 H          5 H     

   1 H       0.0000000    1.0233000 *  2.0126633 *  2.7310851 *  2.7310851 *
   2 N       1.0233000 *  0.0000000    1.4624000 *  2.1615373 *  2.1615373 *
   3 C       2.0126633 *  1.4624000 *  0.0000000    1.0804000 *  1.0804000 *
   4 H       2.7310851 *  2.1615373 *  1.0804000 *  0.0000000    1.8502433 *
   5 H       2.7310851 *  2.1615373 *  1.0804000 *  1.8502433 *  0.0000000  

  * ... LESS THAN  3.000


     ATOMIC BASIS SET
     ----------------
 THE CONTRACTED PRIMITIVE FUNCTIONS HAVE BEEN UNNORMALIZED
 THE CONTRACTED BASIS FUNCTIONS ARE NOW NORMALIZED TO UNITY

  SHELL TYPE  PRIMITIVE        EXPONENT          CONTRACTION COEFFICIENT(S)

 H         

      1   S       1            33.6400000    0.025373656982
      1   S       2             5.0580000    0.189681435760
      1   S       3             1.1470000    0.852921469637

      2   S       4             0.3211000    1.000000000000

      3   S       5             0.1013000    1.000000000000

      4   S       6             0.0360000    1.000000000000

      5   P       7             2.0000000    1.000000000000

      6   P       8             0.5000000    1.000000000000

      7   D       9             1.0000000    1.000000000000

 N         

      8   S      10         13520.0000000    0.000760000458
      8   S      11          1999.0000000    0.006076003659
      8   S      12           440.0000000    0.032847019782
      8   S      13           120.9000000    0.132396079735
      8   S      14            38.4700000    0.393261236839
      8   S      15            13.4600000    0.546339329029

      9   S      16            13.4600000    0.252036044515
      9   S      17             4.9930000    0.779385137657

     10   S      18             1.5690000    1.000000000000

     11   S      19             0.5800000    1.000000000000

     12   S      20             0.1923000    1.000000000000

     13   P      21            35.9100000    0.016915996090
     13   P      22             8.4800000    0.102199976379
     13   P      23             2.7060000    0.338133921850
     13   P      24             0.9921000    0.669280845314

     14   P      25             0.3727000    1.000000000000

     15   P      26             0.1346000    1.000000000000

     16   L      27             0.0639000    1.000000000000    1.000000000000

     17   D      28             1.9600000    1.000000000000

     18   D      29             0.4900000    1.000000000000

     19   F      30             1.0000000    1.000000000000

 C         

     20   S      31          9471.0000000    0.000776000185
     20   S      32          1398.0000000    0.006218001481
     20   S      33           307.5000000    0.033575007997
     20   S      34            84.5400000    0.134278031981
     20   S      35            26.9100000    0.393668093760
     20   S      36             9.4090000    0.544169129605

     21   S      37             9.4090000    0.248075019298
     21   S      38             3.5000000    0.782844060899

     22   S      39             1.0680000    1.000000000000

     23   S      40             0.4002000    1.000000000000

     24   S      41             0.1351000    1.000000000000

     25   P      42            25.3700000    0.016294995820
     25   P      43             5.7760000    0.102097973810
     25   P      44             1.7870000    0.340227912727
     25   P      45             0.6577000    0.668268828580

     26   P      46             0.2480000    1.000000000000

     27   P      47             0.0910600    1.000000000000

     28   L      48             0.0438000    1.000000000000    1.000000000000

     29   D      49             1.4400000    1.000000000000

     30   D      50             0.3600000    1.000000000000

     31   F      51             1.0000000    1.000000000000

 H         

     39   S      52            33.6400000    0.025373656982
     39   S      53             5.0580000    0.189681435760
     39   S      54             1.1470000    0.852921469637

     40   S      55             0.3211000    1.000000000000

     41   S      56             0.1013000    1.000000000000

     42   S      57             0.0360000    1.000000000000

     43   P      58             2.0000000    1.000000000000

     44   P      59             0.5000000    1.000000000000

     45   D      60             1.0000000    1.000000000000

 TOTAL NUMBER OF BASIS SET SHELLS             =   45
 NUMBER OF CARTESIAN GAUSSIAN BASIS FUNCTIONS =  128
 NUMBER OF ELECTRONS                          =   16
 CHARGE OF MOLECULE                           =    0
 SPIN MULTIPLICITY                            =    1
 NUMBER OF OCCUPIED ORBITALS (ALPHA)          =    8
 NUMBER OF OCCUPIED ORBITALS (BETA )          =    8
 TOTAL NUMBER OF ATOMS                        =    5
 THE NUCLEAR REPULSION ENERGY IS       30.3738739358

     $CONTRL OPTIONS
     ---------------
 SCFTYP=MCSCF        RUNTYP=ENERGY       EXETYP=RUN     
 MPLEVL=       0     CITYP =NONE         CCTYP =NONE         VBTYP =NONE    
 DFTTYP=NONE         TDDFT =NONE    
 MULT  =       1     ICHARG=       0     NZVAR =       9     COORD =UNIQUE  
 PP    =NONE         RELWFN=NONE         LOCAL =NONE         NUMGRD=       F
 ISPHER=      -1     NOSYM =       0     MAXIT =      30     UNITS =ANGS    
 PLTORB=       F     MOLPLT=       F     AIMPAC=       F     FRIEND=        
 NPRINT=       7     IREST =       0     GEOM  =INPUT   
 NORMF =       0     NORMP =       0     ITOL  =      20     ICUT  =       9
 INTTYP=BEST         GRDTYP=BEST         QMTTOL= 1.0E-06

     $SYSTEM OPTIONS
     ---------------
  REPLICATED MEMORY=     2000000 WORDS (ON EVERY NODE).
 DISTRIBUTED MEMDDI=          10 MILLION WORDS IN AGGREGATE,
 MEMDDI DISTRIBUTED OVER   1 PROCESSORS IS    10000000 WORDS/PROCESSOR.
 TOTAL MEMORY REQUESTED ON EACH PROCESSOR=    12000000 WORDS.
 TIMLIM=      525600.00 MINUTES, OR     365.0 DAYS.
 PARALL= F  BALTYP=  DLB     KDIAG=    0  COREFL= F
 MXSEQ2=     300 MXSEQ3=     150  mem10=         0

     $SCRF OPTIONS
     ------------
     G     =   0.018     DIELEC=   80.00     RADIUS=    2.00

          ----------------
          PROPERTIES INPUT
          ----------------

     MOMENTS            FIELD           POTENTIAL          DENSITY
 IEMOM =       1   IEFLD =       0   IEPOT =       0   IEDEN =       0
 WHERE =COMASS     WHERE =NUCLEI     WHERE =NUCLEI     WHERE =NUCLEI  
 OUTPUT=BOTH       OUTPUT=BOTH       OUTPUT=BOTH       OUTPUT=BOTH    
 IEMINT=       0   IEFINT=       0                     IEDINT=       0
                                                       MORB  =       0

     -------------------------------
     INTEGRAL TRANSFORMATION OPTIONS
     -------------------------------
     NWORD  =            0
     CUTOFF = 1.0E-09     MPTRAN =       0
     DIRTRF =       F     AOINTS =DUP     

          ----------------------
          MCSCF INPUT PARAMETERS
          ----------------------
 CONVERGER SELECTION: FOCAS = F  SOSCF = F  FULLNR = T  QUD = F  JACOBI = F
 SECULAR EQUATION METHOD CISTEP = ALDET   
 --- GENERAL INPUT OPTIONS:
 MAXIT =      30  MICIT =       1  ACURCY= 1.000E-05
 DAMP  =   0.000  CANONC=       T  ENGTOL= 1.000E-10
 EKT   =       F  NPUNCH=       2  NWORD =         0
 REGENERATE CI AFTER CONVERGENCE = NONE    
 DIABATIZATION AFTER CONVERGENCE =        F
 --- INPUT FOR FULLNR CONVERGER:
 METHOD=DM2       FORS  =       F  DROPC =       T
 LINSER=       F  FCORE =       F  NORB  =     128

          ----------------------
          INTEGRAL INPUT OPTIONS
          ----------------------
 NOPK  =       1 NORDER=       0 SCHWRZ=       F

   --- ENCODED Z MATRIX ---
 COORD  TYPE   I   J   K   L   M   N
    1      1    2   1
    2      1    3   2
    3      2    3   2   1
    4      1    5   3
    5      2    5   3   2
    6      3    5   3   2   1
    7      1    4   3
    8      2    4   3   2
    9      3    4   3   2   1

 THE DETERMINANT OF THE G MATRIX IS 10**(    -3)


                     --------------------
                     INTERNAL COORDINATES
                     --------------------

                 - - ATOMS - -         COORDINATE      COORDINATE
 NO.   TYPE    I  J  K  L  M  N        (BOHR,RAD)       (ANG,DEG)
 ----------------------------------------------------------------
   1 STRETCH   2  1                     1.9337566       1.0233000
   2 STRETCH   3  2                     2.7635353       1.4624000
   3 BEND      3  2  1                  1.8640116     106.8000000
   4 STRETCH   5  3                     2.0416600       1.0804000
   5 BEND      5  3  2                  2.0179497     115.6200000
   6 TORSION   5  3  2  1               1.8894934     108.2600000
   7 STRETCH   4  3                     2.0416600       1.0804000
   8 BEND      4  3  2                  2.0179497     115.6200000
   9 TORSION   4  3  2  1              -1.8894934    -108.2600000

     ------------------------------------------
     THE POINT GROUP IS CS , NAXIS= 0, ORDER= 2
     ------------------------------------------

     DIMENSIONS OF THE SYMMETRY SUBSPACES ARE
 A'  =   84     A'' =   44

 ..... DONE SETTING UP THE RUN .....
 STEP CPU TIME =     0.03 TOTAL CPU TIME =        0.0 (    0.0 MIN)
 TOTAL WALL CLOCK TIME=        0.0 SECONDS, CPU UTILIZATION IS  75.00%

          ********************
          1 ELECTRON INTEGRALS
          ********************
 TIME TO DO ORDINARY INTEGRALS=      0.00
 TIME TO DO   DIPOLE INTEGRALS=      0.01
 ...... END OF ONE-ELECTRON INTEGRALS ......
 STEP CPU TIME =     0.01 TOTAL CPU TIME =        0.0 (    0.0 MIN)
 TOTAL WALL CLOCK TIME=        0.0 SECONDS, CPU UTILIZATION IS 100.00%

          -------------
          GUESS OPTIONS
          -------------
          GUESS =MOREAD            NORB  =      10          NORDER=       1
          MIX   =       F          PRTMO =       F          PUNMO =       F
          TOLZ  = 1.0E-08          TOLE  = 1.0E-05
          SYMDEN=       F          PURIFY=       F

 INITIAL GUESS ORBITALS GENERATED BY MOREAD   ROUTINE.

 SYMMETRIES FOR INITIAL GUESS ORBITALS FOLLOW.   BOTH SET(S).
     8 ORBITALS ARE OCCUPIED (    2 CORE ORBITALS).
     1=A'       2=A'       3=A'       4=A''      5=A'       6=A'       7=A'  
     8=A''      9=A'      10=A'      11=A'      12=A'      13=A'      14=A'  
    15=A'      16=A'      17=A'      18=A'      19=A'      20=A'      21=A'  
    22=A'      23=A'      24=A'      25=A'      26=A'      27=A'      28=A'  
    29=A'      30=A'      31=A'      32=A'      33=A'      34=A'      35=A'  
    36=A'      37=A'      38=A'      39=A'      40=A'      41=A'      42=A'  
    43=A'      44=A'      45=A'      46=A'      47=A'      48=A'      49=A'  
    50=A'      51=A'      52=A'      53=A'      54=A'      55=A'      56=A'  
    57=A'      58=A'      59=A'      60=A'      61=A'      62=A'      63=A'  
    64=A'      65=A'      66=A'      67=A'      68=A'      69=A'      70=A'  
    71=A'      72=A'      73=A'      74=A'      75=A'      76=A'      77=A'  
    78=A'      79=A'      80=A'      81=A'      82=A'      83=A'      84=A'  
    85=A'      86=A'      87=A''     88=A''     89=A''     90=A''     91=A'' 
    92=A''     93=A''     94=A''     95=A''     96=A''     97=A''     98=A'' 
    99=A''    100=A''    101=A''    102=A''    103=A''    104=A''    105=A'' 
   106=A''    107=A''    108=A''    109=A''    110=A''    111=A''    112=A'' 
   113=A''    114=A''    115=A''    116=A''    117=A''    118=A''    119=A'' 
   120=A''    121=A''    122=A''    123=A''    124=A''    125=A''    126=A'' 
   127=A''    128=A'' 
 ...... END OF INITIAL ORBITAL SELECTION ......
 STEP CPU TIME =     0.01 TOTAL CPU TIME =        0.0 (    0.0 MIN)
 TOTAL WALL CLOCK TIME=        0.1 SECONDS, CPU UTILIZATION IS  83.33%

                    ----------------------
                    AO INTEGRAL TECHNOLOGY
                    ----------------------
     S,P,L SHELL ROTATED AXIS INTEGRALS, REPROGRAMMED BY
        KAZUYA ISHIMURA (IMS) AND JOSE SIERRA (SYNSTAR).
     S,P,D,L SHELL ROTATED AXIS INTEGRALS PROGRAMMED BY
        KAZUYA ISHIMURA (INSTITUTE FOR MOLECULAR SCIENCE).
     S,P,D,F,G SHELL TO TOTAL QUARTET ANGULAR MOMENTUM SUM 5,
        ERIC PROGRAM BY GRAHAM FLETCHER (ELORET AND NASA ADVANCED
        SUPERCOMPUTING DIVISION, AMES RESEARCH CENTER).
     S,P,D,F,G,L SHELL GENERAL RYS QUADRATURE PROGRAMMED BY
        MICHEL DUPUIS (PACIFIC NORTHWEST NATIONAL LABORATORY).

          --------------------
          2 ELECTRON INTEGRALS
          --------------------

 THE -PK- OPTION IS OFF, THE INTEGRALS ARE NOT IN SUPERMATRIX FORM.
 STORING   15000 INTEGRALS/RECORD ON DISK, USING 12 BYTES/INTEGRAL.
 TWO ELECTRON INTEGRAL EVALUATION REQUIRES  100135 WORDS OF MEMORY.
 II,JST,KST,LST =  1  1  1  1 NREC =         1 INTLOC =    1
 II,JST,KST,LST =  2  1  1  1 NREC =         1 INTLOC =    2
 II,JST,KST,LST =  3  1  1  1 NREC =         1 INTLOC =    7
 II,JST,KST,LST =  4  1  1  1 NREC =         1 INTLOC =   22
 II,JST,KST,LST =  5  1  1  1 NREC =         1 INTLOC =   56
 II,JST,KST,LST =  6  1  1  1 NREC =         1 INTLOC =  125
 II,JST,KST,LST =  7  1  1  1 NREC =         1 INTLOC =  329
 II,JST,KST,LST =  8  1  1  1 NREC =         1 INTLOC = 1589
 II,JST,KST,LST =  9  1  1  1 NREC =         1 INTLOC = 3026
 II,JST,KST,LST = 10  1  1  1 NREC =         1 INTLOC = 4763
 II,JST,KST,LST = 11  1  1  1 NREC =         1 INTLOC = 6842
 II,JST,KST,LST = 12  1  1  1 NREC =         1 INTLOC = 9308
 II,JST,KST,LST = 13  1  1  1 NREC =         1 INTLOC =12209
 II,JST,KST,LST = 14  1  1  1 NREC =         2 INTLOC = 6928
 II,JST,KST,LST = 15  1  1  1 NREC =         3 INTLOC = 5524
 II,JST,KST,LST = 16  1  1  1 NREC =         4 INTLOC = 8765
 II,JST,KST,LST = 17  1  1  1 NREC =         6 INTLOC =12679
 II,JST,KST,LST = 18  1  1  1 NREC =        11 INTLOC = 9875
 II,JST,KST,LST = 19  1  1  1 NREC =        18 INTLOC =10666
 II,JST,KST,LST = 20  1  1  1 NREC =        36 INTLOC = 6814
 II,JST,KST,LST = 21  1  1  1 NREC =        39 INTLOC = 5715
 II,JST,KST,LST = 22  1  1  1 NREC =        42 INTLOC =11065
 II,JST,KST,LST = 23  1  1  1 NREC =        46 INTLOC = 7127
 II,JST,KST,LST = 24  1  1  1 NREC =        50 INTLOC = 6547
 II,JST,KST,LST = 25  1  1  1 NREC =        54 INTLOC = 9360
 II,JST,KST,LST = 26  1  1  1 NREC =        67 INTLOC = 7929
 II,JST,KST,LST = 27  1  1  1 NREC =        82 INTLOC = 5108
 II,JST,KST,LST = 28  1  1  1 NREC =        99 INTLOC = 3060
 II,JST,KST,LST = 29  1  1  1 NREC =       125 INTLOC = 9072
 II,JST,KST,LST = 30  1  1  1 NREC =       172 INTLOC =11854
 II,JST,KST,LST = 31  1  1  1 NREC =       231 INTLOC = 2821
 II,JST,KST,LST = 32  1  1  1 NREC =       355 INTLOC = 5131
 II,JST,KST,LST = 33  1  1  1 NREC =       355 INTLOC = 5131
 II,JST,KST,LST = 34  1  1  1 NREC =       355 INTLOC = 5131
 II,JST,KST,LST = 35  1  1  1 NREC =       355 INTLOC = 5131
 II,JST,KST,LST = 36  1  1  1 NREC =       355 INTLOC = 5131
 II,JST,KST,LST = 37  1  1  1 NREC =       355 INTLOC = 5131
 II,JST,KST,LST = 38  1  1  1 NREC =       355 INTLOC = 5131
 II,JST,KST,LST = 39  1  1  1 NREC =       355 INTLOC = 5131
 II,JST,KST,LST = 40  1  1  1 NREC =       384 INTLOC =12564
 II,JST,KST,LST = 41  1  1  1 NREC =       417 INTLOC = 8822
 II,JST,KST,LST = 42  1  1  1 NREC =       452 INTLOC = 5716
 II,JST,KST,LST = 43  1  1  1 NREC =       489 INTLOC = 3874
 II,JST,KST,LST = 44  1  1  1 NREC =       602 INTLOC =11550
 II,JST,KST,LST = 45  1  1  1 NREC =       747 INTLOC =10190
 TOTAL NUMBER OF NONZERO TWO-ELECTRON INTEGRALS =            16605801
       1108 INTEGRAL RECORDS WERE STORED ON DISK FILE  8.
  ...... END OF TWO-ELECTRON INTEGRALS .....
 STEP CPU TIME =     0.91 TOTAL CPU TIME =        1.0 (    0.0 MIN)
 TOTAL WALL CLOCK TIME=        1.0 SECONDS, CPU UTILIZATION IS  98.97%

          -----------------
          MCSCF CALCULATION
          -----------------

 ----- NUCLEAR ENERGY ----- =        30.3738739358

     --------------------------------------------------
          AMES LABORATORY DETERMINANTAL FULL CI
     PROGRAM WRITTEN BY JOE IVANIC AND KLAUS RUEDENBERG
     --------------------------------------------------

 THE POINT GROUP                  =   CS      
 THE STATE SYMMETRY               =   A"      
 NUMBER OF CORE ORBITALS          =    6
 NUMBER OF ACTIVE ORBITALS        =    4
 NUMBER OF ALPHA ELECTRONS        =    8 (   2 ACTIVE)
 NUMBER OF BETA ELECTRONS         =    8 (   2 ACTIVE)
 NUMBER OF OCCUPIED ORBITALS      =   10
 NUMBER OF CI STATES REQUESTED    =    2
 NUMBER OF CI STARTING VECTORS    =    2
 MAX. NO. OF CI EXPANSION VECTORS =   10
 SIZE OF INITIAL CI GUESS MATRIX  =  300
 MAX. NO. OF CI ITERS/STATE       =  100
 CI DIAGONALIZATION CRITERION     = 1.00E-05
 PURE SPIN STATE AVERAGED 1E- AND 2E- DENSITY MATRIX OPTION=.T.
 STATE=   1 DM2 WEIGHT=   1.00000

 CORRELATION ENERGY ANALYSIS      =    F

 SYMMETRIES FOR THE   6 CORE,   4 ACTIVE ARE

     CORE= A'    A'    A'    A''   A'    A'  

   ACTIVE= A'    A''   A'    A'  
 SOLVATION MODEL FOR MCSCF REQUIRES     82432 ADDITIONAL WORDS OF MEMORY

     --------------------------------------------
     PARTIAL TWO ELECTRON INTEGRAL TRANSFORMATION
     --------------------------------------------

 NUMBER OF CORE MOLECULAR ORBITALS     =    6
 NUMBER OF OCCUPIED MOLECULAR ORBITALS =   10
 TOTAL NUMBER OF MOLECULAR ORBITALS    =  128
 TOTAL NUMBER OF ATOMIC ORBITALS       =  128
 THRESHOLD FOR KEEPING TRANSFORMED 2E- INTEGRALS = 1.000E-09
 AO INTEGRALS WILL BE READ IN FROM DISK...

 PLAN A: REQUIREMENTS FOR FULLY IN-MEMORY TRANSFORMATION:
 # OF WORDS AVAILABLE =              1917568
 # OF WORDS NEEDED    =             10709858

 PLAN B: REQUIREMENTS FOR THE SEGMENTED TRANSFORMATION:
       MINIMUM=        1198946 WORDS FOR 1 MOLECULAR ORBITAL PER PASS
       MAXIMUM=       10709858 WORDS FOR ALL MOLECULAR ORBITALS IN 1 PASS
              (        1056768 EXTRA WORDS INCLUDES 1 EXTRA ORBITAL/PASS)
 THIS RUN USES=        1198946 WORDS,
 DISTRIBUTING  10 PASSES EACH CONTAINING     1 ORBITALS OVER   1 PROCESSORS.

 CHOOSING SEGMENTED PARTIAL TRANSFORMATION...
 PASS #   1 TOOK        0.52 SECONDS.
 PASS #   2 TOOK        0.42 SECONDS.
 PASS #   3 TOOK        0.42 SECONDS.
 PASS #   4 TOOK        0.42 SECONDS.
 PASS #   5 TOOK        0.42 SECONDS.
 PASS #   6 TOOK        0.43 SECONDS.
 PASS #   7 TOOK        0.44 SECONDS.
 PASS #   8 TOOK        0.43 SECONDS.
 PASS #   9 TOOK        0.44 SECONDS.
 PASS #  10 TOOK        0.44 SECONDS.
 TOTAL NUMBER OF TRANSFORMED 2E- INTEGRALS KEPT =       586575
 ----- FROZEN CORE ENERGY =      -118.8282056722
 ... END OF INTEGRAL TRANSFORMATION ...
 STEP CPU TIME =     4.40 TOTAL CPU TIME =        5.4 (    0.1 MIN)
 TOTAL WALL CLOCK TIME=        5.4 SECONDS, CPU UTILIZATION IS  99.81%

     --------------------------------------------------
          AMES LABORATORY DETERMINANTAL FULL CI
     PROGRAM WRITTEN BY JOE IVANIC AND KLAUS RUEDENBERG
     --------------------------------------------------

 THE NUMBER OF DETERMINANTS HAVING SPACE SYMMETRY A" 
 IN POINT GROUP CS   WITH SZ=  0.0 IS             18
 THE DETERMINANT FULL CI REQUIRES          186640 WORDS
 SMALL CI MATRIX, JUST USING INCORE DIAGONALIZATION...

 CI EIGENVECTORS WILL BE LABELED IN GROUP=CS      
 PRINTING ALL NON-ZERO CI COEFFICIENTS

 STATE   1  ENERGY=       -94.0105956014  S=  1.00  SZ=  0.00  SPACE SYM=A"  

ALPHA |BETA  | CI COEFFICIENT
------|------|---------------
 1100 | 1010 |                                                                                                       0.7039440901
 1010 | 1100 |                                                                                                      -0.7039440901
 0101 | 0011 |                                                                                                      -0.0587151290
 0011 | 0101 |                                                                                                       0.0587151290
 0101 | 1010 |                                                                                                      -0.0205478104
 1010 | 0101 |                                                                                                       0.0205478104
 1100 | 0011 |                                                                                                       0.0187537787
 0011 | 1100 |                                                                                                      -0.0187537787
 0101 | 1001 |                                                                                                      -0.0100929464
 1001 | 0101 |                                                                                                       0.0100929464
 0110 | 0011 |                                                                                                       0.0083935791
 0011 | 0110 |                                                                                                      -0.0083935791
 1001 | 0110 |                                                                                                      -0.0081700741
 0110 | 1001 |                                                                                                       0.0081700741
 0110 | 1010 |                                                                                                       0.0013742530
 1010 | 0110 |                                                                                                      -0.0013742530
 1100 | 1001 |                                                                                                       0.0006135994
 1001 | 1100 |                                                                                                      -0.0006135994

 STATE   2  ENERGY=       -94.0063026267  S=  0.00  SZ=  0.00  SPACE SYM=A"  

ALPHA |BETA  | CI COEFFICIENT
------|------|---------------
 1010 | 1100 |                                                                                                       0.7031432031
 1100 | 1010 |                                                                                                       0.7031432031
 0011 | 0101 |                                                                                                      -0.0592983807
 0101 | 0011 |                                                                                                      -0.0592983807
 0110 | 1001 |                                                                                                      -0.0352468535
 1001 | 0110 |                                                                                                      -0.0352468535
 1010 | 0101 |                                                                                                      -0.0183700941
 0101 | 1010 |                                                                                                      -0.0183700941
 0011 | 1100 |                                                                                                       0.0168767594
 1100 | 0011 |                                                                                                       0.0168767594
 1001 | 0101 |                                                                                                      -0.0098035554
 0101 | 1001 |                                                                                                      -0.0098035554
 0011 | 0110 |                                                                                                       0.0086322204
 0110 | 0011 |                                                                                                       0.0086322204
 1001 | 1100 |                                                                                                       0.0052850546
 1100 | 1001 |                                                                                                       0.0052850546
 0110 | 1010 |                                                                                                       0.0031867160
 1010 | 0110 |                                                                                                       0.0031867160
 ..... DONE WITH DETERMINANT CI COMPUTATION .....
 STEP CPU TIME =     0.00 TOTAL CPU TIME =        5.4 (    0.1 MIN)
 TOTAL WALL CLOCK TIME=        5.4 SECONDS, CPU UTILIZATION IS  99.63%

     --------------------------------------------------
      ONE AND TWO PARTICLE DENSITY MATRIX COMPUTATION
     PROGRAM WRITTEN BY JOE IVANIC AND KLAUS RUEDENBERG
     --------------------------------------------------

      30572 WORDS WILL BE USED TO FORM THE DENSITIES
 THE DENSITIES ARE STATE AVERAGED OVER   1 ROOT(S)
 STATE=   2   ENERGY=      -94.0063026267   WEIGHT= 1.00000   S=  0.00
 SIEVING THE A'   SYMMETRY NONZERO DENSITY ELEMENTS IN GROUP CS      
         33 NONZERO DM2 ELEMENTS WRITTEN IN       1 RECORDS TO FILE 15
 ..... DONE WITH 1 AND 2 PARTICLE DENSITY MATRIX .....
 STEP CPU TIME =     0.00 TOTAL CPU TIME =        5.4 (    0.1 MIN)
 TOTAL WALL CLOCK TIME=        5.4 SECONDS, CPU UTILIZATION IS  99.63%

     --------------------------------     -----------------------------
     MCHF NEWTON-RAPHSON OPTIMIZATION     CODE WRITTEN BY MICHEL DUPUIS
     --------------------------------     -----------------------------
 FORMING FOCK OPERATOR OVER ACTIVE ORBITAL DENSITY, MEMORY=    329758
 STEP CPU TIME =     0.18 TOTAL CPU TIME =        5.5 (    0.1 MIN)
 TOTAL WALL CLOCK TIME=        5.6 SECONDS, CPU UTILIZATION IS  99.64%
 MEMORY DEMAND FOR 2 ELECTRON NTN-RPH CONTRIBUTIONS
      METHOD=DM2     NEEDS    992012 WORDS
      METHOD=TEI     NEEDS    296752 WORDS
 TOTAL AVAILABLE MEMORY IS   1917568 WORDS
 CHOOSING DM2 DRIVEN METHOD...
 FORMING -LGR- + -COU- + -EXC- FROM (IJ//KL) INTEGRALS
 STEP CPU TIME =     0.01 TOTAL CPU TIME =        5.5 (    0.1 MIN)
 TOTAL WALL CLOCK TIME=        5.6 SECONDS, CPU UTILIZATION IS  99.82%
 FORMING -LGR- + -COU- + -EXC- FROM (AJ//KL) INTEGRALS
 STEP CPU TIME =     0.00 TOTAL CPU TIME =        5.5 (    0.1 MIN)
 TOTAL WALL CLOCK TIME=        5.6 SECONDS, CPU UTILIZATION IS  99.64%
 FORMING         -COU-         FROM (AB//KL) INTEGRALS
 STEP CPU TIME =     0.01 TOTAL CPU TIME =        5.6 (    0.1 MIN)
 TOTAL WALL CLOCK TIME=        5.6 SECONDS, CPU UTILIZATION IS  99.64%
 FORMING                 -EXC- FROM (AJ//BL) INTEGRALS
 ..... DONE WITH 2 ELECTRON CONTRIBUTIONS .....
 STEP CPU TIME =     0.01 TOTAL CPU TIME =        5.6 (    0.1 MIN)
 TOTAL WALL CLOCK TIME=        5.6 SECONDS, CPU UTILIZATION IS  99.64%
 ..... DONE WITH 1 ELECTRON CONTRIBUTIONS .....
 STEP CPU TIME =     0.01 TOTAL CPU TIME =        5.6 (    0.1 MIN)
 TOTAL WALL CLOCK TIME=        5.6 SECONDS, CPU UTILIZATION IS  99.82%
 NUMBER OF INDEPENDENT ORBITAL ROTATION PARAMETERS =   708
 ..... DONE SOLVING NEWTON-RAPHSON EQUATIONS .....
 STEP CPU TIME =     0.02 TOTAL CPU TIME =        5.6 (    0.1 MIN)
 TOTAL WALL CLOCK TIME=        5.6 SECONDS, CPU UTILIZATION IS  99.82%
 ..... DONE WITH NTN-RPH ORBITAL ROTATIONS ..... 
 STEP CPU TIME =     0.00 TOTAL CPU TIME =        5.6 (    0.1 MIN)
 TOTAL WALL CLOCK TIME=        5.6 SECONDS, CPU UTILIZATION IS  99.64%
 MAXIMUM MEMORY USED BY NTN-RPH CODE WAS    992012 WORDS.

 ITER     TOTAL ENERGY      DEL(E)  LAGRANGIAN ASYMMETRY   SQCDF  MICIT   DAMP
   1      -94.006302627 -0.006302627  0.023316    9    6 6.096E-02  1   0.0000
   2      -94.014605708 -0.008303081  0.011764  127    4 2.120E-03  1   0.0000
   3      -94.015869265 -0.001263558  0.003882  127    4 1.417E-04  1   0.0000
   4      -94.016002217 -0.000132952  0.001272  127    4 1.843E-05  1   0.0000
   5      -94.016020590 -0.000018373  0.000433  127    4 3.255E-06  1   0.0000
   6      -94.016023882 -0.000003292  0.000202   10    3 6.788E-07  1   0.0000
   7      -94.016024596 -0.000000715  0.000100   67    7 1.571E-07  1   0.0000
   8      -94.016024769 -0.000000173  0.000053  128    4 3.824E-08  1   0.0000
   9      -94.016024813 -0.000000044  0.000028  128    4 1.108E-08  1   0.0000
  10      -94.016024824 -0.000000012  0.000014  128    4 2.623E-09  1   0.0000
  11      -94.016024827 -0.000000003  0.000007  128    4 6.778E-10  1   0.0000

          --------------------
          LAGRANGIAN CONVERGED
          --------------------

 FINAL MCSCF ENERGY IS      -94.0160248275 AFTER  11 ITERATIONS

          INDUCED DIPOLE     ATOMIC UNITS          DEBYE
                X(IND)           -0.00950         -0.02414
                Y(IND)           -0.01200         -0.03051
                Z(IND)            0.00000          0.00000

 -MCCI- BASED ON OPTIMIZED ORBITALS
 ----------------------------------

 PLEASE NOTE: IF THE ACTIVE ORBITALS ARE CANONICALIZED BELOW,
 THE FOLLOWING CI EXPANSION COEFFICIENTS AND THE DENSITY DO NOT
 CORRESPOND TO THE PRINTED ORBITALS.  THE PRINTED EXPANSIONS MATCH
 THE ORBITALS USED DURING THE LAST ITERATION.  IF YOU WISH TO SEE
 CI EXPANSIONS BASED ON THE CANONICAL (OR NATURAL) ORBITALS, YOU
 MUST RUN A CI CALCULATION WITH THAT ORBITAL CHOICE READ IN $VEC.

 CI EIGENVECTORS WILL BE LABELED IN GROUP=CS      
 PRINTING ALL NON-ZERO CI COEFFICIENTS

 STATE   1  ENERGY=       -94.0170204171  S=  1.00  SZ=  0.00  SPACE SYM=A"  

ALPHA |BETA  | CI COEFFICIENT
------|------|---------------
 1100 | 1010 |                                                                                                       0.7026670408
 1010 | 1100 |                                                                                                      -0.7026670408
 0101 | 0011 |                                                                                                      -0.0676619807
 0011 | 0101 |                                                                                                       0.0676619807
 0101 | 1010 |                                                                                                      -0.0297706527
 1010 | 0101 |                                                                                                       0.0297706527
 1100 | 0011 |                                                                                                       0.0187493776
 0011 | 1100 |                                                                                                      -0.0187493776
 0110 | 1010 |                                                                                                       0.0142979609
 1010 | 0110 |                                                                                                      -0.0142979609
 0101 | 1001 |                                                                                                      -0.0098489999
 1001 | 0101 |                                                                                                       0.0098489999
 0110 | 0011 |                                                                                                       0.0095787338
 0011 | 0110 |                                                                                                      -0.0095787338
 1001 | 0110 |                                                                                                      -0.0068752707
 0110 | 1001 |                                                                                                       0.0068752707
 1001 | 1100 |                                                                                                       0.0016122285
 1100 | 1001 |                                                                                                      -0.0016122285

 STATE   2  ENERGY=       -94.0160248275  S=  0.00  SZ=  0.00  SPACE SYM=A"  

ALPHA |BETA  | CI COEFFICIENT
------|------|---------------
 1010 | 1100 |                                                                                                       0.7013731812
 1100 | 1010 |                                                                                                       0.7013731812
 0011 | 0101 |                                                                                                      -0.0685475829
 0101 | 0011 |                                                                                                      -0.0685475829
 0110 | 1001 |                                                                                                      -0.0424918070
 1001 | 0110 |                                                                                                      -0.0424918070
 1010 | 0101 |                                                                                                      -0.0265130505
 0101 | 1010 |                                                                                                      -0.0265130505
 1010 | 0110 |                                                                                                       0.0196949341
 0110 | 1010 |                                                                                                       0.0196949341
 0011 | 1100 |                                                                                                       0.0159787565
 1100 | 0011 |                                                                                                       0.0159787565
 0011 | 0110 |                                                                                                       0.0103724422
 0110 | 0011 |                                                                                                       0.0103724422
 1001 | 0101 |                                                                                                      -0.0097073884
 0101 | 1001 |                                                                                                      -0.0097073884
 1100 | 1001 |                                                                                                       0.0048334226
 1001 | 1100 |                                                                                                       0.0048334226

 DENSITY MATRIX OVER ACTIVE MO-S

             1           2           3           4

    1    1.9742827
    2    0.0000000   1.0000000
    3   -0.0269439   0.0000000   1.0007558
    4    0.0130180   0.0000000   0.0039797   0.0249615

 FORMING THE "STANDARD FOCK OPERATOR" USING INTEGRALS FROM DISK...
     6 FILLED,    4 ACTIVE, AND  118 VIRTUAL ORBITALS  WILL BE CANONICALIZED

          ----------------------
          MCSCF NATURAL ORBITALS
          ----------------------

                      1          2          3          4          5
                  -15.5865   -11.2420    -0.9717    -0.8205    -0.5894
                     A'         A'         A'         A'         A'' 
    1  H  1  S    0.000279   0.000124   0.142885  -0.032146   0.000000
    2  H  1  S   -0.000320   0.000614   0.174640  -0.036729   0.000000
    3  H  1  S    0.000094  -0.000076   0.027791  -0.002884   0.000000
    4  H  1  S    0.000182   0.000142   0.000355  -0.002210   0.000000
    5  H  1  X    0.000070  -0.000027   0.002940  -0.001154   0.000000
    6  H  1  Y   -0.000194  -0.000010  -0.010691   0.002358   0.000000
    7  H  1  Z   -0.000000   0.000000   0.000000  -0.000000   0.000650
    8  H  1  X   -0.000335  -0.000085   0.006485  -0.002932   0.000000
    9  H  1  Y    0.000698  -0.000116  -0.031774   0.005278   0.000000
   10  H  1  Z   -0.000000   0.000000   0.000000  -0.000000   0.001094
   11  H  1 XX   -0.000120  -0.000100  -0.000130   0.000295   0.000000
   12  H  1 YY   -0.000359   0.000036   0.007850  -0.001133   0.000000
   13  H  1 ZZ   -0.000087   0.000002  -0.000461   0.000219   0.000000
   14  H  1 XY    0.000116   0.000041  -0.003056   0.000669   0.000000
   15  H  1 XZ   -0.000000   0.000000   0.000000  -0.000000   0.000135
   16  H  1 YZ   -0.000000   0.000000   0.000000  -0.000000  -0.000324
   17  N  2  S    0.558238   0.000213  -0.102445   0.018286   0.000000
   18  N  2  S    0.471836   0.000366  -0.170489   0.031169   0.000000
   19  N  2  S    0.056771  -0.000193   0.059425  -0.009824   0.000000
   20  N  2  S   -0.012870  -0.000882   0.429747  -0.078903   0.000000
   21  N  2  S   -0.008593  -0.000503   0.271887  -0.087949   0.000000
   22  N  2  X   -0.001000  -0.001515  -0.170997   0.012656   0.000000
   23  N  2  Y    0.001479  -0.000145   0.081267  -0.043712   0.000000
   24  N  2  Z   -0.000000   0.000000   0.000000  -0.000000   0.049292
   25  N  2  X   -0.001666  -0.001325  -0.118470   0.007701   0.000000
   26  N  2  Y    0.000964  -0.000284   0.036363  -0.030647   0.000000
   27  N  2  Z   -0.000000   0.000000   0.000000  -0.000000   0.037509
   28  N  2  X   -0.001619  -0.000529  -0.068144  -0.023473   0.000000
   29  N  2  Y   -0.000336  -0.000144   0.000319  -0.006687   0.000000
   30  N  2  Z   -0.000000   0.000000   0.000000  -0.000000  -0.001785
   31  N  2  S    0.003767   0.001771   0.010567  -0.035995   0.000000
   32  N  2  X    0.000977   0.000603  -0.006717  -0.010902   0.000000
   33  N  2  Y   -0.000021   0.000072  -0.005917   0.001707   0.000000
   34  N  2  Z   -0.000000   0.000000   0.000000  -0.000000   0.006639
   35  N  2 XX    0.001490   0.000077   0.001770   0.001464   0.000000
   36  N  2 YY    0.001648  -0.000007   0.011914  -0.003004   0.000000
   37  N  2 ZZ    0.001415  -0.000021   0.001957  -0.000112   0.000000
   38  N  2 XY   -0.000056  -0.000014  -0.005395   0.000310   0.000000
   39  N  2 XZ   -0.000000   0.000000   0.000000  -0.000000   0.003708
   40  N  2 YZ   -0.000000   0.000000   0.000000  -0.000000   0.000563
   41  N  2 XX    0.003669  -0.000043   0.003848   0.007334   0.000000
   42  N  2 YY    0.004794  -0.000018   0.019075  -0.004138   0.000000
   43  N  2 ZZ    0.004268   0.000010   0.003211   0.003027   0.000000
   44  N  2 XY   -0.000336   0.000019  -0.008477  -0.001369   0.000000
   45  N  2 XZ   -0.000000   0.000000   0.000000  -0.000000   0.013298
   46  N  2 YZ   -0.000000   0.000000   0.000000  -0.000000   0.002315
   47  N  2 XXX  -0.000779   0.000110   0.004549  -0.000556   0.000000
   48  N  2 YYY  -0.000799   0.000035   0.002679  -0.000493   0.000000
   49  N  2 ZZZ  -0.000000   0.000000   0.000000  -0.000000  -0.001341
   50  N  2 XXY  -0.000403  -0.000004   0.001546  -0.000689   0.000000
   51  N  2 XXZ  -0.000000   0.000000   0.000000  -0.000000   0.003302
   52  N  2 YYX  -0.000333   0.000067  -0.000900  -0.000216   0.000000
   53  N  2 YYZ  -0.000000   0.000000   0.000000  -0.000000  -0.000458
   54  N  2 ZZX  -0.000233   0.000018   0.000927  -0.000251   0.000000
   55  N  2 ZZY  -0.000415   0.000005  -0.000698   0.000358   0.000000
   56  N  2 XYZ  -0.000000   0.000000   0.000000  -0.000000   0.000445
   57  C  3  S    0.000214   0.575978  -0.012801  -0.096319   0.000000
   58  C  3  S    0.000426   0.457221  -0.019328  -0.153330   0.000000
   59  C  3  S   -0.000593   0.054193   0.006241   0.049804   0.000000
   60  C  3  S   -0.000274  -0.015002   0.033013   0.359520   0.000000
   61  C  3  S    0.001033  -0.007987   0.011471   0.240805   0.000000
   62  C  3  X    0.001519   0.000746   0.046338   0.161185   0.000000
   63  C  3  Y    0.000006  -0.000618  -0.004446  -0.069026   0.000000
   64  C  3  Z   -0.000000   0.000000   0.000000  -0.000000   0.358701
   65  C  3  X    0.000209   0.001034   0.048704   0.087622   0.000000
   66  C  3  Y   -0.000085  -0.000343  -0.001266  -0.036611   0.000000
   67  C  3  Z   -0.000000   0.000000   0.000000  -0.000000   0.203099
   68  C  3  X   -0.000196   0.000339   0.013234   0.008257   0.000000
   69  C  3  Y   -0.000028   0.000177  -0.002931  -0.025690   0.000000
   70  C  3  Z   -0.000000   0.000000   0.000000  -0.000000   0.077199
   71  C  3  S   -0.002810   0.000788   0.006919   0.021258   0.000000
   72  C  3  X    0.000813   0.000390  -0.003805  -0.008376   0.000000
   73  C  3  Y    0.000151  -0.000137  -0.000071   0.000547   0.000000
   74  C  3  Z   -0.000000   0.000000   0.000000  -0.000000  -0.040518
   75  C  3 XX    0.000093   0.001326   0.001674  -0.000397   0.000000
   76  C  3 YY   -0.000049   0.001272  -0.001170  -0.000802   0.000000
   77  C  3 ZZ   -0.000008   0.001634   0.001326   0.013777   0.000000
   78  C  3 XY    0.000012  -0.000070  -0.001513  -0.002472   0.000000
   79  C  3 XZ   -0.000000   0.000000   0.000000  -0.000000   0.010641
   80  C  3 YZ   -0.000000   0.000000   0.000000  -0.000000  -0.006985
   81  C  3 XX    0.000205   0.004283  -0.005809  -0.014453   0.000000
   82  C  3 YY   -0.000224   0.004475  -0.004216  -0.007236   0.000000
   83  C  3 ZZ   -0.000180   0.004901   0.000738   0.007807   0.000000
   84  C  3 XY    0.000006  -0.000109  -0.003552  -0.004568   0.000000
   85  C  3 XZ   -0.000000   0.000000   0.000000  -0.000000   0.006842
   86  C  3 YZ   -0.000000   0.000000   0.000000  -0.000000  -0.010756
   87  C  3 XXX  -0.000369   0.000396  -0.000756  -0.004379   0.000000
   88  C  3 YYY  -0.000001   0.000203   0.000205   0.002355   0.000000
   89  C  3 ZZZ  -0.000000   0.000000   0.000000  -0.000000  -0.004031
   90  C  3 XXY  -0.000051   0.000017   0.001077  -0.000579   0.000000
   91  C  3 XXZ  -0.000000   0.000000   0.000000  -0.000000  -0.000924
   92  C  3 YYX   0.000072   0.000220  -0.000802  -0.002079   0.000000
   93  C  3 YYZ  -0.000000   0.000000   0.000000  -0.000000  -0.004395
   94  C  3 ZZX   0.000094   0.000531  -0.000329   0.001317   0.000000
   95  C  3 ZZY  -0.000009  -0.000082  -0.000397  -0.000975   0.000000
   96  C  3 XYZ  -0.000000   0.000000   0.000000  -0.000000  -0.000671
   97  H  4  S    0.000139   0.000500   0.021174   0.123472  -0.146601
   98  H  4  S    0.000066  -0.000249   0.031508   0.170151  -0.229185
   99  H  4  S    0.000164   0.000900   0.012811   0.031118  -0.086139
  100  H  4  S    0.000260  -0.000626  -0.000381   0.001617  -0.031474
  101  H  4  X    0.000005  -0.000013  -0.000089  -0.002651   0.004444
  102  H  4  Y   -0.000005   0.000010   0.000334   0.001466  -0.002449
  103  H  4  Z   -0.000011   0.000034   0.001234   0.007087  -0.005611
  104  H  4  X    0.000023   0.000110   0.000259  -0.009807   0.018085
  105  H  4  Y    0.000003  -0.000059   0.000496   0.003310  -0.006041
  106  H  4  Z   -0.000026  -0.000122   0.003718   0.024410  -0.019641
  107  H  4 XX    0.000025   0.000002  -0.000500   0.001059  -0.001552
  108  H  4 YY    0.000032   0.000013  -0.000165   0.000193  -0.000095
  109  H  4 ZZ   -0.000003  -0.000097   0.000944   0.004930  -0.003370
  110  H  4 XY    0.000006   0.000015  -0.000033  -0.000630   0.000990
  111  H  4 XZ    0.000025   0.000056  -0.000165  -0.002520   0.003176
  112  H  4 YZ   -0.000007  -0.000033   0.000322   0.001320  -0.001528
  113  H  5  S    0.000139   0.000500   0.021174   0.123472   0.146601
  114  H  5  S    0.000066  -0.000249   0.031508   0.170151   0.229185
  115  H  5  S    0.000164   0.000900   0.012811   0.031118   0.086139
  116  H  5  S    0.000260  -0.000626  -0.000381   0.001617   0.031474
  117  H  5  X    0.000005  -0.000013  -0.000089  -0.002651  -0.004444
  118  H  5  Y   -0.000005   0.000010   0.000334   0.001466   0.002449
  119  H  5  Z    0.000011  -0.000034  -0.001234  -0.007087  -0.005611
  120  H  5  X    0.000023   0.000110   0.000259  -0.009807  -0.018085
  121  H  5  Y    0.000003  -0.000059   0.000496   0.003310   0.006041
  122  H  5  Z    0.000026   0.000122  -0.003718  -0.024410  -0.019641
  123  H  5 XX    0.000025   0.000002  -0.000500   0.001059   0.001552
  124  H  5 YY    0.000032   0.000013  -0.000165   0.000193   0.000095
  125  H  5 ZZ   -0.000003  -0.000097   0.000944   0.004930   0.003370
  126  H  5 XY    0.000006   0.000015  -0.000033  -0.000630  -0.000990
  127  H  5 XZ   -0.000025  -0.000056   0.000165   0.002520   0.003176
  128  H  5 YZ    0.000007   0.000033  -0.000322  -0.001320  -0.001528

                      6          7          8          9         10
                   -0.5425     1.9751     1.0000     1.0000     0.0249
                     A'         A'         A'         A''        A'  
    1  H  1  S    0.123346  -0.021380  -0.046637  -0.000000   0.017459
    2  H  1  S    0.204976  -0.045831  -0.092071  -0.000000   0.061469
    3  H  1  S    0.074133  -0.017514  -0.073000  -0.000000   0.010788
    4  H  1  S    0.004889  -0.004959   0.005719  -0.000000  -0.006271
    5  H  1  X    0.005017   0.002991  -0.000776  -0.000000  -0.001676
    6  H  1  Y   -0.005443   0.002437   0.001828  -0.000000  -0.004511
    7  H  1  Z    0.000000  -0.000000  -0.000000   0.005491   0.000000
    8  H  1  X    0.014655   0.011710  -0.003846  -0.000000   0.005488
    9  H  1  Y   -0.013117   0.007435   0.005233  -0.000000  -0.016262
   10  H  1  Z    0.000000  -0.000000  -0.000000   0.021561   0.000000
   11  H  1 XX   -0.000383   0.002982   0.000050  -0.000000  -0.003497
   12  H  1 YY    0.001418  -0.002800  -0.002389  -0.000000   0.007119
   13  H  1 ZZ   -0.001650   0.001652   0.000095  -0.000000  -0.005240
   14  H  1 XY   -0.003245  -0.001267   0.001603  -0.000000  -0.002424
   15  H  1 XZ    0.000000  -0.000000  -0.000000   0.001092   0.000000
   16  H  1 YZ    0.000000  -0.000000  -0.000000  -0.003970   0.000000
   17  N  2  S    0.047135  -0.041247  -0.003201  -0.000000   0.067916
   18  N  2  S    0.080961  -0.070847  -0.005888  -0.000000   0.119781
   19  N  2  S   -0.030234   0.021027   0.001986  -0.000000  -0.074870
   20  N  2  S   -0.227807   0.196481   0.016429  -0.000000  -0.473765
   21  N  2  S   -0.264652   0.063110   0.076682  -0.000000  -0.287424
   22  N  2  X    0.041831   0.337920  -0.049700  -0.000000  -0.562814
   23  N  2  Y    0.390369   0.040683  -0.090164  -0.000000  -0.075206
   24  N  2  Z    0.000000  -0.000000  -0.000000   0.505444   0.000000
   25  N  2  X    0.038902   0.255154  -0.043228  -0.000000  -0.415465
   26  N  2  Y    0.297225   0.032851  -0.079114  -0.000000  -0.047916
   27  N  2  Z    0.000000  -0.000000  -0.000000   0.419275   0.000000
   28  N  2  X    0.042717   0.115594  -0.028648  -0.000000  -0.062355
   29  N  2  Y    0.163831   0.018905  -0.086652  -0.000000  -0.021555
   30  N  2  Z    0.000000  -0.000000  -0.000000   0.249231   0.000000
   31  N  2  S   -0.083342  -0.057101   0.117774  -0.000000   0.025762
   32  N  2  X    0.014628  -0.007171  -0.005827  -0.000000   0.020455
   33  N  2  Y    0.022578   0.010977  -0.047077  -0.000000   0.015957
   34  N  2  Z    0.000000  -0.000000  -0.000000   0.013363   0.000000
   35  N  2 XX   -0.004652   0.011491  -0.000650  -0.000000  -0.041563
   36  N  2 YY    0.006694  -0.004329  -0.001048  -0.000000   0.015469
   37  N  2 ZZ   -0.006691  -0.003847   0.001186  -0.000000  -0.010011
   38  N  2 XY   -0.001091   0.005610   0.006413  -0.000000  -0.016943
   39  N  2 XZ    0.000000  -0.000000  -0.000000   0.003026   0.000000
   40  N  2 YZ    0.000000  -0.000000  -0.000000   0.004877   0.000000
   41  N  2 XX   -0.018192   0.040264  -0.002539  -0.000000  -0.075693
   42  N  2 YY    0.016547  -0.013861  -0.001402  -0.000000   0.038393
   43  N  2 ZZ   -0.016542  -0.012193  -0.000057  -0.000000  -0.016123
   44  N  2 XY    0.008145   0.017750   0.014911  -0.000000  -0.041075
   45  N  2 XZ    0.000000  -0.000000  -0.000000   0.013373   0.000000
   46  N  2 YZ    0.000000  -0.000000  -0.000000   0.020195   0.000000
   47  N  2 XXX  -0.001379   0.009854  -0.003523  -0.000000  -0.006506
   48  N  2 YYY  -0.003388   0.001579  -0.000112  -0.000000  -0.003740
   49  N  2 ZZZ   0.000000  -0.000000  -0.000000   0.001945   0.000000
   50  N  2 XXY   0.000404   0.002729   0.005162  -0.000000  -0.012185
   51  N  2 XXZ   0.000000  -0.000000  -0.000000  -0.000493   0.000000
   52  N  2 YYX  -0.000930  -0.003655   0.001972  -0.000000   0.021096
   53  N  2 YYZ   0.000000  -0.000000  -0.000000  -0.004859   0.000000
   54  N  2 ZZX   0.000412  -0.002924   0.000852  -0.000000  -0.010540
   55  N  2 ZZY  -0.002402   0.000580   0.002239  -0.000000  -0.005987
   56  N  2 XYZ   0.000000  -0.000000  -0.000000  -0.001472   0.000000
   57  C  3  S   -0.011852  -0.046604  -0.028724  -0.000000  -0.076091
   58  C  3  S   -0.019313  -0.075597  -0.047696  -0.000000  -0.126754
   59  C  3  S    0.007523   0.022482   0.017946  -0.000000   0.034249
   60  C  3  S    0.054081   0.199353   0.155162  -0.000000   0.608029
   61  C  3  S    0.036101   0.061525   0.136112  -0.000000   0.267543
   62  C  3  X    0.011571  -0.282112   0.046862  -0.000000  -0.548903
   63  C  3  Y    0.059711   0.005389   0.488613  -0.000000  -0.054965
   64  C  3  Z    0.000000  -0.000000  -0.000000  -0.044279   0.000000
   65  C  3  X   -0.007764  -0.153364   0.033376  -0.000000  -0.447171
   66  C  3  Y    0.034585   0.010376   0.416596  -0.000000  -0.054006
   67  C  3  Z    0.000000  -0.000000  -0.000000  -0.026603   0.000000
   68  C  3  X    0.000016  -0.030516   0.018940  -0.000000  -0.011679
   69  C  3  Y   -0.018241   0.001392   0.251784  -0.000000  -0.045088
   70  C  3  Z    0.000000  -0.000000  -0.000000  -0.051861   0.000000
   71  C  3  S    0.001041   0.026204  -0.077233  -0.000000  -0.050742
   72  C  3  X   -0.001009  -0.003461   0.007780  -0.000000  -0.000134
   73  C  3  Y   -0.001180  -0.002355   0.011776  -0.000000   0.001383
   74  C  3  Z    0.000000  -0.000000  -0.000000   0.038130   0.000000
   75  C  3 XX    0.000440   0.018108  -0.001828  -0.000000   0.051992
   76  C  3 YY   -0.000097  -0.003417   0.007329  -0.000000   0.002724
   77  C  3 ZZ    0.001830  -0.006676  -0.001370  -0.000000  -0.021384
   78  C  3 XY   -0.007177   0.003074   0.001536  -0.000000   0.002568
   79  C  3 XZ    0.000000  -0.000000  -0.000000  -0.010768   0.000000
   80  C  3 YZ    0.000000  -0.000000  -0.000000   0.001052   0.000000
   81  C  3 XX    0.005770   0.019362  -0.001055  -0.000000   0.116528
   82  C  3 YY   -0.000024  -0.010940   0.021779  -0.000000  -0.017337
   83  C  3 ZZ    0.003554  -0.021136  -0.004307  -0.000000  -0.096868
   84  C  3 XY   -0.017791   0.002856   0.006248  -0.000000   0.014103
   85  C  3 XZ    0.000000  -0.000000  -0.000000  -0.016482   0.000000
   86  C  3 YZ    0.000000  -0.000000  -0.000000   0.001286   0.000000
   87  C  3 XXX  -0.001879  -0.005072   0.000640  -0.000000  -0.052618
   88  C  3 YYY  -0.001623  -0.000310   0.002181  -0.000000   0.001894
   89  C  3 ZZZ   0.000000  -0.000000  -0.000000   0.001330   0.000000
   90  C  3 XXY   0.004435  -0.001259  -0.000720  -0.000000  -0.006626
   91  C  3 XXZ   0.000000  -0.000000  -0.000000   0.006823   0.000000
   92  C  3 YYX   0.000539   0.003654   0.000617  -0.000000  -0.014325
   93  C  3 YYZ   0.000000  -0.000000  -0.000000   0.001211   0.000000
   94  C  3 ZZX  -0.000324   0.003772  -0.000281  -0.000000   0.006308
   95  C  3 ZZY  -0.000516  -0.000406  -0.001221  -0.000000  -0.002223
   96  C  3 XYZ   0.000000  -0.000000  -0.000000   0.001044   0.000000
   97  H  4  S    0.011279  -0.024472  -0.021954   0.040846  -0.023796
   98  H  4  S    0.014833  -0.040377  -0.041086   0.080797  -0.031838
   99  H  4  S    0.003056  -0.033258  -0.013759   0.052088  -0.054313
  100  H  4  S    0.000298  -0.000998   0.011797   0.032109   0.017736
  101  H  4  X   -0.000185  -0.001137   0.001041  -0.000182  -0.001705
  102  H  4  Y    0.000636  -0.000339   0.004560   0.000775  -0.001834
  103  H  4  Z    0.000684  -0.001539  -0.001387   0.001509  -0.002774
  104  H  4  X   -0.000588  -0.005933   0.003333  -0.004890  -0.002205
  105  H  4  Y    0.002348  -0.000620   0.019726   0.002816  -0.002639
  106  H  4  Z    0.002070  -0.004913  -0.003155   0.008119  -0.013914
  107  H  4 XX    0.000018   0.001034   0.000260  -0.000170   0.000480
  108  H  4 YY    0.000368   0.000153   0.001727   0.000206   0.003999
  109  H  4 ZZ    0.001032  -0.001465  -0.000475   0.002981  -0.002908
  110  H  4 XY   -0.000249  -0.000062  -0.001404  -0.000477   0.000410
  111  H  4 XZ   -0.000428  -0.000214   0.001070  -0.001089   0.002985
  112  H  4 YZ    0.000528  -0.000234   0.002632   0.001412  -0.002705
  113  H  5  S    0.011279  -0.024472  -0.021954  -0.040846  -0.023796
  114  H  5  S    0.014833  -0.040377  -0.041086  -0.080797  -0.031838
  115  H  5  S    0.003056  -0.033258  -0.013759  -0.052088  -0.054313
  116  H  5  S    0.000298  -0.000998   0.011797  -0.032109   0.017736
  117  H  5  X   -0.000185  -0.001137   0.001041   0.000182  -0.001705
  118  H  5  Y    0.000636  -0.000339   0.004560  -0.000775  -0.001834
  119  H  5  Z   -0.000684   0.001539   0.001387   0.001509   0.002774
  120  H  5  X   -0.000588  -0.005933   0.003333   0.004890  -0.002205
  121  H  5  Y    0.002348  -0.000620   0.019726  -0.002816  -0.002639
  122  H  5  Z   -0.002070   0.004913   0.003155   0.008119   0.013914
  123  H  5 XX    0.000018   0.001034   0.000260   0.000170   0.000480
  124  H  5 YY    0.000368   0.000153   0.001727  -0.000206   0.003999
  125  H  5 ZZ    0.001032  -0.001465  -0.000475  -0.002981  -0.002908
  126  H  5 XY   -0.000249  -0.000062  -0.001404   0.000477   0.000410
  127  H  5 XZ    0.000428   0.000214  -0.001070  -0.001089  -0.002985
  128  H  5 YZ   -0.000528   0.000234  -0.002632   0.001412   0.002705

          ------------------------
          MCSCF OPTIMIZED ORBITALS
          ------------------------

                      1          2          3          4          5
                  -15.5865   -11.2420    -0.9717    -0.8205    -0.5894
                     A'         A'         A'         A'         A'' 
    1  H  1  S    0.000279   0.000124   0.142885  -0.032146   0.000000
    2  H  1  S   -0.000320   0.000614   0.174640  -0.036729   0.000000
    3  H  1  S    0.000094  -0.000076   0.027791  -0.002884   0.000000
    4  H  1  S    0.000182   0.000142   0.000355  -0.002210   0.000000
    5  H  1  X    0.000070  -0.000027   0.002940  -0.001154   0.000000
    6  H  1  Y   -0.000194  -0.000010  -0.010691   0.002358   0.000000
    7  H  1  Z   -0.000000   0.000000   0.000000  -0.000000   0.000650
    8  H  1  X   -0.000335  -0.000085   0.006485  -0.002932   0.000000
    9  H  1  Y    0.000698  -0.000116  -0.031774   0.005278   0.000000
   10  H  1  Z   -0.000000   0.000000   0.000000  -0.000000   0.001094
   11  H  1 XX   -0.000120  -0.000100  -0.000130   0.000295   0.000000
   12  H  1 YY   -0.000359   0.000036   0.007850  -0.001133   0.000000
   13  H  1 ZZ   -0.000087   0.000002  -0.000461   0.000219   0.000000
   14  H  1 XY    0.000116   0.000041  -0.003056   0.000669   0.000000
   15  H  1 XZ   -0.000000   0.000000   0.000000  -0.000000   0.000135
   16  H  1 YZ   -0.000000   0.000000   0.000000  -0.000000  -0.000324
   17  N  2  S    0.558238   0.000213  -0.102445   0.018286   0.000000
   18  N  2  S    0.471836   0.000366  -0.170489   0.031169   0.000000
   19  N  2  S    0.056771  -0.000193   0.059425  -0.009824   0.000000
   20  N  2  S   -0.012870  -0.000882   0.429747  -0.078903   0.000000
   21  N  2  S   -0.008593  -0.000503   0.271887  -0.087949   0.000000
   22  N  2  X   -0.001000  -0.001515  -0.170997   0.012656   0.000000
   23  N  2  Y    0.001479  -0.000145   0.081267  -0.043712   0.000000
   24  N  2  Z   -0.000000   0.000000   0.000000  -0.000000   0.049292
   25  N  2  X   -0.001666  -0.001325  -0.118470   0.007701   0.000000
   26  N  2  Y    0.000964  -0.000284   0.036363  -0.030647   0.000000
   27  N  2  Z   -0.000000   0.000000   0.000000  -0.000000   0.037509
   28  N  2  X   -0.001619  -0.000529  -0.068144  -0.023473   0.000000
   29  N  2  Y   -0.000336  -0.000144   0.000319  -0.006687   0.000000
   30  N  2  Z   -0.000000   0.000000   0.000000  -0.000000  -0.001785
   31  N  2  S    0.003767   0.001771   0.010567  -0.035995   0.000000
   32  N  2  X    0.000977   0.000603  -0.006717  -0.010902   0.000000
   33  N  2  Y   -0.000021   0.000072  -0.005917   0.001707   0.000000
   34  N  2  Z   -0.000000   0.000000   0.000000  -0.000000   0.006639
   35  N  2 XX    0.001490   0.000077   0.001770   0.001464   0.000000
   36  N  2 YY    0.001648  -0.000007   0.011914  -0.003004   0.000000
   37  N  2 ZZ    0.001415  -0.000021   0.001957  -0.000112   0.000000
   38  N  2 XY   -0.000056  -0.000014  -0.005395   0.000310   0.000000
   39  N  2 XZ   -0.000000   0.000000   0.000000  -0.000000   0.003708
   40  N  2 YZ   -0.000000   0.000000   0.000000  -0.000000   0.000563
   41  N  2 XX    0.003669  -0.000043   0.003848   0.007334   0.000000
   42  N  2 YY    0.004794  -0.000018   0.019075  -0.004138   0.000000
   43  N  2 ZZ    0.004268   0.000010   0.003211   0.003027   0.000000
   44  N  2 XY   -0.000336   0.000019  -0.008477  -0.001369   0.000000
   45  N  2 XZ   -0.000000   0.000000   0.000000  -0.000000   0.013298
   46  N  2 YZ   -0.000000   0.000000   0.000000  -0.000000   0.002315
   47  N  2 XXX  -0.000779   0.000110   0.004549  -0.000556   0.000000
   48  N  2 YYY  -0.000799   0.000035   0.002679  -0.000493   0.000000
   49  N  2 ZZZ  -0.000000   0.000000   0.000000  -0.000000  -0.001341
   50  N  2 XXY  -0.000403  -0.000004   0.001546  -0.000689   0.000000
   51  N  2 XXZ  -0.000000   0.000000   0.000000  -0.000000   0.003302
   52  N  2 YYX  -0.000333   0.000067  -0.000900  -0.000216   0.000000
   53  N  2 YYZ  -0.000000   0.000000   0.000000  -0.000000  -0.000458
   54  N  2 ZZX  -0.000233   0.000018   0.000927  -0.000251   0.000000
   55  N  2 ZZY  -0.000415   0.000005  -0.000698   0.000358   0.000000
   56  N  2 XYZ  -0.000000   0.000000   0.000000  -0.000000   0.000445
   57  C  3  S    0.000214   0.575978  -0.012801  -0.096319   0.000000
   58  C  3  S    0.000426   0.457221  -0.019328  -0.153330   0.000000
   59  C  3  S   -0.000593   0.054193   0.006241   0.049804   0.000000
   60  C  3  S   -0.000274  -0.015002   0.033013   0.359520   0.000000
   61  C  3  S    0.001033  -0.007987   0.011471   0.240805   0.000000
   62  C  3  X    0.001519   0.000746   0.046338   0.161185   0.000000
   63  C  3  Y    0.000006  -0.000618  -0.004446  -0.069026   0.000000
   64  C  3  Z   -0.000000   0.000000   0.000000  -0.000000   0.358701
   65  C  3  X    0.000209   0.001034   0.048704   0.087622   0.000000
   66  C  3  Y   -0.000085  -0.000343  -0.001266  -0.036611   0.000000
   67  C  3  Z   -0.000000   0.000000   0.000000  -0.000000   0.203099
   68  C  3  X   -0.000196   0.000339   0.013234   0.008257   0.000000
   69  C  3  Y   -0.000028   0.000177  -0.002931  -0.025690   0.000000
   70  C  3  Z   -0.000000   0.000000   0.000000  -0.000000   0.077199
   71  C  3  S   -0.002810   0.000788   0.006919   0.021258   0.000000
   72  C  3  X    0.000813   0.000390  -0.003805  -0.008376   0.000000
   73  C  3  Y    0.000151  -0.000137  -0.000071   0.000547   0.000000
   74  C  3  Z   -0.000000   0.000000   0.000000  -0.000000  -0.040518
   75  C  3 XX    0.000093   0.001326   0.001674  -0.000397   0.000000
   76  C  3 YY   -0.000049   0.001272  -0.001170  -0.000802   0.000000
   77  C  3 ZZ   -0.000008   0.001634   0.001326   0.013777   0.000000
   78  C  3 XY    0.000012  -0.000070  -0.001513  -0.002472   0.000000
   79  C  3 XZ   -0.000000   0.000000   0.000000  -0.000000   0.010641
   80  C  3 YZ   -0.000000   0.000000   0.000000  -0.000000  -0.006985
   81  C  3 XX    0.000205   0.004283  -0.005809  -0.014453   0.000000
   82  C  3 YY   -0.000224   0.004475  -0.004216  -0.007236   0.000000
   83  C  3 ZZ   -0.000180   0.004901   0.000738   0.007807   0.000000
   84  C  3 XY    0.000006  -0.000109  -0.003552  -0.004568   0.000000
   85  C  3 XZ   -0.000000   0.000000   0.000000  -0.000000   0.006842
   86  C  3 YZ   -0.000000   0.000000   0.000000  -0.000000  -0.010756
   87  C  3 XXX  -0.000369   0.000396  -0.000756  -0.004379   0.000000
   88  C  3 YYY  -0.000001   0.000203   0.000205   0.002355   0.000000
   89  C  3 ZZZ  -0.000000   0.000000   0.000000  -0.000000  -0.004031
   90  C  3 XXY  -0.000051   0.000017   0.001077  -0.000579   0.000000
   91  C  3 XXZ  -0.000000   0.000000   0.000000  -0.000000  -0.000924
   92  C  3 YYX   0.000072   0.000220  -0.000802  -0.002079   0.000000
   93  C  3 YYZ  -0.000000   0.000000   0.000000  -0.000000  -0.004395
   94  C  3 ZZX   0.000094   0.000531  -0.000329   0.001317   0.000000
   95  C  3 ZZY  -0.000009  -0.000082  -0.000397  -0.000975   0.000000
   96  C  3 XYZ  -0.000000   0.000000   0.000000  -0.000000  -0.000671
   97  H  4  S    0.000139   0.000500   0.021174   0.123472  -0.146601
   98  H  4  S    0.000066  -0.000249   0.031508   0.170151  -0.229185
   99  H  4  S    0.000164   0.000900   0.012811   0.031118  -0.086139
  100  H  4  S    0.000260  -0.000626  -0.000381   0.001617  -0.031474
  101  H  4  X    0.000005  -0.000013  -0.000089  -0.002651   0.004444
  102  H  4  Y   -0.000005   0.000010   0.000334   0.001466  -0.002449
  103  H  4  Z   -0.000011   0.000034   0.001234   0.007087  -0.005611
  104  H  4  X    0.000023   0.000110   0.000259  -0.009807   0.018085
  105  H  4  Y    0.000003  -0.000059   0.000496   0.003310  -0.006041
  106  H  4  Z   -0.000026  -0.000122   0.003718   0.024410  -0.019641
  107  H  4 XX    0.000025   0.000002  -0.000500   0.001059  -0.001552
  108  H  4 YY    0.000032   0.000013  -0.000165   0.000193  -0.000095
  109  H  4 ZZ   -0.000003  -0.000097   0.000944   0.004930  -0.003370
  110  H  4 XY    0.000006   0.000015  -0.000033  -0.000630   0.000990
  111  H  4 XZ    0.000025   0.000056  -0.000165  -0.002520   0.003176
  112  H  4 YZ   -0.000007  -0.000033   0.000322   0.001320  -0.001528
  113  H  5  S    0.000139   0.000500   0.021174   0.123472   0.146601
  114  H  5  S    0.000066  -0.000249   0.031508   0.170151   0.229185
  115  H  5  S    0.000164   0.000900   0.012811   0.031118   0.086139
  116  H  5  S    0.000260  -0.000626  -0.000381   0.001617   0.031474
  117  H  5  X    0.000005  -0.000013  -0.000089  -0.002651  -0.004444
  118  H  5  Y   -0.000005   0.000010   0.000334   0.001466   0.002449
  119  H  5  Z    0.000011  -0.000034  -0.001234  -0.007087  -0.005611
  120  H  5  X    0.000023   0.000110   0.000259  -0.009807  -0.018085
  121  H  5  Y    0.000003  -0.000059   0.000496   0.003310   0.006041
  122  H  5  Z    0.000026   0.000122  -0.003718  -0.024410  -0.019641
  123  H  5 XX    0.000025   0.000002  -0.000500   0.001059   0.001552
  124  H  5 YY    0.000032   0.000013  -0.000165   0.000193   0.000095
  125  H  5 ZZ   -0.000003  -0.000097   0.000944   0.004930   0.003370
  126  H  5 XY    0.000006   0.000015  -0.000033  -0.000630  -0.000990
  127  H  5 XZ   -0.000025  -0.000056   0.000165   0.002520   0.003176
  128  H  5 YZ    0.000007   0.000033  -0.000322  -0.001320  -0.001528

                      6          7          8          9         10
                   -0.5425    -0.7513    -0.1677    -0.0922     0.6916
                     A'         A'         A''        A'         A'  
    1  H  1  S    0.123346  -0.022425  -0.000000  -0.046100   0.017574
    2  H  1  S    0.204976  -0.047936  -0.000000  -0.090844   0.061689
    3  H  1  S    0.074133  -0.019127  -0.000000  -0.072564   0.010994
    4  H  1  S    0.004889  -0.004823  -0.000000   0.005806  -0.006297
    5  H  1  X    0.005017   0.002976  -0.000000  -0.000847  -0.001668
    6  H  1  Y   -0.005443   0.002484  -0.000000   0.001759  -0.004513
    7  H  1  Z    0.000000   0.000000   0.005491   0.000000  -0.000000
    8  H  1  X    0.014655   0.011614  -0.000000  -0.004083   0.005520
    9  H  1  Y   -0.013117   0.007574  -0.000000   0.005015  -0.016267
   10  H  1  Z    0.000000   0.000000   0.021561   0.000000  -0.000000
   11  H  1 XX   -0.000383   0.002988  -0.000000  -0.000027  -0.003493
   12  H  1 YY    0.001418  -0.002863  -0.000000  -0.002304   0.007122
   13  H  1 ZZ   -0.001650   0.001662  -0.000000   0.000042  -0.005238
   14  H  1 XY   -0.003245  -0.001228  -0.000000   0.001622  -0.002432
   15  H  1 XZ    0.000000   0.000000   0.001092   0.000000  -0.000000
   16  H  1 YZ    0.000000   0.000000  -0.003970   0.000000  -0.000000
   17  N  2  S    0.047135  -0.041415  -0.000000  -0.002075   0.067858
   18  N  2  S    0.080961  -0.071150  -0.000000  -0.003944   0.119681
   19  N  2  S   -0.030234   0.021184  -0.000000   0.001281  -0.074841
   20  N  2  S   -0.227807   0.197546  -0.000000   0.010577  -0.473489
   21  N  2  S   -0.264652   0.065232  -0.000000   0.074344  -0.287564
   22  N  2  X    0.041831   0.337643  -0.000000  -0.058925  -0.562089
   23  N  2  Y    0.390369   0.038816  -0.000000  -0.091278  -0.074848
   24  N  2  Z    0.000000   0.000000   0.505444   0.000000  -0.000000
   25  N  2  X    0.038902   0.254805  -0.000000  -0.050161  -0.414900
   26  N  2  Y    0.297225   0.031185  -0.000000  -0.079971  -0.047607
   27  N  2  Z    0.000000   0.000000   0.419275   0.000000  -0.000000
   28  N  2  X    0.042717   0.115037  -0.000000  -0.031377  -0.062070
   29  N  2  Y    0.163831   0.017036  -0.000000  -0.087116  -0.021244
   30  N  2  Z    0.000000   0.000000   0.249231   0.000000  -0.000000
   31  N  2  S   -0.083342  -0.054546  -0.000000   0.119080   0.025288
   32  N  2  X    0.014628  -0.007330  -0.000000  -0.005601   0.020462
   33  N  2  Y    0.022578   0.009917  -0.000000  -0.047254   0.016126
   34  N  2  Z    0.000000   0.000000   0.013363   0.000000  -0.000000
   35  N  2 XX   -0.004652   0.011540  -0.000000  -0.001037  -0.041541
   36  N  2 YY    0.006694  -0.004375  -0.000000  -0.000903   0.015465
   37  N  2 ZZ   -0.006691  -0.003804  -0.000000   0.001237  -0.010021
   38  N  2 XY   -0.001091   0.005776  -0.000000   0.006233  -0.016954
   39  N  2 XZ    0.000000   0.000000   0.003026   0.000000  -0.000000
   40  N  2 YZ    0.000000   0.000000   0.004877   0.000000  -0.000000
   41  N  2 XX   -0.018192   0.040319  -0.000000  -0.003667  -0.075617
   42  N  2 YY    0.016547  -0.013949  -0.000000  -0.000973   0.038375
   43  N  2 ZZ   -0.016542  -0.012166  -0.000000   0.000158  -0.016143
   44  N  2 XY    0.008145   0.018138  -0.000000   0.014385  -0.041094
   45  N  2 XZ    0.000000   0.000000   0.013373   0.000000  -0.000000
   46  N  2 YZ    0.000000   0.000000   0.020195   0.000000  -0.000000
   47  N  2 XXX  -0.001379   0.009785  -0.000000  -0.003759  -0.006479
   48  N  2 YYY  -0.003388   0.001582  -0.000000  -0.000159  -0.003737
   49  N  2 ZZZ   0.000000   0.000000   0.001945   0.000000  -0.000000
   50  N  2 XXY   0.000404   0.002860  -0.000000   0.005061  -0.012197
   51  N  2 XXZ   0.000000   0.000000  -0.000493   0.000000  -0.000000
   52  N  2 YYX  -0.000930  -0.003644  -0.000000   0.002120   0.021084
   53  N  2 YYZ   0.000000   0.000000  -0.004859   0.000000  -0.000000
   54  N  2 ZZX   0.000412  -0.002887  -0.000000   0.000882  -0.010548
   55  N  2 ZZY  -0.002402   0.000638  -0.000000   0.002206  -0.005994
   56  N  2 XYZ   0.000000   0.000000  -0.001472   0.000000  -0.000000
   57  C  3  S   -0.011852  -0.047102  -0.000000  -0.027943  -0.076076
   58  C  3  S   -0.019313  -0.076423  -0.000000  -0.046440  -0.126725
   59  C  3  S    0.007523   0.022815  -0.000000   0.017560   0.034228
   60  C  3  S    0.054081   0.201740  -0.000000   0.152734   0.607856
   61  C  3  S    0.036101   0.064068  -0.000000   0.135601   0.267205
   62  C  3  X    0.011571  -0.280145  -0.000000   0.051246  -0.549518
   63  C  3  Y    0.059711   0.016185  -0.000000   0.488196  -0.056529
   64  C  3  Z    0.000000   0.000000  -0.044279   0.000000  -0.000000
   65  C  3  X   -0.007764  -0.151884  -0.000000   0.035273  -0.447530
   66  C  3  Y    0.034585   0.019592  -0.000000   0.416091  -0.055330
   67  C  3  Z    0.000000   0.000000  -0.026603   0.000000  -0.000000
   68  C  3  X    0.000016  -0.030075  -0.000000   0.019566  -0.011790
   69  C  3  Y   -0.018241   0.006982  -0.000000   0.251545  -0.045896
   70  C  3  Z    0.000000   0.000000  -0.051861   0.000000  -0.000000
   71  C  3  S    0.001041   0.024585  -0.000000  -0.077953  -0.050450
   72  C  3  X   -0.001009  -0.003289  -0.000000   0.007853  -0.000165
   73  C  3  Y   -0.001180  -0.002098  -0.000000   0.011829   0.001341
   74  C  3  Z    0.000000   0.000000   0.038130   0.000000  -0.000000
   75  C  3 XX    0.000440   0.017981  -0.000000  -0.002055   0.052027
   76  C  3 YY   -0.000097  -0.003259  -0.000000   0.007411   0.002694
   77  C  3 ZZ    0.001830  -0.006670  -0.000000  -0.001293  -0.021391
   78  C  3 XY   -0.007177   0.003103  -0.000000   0.001476   0.002568
   79  C  3 XZ    0.000000   0.000000  -0.010768   0.000000  -0.000000
   80  C  3 YZ    0.000000   0.000000   0.001052   0.000000  -0.000000
   81  C  3 XX    0.005770   0.019150  -0.000000  -0.001099   0.116563
   82  C  3 YY   -0.000024  -0.010433  -0.000000   0.021957  -0.017425
[...]
   98  H  4  S   -0.393892   1.679830  -1.092706   0.248521   0.925100
   99  H  4  S    0.214464   0.084982  -0.334347  -0.050605  -0.395355
  100  H  4  S   -0.219495   0.030477   0.148999  -0.092467   0.297185
  101  H  4  X   -0.071044  -0.406542   0.425270   0.007064  -0.014619
  102  H  4  Y   -0.068508   0.201849  -0.219806   0.031468   0.002878
  103  H  4  Z    0.175680   0.685276  -0.843835   0.035924   0.034160
  104  H  4  X   -0.268418  -0.741377   0.656181  -0.095834  -0.287282
  105  H  4  Y    0.098850   0.411474  -0.362762  -0.008151   0.139873
  106  H  4  Z   -0.410869   1.476203  -1.098173   0.140383   0.522039
  107  H  4 XX    0.298937   0.452255  -0.358232   0.006768   0.051887
  108  H  4 YY    0.131187   0.256663  -0.245611  -0.020797  -0.030510
  109  H  4 ZZ   -0.197902   1.057639  -0.924964   0.044610   0.272089
  110  H  4 XY    0.026224  -0.173463   0.122340   0.005706  -0.047462
  111  H  4 XZ   -0.027439  -0.599811   0.467945  -0.047251  -0.169382
  112  H  4 YZ   -0.026888   0.319911  -0.237076   0.011390   0.084477
  113  H  5  S    0.192932  -0.487770  -0.698132   0.014423  -0.061432
  114  H  5  S   -0.393892  -1.679830  -1.092706   0.248521   0.925100
  115  H  5  S    0.214464  -0.084982  -0.334347  -0.050605  -0.395355
  116  H  5  S   -0.219495  -0.030477   0.148999  -0.092467   0.297185
  117  H  5  X   -0.071044   0.406542   0.425270   0.007064  -0.014619
  118  H  5  Y   -0.068508  -0.201849  -0.219806   0.031468   0.002878
  119  H  5  Z   -0.175680   0.685276   0.843835  -0.035924  -0.034160
  120  H  5  X   -0.268418   0.741377   0.656181  -0.095834  -0.287282
  121  H  5  Y    0.098850  -0.411474  -0.362762  -0.008151   0.139873
  122  H  5  Z    0.410869   1.476203   1.098173  -0.140383  -0.522039
  123  H  5 XX    0.298937  -0.452255  -0.358232   0.006768   0.051887
  124  H  5 YY    0.131187  -0.256663  -0.245611  -0.020797  -0.030510
  125  H  5 ZZ   -0.197902  -1.057639  -0.924964   0.044610   0.272089
  126  H  5 XY    0.026224   0.173463   0.122340   0.005706  -0.047462
  127  H  5 XZ    0.027439  -0.599811  -0.467945   0.047251   0.169382
  128  H  5 YZ    0.026888   0.319911   0.237076  -0.011390  -0.084477

                    126        127        128
                   14.1282    42.0928    57.4725
                     A'         A'         A'  
    1  H  1  S   -0.038940  -0.005168   0.010401
    2  H  1  S   -0.070536  -0.145151   0.061234
    3  H  1  S    0.018787   0.079141  -0.009611
    4  H  1  S   -0.086729  -0.042931   0.051511
    5  H  1  X   -0.036963   0.005647   0.017496
    6  H  1  Y    0.101137   0.002792  -0.046914
    7  H  1  Z   -0.000000  -0.000000  -0.000000
    8  H  1  X    0.049294  -0.000849  -0.018517
    9  H  1  Y   -0.073628   0.046041   0.025956
   10  H  1  Z   -0.000000  -0.000000  -0.000000
   11  H  1 XX    0.058662   0.031316  -0.031146
   12  H  1 YY    0.037074  -0.016841  -0.013519
   13  H  1 ZZ    0.043520  -0.001939  -0.026624
   14  H  1 XY   -0.005334  -0.012091  -0.003519
   15  H  1 XZ   -0.000000  -0.000000  -0.000000
   16  H  1 YZ   -0.000000  -0.000000  -0.000000
   17  N  2  S   -0.222557  -0.008020  -2.361694
   18  N  2  S   -2.522842   0.007607   6.453808
   19  N  2  S    2.304994   0.016320  -6.233907
   20  N  2  S    6.904397   0.031851  -4.040438
   21  N  2  S    4.853748   0.103602  -2.846944
   22  N  2  X    0.029839  -0.029472  -0.020474
   23  N  2  Y   -0.003997  -0.004007  -0.002539
   24  N  2  Z   -0.000000  -0.000000  -0.000000
   25  N  2  X   -0.368589   0.105777   0.238495
   26  N  2  Y   -0.152033   0.077482   0.081788
   27  N  2  Z   -0.000000  -0.000000  -0.000000
   28  N  2  X    0.507221  -0.024711  -0.294183
   29  N  2  Y    0.088128   0.020250  -0.055414
   30  N  2  Z   -0.000000  -0.000000  -0.000000
   31  N  2  S   -1.863006  -0.529224   1.121240
   32  N  2  X   -0.498159  -0.187784   0.296113
   33  N  2  Y   -0.020705  -0.038036   0.013009
   34  N  2  Z   -0.000000  -0.000000  -0.000000
   35  N  2 XX   -3.374070  -0.042522   3.170552
   36  N  2 YY   -3.389139   0.002783   3.176546
   37  N  2 ZZ   -3.404852   0.006636   3.183205
   38  N  2 XY   -0.002764  -0.004396   0.000965
   39  N  2 XZ   -0.000000  -0.000000  -0.000000
   40  N  2 YZ   -0.000000  -0.000000  -0.000000
   41  N  2 XX   -2.475129   0.029186   1.457223
   42  N  2 YY   -2.515813   0.019026   1.451802
   43  N  2 ZZ   -2.526049  -0.002238   1.460389
   44  N  2 XY   -0.018735  -0.038008   0.011359
   45  N  2 XZ   -0.000000  -0.000000  -0.000000
   46  N  2 YZ   -0.000000  -0.000000  -0.000000
   47  N  2 XXX   0.206528  -0.030853  -0.098008
   48  N  2 YYY   0.083009  -0.016118  -0.045549
   49  N  2 ZZZ  -0.000000  -0.000000  -0.000000
   50  N  2 XXY   0.035741   0.003767  -0.018279
   51  N  2 XXZ  -0.000000  -0.000000  -0.000000
   52  N  2 YYX   0.006982  -0.035203  -0.010772
   53  N  2 YYZ  -0.000000  -0.000000  -0.000000
   54  N  2 ZZX   0.055652  -0.007840  -0.031750
   55  N  2 ZZY   0.006258  -0.002867  -0.006314
   56  N  2 XYZ  -0.000000  -0.000000  -0.000000
   57  C  3  S   -0.006511   2.409468  -0.012544
   58  C  3  S   -0.062836  -7.054229   0.049244
   59  C  3  S    0.255399   8.140738  -0.138628
   60  C  3  S   -0.038409   3.050932   0.011271
   61  C  3  S   -0.561750   2.383827   0.339782
   62  C  3  X   -0.063653  -0.035498   0.031990
   63  C  3  Y   -0.004911   0.021433   0.002936
   64  C  3  Z   -0.000000  -0.000000  -0.000000
   65  C  3  X   -0.035295  -0.044244   0.048805
   66  C  3  Y    0.009126   0.101899  -0.000799
   67  C  3  Z   -0.000000  -0.000000  -0.000000
   68  C  3  X    0.273877  -0.053920  -0.169211
   69  C  3  Y    0.017813  -0.099028  -0.010931
   70  C  3  Z   -0.000000  -0.000000  -0.000000
   71  C  3  S    1.356835  -0.222004  -0.824833
   72  C  3  X   -0.455229  -0.126534   0.277963
   73  C  3  Y   -0.065526   0.045794   0.040185
   74  C  3  Z   -0.000000  -0.000000  -0.000000
   75  C  3 XX   -0.134727  -3.542880   0.053041
   76  C  3 YY   -0.027387  -3.522629   0.010980
   77  C  3 ZZ   -0.039984  -3.606497   0.013651
   78  C  3 XY   -0.015989   0.015132   0.006739
   79  C  3 XZ   -0.000000  -0.000000  -0.000000
   80  C  3 YZ   -0.000000  -0.000000  -0.000000
   81  C  3 XX    0.059087  -1.326926  -0.064899
   82  C  3 YY    0.059330  -1.265343  -0.040454
   83  C  3 ZZ    0.083701  -1.428793  -0.054047
   84  C  3 XY    0.015775   0.031706  -0.012065
   85  C  3 XZ   -0.000000  -0.000000  -0.000000
   86  C  3 YZ   -0.000000  -0.000000  -0.000000
   87  C  3 XXX   0.125498  -0.066324  -0.052752
   88  C  3 YYY  -0.008034   0.011669   0.005074
   89  C  3 ZZZ  -0.000000  -0.000000  -0.000000
   90  C  3 XXY   0.049406   0.016631  -0.022057
   91  C  3 XXZ  -0.000000  -0.000000  -0.000000
   92  C  3 YYX  -0.046890  -0.020587   0.024282
   93  C  3 YYZ  -0.000000  -0.000000  -0.000000
   94  C  3 ZZX  -0.075685  -0.052123   0.038404
   95  C  3 ZZY  -0.009579   0.029123   0.006633
   96  C  3 XYZ  -0.000000  -0.000000  -0.000000
   97  H  4  S   -0.001836  -0.038660   0.000901
   98  H  4  S    0.066058   0.356993  -0.032547
   99  H  4  S   -0.020059  -0.235862   0.012364
  100  H  4  S   -0.106095   0.189303   0.065690
  101  H  4  X    0.002358   0.001664   0.000061
  102  H  4  Y    0.008300  -0.002089  -0.003588
  103  H  4  Z    0.013486  -0.001657  -0.005978
  104  H  4  X    0.024794  -0.093299  -0.018496
  105  H  4  Y   -0.004944   0.045922   0.003113
  106  H  4  Z    0.017155   0.173632  -0.004865
  107  H  4 XX   -0.032251   0.009180   0.018752
  108  H  4 YY   -0.007682  -0.016912   0.002581
  109  H  4 ZZ    0.014445   0.085178  -0.006069
  110  H  4 XY   -0.006361  -0.015732   0.003243
  111  H  4 XZ   -0.011169  -0.056010   0.004001
  112  H  4 YZ    0.002302   0.028016  -0.000764
  113  H  5  S   -0.001836  -0.038660   0.000901
  114  H  5  S    0.066058   0.356993  -0.032547
  115  H  5  S   -0.020059  -0.235862   0.012364
  116  H  5  S   -0.106095   0.189303   0.065690
  117  H  5  X    0.002358   0.001664   0.000061
  118  H  5  Y    0.008300  -0.002089  -0.003588
  119  H  5  Z   -0.013486   0.001657   0.005978
  120  H  5  X    0.024794  -0.093299  -0.018496
  121  H  5  Y   -0.004944   0.045922   0.003113
  122  H  5  Z   -0.017155  -0.173632   0.004865
  123  H  5 XX   -0.032251   0.009180   0.018752
  124  H  5 YY   -0.007682  -0.016912   0.002581
  125  H  5 ZZ    0.014445   0.085178  -0.006069
  126  H  5 XY   -0.006361  -0.015732   0.003243
  127  H  5 XZ    0.011169   0.056010  -0.004001
  128  H  5 YZ   -0.002302  -0.028016   0.000764
 .....DONE WITH MCSCF ITERATIONS.....
 STEP CPU TIME =    46.50 TOTAL CPU TIME =       52.1 (    0.9 MIN)
 TOTAL WALL CLOCK TIME=       52.1 SECONDS, CPU UTILIZATION IS  99.92%

     ----------------------------------------------------------------
     PROPERTY VALUES FOR THE MCSCF SELF-CONSISTENT FIELD WAVEFUNCTION
     ----------------------------------------------------------------

          ---------------------------------------
          MULLIKEN AND LOWDIN POPULATION ANALYSES
          ---------------------------------------

     ATOMIC MULLIKEN POPULATION IN EACH MOLECULAR ORBITAL

                      1          2          3          4          5

                  2.000000   2.000000   2.000000   2.000000   2.000000

    1            -0.000333   0.000011   0.497378   0.018173   0.000175
    2             2.000483  -0.000078   1.473150  -0.021849   0.039132
    3            -0.000192   2.000104  -0.005429   1.185682   0.978903
    4             0.000021  -0.000019   0.017450   0.408997   0.490895
    5             0.000021  -0.000019   0.017450   0.408997   0.490895

                      6          7          8          9         10

                  2.000000   1.975113   1.000030   1.000000   0.024857

    1             0.281757   0.001260   0.007524   0.010742   0.000078
    2             1.662695   1.177729   0.017633   0.958969   0.010773
    3             0.050462   0.801130   0.950423   0.006334   0.013832
    4             0.002543  -0.002503   0.012225   0.011978   0.000087
    5             0.002543  -0.002503   0.012225   0.011978   0.000087
 WARNING! MCSCF POPULATIONS SHOWN ABOVE ARE FOR THE NATURAL ORBITALS.
 IGNORE THE ABOVE DATA FOR MCSCF FUNCTIONS WHICH ARE NOT OF -FORS- TYPE.
 THE FOLLOWING POPULATIONS ARE CORRECT FOR ANY MCSCF WAVEFUNCTION.

               ----- POPULATIONS IN EACH AO -----
                             MULLIKEN      LOWDIN
              1  H  1  S      0.26744     0.20625
              2  H  1  S      0.43609     0.22126
              3  H  1  S      0.04720     0.08268
              4  H  1  S     -0.00069     0.02254
              5  H  1  X      0.00162     0.00287
              6  H  1  Y      0.00481     0.00789
              7  H  1  Z      0.00074     0.00118
              8  H  1  X      0.01309     0.03683
              9  H  1  Y      0.02508     0.06980
             10  H  1  Z      0.00903     0.02839
             11  H  1 XX     -0.00001     0.07782
             12  H  1 YY      0.01138     0.12301
             13  H  1 ZZ     -0.00157     0.06605
             14  H  1 XY      0.00143     0.01168
             15  H  1 XZ      0.00013     0.00154
             16  H  1 YZ      0.00103     0.00816
             17  N  2  S      1.08041     1.04511
             18  N  2  S      0.85476     0.79261
             19  N  2  S      0.14741     0.24143
             20  N  2  S      0.92470     0.30219
             21  N  2  S      0.61312     0.22705
             22  N  2  X      0.55371     0.39578
             23  N  2  Y      0.61141     0.43165
             24  N  2  Z      0.43343     0.32575
             25  N  2  X      0.50327     0.31853
             26  N  2  Y      0.55690     0.35542
             27  N  2  Z      0.39490     0.22980
             28  N  2  X      0.13876     0.17040
             29  N  2  Y      0.22766     0.21883
             30  N  2  Z      0.15471     0.12871
             31  N  2  S      0.00703     0.07773
             32  N  2  X     -0.01176     0.05599
             33  N  2  Y      0.01235     0.06641
             34  N  2  Z      0.00954     0.03623
             35  N  2 XX      0.01024     0.11870
             36  N  2 YY      0.00927     0.11183
             37  N  2 ZZ      0.00393     0.11477
             38  N  2 XY      0.00110     0.00075
             39  N  2 XZ      0.00026     0.00023
             40  N  2 YZ      0.00009     0.00005
             41  N  2 XX      0.04485     0.13879
             42  N  2 YY      0.01660     0.12635
             43  N  2 ZZ      0.00587     0.11636
             44  N  2 XY      0.00898     0.02644
             45  N  2 XZ      0.00532     0.01313
             46  N  2 YZ      0.00079     0.00008
             47  N  2 XXX     0.01109     0.18291
             48  N  2 YYY    -0.00346     0.19172
             49  N  2 ZZZ     0.00117     0.12439
             50  N  2 XXY     0.00141     0.08765
             51  N  2 XXZ     0.00080     0.05465
             52  N  2 YYX    -0.00319     0.07843
             53  N  2 YYZ    -0.00294     0.05067
             54  N  2 ZZX    -0.00308     0.07146
             55  N  2 ZZY    -0.00280     0.07682
             56  N  2 XYZ     0.00001     0.00002
             57  C  3  S      1.11283     1.06086
             58  C  3  S      0.82821     0.77752
             59  C  3  S      0.12485     0.20587
             60  C  3  S      0.72136     0.22090
             61  C  3  S      0.43010     0.15380
             62  C  3  X      0.46497     0.27735
             63  C  3  Y      0.43799     0.28123
             64  C  3  Z      0.53715     0.30564
             65  C  3  X      0.27252     0.24157
             66  C  3  Y      0.39051     0.26013
             67  C  3  Z      0.37369     0.29778
             68  C  3  X      0.01624     0.09178
             69  C  3  Y      0.13807     0.12709
             70  C  3  Z      0.09819     0.13186
             71  C  3  S      0.02613     0.04567
             72  C  3  X     -0.00059     0.02444
             73  C  3  Y      0.00309     0.02721
             74  C  3  Z     -0.02958     0.02714
             75  C  3 XX      0.01209     0.08407
             76  C  3 YY     -0.00088     0.07356
             77  C  3 ZZ      0.01215     0.08061
             78  C  3 XY      0.00125     0.00104
             79  C  3 XZ      0.00289     0.00251
             80  C  3 YZ      0.00075     0.00066
             81  C  3 XX     -0.00146     0.12616
             82  C  3 YY     -0.00989     0.07341
             83  C  3 ZZ      0.00321     0.11544
             84  C  3 XY      0.01398     0.04258
             85  C  3 XZ      0.01027     0.05305
             86  C  3 YZ      0.00289     0.00575
             87  C  3 XXX     0.00386     0.14436
             88  C  3 YYY     0.00049     0.11810
             89  C  3 ZZZ    -0.00603     0.14540
             90  C  3 XXY     0.00151     0.05481
             91  C  3 XXZ    -0.00061     0.07126
             92  C  3 YYX    -0.00366     0.05060
             93  C  3 YYZ    -0.00446     0.05781
             94  C  3 ZZX    -0.00239     0.06360
             95  C  3 ZZY    -0.00053     0.05353
             96  C  3 XYZ     0.00009     0.00096
             97  H  4  S      0.27241     0.21043
             98  H  4  S      0.51468     0.25514
             99  H  4  S      0.09341     0.11260
            100  H  4  S      0.00788     0.02616
            101  H  4  X      0.00100     0.00167
            102  H  4  Y      0.00077     0.00117
            103  H  4  Z      0.00270     0.00380
            104  H  4  X      0.00940     0.01965
            105  H  4  Y      0.00900     0.02841
            106  H  4  Z      0.01769     0.03286
            107  H  4 XX      0.00220     0.08658
            108  H  4 YY      0.00026     0.07865
            109  H  4 ZZ      0.00857     0.10601
            110  H  4 XY      0.00021     0.00153
            111  H  4 XZ      0.00079     0.00503
            112  H  4 YZ      0.00070     0.00487
            113  H  5  S      0.27241     0.21043
            114  H  5  S      0.51468     0.25514
            115  H  5  S      0.09341     0.11260
            116  H  5  S      0.00788     0.02616
            117  H  5  X      0.00100     0.00167
            118  H  5  Y      0.00077     0.00117
            119  H  5  Z      0.00270     0.00380
            120  H  5  X      0.00940     0.01965
            121  H  5  Y      0.00900     0.02841
            122  H  5  Z      0.01769     0.03286
            123  H  5 XX      0.00220     0.08658
            124  H  5 YY      0.00026     0.07865
            125  H  5 ZZ      0.00857     0.10601
            126  H  5 XY      0.00021     0.00153
            127  H  5 XZ      0.00079     0.00503
            128  H  5 YZ      0.00070     0.00487

          ----- MULLIKEN ATOMIC OVERLAP POPULATIONS -----
          (OFF-DIAGONAL ELEMENTS NEED TO BE MULTIPLIED BY 2)

             1           2           3           4           5

    1    0.5238540
    2    0.3251366   6.9424455
    3   -0.0364218   0.1442383   5.0039676
    4    0.0020987  -0.0465922   0.4347323   0.6134767
    5    0.0020987  -0.0465922   0.4347323  -0.0620410   0.6134767

          TOTAL MULLIKEN AND LOWDIN ATOMIC POPULATIONS
       ATOM         MULL.POP.    CHARGE          LOW.POP.     CHARGE
    1 H             0.816766    0.183234         0.967950    0.032050
    2 N             7.318636   -0.318636         7.105802   -0.105802
    3 C             5.981249    0.018751         5.977086    0.022914
    4 H             0.941675    0.058325         0.974581    0.025419
    5 H             0.941675    0.058325         0.974581    0.025419

    **** A SOLVENT MODEL IS IN USE IN THIS RUN ****
 ELECTRICAL PROPERTIES (MOMENTS, DENSITY, FIELD/GRADIENT, AND/OR POTENTIAL)
 ARE COMPUTED USING THE SOLVATED SYSTEM'S DENSITY MATRIX, BUT
 ONLY WITH AO INTEGRAL CONTRIBUTIONS FROM THE QUANTUM SOLUTE.
 THE ONE EXCEPTION IS THE DIPOLE, WHICH IS ALSO PRINTED FOR THE TOTAL SYSTEM.

          ---------------------
          ELECTROSTATIC MOMENTS
          ---------------------

 POINT   1           X           Y           Z (BOHR)    CHARGE
                -0.000000    0.000000    0.000000        0.00 (A.U.)
         DX          DY          DZ         /D/  (DEBYE)
     1.328060    1.678630   -0.000000    2.140454
 ...... END OF PROPERTY EVALUATION ......
 STEP CPU TIME =     0.02 TOTAL CPU TIME =       52.1 (    0.9 MIN)
 TOTAL WALL CLOCK TIME=       52.1 SECONDS, CPU UTILIZATION IS  99.94%
              1281378  WORDS OF DYNAMIC MEMORY USED
 EXECUTION OF GAMESS TERMINATED NORMALLY Fri Jun  2 05:20:34 2017
 DDI: 263640 bytes (0.3 MB / 0 MWords) used by master data server.

 ----------------------------------------
 CPU timing information for all processes
 ========================================
 0: 49.128 + 3.00 = 52.129
 ----------------------------------------
 ddikick.x: exited gracefully.
unset echo
----- accounting info -----
Files used on the master node compute-0-1.local were:
-rw-rw-r-- 1 sarom sarom     22922 Jun  2 05:19 /scratch/scrf-h2cnh.F05
-rw-rw-r-- 1 sarom sarom 199457728 Jun  2 05:19 /scratch/scrf-h2cnh.F08
-rw-rw-r-- 1 sarom sarom   7266696 Jun  2 05:20 /scratch/scrf-h2cnh.F09
-rw-rw-r-- 1 sarom sarom   3893680 Jun  2 05:20 /scratch/scrf-h2cnh.F10
-rw-rw-r-- 1 sarom sarom       328 Jun  2 05:20 /scratch/scrf-h2cnh.F12
-rw-rw-r-- 1 sarom sarom    180464 Jun  2 05:20 /scratch/scrf-h2cnh.F15
-rw-rw-r-- 1 sarom sarom   2030616 Jun  2 05:20 /scratch/scrf-h2cnh.F16
rm: cannot remove `/scratch/sarom': Is a directory
rm: cannot remove `/scratch/tmp': Is a directory
ls: No match.
ls: No match.
ls: No match.
Fri Jun  2 05:20:37 CDT 2017
0.244u 0.188s 0:55.67 0.7%	0+0k 48+392io 0pf+0w
/opt/gridengine/default/spool/compute-0-1/active_jobs/24062.1/pe_hostfile compute-0-1.local
