-catch_rsh /opt/gridengine/default/spool/compute-1-1/active_jobs/36305.1/pe_hostfile
compute-1-1
The primary node assigned by SGE to this run is compute-1-1
Warning: no access to tty (Bad file descriptor).
Thus no job control in this shell.
source /home/sarom/dir.git.branch.saromleang-travis-ci/install.info
setenv GMS_PATH /home/sarom/dir.git.branch.saromleang-travis-ci
setenv GMS_BUILD_DIR /home/sarom/dir.git.branch.saromleang-travis-ci
setenv GMS_TARGET linux64
setenv GMS_FORTRAN gfortran
setenv GMS_GFORTRAN_VERNO 4.4
setenv GMS_MATHLIB mkl-so
setenv GMS_MATHLIB none
setenv GMS_MATHLIB_PATH /share/apps/intel/compilers_and_libraries_2017.1.132/linux/mkl/lib/intel64
setenv GMS_MKL_VERNO 12
setenv GMS_DDI_COMM sockets
setenv GMS_LIBCCHEM false
setenv GMS_EIGEN_PATH
setenv GMS_PHI false
setenv GMS_SHMTYPE sysv
setenv GMS_OPENMP false
unset echo
exam41
/home/sarom/dir.git.branch.saromleang-travis-ci/tests/travis-ci/parallel
----- GAMESS execution script 'rungms' -----
This job is running on host compute-1-1.local
under operating system Linux at Wed Aug 9 22:40:41 CDT 2017
Available scratch disk space (Kbyte units) at beginning of the job is
Filesystem           1K-blocks      Used Available Use% Mounted on
/dev/sda1             16126920   9109384   6198336  60% /
GAMESS temporary binary files will be written to /scratch
GAMESS supplementary output files will be written to /home/sarom/restart
Copying input file exam41.inp to your run's scratch directory...
cp /home/sarom/dir.git.branch.saromleang-travis-ci/tests/travis-ci/parallel/exam41.inp /scratch/exam41.F05
unset echo
The generated host list is
compute-1-1.local
/home/sarom/dir.git.branch.saromleang-travis-ci/ddikick.x /home/sarom/dir.git.branch.saromleang-travis-ci/gamess.00.x exam41 -ddi 1 1 compute-1-1.local -scr /scratch

 Distributed Data Interface kickoff program.
 Initiating 1 compute processes on 1 nodes to run the following command:
 /home/sarom/dir.git.branch.saromleang-travis-ci/gamess.00.x exam41 

          ******************************************************
          *         GAMESS VERSION = 20 APR 2017 (R1)          *
          *             FROM IOWA STATE UNIVERSITY             *
          * M.W.SCHMIDT, K.K.BALDRIDGE, J.A.BOATZ, S.T.ELBERT, *
          *   M.S.GORDON, J.H.JENSEN, S.KOSEKI, N.MATSUNAGA,   *
          *          K.A.NGUYEN, S.J.SU, T.L.WINDUS,           *
          *       TOGETHER WITH M.DUPUIS, J.A.MONTGOMERY       *
          *         J.COMPUT.CHEM.  14, 1347-1363(1993)        *
          **************** 64 BIT LINUX VERSION ****************

  SINCE 1993, STUDENTS AND POSTDOCS WORKING AT IOWA STATE UNIVERSITY
  AND ALSO IN THEIR VARIOUS JOBS AFTER LEAVING ISU HAVE MADE IMPORTANT
  CONTRIBUTIONS TO THE CODE:
     IVANA ADAMOVIC, CHRISTINE AIKENS, YURI ALEXEEV, POOJA ARORA,
     ANDREY ASADCHEV, ROB BELL, PRADIPTA BANDYOPADHYAY, JONATHAN BENTZ,
     BRETT BODE, KURT BRORSEN, CALEB CARLIN, GALINA CHABAN, WEI CHEN,
     CHEOL HO CHOI, PAUL DAY, ALBERT DEFUSCO, NUWAN DESILVA, TIM DUDLEY,
     DMITRI FEDOROV, GRAHAM FLETCHER, MARK FREITAG, KURT GLAESEMANN,
     DAN KEMP, GRANT MERRILL, NORIYUKI MINEZAWA, JONATHAN MULLIN,
     TAKESHI NAGATA, SEAN NEDD, HEATHER NETZLOFF, BOSILJKA NJEGIC, RYAN OLSON,
     MIKE PAK, SPENCER PRUITT, LUKE ROSKOP, JIM SHOEMAKER, LYUDMILA SLIPCHENKO,
     TONY SMITH, SAROM SOK LEANG, JIE SONG, TETSUYA TAKETSUGU, SIMON WEBB,
     PENG XU, SOOHAENG YOO, FEDERICO ZAHARIEV

  ADDITIONAL CODE HAS BEEN PROVIDED BY COLLABORATORS IN OTHER GROUPS:
     IOWA STATE UNIVERSITY:
          JOE IVANIC, AARON WEST, LAIMUTIS BYTAUTAS, KLAUS RUEDENBERG
     UNIVERSITY OF TOKYO: KIMIHIKO HIRAO, TAKAHITO NAKAJIMA,
          TAKAO TSUNEDA, MUNEAKI KAMIYA, SUSUMU YANAGISAWA,
          KIYOSHI YAGI, MAHITO CHIBA, SEIKEN TOKURA, NAOAKI KAWAKAMI
     UNIVERSITY OF AARHUS: FRANK JENSEN
     UNIVERSITY OF IOWA: VISVALDAS KAIRYS, HUI LI
     NATIONAL INST. OF STANDARDS AND TECHNOLOGY: WALT STEVENS, DAVID GARMER
     UNIVERSITY OF PISA: BENEDETTA MENNUCCI, JACOPO TOMASI
     UNIVERSITY OF MEMPHIS: HENRY KURTZ, PRAKASHAN KORAMBATH
     UNIVERSITY OF ALBERTA: TOBY ZENG, MARIUSZ KLOBUKOWSKI
     UNIVERSITY OF NEW ENGLAND: MARK SPACKMAN
     MIE UNIVERSITY: HIROAKI UMEDA
     NAT. INST. OF ADVANCED INDUSTRIAL SCIENCE AND TECHNOLOGY: KAZUO KITAURA
     MICHIGAN STATE UNIVERSITY:
          KAROL KOWALSKI, MARTA WLOCH, JEFFREY GOUR, JESSE LUTZ,
          WEI LI, PIOTR PIECUCH
     UNIVERSITY OF SILESIA: MONIKA MUSIAL, STANISLAW KUCHARSKI
     FACULTES UNIVERSITAIRES NOTRE-DAME DE LA PAIX:
          OLIVIER QUINET, BENOIT CHAMPAGNE
     UNIVERSITY OF CALIFORNIA - SANTA BARBARA: BERNARD KIRTMAN
     INSTITUTE FOR MOLECULAR SCIENCE:
          KAZUYA ISHIMURA, MICHIO KATOUDA, AND SHIGERU NAGASE
     UNIVERSITY OF NOTRE DAME: ANNA POMOGAEVA, DAN CHIPMAN
     KYUSHU UNIVERSITY:
          HARUYUKI NAKANO,
          FENG LONG GU, JACEK KORCHOWIEC, MARCIN MAKOWSKI, AND YURIKO AOKI,
          HIROTOSHI MORI AND EISAKU MIYOSHI
     PENNSYLVANIA STATE UNIVERSITY:
          TZVETELIN IORDANOV, CHET SWALINA, JONATHAN SKONE,
          SHARON HAMMES-SCHIFFER
     WASEDA UNIVERSITY:
          MASATO KOBAYASHI, TOMOKO AKAMA, TSUGUKI TOUMA,
          TAKESHI YOSHIKAWA, YASUHIRO IKABATA, JUNJI SEINO,
          YUYA NAKAJIMA, HIROMI NAKAI
     NANJING UNIVERSITY: SHUHUA LI
     UNIVERSITY OF NEBRASKA:
          PEIFENG SU, DEJUN SI, NANDUN THELLAMUREGE, YALI WANG, HUI LI
     UNIVERSITY OF ZURICH: ROBERTO PEVERATI, KIM BALDRIDGE
     N. COPERNICUS UNIVERSITY AND JACKSON STATE UNIVERSITY:
          MARIA BARYSZ
     UNIVERSITY OF COPENHAGEN: Jimmy Kromann, CASPER STEINMANN
     TOKYO INSTITUTE OF TECHNOLOGY: HIROYA NAKATA
     NAGOYA UNIVERSITY: YOSHIO NISHIMOTO, STEPHAN IRLE
     MOSCOW STATE UNIVERSITY: VLADIMIR MIRONOV

 EXECUTION OF GAMESS BEGUN Wed Aug  9 22:40:41 2017

            ECHO OF THE FIRST FEW INPUT CARDS -
 INPUT CARD>! EXAM 41.                                                                      
 INPUT CARD>!   This job illustrates TDDFT/PBE0/6-31+G(d) for                               
 INPUT CARD>!   the 3 lowest singlet excited states of CO.                                  
 INPUT CARD>!   There are diffuse functions in the basis set,                               
 INPUT CARD>!   as excited states often have Rydberg character.                             
 INPUT CARD>!                                                                               
 INPUT CARD>!   The geometry is the experimental ground state's.                            
 INPUT CARD>!   The first excited state need not have the same                              
 INPUT CARD>!   geometry as the G.S., so its gradient is big.                               
 INPUT CARD>!   experimental Te is 8.06 to 1-pi,                                            
 INPUT CARD>!                      8.17 to 1-sigma-minus                                    
 INPUT CARD>!   Of course this run computes vertical T0 values.                             
 INPUT CARD>!   Computational results on the log file show that                             
 INPUT CARD>!   these two valence states arise from sigma->pi*                              
 INPUT CARD>!   and pi->pi* excitations, respectively.                                      
 INPUT CARD>!                                                                               
 INPUT CARD>!            Results for the gas phase:                                         
 INPUT CARD>!  ground state FINAL E= -113.1878149968, 17 iters                              
 INPUT CARD>!        excitation  transition dipole    oscillator                            
 INPUT CARD>!  state    eV       x       y       z     strength                             
 INPUT CARD>!  0 sig+   .000                                                                
 INPUT CARD>!  1  pi   8.474  -.3724   .5587   .0000     .094                               
 INPUT CARD>!  2  pi   8.474   .5587   .3724   .0000     .094                               
 INPUT CARD>!  3 sig- 10.231   .0000   .0000   .0000     .000                               
 INPUT CARD>!  The 'lambda diagnostic' for the pi state is 0.700                            
 INPUT CARD>!  RMS gradient of 1st excited state= 0.112201641                               
 INPUT CARD>!                                                                               
 INPUT CARD>!     if the Tamm/Dancoff approximation is used:                                
 INPUT CARD>!  0 sig+   .000                                                                
 INPUT CARD>!  1  pi   8.687  -.7421  -.1223   .0000     .120                               
 INPUT CARD>!  2  pi   8.687   .1223  -.7421   .0000     .120                               
 INPUT CARD>!  3 sig- 10.234   .0000   .0000   .0000     .000                               
 INPUT CARD>!                                                                               
 INPUT CARD>!          if aqueous solvation is turned on:                                   
 INPUT CARD>!  E= -113.1885370825, 14 iters, R.M.S.= .105538008                             
 INPUT CARD>!        excitation  transition dipole    oscillator                            
 INPUT CARD>!  state    eV       x       y       z     strength                             
 INPUT CARD>!  0 sig+   .000                                                                
 INPUT CARD>!  1  pi   8.267   .0001   .7499   .0000     .114                               
 INPUT CARD>!  2  pi   8.267   .7499  -.0001   .0000     .114                               
 INPUT CARD>!  3 sig-  9.799   .0000   .0000   .0000     .000                               
 INPUT CARD>!  The solvated first E.S. optimizes to R= 1.2282                               
 INPUT CARD>!                                                                               
 INPUT CARD> $contrl scftyp=rhf dfttyp=pbe0 tddft=excite                                    
 INPUT CARD>         runtyp=gradient $end                                                   
 INPUT CARD> $system timlim=4 $end                                                          
 INPUT CARD> $tddft  nstate=3 mult=1 iroot=1 tammd=.false. $end                             
 INPUT CARD> $guess  guess=huckel $end                                                      
 INPUT CARD> $basis  gbasis=N31 ngauss=6 diffsp=.T. ndfunc=1 $end                           
 INPUT CARD>                                                                                
    1000000 WORDS OF MEMORY AVAILABLE

     BASIS OPTIONS
     -------------
     GBASIS=N31          IGAUSS=       6      POLAR=POPN31  
     NDFUNC=       1     NFFUNC=       0     DIFFSP=       T
     NPFUNC=       0      DIFFS=       F     BASNAM=        


     RUN TITLE
     ---------
 CO...excitation to the 3 lowest singlet states                                  

 THE POINT GROUP OF THE MOLECULE IS CNV     
 THE ORDER OF THE PRINCIPAL AXIS IS     4

 ATOM      ATOMIC                      COORDINATES (BOHR)
           CHARGE         X                   Y                   Z
 C           6.0     0.0000000000        0.0000000000        0.0000000000
 O           8.0     0.0000000000        0.0000000000        2.1322212956

          INTERNUCLEAR DISTANCES (ANGS.)
          ------------------------------

                1 C          2 O     

   1 C       0.0000000    1.1283230 *
   2 O       1.1283230 *  0.0000000  

  * ... LESS THAN  3.000


     ATOMIC BASIS SET
     ----------------
 THE CONTRACTED PRIMITIVE FUNCTIONS HAVE BEEN UNNORMALIZED
 THE CONTRACTED BASIS FUNCTIONS ARE NOW NORMALIZED TO UNITY

  SHELL TYPE  PRIMITIVE        EXPONENT          CONTRACTION COEFFICIENT(S)

 C         

      1   S       1          3047.5248800    0.001834737132
      1   S       2           457.3695180    0.014037322813
      1   S       3           103.9486850    0.068842622264
      1   S       4            29.2101553    0.232184443216
      1   S       5             9.2866630    0.467941348435
      1   S       6             3.1639270    0.362311985337

      2   L       7             7.8682723   -0.119332419775    0.068999066591
      2   L       8             1.8812885   -0.160854151696    0.316423960957
      2   L       9             0.5442493    1.143456437840    0.744308290898

      3   L      10             0.1687145    1.000000000000    1.000000000000

      4   L      11             0.0438000    1.000000000000    1.000000000000

      5   D      12             0.8000000    1.000000000000

 O         

      6   S      13          5484.6716600    0.001831074430
      6   S      14           825.2349460    0.013950172200
      6   S      15           188.0469580    0.068445078098
      6   S      16            52.9645000    0.232714335992
      6   S      17            16.8975704    0.470192897984
      6   S      18             5.7996353    0.358520852987

      7   L      19            15.5396162   -0.110777549525    0.070874268231
      7   L      20             3.5999336   -0.148026262701    0.339752839147
      7   L      21             1.0137618    1.130767015354    0.727158577316

      8   L      22             0.2700058    1.000000000000    1.000000000000

      9   L      23             0.0845000    1.000000000000    1.000000000000

     10   D      24             0.8000000    1.000000000000

 TOTAL NUMBER OF BASIS SET SHELLS             =   10
 NUMBER OF CARTESIAN GAUSSIAN BASIS FUNCTIONS =   38
 NUMBER OF ELECTRONS                          =   14
 CHARGE OF MOLECULE                           =    0
 SPIN MULTIPLICITY                            =    1
 NUMBER OF OCCUPIED ORBITALS (ALPHA)          =    7
 NUMBER OF OCCUPIED ORBITALS (BETA )          =    7
 TOTAL NUMBER OF ATOMS                        =    2
 THE NUCLEAR REPULSION ENERGY IS       22.5117346394

 THIS MOLECULE IS RECOGNIZED AS BEING LINEAR,
 ORBITAL LZ DEGENERACY TOLERANCE ETOLLZ= 1.00E-06

     LEBEDEV GRID-BASED DFT OPTIONS
     ------------------------------
     DFTTYP=PBE0    
     NRAD  =      96     NLEB  =     302
     NRAD0 =      24     NLEB0 =     110
     SWOFF =    5.00E-03 (PURE SCF -> DFT)
     SWITCH=    3.00E-04 (COARSE -> TIGHT GRID)
     THRESH=    0.00E+00 GTHRE=    1.00E+00

 GRIMME'S EMPIRICAL DISPERSION CORRECTION= F

     $CONTRL OPTIONS
     ---------------
 SCFTYP=RHF          RUNTYP=GRADIENT     EXETYP=RUN     
 MPLEVL=       0     CITYP =NONE         CCTYP =NONE         VBTYP =NONE    
 DFTTYP=PBE0         TDDFT =EXCITE  
 MULT  =       1     ICHARG=       0     NZVAR =       0     COORD =UNIQUE  
 PP    =NONE         RELWFN=NONE         LOCAL =NONE         NUMGRD=       F
 ISPHER=      -1     NOSYM =       0     MAXIT =      30     UNITS =ANGS    
 PLTORB=       F     MOLPLT=       F     AIMPAC=       F     FRIEND=        
 NPRINT=       7     IREST =       0     GEOM  =INPUT   
 NORMF =       0     NORMP =       0     ITOL  =      20     ICUT  =       9
 INTTYP=BEST         GRDTYP=BEST         QMTTOL= 1.0E-06

     $SYSTEM OPTIONS
     ---------------
  REPLICATED MEMORY=     1000000 WORDS (ON EVERY NODE).
 DISTRIBUTED MEMDDI=           0 MILLION WORDS IN AGGREGATE,
 MEMDDI DISTRIBUTED OVER   1 PROCESSORS IS           0 WORDS/PROCESSOR.
 TOTAL MEMORY REQUESTED ON EACH PROCESSOR=     1000000 WORDS.
 TIMLIM=           4.00 MINUTES, OR       0.0 DAYS.
 PARALL= F  BALTYP=  DLB     KDIAG=    0  COREFL= F
 MXSEQ2=     300 MXSEQ3=     150  mem10=         0

          ----------------
          PROPERTIES INPUT
          ----------------

     MOMENTS            FIELD           POTENTIAL          DENSITY
 IEMOM =       1   IEFLD =       0   IEPOT =       0   IEDEN =       0
 WHERE =COMASS     WHERE =NUCLEI     WHERE =NUCLEI     WHERE =NUCLEI  
 OUTPUT=BOTH       OUTPUT=BOTH       OUTPUT=BOTH       OUTPUT=BOTH    
 IEMINT=       0   IEFINT=       0                     IEDINT=       0
                                                       MORB  =       0
          EXTRAPOLATION IN EFFECT
          DIIS IN EFFECT
 ORBITAL PRINTING OPTION: NPREO=     1    38     2     1

     -------------------------------
     INTEGRAL TRANSFORMATION OPTIONS
     -------------------------------
     NWORD  =            0
     CUTOFF = 1.0E-09     MPTRAN =       0
     DIRTRF =       F     AOINTS =DUP     

          ----------------------
          INTEGRAL INPUT OPTIONS
          ----------------------
 NOPK  =       1 NORDER=       0 SCHWRZ=       F

          ----------------------
          TDDFT INPUT PARAMETERS
          ----------------------
 NSTATE=       3  IROOT=       1   MULT=       1
 MAXVEC=      50 NTRIAL=       5 CNVTOL=  1.00E-07
 TDPRP =       F  TAMMD=       F    TPA=       F
 ALPHA =       F   BETA=       F  PFREQ=    0.00    0.00
   NRAD=      48   NLEB=     110

     ------------------------------------------
     THE POINT GROUP IS CNV, NAXIS= 4, ORDER= 8
     ------------------------------------------

     DIMENSIONS OF THE SYMMETRY SUBSPACES ARE
 A1  =   18     A2  =    0     B1  =    2     B2  =    2     E   =    8

 ..... DONE SETTING UP THE RUN .....
 STEP CPU TIME =     0.01 TOTAL CPU TIME =        0.0 (    0.0 MIN)
 TOTAL WALL CLOCK TIME=        0.0 SECONDS, CPU UTILIZATION IS  50.00%

                    --------------------------------
                    SINGLE POINT ENERGY AND GRADIENT
                    --------------------------------

          ********************
          1 ELECTRON INTEGRALS
          ********************
 ...... END OF ONE-ELECTRON INTEGRALS ......
 STEP CPU TIME =     0.00 TOTAL CPU TIME =        0.0 (    0.0 MIN)
 TOTAL WALL CLOCK TIME=        0.0 SECONDS, CPU UTILIZATION IS  50.00%

          -------------
          GUESS OPTIONS
          -------------
          GUESS =HUCKEL            NORB  =       0          NORDER=       0
          MIX   =       F          PRTMO =       F          PUNMO =       F
          TOLZ  = 1.0E-08          TOLE  = 1.0E-05
          SYMDEN=       F          PURIFY=       F

 INITIAL GUESS ORBITALS GENERATED BY HUCKEL   ROUTINE.
 HUCKEL GUESS REQUIRES     12706 WORDS.

 SYMMETRIES FOR INITIAL GUESS ORBITALS FOLLOW.   BOTH SET(S).
     7 ORBITALS ARE OCCUPIED (    2 CORE ORBITALS).
     3=A1       4=A1       5=E        6=E        7=A1       8=E        9=E   
    10=A1      11=A1      12=A1      13=A1      14=A1      15=A1      16=A1  
    17=A1  
 ...... END OF INITIAL ORBITAL SELECTION ......
 STEP CPU TIME =     0.00 TOTAL CPU TIME =        0.0 (    0.0 MIN)
 TOTAL WALL CLOCK TIME=        0.0 SECONDS, CPU UTILIZATION IS  50.00%

                    ----------------------
                    AO INTEGRAL TECHNOLOGY
                    ----------------------
     S,P,L SHELL ROTATED AXIS INTEGRALS, REPROGRAMMED BY
        KAZUYA ISHIMURA (IMS) AND JOSE SIERRA (SYNSTAR).
     S,P,D,L SHELL ROTATED AXIS INTEGRALS PROGRAMMED BY
        KAZUYA ISHIMURA (INSTITUTE FOR MOLECULAR SCIENCE).
     S,P,D,F,G SHELL TO TOTAL QUARTET ANGULAR MOMENTUM SUM 5,
        ERIC PROGRAM BY GRAHAM FLETCHER (ELORET AND NASA ADVANCED
        SUPERCOMPUTING DIVISION, AMES RESEARCH CENTER).
     S,P,D,F,G,L SHELL GENERAL RYS QUADRATURE PROGRAMMED BY
        MICHEL DUPUIS (PACIFIC NORTHWEST NATIONAL LABORATORY).

          --------------------
          2 ELECTRON INTEGRALS
          --------------------

 THE -PK- OPTION IS OFF, THE INTEGRALS ARE NOT IN SUPERMATRIX FORM.
 STORING   15000 INTEGRALS/RECORD ON DISK, USING 12 BYTES/INTEGRAL.
 TWO ELECTRON INTEGRAL EVALUATION REQUIRES   90451 WORDS OF MEMORY.
 II,JST,KST,LST =  1  1  1  1 NREC =         1 INTLOC =    1
 II,JST,KST,LST =  2  1  1  1 NREC =         1 INTLOC =    2
 II,JST,KST,LST =  3  1  1  1 NREC =         1 INTLOC =   34
 II,JST,KST,LST =  4  1  1  1 NREC =         1 INTLOC =  214
 II,JST,KST,LST =  5  1  1  1 NREC =         1 INTLOC =  776
 II,JST,KST,LST =  6  1  1  1 NREC =         1 INTLOC = 2864
 II,JST,KST,LST =  7  1  1  1 NREC =         1 INTLOC = 4164
 II,JST,KST,LST =  8  1  1  1 NREC =         1 INTLOC =10804
 II,JST,KST,LST =  9  1  1  1 NREC =         2 INTLOC = 6472
 II,JST,KST,LST = 10  1  1  1 NREC =         3 INTLOC = 7422
 TOTAL NUMBER OF NONZERO TWO-ELECTRON INTEGRALS =               72578
          5 INTEGRAL RECORDS WERE STORED ON DISK FILE  8.
  ...... END OF TWO-ELECTRON INTEGRALS .....
 STEP CPU TIME =     0.04 TOTAL CPU TIME =        0.0 (    0.0 MIN)
 TOTAL WALL CLOCK TIME=        0.0 SECONDS, CPU UTILIZATION IS 100.00%

          --------------------------
              R-PBE0 SCF CALCULATION
          --------------------------

     NUCLEAR ENERGY =        22.5117346394
     MAXIT =   30     NPUNCH=    2
     EXTRAP=T  DAMP=F  SHIFT=F  RSTRCT=F  DIIS=T  DEM=F  SOSCF=F
         DENSITY MATRIX CONVERGENCE THRESHOLD=  1.00E-06
     COARSE -> FINE DFT GRID SWITCH THRESHOLD=  3.00E-04 (SWITCH IN $DFT)
                   HF -> DFT SWITCH THRESHOLD=  5.00E-03 (SWOFF IN $DFT)
     MEMORY REQUIRED FOR RHF ITERS=    145367 WORDS.

 DFT CODE IS SWITCHING FROM THE FINE GRID NRAD= 96,  NLEB=  302
                      TO THE COARSE GRID NRAD0= 24, NLEB0=  110

     EXCHANGE FUNCTIONAL   =PBE&HFX   
     CORRELATION FUNCTIONAL=PBE       
     DFT THRESHOLD         =.690E-07
     GRID CHANGE THRESHOLD =.300E-03
 FOR AN EULER-MACLAURIN QUADRATURE USING  96 RADIAL POINTS:
 SMALLEST GAUSSIAN PRIMITIVE EXPONENT=        0.0438000000 OF TYPE -P-
 ON ATOM NUMBER   1 HAS RADIAL NORMALIZATION=  1.000000
  LARGEST GAUSSIAN PRIMITIVE EXPONENT=     5484.6716600000 OF TYPE -S-
 ON ATOM NUMBER   2 HAS RADIAL NORMALIZATION=  1.000000
 DFT IS SWITCHED OFF, PERFORMING PURE SCF UNTIL SWOFF THRESHOLD IS REACHED.

 ITER EX DEM     TOTAL ENERGY        E CHANGE  DENSITY CHANGE    DIIS ERROR
   1  0  0     -112.2691079648  -112.2691079648   0.295927830   0.603401912
          * * *   INITIATING DIIS PROCEDURE   * * *
   2  1  0     -112.6573701727    -0.3882622078   0.244778027   0.241377384
   3  2  0     -112.6796757659    -0.0223055933   0.114441265   0.204371953
   4  3  0     -112.7411368640    -0.0614610981   0.012011803   0.016411495
   5  4  0     -112.7415116283    -0.0003747643   0.003425166   0.003432353
 CONVERGED TO SWOFF, SO DFT CALCULATION IS NOW SWITCHED ON.
          * * *   INITIATING DIIS PROCEDURE   * * *
   6  5  0     -113.1803494297    -0.4388378014   0.076843795   0.078396184
   7  6  0     -113.1858501828    -0.0055007531   0.052893062   0.046716753
   8  7  0     -113.1830466259     0.0028035569   0.035673818   0.066012754
   9  8  0     -113.1888925745    -0.0058459485   0.003303422   0.003016827
  10  9  0     -113.1889213011    -0.0000287266   0.000160325   0.000368892
 DFT CODE IS SWITCHING BACK TO THE FINE GRID
          * * *   INITIATING DIIS PROCEDURE   * * *
  11 10  0     -113.1878106963     0.0011106048   0.001882400   0.001730640
  12 11  0     -113.1878147472    -0.0000040510   0.000474421   0.000352838
  13 12  0     -113.1878144511     0.0000002961   0.000327698   0.000634413
  14 13  0     -113.1878149889    -0.0000005377   0.000053143   0.000054607
  15 14  0     -113.1878149967    -0.0000000078   0.000005014   0.000006720
  16 15  0     -113.1878149968    -0.0000000001   0.000000817   0.000001333
  17 16  0     -113.1878149968    -0.0000000000   0.000000142   0.000000256

          -----------------
          DENSITY CONVERGED
          -----------------
     TIME TO FORM FOCK OPERATORS=       1.3 SECONDS (       0.1 SEC/ITER)
     TIME TO SOLVE SCF EQUATIONS=       0.0 SECONDS (       0.0 SEC/ITER)

 FINAL R-PBE0 ENERGY IS     -113.1878149968 AFTER  17 ITERATIONS
 DFT EXCHANGE + CORRELATION ENERGY =       -10.4171298675
 TOTAL ELECTRON NUMBER             =        13.9999997037

 LZ VALUE ANALYSIS FOR THE MOS
 ----------------------------------------
 MO     1 (    1) HAS LZ(WEIGHT)= 0.00(100.0%) 
 MO     2 (    2) HAS LZ(WEIGHT)= 0.00(100.0%) 
 MO     3 (    3) HAS LZ(WEIGHT)= 0.00(100.0%) 
 MO     4 (    4) HAS LZ(WEIGHT)= 0.00(100.0%) 
 MO     5 (    5) HAS LZ(WEIGHT)=-1.00( 50.0%)  1.00( 50.0%) 
 MO     6 (    5) HAS LZ(WEIGHT)=-1.00( 50.0%)  1.00( 50.0%) 
 MO     7 (    6) HAS LZ(WEIGHT)= 0.00(100.0%) 
 MO     8 (    7) HAS LZ(WEIGHT)=-1.00( 50.0%)  1.00( 50.0%) 
 MO     9 (    7) HAS LZ(WEIGHT)=-1.00( 50.0%)  1.00( 50.0%) 
 MO    10 (    8) HAS LZ(WEIGHT)= 0.00(100.0%) 
 MO    11 (    9) HAS LZ(WEIGHT)= 0.00(100.0%) 
 MO    12 (   10) HAS LZ(WEIGHT)=-1.00( 50.0%)  1.00( 50.0%) 
 MO    13 (   10) HAS LZ(WEIGHT)=-1.00( 50.0%)  1.00( 50.0%) 
 MO    14 (   11) HAS LZ(WEIGHT)= 0.00(100.0%) 
 MO    15 (   12) HAS LZ(WEIGHT)=-1.00( 50.0%)  1.00( 50.0%) 
 MO    16 (   12) HAS LZ(WEIGHT)=-1.00( 50.0%)  1.00( 50.0%) 
 MO    17 (   13) HAS LZ(WEIGHT)= 0.00(100.0%) 
 MO    18 (   14) HAS LZ(WEIGHT)= 0.00(100.0%) 
 MO    19 (   15) HAS LZ(WEIGHT)=-1.00( 50.0%)  1.00( 50.0%) 
 MO    20 (   15) HAS LZ(WEIGHT)=-1.00( 50.0%)  1.00( 50.0%) 
 MO    21 (   16) HAS LZ(WEIGHT)= 0.00(100.0%) 
 MO    22 (   17) HAS LZ(WEIGHT)= 0.00(100.0%) 
 MO    23 (   18) HAS LZ(WEIGHT)=-1.00( 50.0%)  1.00( 50.0%) 
 MO    24 (   18) HAS LZ(WEIGHT)=-1.00( 50.0%)  1.00( 50.0%) 
 MO    25 (   19) HAS LZ(WEIGHT)= 0.00(100.0%) 
 MO    26 (   20) HAS LZ(WEIGHT)=-2.00( 50.0%)  2.00( 50.0%) 
 MO    27 (   20) HAS LZ(WEIGHT)=-2.00( 50.0%)  2.00( 50.0%) 
 MO    28 (   21) HAS LZ(WEIGHT)= 0.00(100.0%) 
 MO    29 (   22) HAS LZ(WEIGHT)=-1.00( 50.0%)  1.00( 50.0%) 
 MO    30 (   22) HAS LZ(WEIGHT)=-1.00( 50.0%)  1.00( 50.0%) 
 MO    31 (   23) HAS LZ(WEIGHT)=-2.00( 50.0%)  2.00( 50.0%) 
 MO    32 (   23) HAS LZ(WEIGHT)=-2.00( 50.0%)  2.00( 50.0%) 
 MO    33 (   24) HAS LZ(WEIGHT)= 0.00(100.0%) 
 MO    34 (   25) HAS LZ(WEIGHT)=-1.00( 50.0%)  1.00( 50.0%) 
 MO    35 (   25) HAS LZ(WEIGHT)=-1.00( 50.0%)  1.00( 50.0%) 
 MO    36 (   26) HAS LZ(WEIGHT)= 0.00(100.0%) 
 MO    37 (   27) HAS LZ(WEIGHT)= 0.00(100.0%) 
 MO    38 (   28) HAS LZ(WEIGHT)= 0.00(100.0%) 

          ------------
          EIGENVECTORS
          ------------

                      1          2          3          4          5
                  -19.3465   -10.3630    -1.2047    -0.5998    -0.4966
                     A1         A1         A1         A1         E   
    1  C  1  S    0.000032   0.993505  -0.117125   0.134233  -0.000000
    2  C  1  S    0.000288   0.046877   0.221380  -0.295676  -0.000000
    3  C  1  X   -0.000000   0.000000  -0.000000   0.000000   0.319927
    4  C  1  Y   -0.000000   0.000000  -0.000000   0.000000  -0.000000
    5  C  1  Z   -0.000156   0.004277   0.219780  -0.119015  -0.000000
    6  C  1  S   -0.000639  -0.011471   0.071178  -0.281780  -0.000000
    7  C  1  X   -0.000000   0.000000  -0.000000   0.000000   0.104451
    8  C  1  Y   -0.000000   0.000000  -0.000000   0.000000  -0.000000
    9  C  1  Z   -0.000895  -0.001373  -0.010608  -0.019688  -0.000000
   10  C  1  S    0.001682  -0.001762   0.018457  -0.001158  -0.000000
   11  C  1  X   -0.000000   0.000000  -0.000000   0.000000   0.014948
   12  C  1  Y   -0.000000   0.000000  -0.000000   0.000000  -0.000000
   13  C  1  Z    0.000941  -0.000582   0.017506   0.006827  -0.000000
   14  C  1 XX   -0.000076  -0.008412  -0.022245   0.012617  -0.000000
   15  C  1 YY   -0.000076  -0.008412  -0.022245   0.012617  -0.000000
   16  C  1 ZZ   -0.000890  -0.006311   0.032023  -0.001511  -0.000000
   17  C  1 XY   -0.000000   0.000000  -0.000000   0.000000  -0.000000
   18  C  1 XZ   -0.000000   0.000000  -0.000000   0.000000   0.041761
   19  C  1 YZ   -0.000000   0.000000  -0.000000   0.000000  -0.000000
   20  O  2  S    0.992907  -0.000427  -0.202015  -0.114135  -0.000000
   21  O  2  S    0.025025   0.000329   0.442495   0.267943  -0.000000
   22  O  2  X   -0.000000   0.000000  -0.000000   0.000000   0.563944
   23  O  2  Y   -0.000000   0.000000  -0.000000   0.000000  -0.000000
   24  O  2  Z   -0.001462   0.000318  -0.177306   0.491926  -0.000000
   25  O  2  S    0.013422  -0.003128   0.364076   0.444242  -0.000000
   26  O  2  X   -0.000000   0.000000  -0.000000   0.000000   0.331543
   27  O  2  Y   -0.000000   0.000000  -0.000000   0.000000  -0.000000
   28  O  2  Z   -0.000075   0.002892  -0.032490   0.198737  -0.000000
   29  O  2  S   -0.004417   0.007167  -0.049281   0.058024  -0.000000
   30  O  2  X   -0.000000   0.000000  -0.000000   0.000000   0.023137
   31  O  2  Y   -0.000000   0.000000  -0.000000   0.000000  -0.000000
   32  O  2  Z   -0.000020  -0.003709   0.000959   0.002726  -0.000000
   33  O  2 XX   -0.007900   0.000392  -0.005635   0.007685  -0.000000
   34  O  2 YY   -0.007900   0.000392  -0.005635   0.007685  -0.000000
   35  O  2 ZZ   -0.007408  -0.000923   0.010692  -0.024667  -0.000000
   36  O  2 XY   -0.000000   0.000000  -0.000000   0.000000  -0.000000
   37  O  2 XZ   -0.000000   0.000000  -0.000000   0.000000  -0.035511
   38  O  2 YZ   -0.000000   0.000000  -0.000000   0.000000  -0.000000

                      6          7          8          9         10
                   -0.4966    -0.3947    -0.0282    -0.0282     0.0395
                     E          A1         E          E          A1  
    1  C  1  S   -0.000000  -0.141039  -0.000000  -0.000000   0.031187
    2  C  1  S   -0.000000   0.277423  -0.000000  -0.000000  -0.120515
    3  C  1  X   -0.000000   0.000000   0.500559  -0.000000   0.000000
    4  C  1  Y    0.319927   0.000000  -0.000000   0.500559   0.000000
    5  C  1  Z   -0.000000  -0.446290  -0.000000  -0.000000   0.110101
    6  C  1  S   -0.000000   0.522987  -0.000000  -0.000000   0.247883
    7  C  1  X   -0.000000   0.000000   0.526982  -0.000000   0.000000
    8  C  1  Y    0.104451   0.000000  -0.000000   0.526982   0.000000
    9  C  1  Z   -0.000000  -0.143957  -0.000000  -0.000000   0.399266
   10  C  1  S   -0.000000   0.080823  -0.000000  -0.000000   2.229209
   11  C  1  X   -0.000000   0.000000   0.419821  -0.000000   0.000000
   12  C  1  Y    0.014948   0.000000  -0.000000   0.419821   0.000000
   13  C  1  Z   -0.000000  -0.024340  -0.000000  -0.000000   0.814257
   14  C  1 XX   -0.000000   0.015098  -0.000000  -0.000000   0.000952
   15  C  1 YY   -0.000000   0.015098  -0.000000  -0.000000   0.000952
   16  C  1 ZZ   -0.000000  -0.038994  -0.000000  -0.000000   0.005494
   17  C  1 XY   -0.000000   0.000000  -0.000000  -0.000000   0.000000
   18  C  1 XZ   -0.000000   0.000000  -0.015955  -0.000000   0.000000
   19  C  1 YZ    0.041761   0.000000  -0.000000  -0.015955   0.000000
   20  O  2  S   -0.000000   0.014218  -0.000000  -0.000000   0.029876
   21  O  2  S   -0.000000  -0.037469  -0.000000  -0.000000  -0.111466
   22  O  2  X   -0.000000   0.000000  -0.391172  -0.000000   0.000000
   23  O  2  Y    0.563944   0.000000  -0.000000  -0.391172   0.000000
   24  O  2  Z   -0.000000   0.277786  -0.000000  -0.000000  -0.064231
   25  O  2  S   -0.000000  -0.021093  -0.000000  -0.000000  -0.211530
   26  O  2  X   -0.000000   0.000000  -0.344629  -0.000000   0.000000
   27  O  2  Y    0.331543   0.000000  -0.000000  -0.344629   0.000000
   28  O  2  Z   -0.000000   0.118001  -0.000000  -0.000000   0.060778
   29  O  2  S   -0.000000   0.034167  -0.000000  -0.000000  -1.788008
   30  O  2  X   -0.000000   0.000000  -0.274112  -0.000000   0.000000
   31  O  2  Y    0.023137   0.000000  -0.000000  -0.274112   0.000000
   32  O  2  Z   -0.000000   0.018544  -0.000000  -0.000000   0.393543
   33  O  2 XX   -0.000000   0.004907  -0.000000  -0.000000  -0.004252
   34  O  2 YY   -0.000000   0.004907  -0.000000  -0.000000  -0.004252
   35  O  2 ZZ   -0.000000  -0.000434  -0.000000  -0.000000  -0.019145
   36  O  2 XY   -0.000000   0.000000  -0.000000  -0.000000   0.000000
   37  O  2 XZ   -0.000000   0.000000  -0.012086  -0.000000   0.000000
   38  O  2 YZ   -0.035511   0.000000  -0.000000  -0.012086   0.000000

                     11         12         13         14         15
                    0.0700     0.0822     0.0822     0.1945     0.2235
                     A1         E          E          A1         E   
    1  C  1  S   -0.051539  -0.000000  -0.000000  -0.062933   0.000000
    2  C  1  S    0.106388  -0.000000  -0.000000   0.020163   0.000000
    3  C  1  X   -0.000000  -0.312364  -0.000000  -0.000000   0.050071
    4  C  1  Y   -0.000000  -0.000000  -0.312364  -0.000000   0.000000
    5  C  1  Z   -0.073537  -0.000000  -0.000000  -0.004962   0.000000
    6  C  1  S    0.282798  -0.000000  -0.000000   1.365765   0.000000
    7  C  1  X   -0.000000  -0.438094  -0.000000  -0.000000  -0.142735
    8  C  1  Y   -0.000000  -0.000000  -0.438094  -0.000000   0.000000
    9  C  1  Z   -0.194504  -0.000000  -0.000000  -0.070866   0.000000
   10  C  1  S   -0.430757  -0.000000  -0.000000   0.060946   0.000000
   11  C  1  X   -0.000000   1.141861  -0.000000  -0.000000  -1.125814
   12  C  1  Y   -0.000000  -0.000000   1.141861  -0.000000   0.000000
   13  C  1  Z    1.196982  -0.000000  -0.000000  -0.640451   0.000000
   14  C  1 XX    0.003846  -0.000000  -0.000000  -0.031142   0.000000
   15  C  1 YY    0.003846  -0.000000  -0.000000  -0.031142   0.000000
   16  C  1 ZZ   -0.030794  -0.000000  -0.000000  -0.011272   0.000000
   17  C  1 XY   -0.000000  -0.000000  -0.000000  -0.000000   0.000000
   18  C  1 XZ   -0.000000  -0.011592  -0.000000  -0.000000  -0.003162
   19  C  1 YZ   -0.000000  -0.000000  -0.011592  -0.000000   0.000000
   20  O  2  S    0.021514  -0.000000  -0.000000   0.018488   0.000000
   21  O  2  S   -0.081528  -0.000000  -0.000000  -0.012553   0.000000
   22  O  2  X   -0.000000   0.052495  -0.000000  -0.000000  -0.242284
   23  O  2  Y   -0.000000  -0.000000   0.052495  -0.000000   0.000000
   24  O  2  Z    0.019297  -0.000000  -0.000000  -0.116449   0.000000
   25  O  2  S   -0.024814  -0.000000  -0.000000  -0.195004   0.000000
   26  O  2  X   -0.000000   0.126539  -0.000000  -0.000000  -0.449792
   27  O  2  Y   -0.000000  -0.000000   0.126539  -0.000000   0.000000
   28  O  2  Z   -0.010929  -0.000000  -0.000000  -0.201268   0.000000
   29  O  2  S   -0.178300  -0.000000  -0.000000  -0.483503   0.000000
   30  O  2  X   -0.000000  -0.066194  -0.000000  -0.000000   1.919222
   31  O  2  Y   -0.000000  -0.000000  -0.066194  -0.000000   0.000000
   32  O  2  Z   -0.216390  -0.000000  -0.000000   1.974409   0.000000
   33  O  2 XX   -0.006429  -0.000000  -0.000000   0.000820   0.000000
   34  O  2 YY   -0.006429  -0.000000  -0.000000   0.000820   0.000000
   35  O  2 ZZ    0.003835  -0.000000  -0.000000   0.052355   0.000000
   36  O  2 XY   -0.000000  -0.000000  -0.000000  -0.000000   0.000000
   37  O  2 XZ   -0.000000   0.015404  -0.000000  -0.000000   0.019572
   38  O  2 YZ   -0.000000  -0.000000   0.015404  -0.000000   0.000000

                     16         17         18         19         20
                    0.2235     0.2748     0.4397     0.6571     0.6571
                     E          A1         A1         E          E   
    1  C  1  S    0.000000   0.033686  -0.109704   0.000000   0.000000
    2  C  1  S    0.000000  -0.026002   0.175888   0.000000   0.000000
    3  C  1  X    0.000000   0.000000  -0.000000  -1.033074   0.000000
    4  C  1  Y    0.050071   0.000000  -0.000000   0.000000  -1.033074
    5  C  1  Z    0.000000   0.092525   0.115870   0.000000   0.000000
    6  C  1  S    0.000000  -1.426126   4.118864   0.000000   0.000000
    7  C  1  X    0.000000   0.000000  -0.000000   1.573919   0.000000
    8  C  1  Y   -0.142735   0.000000  -0.000000   0.000000   1.573919
    9  C  1  Z    0.000000  -0.055654   2.888862   0.000000   0.000000
   10  C  1  S    0.000000  -2.997048   1.639685   0.000000   0.000000
   11  C  1  X    0.000000   0.000000  -0.000000  -0.437399   0.000000
   12  C  1  Y   -1.125814   0.000000  -0.000000   0.000000  -0.437399
   13  C  1  Z    0.000000  -1.550982  -0.108465   0.000000   0.000000
   14  C  1 XX    0.000000   0.035643   0.017031   0.000000   0.000000
   15  C  1 YY    0.000000   0.035643   0.017031   0.000000   0.000000
   16  C  1 ZZ    0.000000  -0.043212  -0.025250   0.000000   0.000000
   17  C  1 XY    0.000000   0.000000  -0.000000   0.000000   0.000000
   18  C  1 XZ    0.000000   0.000000  -0.000000  -0.023336   0.000000
   19  C  1 YZ   -0.003162   0.000000  -0.000000   0.000000  -0.023336
   20  O  2  S    0.000000   0.102779   0.068425   0.000000   0.000000
   21  O  2  S    0.000000  -0.098744  -0.026195   0.000000   0.000000
   22  O  2  X    0.000000   0.000000  -0.000000   0.084763   0.000000
   23  O  2  Y   -0.242284   0.000000  -0.000000   0.000000   0.084763
   24  O  2  Z    0.000000  -0.018428   0.305232   0.000000   0.000000
   25  O  2  S    0.000000  -1.496528  -2.166699   0.000000   0.000000
   26  O  2  X    0.000000   0.000000  -0.000000  -0.198311   0.000000
   27  O  2  Y   -0.449792   0.000000  -0.000000   0.000000  -0.198311
   28  O  2  Z    0.000000  -0.258648   1.263275   0.000000   0.000000
   29  O  2  S    0.000000   5.698648  -3.856445   0.000000   0.000000
   30  O  2  X    0.000000   0.000000  -0.000000  -0.247149   0.000000
   31  O  2  Y    1.919222   0.000000  -0.000000   0.000000  -0.247149
   32  O  2  Z    0.000000  -0.721583   1.267815   0.000000   0.000000
   33  O  2 XX    0.000000   0.072691   0.042988   0.000000   0.000000
   34  O  2 YY    0.000000   0.072691   0.042988   0.000000   0.000000
   35  O  2 ZZ    0.000000   0.080395   0.016136   0.000000   0.000000
   36  O  2 XY    0.000000   0.000000  -0.000000   0.000000   0.000000
   37  O  2 XZ    0.000000   0.000000  -0.000000   0.082046   0.000000
   38  O  2 YZ    0.019572   0.000000  -0.000000   0.000000   0.082046

                     21         22         23         24         25
                    0.7703     1.0514     1.1612     1.1612     1.1752
                     A1         A1         E          E          A1  
    1  C  1  S   -0.034487  -0.044811  -0.000000  -0.000000   0.053081
    2  C  1  S   -0.206853  -1.908295  -0.000000  -0.000000  -0.727337
    3  C  1  X   -0.000000   0.000000  -0.116379  -0.000000  -0.000000
    4  C  1  Y   -0.000000   0.000000  -0.000000  -0.116379  -0.000000
    5  C  1  Z    1.122333  -0.142730  -0.000000  -0.000000   0.134966
    6  C  1  S    1.381167   4.151180  -0.000000  -0.000000   5.425052
    7  C  1  X   -0.000000   0.000000  -0.194419  -0.000000  -0.000000
    8  C  1  Y   -0.000000   0.000000  -0.000000  -0.194419  -0.000000
    9  C  1  Z   -0.645620   0.803296  -0.000000  -0.000000   2.268998
   10  C  1  S   -0.150099   0.535638  -0.000000  -0.000000   1.339310
   11  C  1  X   -0.000000   0.000000   0.487711  -0.000000  -0.000000
   12  C  1  Y   -0.000000   0.000000  -0.000000   0.487711  -0.000000
   13  C  1  Z    0.387346   0.048790  -0.000000  -0.000000   0.486290
   14  C  1 XX    0.023711  -0.038127  -0.000000  -0.000000  -0.132556
   15  C  1 YY    0.023711  -0.038127  -0.000000  -0.000000  -0.132556
   16  C  1 ZZ   -0.173609  -0.125775  -0.000000  -0.000000   0.283994
   17  C  1 XY   -0.000000   0.000000  -0.000000  -0.000000  -0.000000
   18  C  1 XZ   -0.000000   0.000000  -0.044413  -0.000000  -0.000000
   19  C  1 YZ   -0.000000   0.000000  -0.000000  -0.044413  -0.000000
   20  O  2  S    0.051552  -0.015446  -0.000000  -0.000000   0.011698
   21  O  2  S   -0.133048   0.228190  -0.000000  -0.000000   0.005090
   22  O  2  X   -0.000000   0.000000  -0.954016  -0.000000  -0.000000
   23  O  2  Y   -0.000000   0.000000  -0.000000  -0.954016  -0.000000
   24  O  2  Z    0.289284   0.181065  -0.000000  -0.000000  -0.814927
   25  O  2  S   -0.288139  -0.777035  -0.000000  -0.000000  -1.787919
   26  O  2  X   -0.000000   0.000000   1.696831  -0.000000  -0.000000
   27  O  2  Y   -0.000000   0.000000  -0.000000   1.696831  -0.000000
   28  O  2  Z    0.649270  -0.618652  -0.000000  -0.000000   2.693148
   29  O  2  S   -0.533763  -2.383978  -0.000000  -0.000000  -4.271019
   30  O  2  X   -0.000000   0.000000  -1.108040  -0.000000  -0.000000
   31  O  2  Y   -0.000000   0.000000  -0.000000  -1.108040  -0.000000
   32  O  2  Z   -0.047850   1.659960  -0.000000  -0.000000   0.629345
   33  O  2 XX   -0.059206   0.149342  -0.000000  -0.000000   0.013772
   34  O  2 YY   -0.059206   0.149342  -0.000000  -0.000000   0.013772
   35  O  2 ZZ    0.180002  -0.099489  -0.000000  -0.000000  -0.209732
   36  O  2 XY   -0.000000   0.000000  -0.000000  -0.000000  -0.000000
   37  O  2 XZ   -0.000000   0.000000   0.043053  -0.000000  -0.000000
   38  O  2 YZ   -0.000000   0.000000  -0.000000   0.043053  -0.000000

                     26         27         28         29         30
                    1.4701     1.4701     1.4950     1.5465     1.5465
                     B1         B2         A1         E          E   
    1  C  1  S    0.000000   0.000000  -0.032690  -0.000000  -0.000000
    2  C  1  S    0.000000   0.000000  -0.144519  -0.000000  -0.000000
    3  C  1  X    0.000000   0.000000  -0.000000  -0.286435  -0.000000
    4  C  1  Y    0.000000   0.000000  -0.000000  -0.000000  -0.286435
    5  C  1  Z    0.000000   0.000000  -0.057715  -0.000000  -0.000000
    6  C  1  S    0.000000   0.000000  -2.011020  -0.000000  -0.000000
    7  C  1  X    0.000000   0.000000  -0.000000   0.154339  -0.000000
    8  C  1  Y    0.000000   0.000000  -0.000000  -0.000000   0.154339
    9  C  1  Z    0.000000   0.000000  -1.550008  -0.000000  -0.000000
   10  C  1  S    0.000000   0.000000   1.106736  -0.000000  -0.000000
   11  C  1  X    0.000000   0.000000  -0.000000  -0.057074  -0.000000
   12  C  1  Y    0.000000   0.000000  -0.000000  -0.000000  -0.057074
   13  C  1  Z    0.000000   0.000000   0.732186  -0.000000  -0.000000
   14  C  1 XX    0.605944   0.000000   0.090263  -0.000000  -0.000000
   15  C  1 YY   -0.605944   0.000000   0.090263  -0.000000  -0.000000
   16  C  1 ZZ    0.000000   0.000000  -0.125745  -0.000000  -0.000000
   17  C  1 XY    0.000000   0.699684  -0.000000  -0.000000  -0.000000
   18  C  1 XZ    0.000000   0.000000  -0.000000   0.627552  -0.000000
   19  C  1 YZ    0.000000   0.000000  -0.000000  -0.000000   0.627552
   20  O  2  S    0.000000   0.000000  -0.096405  -0.000000  -0.000000
   21  O  2  S    0.000000   0.000000  -1.991522  -0.000000  -0.000000
   22  O  2  X    0.000000   0.000000  -0.000000  -0.157364  -0.000000
   23  O  2  Y    0.000000   0.000000  -0.000000  -0.000000  -0.157364
   24  O  2  Z    0.000000   0.000000   0.004627  -0.000000  -0.000000
   25  O  2  S    0.000000   0.000000   5.957089  -0.000000  -0.000000
   26  O  2  X    0.000000   0.000000  -0.000000  -0.124054  -0.000000
   27  O  2  Y    0.000000   0.000000  -0.000000  -0.000000  -0.124054
   28  O  2  Z    0.000000   0.000000  -0.979771  -0.000000  -0.000000
   29  O  2  S    0.000000   0.000000  -2.261364  -0.000000  -0.000000
   30  O  2  X    0.000000   0.000000  -0.000000   0.081579  -0.000000
   31  O  2  Y    0.000000   0.000000  -0.000000  -0.000000   0.081579
   32  O  2  Z    0.000000   0.000000  -0.078305  -0.000000  -0.000000
   33  O  2 XX    0.528176   0.000000  -0.364634  -0.000000  -0.000000
   34  O  2 YY   -0.528176   0.000000  -0.364634  -0.000000  -0.000000
   35  O  2 ZZ    0.000000   0.000000  -0.620542  -0.000000  -0.000000
   36  O  2 XY    0.000000   0.609885  -0.000000  -0.000000  -0.000000
   37  O  2 XZ    0.000000   0.000000  -0.000000  -0.580154  -0.000000
   38  O  2 YZ    0.000000   0.000000  -0.000000  -0.000000  -0.580154

                     31         32         33         34         35
                    1.9457     1.9457     2.5010     2.6242     2.6242
                     B1         B2         A1         E          E   
    1  C  1  S    0.000000   0.000000  -0.120471  -0.000000  -0.000000
    2  C  1  S    0.000000   0.000000  -0.472689  -0.000000  -0.000000
    3  C  1  X    0.000000   0.000000  -0.000000   0.362149  -0.000000
    4  C  1  Y    0.000000   0.000000  -0.000000  -0.000000   0.362149
    5  C  1  Z    0.000000   0.000000   0.094053  -0.000000  -0.000000
    6  C  1  S    0.000000   0.000000   1.742428  -0.000000  -0.000000
    7  C  1  X    0.000000   0.000000  -0.000000   0.345923  -0.000000
    8  C  1  Y    0.000000   0.000000  -0.000000  -0.000000   0.345923
    9  C  1  Z    0.000000   0.000000   0.808689  -0.000000  -0.000000
   10  C  1  S    0.000000   0.000000   0.500762  -0.000000  -0.000000
   11  C  1  X    0.000000   0.000000  -0.000000  -0.132625  -0.000000
   12  C  1  Y    0.000000   0.000000  -0.000000  -0.000000  -0.132625
   13  C  1  Z    0.000000   0.000000   0.041655  -0.000000  -0.000000
   14  C  1 XX   -0.634911   0.000000  -0.651585  -0.000000  -0.000000
   15  C  1 YY    0.634911   0.000000  -0.651585  -0.000000  -0.000000
   16  C  1 ZZ    0.000000   0.000000   1.088153  -0.000000  -0.000000
   17  C  1 XY    0.000000  -0.733132  -0.000000  -0.000000  -0.000000
   18  C  1 XZ    0.000000   0.000000  -0.000000   1.087831  -0.000000
   19  C  1 YZ    0.000000   0.000000  -0.000000  -0.000000   1.087831
   20  O  2  S    0.000000   0.000000  -0.015715  -0.000000  -0.000000
   21  O  2  S    0.000000   0.000000  -0.830506  -0.000000  -0.000000
   22  O  2  X    0.000000   0.000000  -0.000000  -0.045585  -0.000000
   23  O  2  Y    0.000000   0.000000  -0.000000  -0.000000  -0.045585
   24  O  2  Z    0.000000   0.000000   0.672569  -0.000000  -0.000000
   25  O  2  S    0.000000   0.000000   0.283110  -0.000000  -0.000000
   26  O  2  X    0.000000   0.000000  -0.000000  -0.656500  -0.000000
   27  O  2  Y    0.000000   0.000000  -0.000000  -0.000000  -0.656500
   28  O  2  Z    0.000000   0.000000  -0.267345  -0.000000  -0.000000
   29  O  2  S    0.000000   0.000000  -1.433983  -0.000000  -0.000000
   30  O  2  X    0.000000   0.000000  -0.000000   0.153755  -0.000000
   31  O  2  Y    0.000000   0.000000  -0.000000  -0.000000   0.153755
   32  O  2  Z    0.000000   0.000000   0.578510  -0.000000  -0.000000
   33  O  2 XX    0.700935   0.000000  -0.257703  -0.000000  -0.000000
   34  O  2 YY   -0.700935   0.000000  -0.257703  -0.000000  -0.000000
   35  O  2 ZZ    0.000000   0.000000   0.132158  -0.000000  -0.000000
   36  O  2 XY    0.000000   0.809371  -0.000000  -0.000000  -0.000000
   37  O  2 XZ    0.000000   0.000000  -0.000000   1.101424  -0.000000
   38  O  2 YZ    0.000000   0.000000  -0.000000  -0.000000   1.101424

                     36         37         38
                    3.0761     4.0310     4.1889
                     A1         A1         A1  
    1  C  1  S   -0.130037   0.181622  -0.473171
    2  C  1  S   -1.786447  -0.941290   2.529985
    3  C  1  X    0.000000  -0.000000  -0.000000
    4  C  1  Y    0.000000  -0.000000  -0.000000
    5  C  1  Z   -1.620913   0.534219  -0.161058
    6  C  1  S   -2.348323  -1.473222   1.945085
    7  C  1  X    0.000000  -0.000000  -0.000000
    8  C  1  Y    0.000000  -0.000000  -0.000000
    9  C  1  Z   -1.345350  -0.701831   0.057950
   10  C  1  S   -0.112081   0.815406   0.660238
   11  C  1  X    0.000000  -0.000000  -0.000000
   12  C  1  Y    0.000000  -0.000000  -0.000000
   13  C  1  Z    0.040706   0.452547   0.337360
   14  C  1 XX    0.381914   0.590802  -1.712164
   15  C  1 YY    0.381914   0.590802  -1.712164
   16  C  1 ZZ   -0.835676   1.101563  -1.830451
   17  C  1 XY    0.000000  -0.000000  -0.000000
   18  C  1 XZ    0.000000  -0.000000  -0.000000
   19  C  1 YZ    0.000000  -0.000000  -0.000000
   20  O  2  S   -0.105732  -0.532918  -0.219259
   21  O  2  S   -0.435404  -0.506957  -0.058651
   22  O  2  X    0.000000  -0.000000  -0.000000
   23  O  2  Y    0.000000  -0.000000  -0.000000
   24  O  2  Z   -0.450548   0.370057  -0.175010
   25  O  2  S    3.973966   5.725287   2.461954
   26  O  2  X    0.000000  -0.000000  -0.000000
   27  O  2  Y    0.000000  -0.000000  -0.000000
   28  O  2  Z   -2.460885  -0.157394  -0.265279
   29  O  2  S    0.553678  -1.717671  -2.222914
   30  O  2  X    0.000000  -0.000000  -0.000000
   31  O  2  Y    0.000000  -0.000000  -0.000000
   32  O  2  Z    0.040689  -0.222238   0.610632
   33  O  2 XX   -0.889722  -1.718443  -0.761253
   34  O  2 YY   -0.889722  -1.718443  -0.761253
   35  O  2 ZZ    1.473645  -2.012008  -0.606781
   36  O  2 XY    0.000000  -0.000000  -0.000000
   37  O  2 XZ    0.000000  -0.000000  -0.000000
   38  O  2 YZ    0.000000  -0.000000  -0.000000
 ...... END OF RHF CALCULATION ......
 STEP CPU TIME =     1.26 TOTAL CPU TIME =        1.3 (    0.0 MIN)
 TOTAL WALL CLOCK TIME=        1.3 SECONDS, CPU UTILIZATION IS  99.24%

     ---------------------------------------------------------------------
     PROPERTIES FOR THE PBE0     DFT FUNCTIONAL (RHF  TYPE) DENSITY MATRIX
     ---------------------------------------------------------------------

          -----------------
          ENERGY COMPONENTS
          -----------------

         WAVEFUNCTION NORMALIZATION =       1.0000000000

                ONE ELECTRON ENERGY =    -198.1509985371
                TWO ELECTRON ENERGY =      62.4514489009
           NUCLEAR REPULSION ENERGY =      22.5117346394
                                      ------------------
                       TOTAL ENERGY =    -113.1878149968

 ELECTRON-ELECTRON POTENTIAL ENERGY =      62.4514489009
  NUCLEUS-ELECTRON POTENTIAL ENERGY =    -310.4364690583
   NUCLEUS-NUCLEUS POTENTIAL ENERGY =      22.5117346394
                                      ------------------
             TOTAL POTENTIAL ENERGY =    -225.4732855180
               TOTAL KINETIC ENERGY =     112.2854705212
                 VIRIAL RATIO (V/T) =       2.0080361642

          ---------------------------------------
          MULLIKEN AND LOWDIN POPULATION ANALYSES
          ---------------------------------------

     ATOMIC MULLIKEN POPULATION IN EACH MOLECULAR ORBITAL

                      1          2          3          4          5

                  2.000000   2.000000   2.000000   2.000000   2.000000

    1            -0.000236   1.999896   0.583390   0.428222   0.524762
    2             2.000236   0.000104   1.416610   1.571778   1.475238

                      6          7

                  2.000000   2.000000

    1             0.524762   1.808805
    2             1.475238   0.191195

               ----- POPULATIONS IN EACH AO -----
                             MULLIKEN      LOWDIN
              1  C  1  S      1.99444     1.97439
              2  C  1  S      0.83932     0.44750
              3  C  1  X      0.36576     0.31917
              4  C  1  Y      0.36576     0.31917
              5  C  1  Z      0.84185     0.77892
              6  C  1  S      0.93392     0.43107
              7  C  1  X      0.12697     0.18175
              8  C  1  Y      0.12697     0.18175
              9  C  1  Z      0.09956     0.30256
             10  C  1  S      0.10142     0.15150
             11  C  1  X      0.00888     0.01671
             12  C  1  Y      0.00888     0.01671
             13  C  1  Z      0.01801     0.02761
             14  C  1 XX     -0.01085     0.16584
             15  C  1 YY     -0.01085     0.16584
             16  C  1 ZZ      0.01324     0.22694
             17  C  1 XY      0.00000     0.00000
             18  C  1 XZ      0.02315     0.04052
             19  C  1 YZ      0.02315     0.04052
             20  O  2  S      1.99295     1.97621
             21  O  2  S      0.94332     0.72617
             22  O  2  X      0.90294     0.83784
             23  O  2  Y      0.90294     0.83784
             24  O  2  Z      1.03916     0.96616
             25  O  2  S      0.91355     0.40479
             26  O  2  X      0.53717     0.50896
             27  O  2  Y      0.53717     0.50896
             28  O  2  Z      0.30947     0.44604
             29  O  2  S     -0.00878     0.17660
             30  O  2  X      0.02303     0.08140
             31  O  2  Y      0.02303     0.08140
             32  O  2  Z     -0.01155     0.13541
             33  O  2 XX     -0.00202     0.15499
             34  O  2 YY     -0.00202     0.15499
             35  O  2 ZZ      0.00585     0.18648
             36  O  2 XY      0.00000     0.00000
             37  O  2 XZ      0.01210     0.01365
             38  O  2 YZ      0.01210     0.01365

          ----- MULLIKEN ATOMIC OVERLAP POPULATIONS -----
          (OFF-DIAGONAL ELEMENTS NEED TO BE MULTIPLIED BY 2)

             1           2

    1    5.3390489
    2    0.5305517   7.5998477

          TOTAL MULLIKEN AND LOWDIN ATOMIC POPULATIONS
       ATOM         MULL.POP.    CHARGE          LOW.POP.     CHARGE
    1 C             5.869601    0.130399         5.788456    0.211544
    2 O             8.130399   -0.130399         8.211544   -0.211544

          -------------------------------
          BOND ORDER AND VALENCE ANALYSIS     BOND ORDER THRESHOLD=0.050
          -------------------------------

                   BOND                       BOND                       BOND
  ATOM PAIR DIST  ORDER      ATOM PAIR DIST  ORDER      ATOM PAIR DIST  ORDER
    1   2  1.128  2.334

                       TOTAL       BONDED        FREE
      ATOM            VALENCE     VALENCE     VALENCE
    1 C                 2.334       2.334       0.000
    2 O                 2.334       2.334      -0.000

          ---------------------
          ELECTROSTATIC MOMENTS
          ---------------------

 POINT   1           X           Y           Z (BOHR)    CHARGE
                 0.000000    0.000000    1.218246        0.00 (A.U.)
         DX          DY          DZ         /D/  (DEBYE)
     0.000000    0.000000    0.074161    0.074161
 ...... END OF PROPERTY EVALUATION ......
 STEP CPU TIME =     0.00 TOTAL CPU TIME =        1.3 (    0.0 MIN)
 TOTAL WALL CLOCK TIME=        1.3 SECONDS, CPU UTILIZATION IS  99.24%

 -----------------------------------------------------------------------
                    TDDFT CALCULATION FOR SCFTYP=RHF 
                          CODED BY MAHITO CHIBA
 NATIONAL INSTITUTE OF ADVANCED INDUSTRIAL SCIENCE AND TECHNOLOGY, JAPAN
 -----------------------------------------------------------------------

 REGENERATING AO INTEGRAL LIST IN C1 SYMMETRY FOR TDDFT ITERATIONS...

          --------------------
          2 ELECTRON INTEGRALS
          --------------------

 THE -PK- OPTION IS OFF, THE INTEGRALS ARE NOT IN SUPERMATRIX FORM.
 STORING   15000 INTEGRALS/RECORD ON DISK, USING 12 BYTES/INTEGRAL.
 TWO ELECTRON INTEGRAL EVALUATION REQUIRES   90451 WORDS OF MEMORY.
 II,JST,KST,LST =  1  1  1  1 NREC =         1 INTLOC =    1
 II,JST,KST,LST =  2  1  1  1 NREC =         1 INTLOC =    2
 II,JST,KST,LST =  3  1  1  1 NREC =         1 INTLOC =   34
 II,JST,KST,LST =  4  1  1  1 NREC =         1 INTLOC =  214
 II,JST,KST,LST =  5  1  1  1 NREC =         1 INTLOC =  776
 II,JST,KST,LST =  6  1  1  1 NREC =         1 INTLOC = 2864
 II,JST,KST,LST =  7  1  1  1 NREC =         1 INTLOC = 4164
 II,JST,KST,LST =  8  1  1  1 NREC =         1 INTLOC =10804
 II,JST,KST,LST =  9  1  1  1 NREC =         2 INTLOC = 6472
 II,JST,KST,LST = 10  1  1  1 NREC =         3 INTLOC = 7422
 TOTAL NUMBER OF NONZERO TWO-ELECTRON INTEGRALS =               72578
          5 INTEGRAL RECORDS WERE STORED ON DISK FILE  8.
  ...... END OF TWO-ELECTRON INTEGRALS .....
 STEP CPU TIME =     0.01 TOTAL CPU TIME =        1.3 (    0.0 MIN)
 TOTAL WALL CLOCK TIME=        1.3 SECONDS, CPU UTILIZATION IS  99.25%
  
 -TDDFT RUNTIME PARAMETERS-
    TRIPLET  = F
    NONEQ    = T
    NSTATE   =                    3
    IROOT    =                    1
    NTRIAL   =                    5
    MAXVEC   =                   50
    ILENG    =                  200
    MAXGRD   =                10383
    NRAD     =                   48
    NLEB     =                  110
 GAS PHASE COMPUTATION
  
 FOR AN EULER-MACLAURIN QUADRATURE USING  48 RADIAL POINTS:
 SMALLEST GAUSSIAN PRIMITIVE EXPONENT=        0.0438000000 OF TYPE -P-
 ON ATOM NUMBER   1 HAS RADIAL NORMALIZATION=  0.999996
  LARGEST GAUSSIAN PRIMITIVE EXPONENT=     5484.6716600000 OF TYPE -S-
 ON ATOM NUMBER   2 HAS RADIAL NORMALIZATION=  1.000000
  
 MEM1  =      267019 MEM2  =        5156 MEMGRID=      139080
 MEMPCM=           0 MEMEFP=           0
 TOTAL MEMORY REQUIRED FOR TD-DFT ITERATIONS IS      411256 WORDS.

 INITIAL VECTORS / MXVEC                     5 /                  150
 ITERATION #                     1
    CURRENT VECTORS    1 TO   5 (   5 VECTORS)
    STATE NUMBER   1  ENERGY =    8.881246 EV
    STATE NUMBER   2  ENERGY =    8.881246 EV
    STATE NUMBER   3  ENERGY =   10.831429 EV
    MAX ERROR =  4.209E-02 / 1.000E-07
 ITERATION #                     2
    CURRENT VECTORS    6 TO  11 (   6 VECTORS)
    STATE NUMBER   1  ENERGY =    8.508111 EV
    STATE NUMBER   2  ENERGY =    8.508111 EV
    STATE NUMBER   3  ENERGY =   10.742171 EV
    MAX ERROR =  2.926E-03 / 1.000E-07
 ITERATION #                     3
    CURRENT VECTORS   12 TO  17 (   6 VECTORS)
    STATE NUMBER   1  ENERGY =    8.475288 EV
    STATE NUMBER   2  ENERGY =    8.475288 EV
    STATE NUMBER   3  ENERGY =   10.351270 EV
    MAX ERROR =  5.816E-03 / 1.000E-07
 ITERATION #                     4
    CURRENT VECTORS   18 TO  23 (   6 VECTORS)
    STATE NUMBER   1  ENERGY =    8.474215 EV
    STATE NUMBER   2  ENERGY =    8.474215 EV
    STATE NUMBER   3  ENERGY =   10.233599 EV
    MAX ERROR =  2.904E-04 / 1.000E-07
 ITERATION #                     5
    CURRENT VECTORS   24 TO  29 (   6 VECTORS)
    STATE NUMBER   1  ENERGY =    8.474147 EV
    STATE NUMBER   2  ENERGY =    8.474147 EV
    STATE NUMBER   3  ENERGY =   10.230951 EV
    MAX ERROR =  9.412E-06 / 1.000E-07
 ITERATION #                     6
    CURRENT VECTORS   30 TO  35 (   6 VECTORS)
    STATE NUMBER   1  ENERGY =    8.474141 EV
    STATE NUMBER   2  ENERGY =    8.474141 EV
    STATE NUMBER   3  ENERGY =   10.230834 EV
    MAX ERROR =  1.212E-06 / 1.000E-07
 ITERATION #                     7
    CURRENT VECTORS   36 TO  37 (   2 VECTORS)
    STATE NUMBER   1  ENERGY =    8.474141 EV
    STATE NUMBER   2  ENERGY =    8.474141 EV
    STATE NUMBER   3  ENERGY =   10.230820 EV
    MAX ERROR =  1.183E-07 / 1.000E-07
 ITERATION #                     8
    CURRENT VECTORS   38 TO  39 (   2 VECTORS)
    STATE NUMBER   1  ENERGY =    8.474141 EV
    STATE NUMBER   2  ENERGY =    8.474141 EV
    STATE NUMBER   3  ENERGY =   10.230819 EV
    MAX ERROR =  7.234E-08 / 1.000E-07
  
   ---------------------------------  
     R-TDDFT CALCULATION CONVERGED
   ---------------------------------  
 NUMBER OF USED VECTORS / MAX =  39 / 150
 NUMBER OF ITERATIONS   / MAX =   8 / 100
 NUMBER OF SINGLE EXCITATIONS =   217
 NUMBER OF ATOMIC ORBITALS    =  38
 NUMBER OF ELECTRONS          =          13.9998099

          -------------------
          SINGLET EXCITATIONS
          -------------------

 THIS IS A NON-ABELIAN POINT GROUP, AS A RESULT,
 SOME STATE SYMMETRY LABELS MAY NOT BE CORRECTLY PRINTED BELOW


 STATE #   1  ENERGY =    8.474141 EV
 OSCILLATOR STRENGTH =    0.093580
 LAMBDA DIAGNOSTIC   =    0.699 (RYDBERG/CHARGE TRANSFER CHARACTER)
 SYMMETRY OF STATE   =    E   
                 EXCITATION  DE-EXCITATION
     OCC     VIR  AMPLITUDE      AMPLITUDE
      I       A     X(I->A)        Y(A->I)
     ---     ---   --------       --------
      3       8    0.030695       0.010110
      4       8    0.131759       0.020489
      7       8    0.952968      -0.073858
      4       9    0.037398       0.005816
      7       9    0.270491      -0.020964
      4      12   -0.040411      -0.011066
      7      12   -0.040728       0.024098

 STATE #   2  ENERGY =    8.474141 EV
 OSCILLATOR STRENGTH =    0.093580
 LAMBDA DIAGNOSTIC   =    0.699 (RYDBERG/CHARGE TRANSFER CHARACTER)
 SYMMETRY OF STATE   =    E   
                 EXCITATION  DE-EXCITATION
     OCC     VIR  AMPLITUDE      AMPLITUDE
      I       A     X(I->A)        Y(A->I)
     ---     ---   --------       --------
      4       8    0.037398       0.005816
      7       8    0.270491      -0.020964
      3       9   -0.030695      -0.010110
      4       9   -0.131759      -0.020489
      7       9   -0.952968       0.073858
      4      13    0.040411       0.011066
      7      13    0.040728      -0.024098

 STATE #   3  ENERGY =   10.230819 EV
 OSCILLATOR STRENGTH =    0.000000
 LAMBDA DIAGNOSTIC   =    0.765 (RYDBERG/CHARGE TRANSFER CHARACTER)
 SYMMETRY OF STATE   =    A1  
                 EXCITATION  DE-EXCITATION
     OCC     VIR  AMPLITUDE      AMPLITUDE
      I       A     X(I->A)        Y(A->I)
     ---     ---   --------       --------
      5       8    0.701784       0.005179
      6       9   -0.701778      -0.005180
      5      12   -0.081506      -0.001285
      6      13    0.081506       0.001276

 THIS IS A NON-ABELIAN POINT GROUP, AS A RESULT,
 SOME STATE SYMMETRY LABELS MAY NOT BE CORRECTLY PRINTED BELOW


                          SUMMARY OF TDDFT RESULTS

   STATE             ENERGY     EXCITATION  TRANSITION DIPOLE, A.U.  OSCILLATOR
   0 ->             HARTREE          EV         X       Y       Z     STRENGTH
   0  A1        -113.1878149968    0.000
   1  E         -112.8763960308    8.474     0.6459  0.1833  0.0000    0.0936
   2  E         -112.8763960308    8.474     0.1833 -0.6459 -0.0000    0.0936
   3  A1        -112.8118393001   10.231    -0.0000  0.0000 -0.0000    0.0000
  
 TRANSITION        EXCITATION            TRANSITION DIPOLE, A.U.     OSCILLATOR
                       EV              X       Y       Z       DIP    STRENGTH

  1  ->  2           0.000          0.0000  0.0000  0.0000   0.0000    0.0000
  1  ->  3           1.757          0.2292 -0.0651 -0.0000   0.2383    0.0024
  2  ->  3           1.757          0.0651  0.2292 -0.0000   0.2383    0.0024

 SELECTING EXCITED STATE IROOT=   1 AT E=     -112.8763960308
 AS THE STATE OF INTEREST.

 ..... DONE WITH TD-DFT EXCITATION ENERGIES .....
 STEP CPU TIME =     2.20 TOTAL CPU TIME =        3.5 (    0.1 MIN)
 TOTAL WALL CLOCK TIME=        3.6 SECONDS, CPU UTILIZATION IS  98.88%

 -----------------------------------------------------------------------
                   TD-DFT ENERGY GRADIENT CALCULATION
                   CODED BY MAHITO CHIBA (AIST, JAPAN)
 -----------------------------------------------------------------------

    -------------------------
       START Z-VECTOR LOOP
    -------------------------
 INITIAL ERROR =  3.183E-02, MUST CONVERGE TO 1.000E-10
 ITER# 1 ERROR =  7.823E-03
 ITER# 2 ERROR =  2.343E-04
 ITER# 3 ERROR =  8.480E-06
 ITER# 4 ERROR =  1.683E-07
 ITER# 5 ERROR =  3.611E-09
 ITER# 6 ERROR =  3.291E-11
    -------------------------
        Z-VECTOR CONVERGED          
    -------------------------
 MAXIMUM MEMORY DURING TDDFT RESPONSES=    214568 WORDS.

 TDDFT NATURAL ORBITAL OCCUPATION NUMBERS FOR EXCITED STATE    1 ARE
  2.0006 2.0005 2.0000 2.0000 1.9999 1.9970 1.0086 0.9963 0.0023 0.0015
  0.0004 0.0004 0.0001 0.0000 0.0000 0.0000 0.0000 0.0000 0.0000 0.0000
  0.0000 0.0000 0.0000 0.0000 0.0000-0.0000-0.0000-0.0000-0.0000-0.0000
 -0.0000-0.0000-0.0000-0.0000-0.0001-0.0001-0.0009-0.0065
 THERE ARE    13.0066 ELECTRONS IN PRINCIPAL TDDFT NATURAL ORBITALS.
 THERE ARE     0.9934 ELECTRONS IN SECONDARY TDDFT NATURAL ORBITALS.

          ----------------------
          TDDFT NATURAL ORBITALS
          ----------------------

                      1          2          3          4          5

                    2.0006     2.0005     2.0000     2.0000     1.9999

    1  C  1  S    0.000000  -0.000000  -0.086378  -0.996709  -0.010078
    2  C  1  S   -0.000000  -0.000000  -0.002631  -0.027036  -0.093519
    3  C  1  X   -0.343650   0.091726   0.000000  -0.000000   0.000000
    4  C  1  Y   -0.097337  -0.323920   0.000000   0.000000   0.000000
    5  C  1  Z   -0.000000  -0.000000   0.001266   0.013987  -0.168592
    6  C  1  S   -0.000000  -0.000000   0.002677   0.021413   0.048832
    7  C  1  X   -0.122150   0.030011   0.000000  -0.000000   0.000000
    8  C  1  Y   -0.034603  -0.106000   0.000000   0.000000   0.000000
    9  C  1  Z    0.000000   0.000000   0.000980   0.000558   0.014098
   10  C  1  S   -0.000000  -0.000000  -0.001424   0.003541  -0.016459
   11  C  1  X   -0.030736   0.004310   0.000000  -0.000000   0.000000
   12  C  1  Y   -0.008714  -0.015250   0.000000   0.000000   0.000000
   13  C  1  Z   -0.000000  -0.000000  -0.000811   0.002116  -0.019326
   14  C  1 XX    0.000000   0.000000   0.000670   0.006600   0.016941
   15  C  1 YY    0.000000   0.000000   0.000676   0.006801   0.015829
   16  C  1 ZZ   -0.000000  -0.000000   0.001780   0.009400  -0.027655
   17  C  1 XY    0.000000   0.000000  -0.000002  -0.000071   0.000396
   18  C  1 XZ   -0.036912   0.010668   0.000000  -0.000000   0.000000
   19  C  1 YZ   -0.010454  -0.037667   0.000000   0.000000   0.000000
   20  O  2  S   -0.000000   0.000000  -0.989982   0.071848   0.231676
   21  O  2  S   -0.000000  -0.000000  -0.023238   0.033042  -0.513542
   22  O  2  X   -0.527320   0.152486   0.000000  -0.000000   0.000000
   23  O  2  Y   -0.149335  -0.538395   0.000000   0.000000   0.000000
   24  O  2  Z    0.000000   0.000000   0.000065  -0.015602  -0.010293
   25  O  2  S   -0.000000   0.000000  -0.012233   0.026301  -0.499148
   26  O  2  X   -0.293629   0.087969   0.000000  -0.000000   0.000000
   27  O  2  Y   -0.083148  -0.310578   0.000000   0.000000   0.000000
   28  O  2  Z    0.000000   0.000000  -0.000480  -0.004001  -0.042919
   29  O  2  S    0.000000   0.000000   0.003432  -0.012318   0.026431
   30  O  2  X   -0.010240   0.004999   0.000000  -0.000000   0.000000
   31  O  2  Y   -0.002897  -0.017641   0.000000   0.000000   0.000000
   32  O  2  Z   -0.000000   0.000000   0.000340   0.003607  -0.001166
   33  O  2 XX    0.000000   0.000000   0.007793  -0.001535   0.005639
   34  O  2 YY    0.000000   0.000000   0.007820  -0.001289   0.001784
   35  O  2 ZZ   -0.000000  -0.000000   0.007425   0.000313  -0.002976
   36  O  2 XY    0.000000   0.000000  -0.000010  -0.000088   0.001374
   37  O  2 XZ    0.032509  -0.009967  -0.000000   0.000000  -0.000000
   38  O  2 YZ    0.009206   0.035189  -0.000000  -0.000000  -0.000000

                      6          7          8          9         10

                    1.9970     1.0086     0.9963     0.0023     0.0015

    1  C  1  S   -0.152932   0.000000  -0.117913   0.000000   0.090574
    2  C  1  S    0.403110  -0.000000   0.245538  -0.000000  -0.254508
    3  C  1  X   -0.000000  -0.500849  -0.000000   0.505081  -0.000000
    4  C  1  Y   -0.000000  -0.142162  -0.000000   0.143362  -0.000000
    5  C  1  Z    0.127283   0.000000  -0.507150  -0.000000   0.219361
    6  C  1  S    0.350590  -0.000000   0.351742  -0.000000  -0.220474
    7  C  1  X   -0.000000  -0.486665  -0.000000  -0.079189   0.000000
    8  C  1  Y   -0.000000  -0.138135  -0.000000  -0.022473   0.000000
    9  C  1  Z   -0.009819   0.000000  -0.230187  -0.000000  -0.459485
   10  C  1  S    0.015169  -0.000000   0.042998  -0.000000   0.726931
   11  C  1  X   -0.000000  -0.338427  -0.000000  -1.113400  -0.000000
   12  C  1  Y   -0.000000  -0.096059  -0.000000  -0.316023  -0.000000
   13  C  1  Z   -0.001874   0.000000  -0.023595  -0.000000  -0.310839
   14  C  1 XX   -0.021790   0.000000  -0.018945   0.000000  -0.241729
   15  C  1 YY   -0.018088  -0.000000   0.019101   0.000000   0.166855
   16  C  1 ZZ    0.010850   0.000000  -0.004222   0.000000  -0.063025
   17  C  1 XY   -0.001320   0.000000  -0.013564  -0.000000  -0.145604
   18  C  1 XZ   -0.000000  -0.004479  -0.000000  -0.139979   0.000000
   19  C  1 YZ   -0.000000  -0.001271  -0.000000  -0.039733  -0.000000
   20  O  2  S    0.032433   0.000000  -0.003692  -0.000000  -0.036675
   21  O  2  S   -0.087704   0.000000  -0.018046  -0.000000   0.411811
   22  O  2  X   -0.000000   0.423881   0.000000  -0.153232   0.000000
   23  O  2  Y   -0.000000   0.120314   0.000000  -0.043492  -0.000000
   24  O  2  Z   -0.478677  -0.000000   0.336392  -0.000000  -0.231066
   25  O  2  S   -0.272585  -0.000000   0.171614   0.000000  -0.034551
   26  O  2  X   -0.000000   0.352227   0.000000   0.056479  -0.000000
   27  O  2  Y   -0.000000   0.099976   0.000000   0.016031   0.000000
   28  O  2  Z   -0.175806  -0.000000   0.090623  -0.000000   0.216671
   29  O  2  S   -0.068049  -0.000000   0.060221   0.000000  -0.298378
   30  O  2  X   -0.000000   0.226061   0.000000   0.400068   0.000000
   31  O  2  Y   -0.000000   0.064165   0.000000   0.113547   0.000000
   32  O  2  Z    0.000550  -0.000000   0.020895  -0.000000  -0.179704
   33  O  2 XX   -0.008996  -0.000000  -0.000018  -0.000000   0.020480
   34  O  2 YY   -0.008701  -0.000000   0.001407  -0.000000   0.099887
   35  O  2 ZZ    0.024735   0.000000  -0.014348   0.000000   0.022478
   36  O  2 XY   -0.000105   0.000000  -0.000508  -0.000000  -0.028234
   37  O  2 XZ    0.000000   0.009534   0.000000  -0.007705   0.000000
   38  O  2 YZ    0.000000   0.002706   0.000000  -0.002184  -0.000000

                     11         12         13         14         15

                    0.0004     0.0004     0.0001     0.0000     0.0000

    1  C  1  S   -0.000000   0.000004   0.071099   0.000000  -0.000000
    2  C  1  S    0.000000  -0.000001  -0.029222  -0.000000   0.000000
    3  C  1  X    0.287358   0.000000  -0.000000  -0.224013   0.614421
    4  C  1  Y    0.081545   0.000000  -0.000000  -0.063568   0.174321
    5  C  1  Z   -0.000000   0.000041  -0.399687  -0.000000  -0.000000
    6  C  1  S    0.000000   0.000009   0.878901  -0.000001   0.000006
    7  C  1  X   -0.339517  -0.000000  -0.000000   1.261818  -0.802446
    8  C  1  Y   -0.096390  -0.000000   0.000000   0.358179  -0.227549
    9  C  1  Z    0.000000  -0.000016   0.582517  -0.000000   0.000002
   10  C  1  S    0.000000   0.000063   0.047948  -0.000000   0.000001
   11  C  1  X    0.134766   0.000000   0.000000  -0.406726   0.581368
   12  C  1  Y    0.038235  -0.000000  -0.000000  -0.115425   0.165264
   13  C  1  Z   -0.000000  -0.000028   0.419558  -0.000000   0.000000
   14  C  1 XX   -0.000000   0.442041  -0.205905   0.000000  -0.000001
   15  C  1 YY   -0.000000  -0.442037   0.182569   0.000000  -0.000001
   16  C  1 ZZ   -0.000000  -0.000010  -0.352499   0.000000  -0.000001
   17  C  1 XY   -0.000000  -0.826698  -0.138539  -0.000000  -0.000000
   18  C  1 XZ    0.918154   0.000000  -0.000000   0.696256   0.149199
   19  C  1 YZ    0.260619   0.000000  -0.000000   0.197615   0.042253
   20  O  2  S    0.000000  -0.000002   0.039757  -0.000000   0.000000
   21  O  2  S    0.000000   0.000033   0.600216  -0.000000   0.000000
   22  O  2  X   -0.277472  -0.000000  -0.000000   0.165278  -0.468420
   23  O  2  Y   -0.078758  -0.000000  -0.000000   0.046914  -0.132865
   24  O  2  Z   -0.000000   0.000002  -0.870400   0.000000  -0.000000
   25  O  2  S   -0.000000  -0.000027  -1.722474   0.000000  -0.000003
   26  O  2  X   -0.011958  -0.000000   0.000000  -0.665039   0.722709
   27  O  2  Y   -0.003385  -0.000000   0.000000  -0.188773   0.205182
   28  O  2  Z    0.000000   0.000034   0.862224  -0.000000   0.000001
   29  O  2  S   -0.000000  -0.000048   0.390244   0.000001  -0.000003
   30  O  2  X   -0.051184   0.000000  -0.000000  -0.316481  -0.320683
   31  O  2  Y   -0.014494   0.000000  -0.000000  -0.089869  -0.091458
   32  O  2  Z    0.000000  -0.000010  -0.175841  -0.000000   0.000001
   33  O  2 XX    0.000000   0.057753   0.183006  -0.000000   0.000001
   34  O  2 YY    0.000000  -0.057756   0.182139  -0.000000   0.000001
   35  O  2 ZZ    0.000000   0.000008   0.000684  -0.000000   0.000000
   36  O  2 XY   -0.000000  -0.107806   0.000391  -0.000000   0.000000
   37  O  2 XZ   -0.047894  -0.000000  -0.000000   0.865514   0.756438
   38  O  2 YZ   -0.013604  -0.000000  -0.000000   0.245680   0.214890

                     16         17         18         19         20

                    0.0000     0.0000     0.0000     0.0000     0.0000

    1  C  1  S   -0.000000  -0.000002  -0.189322  -0.161281   0.031443
    2  C  1  S    0.000004  -0.000243   0.757895   0.343302  -1.265742
    3  C  1  X   -0.250880   0.000000   0.003152  -0.008974  -0.040014
    4  C  1  Y   -0.071350  -0.000000  -0.010999   0.031642   0.140991
    5  C  1  Z   -0.000001  -0.000013   0.105526   0.109929  -0.172805
    6  C  1  S   -0.000017  -0.000176   3.350658   3.897912   3.309757
    7  C  1  X    0.132452   0.000000   0.048765   0.026030  -0.028555
    8  C  1  Y    0.038013  -0.000000  -0.171730  -0.091687   0.100619
    9  C  1  Z   -0.000008  -0.000139   1.045031   1.314436   1.570602
   10  C  1  S   -0.000007  -0.000129  -0.501885   2.278067   0.421255
   11  C  1  X    0.942862  -0.000000  -0.334984  -0.014254   0.060983
   12  C  1  Y    0.268095   0.000000   1.179181   0.049975  -0.215032
   13  C  1  Z   -0.000002  -0.000039  -0.067208   0.415421  -0.061329
   14  C  1 XX   -0.000001   0.131165  -0.829763  -0.542132   0.190767
   15  C  1 YY   -0.000001  -0.131134  -0.689772  -0.571703   0.136801
   16  C  1 ZZ   -0.000002   0.000117  -0.820988  -0.241539   0.487923
   17  C  1 XY   -0.000000  -0.245246  -0.049899   0.010526   0.019255
   18  C  1 XZ   -0.304054   0.000000   0.009598  -0.006057  -0.078171
   19  C  1 YZ   -0.086485  -0.000000  -0.033602   0.021390   0.275443
   20  O  2  S    0.000000  -0.000001   0.039362  -0.034441   0.215505
   21  O  2  S   -0.000001  -0.000250   0.669765  -0.348735   0.443707
   22  O  2  X   -0.275901   0.000000   0.002171  -0.066607  -0.172885
   23  O  2  Y   -0.078139  -0.000000  -0.007013   0.234820   0.609207
   24  O  2  Z   -0.000000   0.000143  -0.024178   0.014090  -0.076539
   25  O  2  S    0.000007   0.000485  -2.298954   0.269055  -3.890714
   26  O  2  X    1.312943  -0.000000  -0.100485  -0.061994   0.335755
   27  O  2  Y    0.372754   0.000000   0.352304   0.217992  -1.183214
   28  O  2  Z   -0.000005  -0.000341   0.653870   0.541695   0.794617
   29  O  2  S    0.000017   0.000123  -0.777458  -4.807294  -1.260978
   30  O  2  X   -2.064884   0.000000   0.287742   0.211078  -0.205083
   31  O  2  Y   -0.586929  -0.000000  -1.011741  -0.743162   0.722892
   32  O  2  Z   -0.000005   0.000041   0.333940   1.880695   0.839944
   33  O  2 XX   -0.000001  -0.457527   0.308700  -0.168269   0.735248
   34  O  2 YY   -0.000000   0.457518   0.251514   0.077312   0.442496
   35  O  2 ZZ    0.000001  -0.000052  -0.016538  -0.445063   1.086583
   36  O  2 XY   -0.000000   0.855493   0.020382  -0.087573   0.104401
   37  O  2 XZ   -0.303240   0.000000  -0.010902   0.036791  -0.071881
   38  O  2 YZ   -0.085725  -0.000000   0.038331  -0.129639   0.253230

                     21         22         23         24         25

                    0.0000     0.0000     0.0000     0.0000     0.0000

    1  C  1  S   -0.219137  -0.062193  -0.003382   0.102352   0.170267
    2  C  1  S    1.030513   0.186435   0.006194   0.177869  -0.108661
    3  C  1  X    0.090548   0.154890  -0.088260  -0.000298  -0.000101
    4  C  1  Y   -0.319097  -0.545616   0.310786   0.001049   0.000355
    5  C  1  Z   -0.237501  -0.168661  -0.008974  -0.006236   0.201628
    6  C  1  S   -1.116769  -0.301437   0.005381  -1.664598   0.350266
    7  C  1  X   -0.136357  -0.162142   0.371942   0.001198   0.000401
    8  C  1  Y    0.480341   0.571295  -1.310503  -0.004223  -0.001413
    9  C  1  Z   -1.102609  -0.011890   0.014603  -1.144857   1.071510
   10  C  1  S   -1.186408  -0.442161  -0.015049  -0.153772  -2.368495
   11  C  1  X    0.004420   0.032929  -0.066061  -0.000214  -0.000072
   12  C  1  Y   -0.014774  -0.116736   0.234266   0.000758   0.000255
   13  C  1  Z   -0.476125  -0.134323  -0.004247   0.451768  -2.148223
   14  C  1 XX   -0.625585  -0.353929  -0.022431   0.590613   0.437995
   15  C  1 YY   -0.814980   0.097028   0.007560   0.409905   0.452498
   16  C  1 ZZ   -0.911767  -0.254206  -0.009618  -0.482015   0.470170
   17  C  1 XY    0.067519  -0.160768  -0.010692   0.064409  -0.005184
   18  C  1 XZ   -0.115835   0.169358   0.134227   0.000405   0.000132
   19  C  1 YZ    0.407929  -0.596512  -0.473223  -0.001427  -0.000466
   20  O  2  S    0.075282   0.205804   0.011849   0.293907   0.213979
   21  O  2  S    0.074153  -0.624168  -0.042295   0.677711   0.909130
   22  O  2  X    0.028966  -0.077024  -0.030108  -0.000086  -0.000027
   23  O  2  Y   -0.102558   0.271823   0.105106   0.000301   0.000095
   24  O  2  Z   -0.077379  -0.098658  -0.005724  -0.066124   0.029378
   25  O  2  S   -0.092113  -0.589669  -0.033106  -2.583937  -4.965600
   26  O  2  X    0.059481   0.017735  -0.045092  -0.000145  -0.000049
   27  O  2  Y   -0.208190  -0.063724   0.161477   0.000518   0.000177
   28  O  2  Z   -1.087663  -0.024707   0.010366  -0.496118   0.588681
   29  O  2  S    2.641415   0.725390   0.012556   1.365790   4.485250
   30  O  2  X    0.013972   0.039975  -0.185727  -0.000594  -0.000197
   31  O  2  Y   -0.050823  -0.139381   0.651277   0.002081   0.000691
   32  O  2  Z    0.138436  -0.357697  -0.021271  -0.202823   0.460943
   33  O  2 XX    0.089031   0.380639   0.020405   1.220549   0.721883
   34  O  2 YY    0.011424   0.619533   0.035899   1.363362   0.965867
   35  O  2 ZZ    0.700536   0.738945   0.040260   0.806772   0.134214
   36  O  2 XY    0.027690  -0.085226  -0.005528  -0.050914  -0.087007
   37  O  2 XZ    0.096370   0.113355   0.235767   0.000735   0.000244
   38  O  2 YZ   -0.339459  -0.399418  -0.830515  -0.002589  -0.000861

                     26         27         28         29         30

                   -0.0000    -0.0000    -0.0000    -0.0000    -0.0000

    1  C  1  S    0.025281   0.062203  -0.219119  -0.031135   0.161527
    2  C  1  S    1.505004  -0.183623   1.032891   1.264532  -0.344537
    3  C  1  X    0.000121   0.146877  -0.091908  -0.040075  -0.009058
    4  C  1  Y   -0.000428  -0.517397   0.323888   0.141210   0.031940
    5  C  1  Z    0.336634   0.169746  -0.238026   0.172978  -0.109842
    6  C  1  S    0.698196   0.288939  -1.134034  -3.311059  -3.898359
    7  C  1  X   -0.000390  -0.136134   0.139426  -0.028295   0.026358
    8  C  1  Y    0.001375   0.479659  -0.491156   0.099698  -0.092846
    9  C  1  Z    1.316457   0.001299  -1.110147  -1.570510  -1.313907
   10  C  1  S    0.155245   0.440046  -1.191833  -0.420509  -2.277006
   11  C  1  X    0.000071   0.028252  -0.005049   0.060861  -0.014402
   12  C  1  Y   -0.000251  -0.100149   0.016999  -0.214606   0.050493
   13  C  1  Z    0.021823   0.133276  -0.477432   0.061728  -0.415082
   14  C  1 XX   -0.166556   0.357156  -0.625324  -0.189712   0.542945
   15  C  1 YY   -0.974275  -0.101964  -0.814806  -0.135681   0.572634
   16  C  1 ZZ    0.397092   0.253339  -0.912743  -0.486861   0.242667
   17  C  1 XY    0.287898   0.163678   0.067550  -0.019278  -0.010569
   18  C  1 XZ   -0.000084   0.175235   0.115401  -0.078364  -0.006210
   19  C  1 YZ    0.000295  -0.617240  -0.406399   0.276124   0.021932
   20  O  2  S    0.144580  -0.208789   0.075191  -0.215611   0.034414
   21  O  2  S    0.322613   0.633652   0.072889  -0.444117   0.348468
   22  O  2  X    0.000009  -0.077748  -0.028858  -0.172786  -0.066495
   23  O  2  Y   -0.000030   0.274304   0.102172   0.608859   0.234423
   24  O  2  Z   -0.025293   0.099833  -0.077359   0.076505  -0.013982
   25  O  2  S   -3.280147   0.604475  -0.084055   3.892421  -0.268696
   26  O  2  X    0.000047   0.014601  -0.059516   0.335723  -0.062051
   27  O  2  Y   -0.000169  -0.052495   0.208326  -1.183104   0.218194
   28  O  2  Z    1.613860   0.016179  -1.092509  -0.793928  -0.541189
   29  O  2  S    0.221572  -0.714385   2.656226   1.259728   4.805872
   30  O  2  X    0.000184   0.027655  -0.015337  -0.205163   0.210957
   31  O  2  Y   -0.000645  -0.096199   0.055620   0.723184  -0.742729
   32  O  2  Z   -0.869666   0.361649   0.134121  -0.840692  -1.880893
   33  O  2 XX    0.412747  -0.386876   0.088093  -0.735524   0.168205
   34  O  2 YY    0.935586  -0.630003   0.010672  -0.442675  -0.077340
   35  O  2 ZZ   -0.123899  -0.746778   0.701121  -1.087288   0.444790
   36  O  2 XY   -0.186384   0.086736   0.027623  -0.104435   0.087560
   37  O  2 XZ   -0.000194   0.126383  -0.095433  -0.071607   0.037074
   38  O  2 YZ    0.000684  -0.445309   0.336161   0.252267  -0.130635

                     31         32         33         34         35

                   -0.0000    -0.0000    -0.0000    -0.0000    -0.0001

    1  C  1  S    0.189441  -0.027262  -0.163455  -0.067684  -0.039456
    2  C  1  S   -0.758648   0.430853   1.042963  -1.779494   1.143059
    3  C  1  X    0.003008   0.000004  -0.000000   0.000000  -0.000000
    4  C  1  Y   -0.010488  -0.000014  -0.000000   0.000000  -0.000000
    5  C  1  Z   -0.105548   0.061877  -1.246521  -1.284264   0.406890
    6  C  1  S   -3.350854  -0.842077  -1.270225  -1.061996   0.975699
    7  C  1  X    0.049198  -0.000006  -0.000000  -0.000000   0.000000
    8  C  1  Y   -0.173260   0.000020   0.000000   0.000000  -0.000000
    9  C  1  Z   -1.045094   0.547904   0.539062  -0.671232   0.642079
   10  C  1  S    0.502660   0.221437   0.645814  -0.277638   0.246705
   11  C  1  X   -0.334959  -0.000085   0.000001   0.000000   0.000000
   12  C  1  Y    1.179101   0.000300  -0.000003  -0.000000  -0.000000
   13  C  1  Z    0.067401  -0.038702  -0.405494  -0.115736   0.212670
   14  C  1 XX    0.830364  -0.541594  -0.195667   0.447703  -0.085792
   15  C  1 YY    0.690174   0.070198  -0.184497   0.095072   0.125329
   16  C  1 ZZ    0.821422   0.486787  -1.192495  -0.430467  -0.291408
   17  C  1 XY    0.049970  -0.218090  -0.003964   0.125652  -0.075331
   18  C  1 XZ    0.009441  -0.000021   0.000000  -0.000000   0.000000
   19  C  1 YZ   -0.033047   0.000075  -0.000000   0.000000  -0.000000
   20  O  2  S   -0.039386   0.032541   0.042516  -0.093117   0.002032
   21  O  2  S   -0.670236   0.443230   0.299499  -0.015347   0.803906
   22  O  2  X    0.002355  -0.000019   0.000000  -0.000000   0.000000
   23  O  2  Y   -0.007665   0.000066  -0.000000   0.000000  -0.000000
   24  O  2  Z    0.023979   0.757990  -0.476777  -0.170327  -0.140990
   25  O  2  S    2.300222  -1.844741   0.143049   2.170434  -1.802621
   26  O  2  X   -0.100530   0.000035  -0.000000  -0.000000  -0.000000
   27  O  2  Y    0.352472  -0.000124  -0.000000  -0.000000   0.000000
   28  O  2  Z   -0.653572  -0.743692  -0.671996  -2.096333   1.428903
   29  O  2  S    0.776108   1.222465  -0.174366   0.568058  -0.745641
   30  O  2  X    0.287335   0.000035  -0.000000   0.000000  -0.000000
   31  O  2  Y   -1.010313  -0.000124   0.000001   0.000000  -0.000000
   32  O  2  Z   -0.333764  -0.072898   0.022723   0.238435  -0.040065
   33  O  2 XX   -0.308848   0.133151   0.302438  -0.981954  -0.424611
   34  O  2 YY   -0.251612   0.152368  -0.198854  -0.050778   0.145510
   35  O  2 ZZ    0.016434   0.054735   0.838693   0.893016   0.187017
   36  O  2 XY   -0.020399  -0.006895   0.178802  -0.332046  -0.203109
   37  O  2 XZ   -0.010596  -0.000008   0.000000   0.000000   0.000000
   38  O  2 YZ    0.037255   0.000028  -0.000000  -0.000000  -0.000000

                     36         37         38

                   -0.0001    -0.0009    -0.0065

    1  C  1  S   -0.000000  -0.000000   0.001529
    2  C  1  S    0.000000  -0.000000   0.267306
    3  C  1  X   -0.647672  -0.220070  -0.000000
    4  C  1  Y   -0.183921   0.775265  -0.000000
    5  C  1  Z   -0.000000   0.000000  -0.487066
    6  C  1  S   -0.000000   0.000000  -1.469080
    7  C  1  X    0.544910  -0.075212   0.000000
    8  C  1  Y    0.154764   0.264935   0.000000
    9  C  1  Z   -0.000000   0.000000  -0.935690
   10  C  1  S   -0.000000   0.000000  -0.532264
   11  C  1  X   -0.439777  -0.011875  -0.000000
   12  C  1  Y   -0.124701   0.041691  -0.000000
   13  C  1  Z   -0.000000  -0.000000   0.041044
   14  C  1 XX    0.000000   0.000000  -0.394044
   15  C  1 YY   -0.000000   0.000000  -0.007863
   16  C  1 ZZ   -0.000000   0.000000   0.437176
   17  C  1 XY    0.000000   0.000000  -0.137691
   18  C  1 XZ   -0.020764   0.034642   0.000000
   19  C  1 YZ   -0.005936  -0.121997  -0.000000
   20  O  2  S   -0.000000  -0.000000  -0.096748
   21  O  2  S    0.000000   0.000000  -0.102871
   22  O  2  X   -0.696905   0.059295  -0.000000
   23  O  2  Y   -0.197751  -0.209030  -0.000000
   24  O  2  Z   -0.000000   0.000000  -0.102199
   25  O  2  S    0.000000  -0.000000   1.700922
   26  O  2  X    0.790983   0.116481  -0.000000
   27  O  2  Y    0.224562  -0.410327   0.000000
   28  O  2  Z   -0.000000   0.000000  -0.671924
   29  O  2  S    0.000000  -0.000000   0.221646
   30  O  2  X    0.148512   0.063544   0.000000
   31  O  2  Y    0.041942  -0.223586   0.000000
   32  O  2  Z   -0.000000  -0.000000   0.052626
   33  O  2 XX   -0.000000  -0.000000  -0.077108
   34  O  2 YY   -0.000000  -0.000000  -0.072008
   35  O  2 ZZ    0.000000  -0.000000  -0.126381
   36  O  2 XY   -0.000000   0.000000  -0.001827
   37  O  2 XZ   -0.164950   0.013899   0.000000
   38  O  2 YZ   -0.046723  -0.049092  -0.000000

 THE TDDFT NATURAL ORBITALS HAVE BEEN PUNCHED.
 ..... DONE WITH TD-DFT EXCITED STATE RESPONSE AND DENSITY MATRIX .....
 STEP CPU TIME =     0.91 TOTAL CPU TIME =        4.4 (    0.1 MIN)
 TOTAL WALL CLOCK TIME=        4.5 SECONDS, CPU UTILIZATION IS  99.11%

     ------------------------------------------
     PROPERTIES FOR THE PBE0     DFT FUNCTIONAL
      USING THE RELAXED DENSITY OF EXCITED STATE    1
     ------------------------------------------

          -----------------
          ENERGY COMPONENTS
          -----------------

         WAVEFUNCTION NORMALIZATION =       1.0000000000

                ONE ELECTRON ENERGY =    -197.6519645837
                TWO ELECTRON ENERGY =      62.2638339135
           NUCLEAR REPULSION ENERGY =      22.5117346394
                                      ------------------
                       TOTAL ENERGY =    -112.8763960308

 ELECTRON-ELECTRON POTENTIAL ENERGY =      62.2638339135
  NUCLEUS-ELECTRON POTENTIAL ENERGY =    -309.9998889881
   NUCLEUS-NUCLEUS POTENTIAL ENERGY =      22.5117346394
                                      ------------------
             TOTAL POTENTIAL ENERGY =    -225.2243204352
               TOTAL KINETIC ENERGY =     112.3479244045
                 VIRIAL RATIO (V/T) =       2.0047038842

          ---------------------------------------
          MULLIKEN AND LOWDIN POPULATION ANALYSES
          ---------------------------------------

     ATOMIC MULLIKEN POPULATION IN EACH MOLECULAR ORBITAL

                      1          2          3          4          5

                  2.000000   2.000000   2.000000   2.000000   2.000000

    1            -0.000236   1.999896   0.583390   0.428222   0.524762
    2             2.000236   0.000104   1.416610   1.571778   1.475238

                      6          7

                  2.000000   2.000000

    1             0.524762   1.808805
    2             1.475238   0.191195

               ----- POPULATIONS IN EACH AO -----
                             MULLIKEN      LOWDIN
              1  C  1  S      1.99318     1.96972
              2  C  1  S      0.75617     0.39303
              3  C  1  X      0.74765     0.67568
              4  C  1  Y      0.42364     0.37140
              5  C  1  Z      0.56603     0.50651
              6  C  1  S      0.55194     0.28792
              7  C  1  X      0.42606     0.42302
              8  C  1  Y      0.15881     0.20797
              9  C  1  Z      0.08109     0.23462
             10  C  1  S      0.03770     0.07296
             11  C  1  X      0.15328     0.12587
             12  C  1  Y      0.02101     0.02558
             13  C  1  Z      0.01580     0.02638
             14  C  1 XX     -0.03631     0.11287
             15  C  1 YY     -0.01714     0.12714
             16  C  1 ZZ      0.03409     0.22909
             17  C  1 XY      0.00036     0.00036
             18  C  1 XZ      0.01962     0.05034
             19  C  1 YZ      0.02109     0.03886
             20  O  2  S      1.99295     1.97625
             21  O  2  S      0.95028     0.72847
             22  O  2  X      1.05730     0.99936
             23  O  2  Y      0.90174     0.83698
             24  O  2  Z      0.86669     0.78072
             25  O  2  S      0.93045     0.39644
             26  O  2  X      0.54468     0.54431
             27  O  2  Y      0.52130     0.49923
             28  O  2  Z      0.29515     0.42394
             29  O  2  S     -0.02330     0.11515
             30  O  2  X     -0.02720     0.07826
             31  O  2  Y      0.01445     0.07813
             32  O  2  Z     -0.00630     0.11205
             33  O  2 XX     -0.00695     0.15167
             34  O  2 YY     -0.00184     0.15519
             35  O  2 ZZ      0.00858     0.18814
             36  O  2 XY      0.00001     0.00002
             37  O  2 XZ      0.01491     0.03945
             38  O  2 YZ      0.01306     0.01694

          ----- MULLIKEN ATOMIC OVERLAP POPULATIONS -----
          (OFF-DIAGONAL ELEMENTS NEED TO BE MULTIPLIED BY 2)

             1           2

    1    5.8019003
    2    0.1521598   7.8937801

          TOTAL MULLIKEN AND LOWDIN ATOMIC POPULATIONS
       ATOM         MULL.POP.    CHARGE          LOW.POP.     CHARGE
    1 C             5.954060    0.045940         5.879303    0.120697
    2 O             8.045940   -0.045940         8.120697   -0.120697

          -------------------------------
          BOND ORDER AND VALENCE ANALYSIS     BOND ORDER THRESHOLD=0.050
          -------------------------------

                   BOND                       BOND                       BOND
  ATOM PAIR DIST  ORDER      ATOM PAIR DIST  ORDER      ATOM PAIR DIST  ORDER
    1   2  1.128  1.805

                       TOTAL       BONDED        FREE
      ATOM            VALENCE     VALENCE     VALENCE
    1 C                 3.358       1.805       1.554
    2 O                 2.249       1.805       0.444

          ---------------------
          ELECTROSTATIC MOMENTS
          ---------------------

 POINT   1           X           Y           Z (BOHR)    CHARGE
                 0.000000    0.000000    1.218246        0.00 (A.U.)
         DX          DY          DZ         /D/  (DEBYE)
    -0.000000    0.000000   -0.269010    0.269010
 ...... END OF PROPERTY EVALUATION ......
 STEP CPU TIME =     0.00 TOTAL CPU TIME =        4.4 (    0.1 MIN)
 TOTAL WALL CLOCK TIME=        4.5 SECONDS, CPU UTILIZATION IS  99.11%

 BEGINNING ONE ELECTRON GRADIENT...
 ..... END OF 1-ELECTRON GRADIENT ......
 STEP CPU TIME =     0.00 TOTAL CPU TIME =        4.4 (    0.1 MIN)
 TOTAL WALL CLOCK TIME=        4.5 SECONDS, CPU UTILIZATION IS  99.11%

          ----------------------
          GRADIENT OF THE ENERGY
          ----------------------
 MEMORY FOR GRID POINT CONTRIBUTIONS TO THE TD-DFT GRADIENT=    844924 WORDS.
 STEP CPU TIME =     1.57 TOTAL CPU TIME =        6.0 (    0.1 MIN)
 TOTAL WALL CLOCK TIME=        6.0 SECONDS, CPU UTILIZATION IS  99.17%

 THE MINIMUM MEMORY REQUIRED FOR THIS RUN IS      79211 WORDS.
 USING     993761 WORDS FOR 2E- DERIVATIVE INTEGRAL CONTRIBUTIONS.
 THE COARSE/FINE SCHWARZ SCREENINGS SKIPPED            0/           0 BLOCKS.
 THE NUMBER OF GRADIENT INTEGRAL BLOCKS COMPUTED WAS      1300
 ...... END OF 2-ELECTRON GRADIENT ......
 STEP CPU TIME =     0.07 TOTAL CPU TIME =        6.1 (    0.1 MIN)
 TOTAL WALL CLOCK TIME=        6.1 SECONDS, CPU UTILIZATION IS  99.35%

                         ----------------------
                         GRADIENT OF THE ENERGY
                         ----------------------

 UNITS ARE HARTREE/BOHR    E'X               E'Y               E'Z 
    1 C                0.000000000       0.000000000       0.194338940
    2 O                0.000000000       0.000000000      -0.194338940

                   MAXIMUM GRADIENT =    0.194338940
                       RMS GRADIENT =    0.112201639
  $VIB   
          IVIB=   0 IATOM=   0 ICOORD=   0 E=     -112.8763960308
  0.000000000E+00 0.000000000E+00 1.943389398E-01 0.000000000E+00 0.000000000E+00
 -1.943389398E-01
 -3.475814436E-10 9.022169299E-11-2.690095934E-01

..... END OF SINGLE POINT GRADIENT .....
 STEP CPU TIME =     0.00 TOTAL CPU TIME =        6.1 (    0.1 MIN)
 TOTAL WALL CLOCK TIME=        6.1 SECONDS, CPU UTILIZATION IS  99.35%
               844924  WORDS OF DYNAMIC MEMORY USED
 EXECUTION OF GAMESS TERMINATED NORMALLY Wed Aug  9 22:40:47 2017
 DDI: 263640 bytes (0.3 MB / 0 MWords) used by master data server.

 ----------------------------------------
 CPU timing information for all processes
 ========================================
 0: 6.53 + 0.28 = 6.82
 ----------------------------------------
 ddikick.x: exited gracefully.
unset echo
----- accounting info -----
Files used on the master node compute-1-1.local were:
-rw-rw-r-- 1 sarom sarom 2.2K Aug  9 22:40 /scratch/exam41.F05
-rw-rw-r-- 1 sarom sarom 879K Aug  9 22:40 /scratch/exam41.F08
-rw-rw-r-- 1 sarom sarom 1.8M Aug  9 22:40 /scratch/exam41.F10
-rw-rw-r-- 1 sarom sarom 808K Aug  9 22:40 /scratch/exam41.F22
rm: cannot remove `/scratch/tmp': Is a directory
ls: No match.
ls: No match.
ls: No match.
Wed Aug  9 22:40:50 CDT 2017
0.253u 0.180s 0:09.62 4.4%	0+0k 8+360io 0pf+0w
/opt/gridengine/default/spool/compute-1-1/active_jobs/36305.1/pe_hostfile compute-1-1.local
