-catch_rsh /opt/gridengine/default/spool/compute-1-7/active_jobs/36300.1/pe_hostfile
compute-1-7
The primary node assigned by SGE to this run is compute-1-7
Warning: no access to tty (Bad file descriptor).
Thus no job control in this shell.
source /home/sarom/dir.git.branch.saromleang-travis-ci/install.info
setenv GMS_PATH /home/sarom/dir.git.branch.saromleang-travis-ci
setenv GMS_BUILD_DIR /home/sarom/dir.git.branch.saromleang-travis-ci
setenv GMS_TARGET linux64
setenv GMS_FORTRAN gfortran
setenv GMS_GFORTRAN_VERNO 4.4
setenv GMS_MATHLIB mkl-so
setenv GMS_MATHLIB none
setenv GMS_MATHLIB_PATH /share/apps/intel/compilers_and_libraries_2017.1.132/linux/mkl/lib/intel64
setenv GMS_MKL_VERNO 12
setenv GMS_DDI_COMM sockets
setenv GMS_LIBCCHEM false
setenv GMS_EIGEN_PATH
setenv GMS_PHI false
setenv GMS_SHMTYPE sysv
setenv GMS_OPENMP false
unset echo
exam35-protect
/home/sarom/dir.git.branch.saromleang-travis-ci/tests/travis-ci/parallel
----- GAMESS execution script 'rungms' -----
This job is running on host compute-1-7.local
under operating system Linux at Wed Aug 9 22:40:11 CDT 2017
Available scratch disk space (Kbyte units) at beginning of the job is
Filesystem           1K-blocks      Used Available Use% Mounted on
/dev/sda1             16126920   8505684   6802036  56% /
GAMESS temporary binary files will be written to /scratch
GAMESS supplementary output files will be written to /home/sarom/restart
Copying input file exam35-protect.inp to your run's scratch directory...
cp /home/sarom/dir.git.branch.saromleang-travis-ci/tests/travis-ci/parallel/exam35-protect.inp /scratch/exam35-protect.F05
unset echo
The generated host list is
compute-1-7.local
/home/sarom/dir.git.branch.saromleang-travis-ci/ddikick.x /home/sarom/dir.git.branch.saromleang-travis-ci/gamess.00.x exam35-protect -ddi 1 1 compute-1-7.local -scr /scratch

 Distributed Data Interface kickoff program.
 Initiating 1 compute processes on 1 nodes to run the following command:
 /home/sarom/dir.git.branch.saromleang-travis-ci/gamess.00.x exam35-protect 

          ******************************************************
          *         GAMESS VERSION = 20 APR 2017 (R1)          *
          *             FROM IOWA STATE UNIVERSITY             *
          * M.W.SCHMIDT, K.K.BALDRIDGE, J.A.BOATZ, S.T.ELBERT, *
          *   M.S.GORDON, J.H.JENSEN, S.KOSEKI, N.MATSUNAGA,   *
          *          K.A.NGUYEN, S.J.SU, T.L.WINDUS,           *
          *       TOGETHER WITH M.DUPUIS, J.A.MONTGOMERY       *
          *         J.COMPUT.CHEM.  14, 1347-1363(1993)        *
          **************** 64 BIT LINUX VERSION ****************

  SINCE 1993, STUDENTS AND POSTDOCS WORKING AT IOWA STATE UNIVERSITY
  AND ALSO IN THEIR VARIOUS JOBS AFTER LEAVING ISU HAVE MADE IMPORTANT
  CONTRIBUTIONS TO THE CODE:
     IVANA ADAMOVIC, CHRISTINE AIKENS, YURI ALEXEEV, POOJA ARORA,
     ANDREY ASADCHEV, ROB BELL, PRADIPTA BANDYOPADHYAY, JONATHAN BENTZ,
     BRETT BODE, KURT BRORSEN, CALEB CARLIN, GALINA CHABAN, WEI CHEN,
     CHEOL HO CHOI, PAUL DAY, ALBERT DEFUSCO, NUWAN DESILVA, TIM DUDLEY,
     DMITRI FEDOROV, GRAHAM FLETCHER, MARK FREITAG, KURT GLAESEMANN,
     DAN KEMP, GRANT MERRILL, NORIYUKI MINEZAWA, JONATHAN MULLIN,
     TAKESHI NAGATA, SEAN NEDD, HEATHER NETZLOFF, BOSILJKA NJEGIC, RYAN OLSON,
     MIKE PAK, SPENCER PRUITT, LUKE ROSKOP, JIM SHOEMAKER, LYUDMILA SLIPCHENKO,
     TONY SMITH, SAROM SOK LEANG, JIE SONG, TETSUYA TAKETSUGU, SIMON WEBB,
     PENG XU, SOOHAENG YOO, FEDERICO ZAHARIEV

  ADDITIONAL CODE HAS BEEN PROVIDED BY COLLABORATORS IN OTHER GROUPS:
     IOWA STATE UNIVERSITY:
          JOE IVANIC, AARON WEST, LAIMUTIS BYTAUTAS, KLAUS RUEDENBERG
     UNIVERSITY OF TOKYO: KIMIHIKO HIRAO, TAKAHITO NAKAJIMA,
          TAKAO TSUNEDA, MUNEAKI KAMIYA, SUSUMU YANAGISAWA,
          KIYOSHI YAGI, MAHITO CHIBA, SEIKEN TOKURA, NAOAKI KAWAKAMI
     UNIVERSITY OF AARHUS: FRANK JENSEN
     UNIVERSITY OF IOWA: VISVALDAS KAIRYS, HUI LI
     NATIONAL INST. OF STANDARDS AND TECHNOLOGY: WALT STEVENS, DAVID GARMER
     UNIVERSITY OF PISA: BENEDETTA MENNUCCI, JACOPO TOMASI
     UNIVERSITY OF MEMPHIS: HENRY KURTZ, PRAKASHAN KORAMBATH
     UNIVERSITY OF ALBERTA: TOBY ZENG, MARIUSZ KLOBUKOWSKI
     UNIVERSITY OF NEW ENGLAND: MARK SPACKMAN
     MIE UNIVERSITY: HIROAKI UMEDA
     NAT. INST. OF ADVANCED INDUSTRIAL SCIENCE AND TECHNOLOGY: KAZUO KITAURA
     MICHIGAN STATE UNIVERSITY:
          KAROL KOWALSKI, MARTA WLOCH, JEFFREY GOUR, JESSE LUTZ,
          WEI LI, PIOTR PIECUCH
     UNIVERSITY OF SILESIA: MONIKA MUSIAL, STANISLAW KUCHARSKI
     FACULTES UNIVERSITAIRES NOTRE-DAME DE LA PAIX:
          OLIVIER QUINET, BENOIT CHAMPAGNE
     UNIVERSITY OF CALIFORNIA - SANTA BARBARA: BERNARD KIRTMAN
     INSTITUTE FOR MOLECULAR SCIENCE:
          KAZUYA ISHIMURA, MICHIO KATOUDA, AND SHIGERU NAGASE
     UNIVERSITY OF NOTRE DAME: ANNA POMOGAEVA, DAN CHIPMAN
     KYUSHU UNIVERSITY:
          HARUYUKI NAKANO,
          FENG LONG GU, JACEK KORCHOWIEC, MARCIN MAKOWSKI, AND YURIKO AOKI,
          HIROTOSHI MORI AND EISAKU MIYOSHI
     PENNSYLVANIA STATE UNIVERSITY:
          TZVETELIN IORDANOV, CHET SWALINA, JONATHAN SKONE,
          SHARON HAMMES-SCHIFFER
     WASEDA UNIVERSITY:
          MASATO KOBAYASHI, TOMOKO AKAMA, TSUGUKI TOUMA,
          TAKESHI YOSHIKAWA, YASUHIRO IKABATA, JUNJI SEINO,
          YUYA NAKAJIMA, HIROMI NAKAI
     NANJING UNIVERSITY: SHUHUA LI
     UNIVERSITY OF NEBRASKA:
          PEIFENG SU, DEJUN SI, NANDUN THELLAMUREGE, YALI WANG, HUI LI
     UNIVERSITY OF ZURICH: ROBERTO PEVERATI, KIM BALDRIDGE
     N. COPERNICUS UNIVERSITY AND JACKSON STATE UNIVERSITY:
          MARIA BARYSZ
     UNIVERSITY OF COPENHAGEN: Jimmy Kromann, CASPER STEINMANN
     TOKYO INSTITUTE OF TECHNOLOGY: HIROYA NAKATA
     NAGOYA UNIVERSITY: YOSHIO NISHIMOTO, STEPHAN IRLE
     MOSCOW STATE UNIVERSITY: VLADIMIR MIRONOV

 EXECUTION OF GAMESS BEGUN Wed Aug  9 22:40:11 2017

            ECHO OF THE FIRST FEW INPUT CARDS -
 INPUT CARD>!   As atom...Test of relativistic energy correction,                           
 INPUT CARD>!   by the Douglas-Kroll transformation to 3rd order.                           
 INPUT CARD>!                                                                               
 INPUT CARD>!   The best scalar relativistic treatment is LUT-IOTC,                         
 INPUT CARD>!   which exploits atomic distance separation for                               
 INPUT CARD>!   speed, but the Local Unitary Transformation form                            
 INPUT CARD>!   is equivalent to full IOTC in the case of an atom.                          
 INPUT CARD>!   Relativity runs would normally use RELWFN=LUT-IOTC.                         
 INPUT CARD>!                                                                               
 INPUT CARD>!   the FINAL DK3 energy is -2259.0955125948                                    
 INPUT CARD>!   web page says           -2259.095511826                                     
 INPUT CARD>!                                                                               
 INPUT CARD>!   convergence of the DK transformation is typical,                            
 INPUT CARD>!      0th order -2234.2372862734  (non-relativistic)                           
 INPUT CARD>!      1st order -2264.6131859581                                               
 INPUT CARD>!      2nd order -2258.9450224748                                               
 INPUT CARD>!      3rd order -2259.0955125948                                               
 INPUT CARD>!     inf. order -2259.0876052750                                               
 INPUT CARD>!   in that 1st order way undershoots, 2nd order comes                          
 INPUT CARD>!   back close, and 3rd order is not insubstantial.                             
 INPUT CARD>!   DK3 AO radii are <r(4s)>=1.997, <r(4p)>=2.504 Bohr,                         
 INPUT CARD>!   compared to 2.0292 and 2.5112 for non-relativistic.                         
 INPUT CARD>!                                                                               
 INPUT CARD>!   Compare with -2259.456841 which is the point                                
 INPUT CARD>!   nucleus Dirac-Coulomb numerical Hartree-Fock from                           
 INPUT CARD>!             L.Visscher, K.G.Dyall                                             
 INPUT CARD>!     At.Data Nucl.Data Tables 67, 207-224(1997),                               
 INPUT CARD>!   noting that the present run does not include any                            
 INPUT CARD>!   relativistic treatment of the 2e- potential.                                
 INPUT CARD>!                                                                               
 INPUT CARD>!   The uncontracted 20s15p9d basis set below is from                           
 INPUT CARD>!       T.Tsuchiya, M.Abe, T.Nakajima, K.Hirao                                  
 INPUT CARD>!          J.Chem.Phys. 115, 4463-4472(2001)                                    
 INPUT CARD>!   See the GAMESS manual about other basis sets, or                            
 INPUT CARD>!   how to generally contract the University of Tokyo                           
 INPUT CARD>!   basis sets, with ~/gamess/tools/dk3.f.                                      
 INPUT CARD>!                                                                               
 INPUT CARD>!   The semicolon divides two lines of input that happen                        
 INPUT CARD>!   to be given on a single physical line of the file.                          
 INPUT CARD>!                                                                               
 INPUT CARD> $contrl scftyp=rohf mult=4 relwfn=dk ispher=1 $end                             
 INPUT CARD> $system timlim=2 mwords=2 $end                                                 
 INPUT CARD> $relwfn norder=3 $end                                                          
 INPUT CARD> $guess  guess=huckel $end                                                      
 INPUT CARD> $radial nshell=2 idegsh(1)=1,3 memsh(1)=15, 16,17,18 $end                      
 INPUT CARD> $data                                                                          
 INPUT CARD>illustration of 3rd order Douglas-Kroll for As                                  
 INPUT CARD>Dnh 2                                                                           
 INPUT CARD>                                                                                
 INPUT CARD>Arsenic 33.0                                                                    
    2000000 WORDS OF MEMORY AVAILABLE


     RUN TITLE
     ---------
 illustration of 3rd order Douglas-Kroll for As                                  

 THE POINT GROUP OF THE MOLECULE IS DNH     
 THE ORDER OF THE PRINCIPAL AXIS IS     2

 ATOM      ATOMIC                      COORDINATES (BOHR)
           CHARGE         X                   Y                   Z
 ARSENIC    33.0     0.0000000000        0.0000000000        0.0000000000

          INTERNUCLEAR DISTANCES (ANGS.)
          ------------------------------

                1 ARSE  

   1 ARSE    0.0000000  

  * ... LESS THAN  3.000


     ATOMIC BASIS SET
     ----------------
 THE CONTRACTED PRIMITIVE FUNCTIONS HAVE BEEN UNNORMALIZED
 THE CONTRACTED BASIS FUNCTIONS ARE NOW NORMALIZED TO UNITY

  SHELL TYPE  PRIMITIVE        EXPONENT          CONTRACTION COEFFICIENT(S)

 ARSENIC   

      1   S       1      72421890.0000000    1.000000000000

      2   S       2       7704075.0000000    1.000000000000

      3   S       3       1336573.0000000    1.000000000000

      4   S       4        303943.5000000    1.000000000000

      5   S       5         83289.2500000    1.000000000000

      6   S       6         25994.4500000    1.000000000000

      7   S       7          8979.5770000    1.000000000000

      8   S       8          3366.7950000    1.000000000000

      9   S       9          1346.4700000    1.000000000000

     10   S      10           567.7458000    1.000000000000

     11   S      11           249.2308000    1.000000000000

     12   S      12           111.9952000    1.000000000000

     13   S      13            46.3281400    1.000000000000

     14   S      14            22.6112200    1.000000000000

     15   S      15            10.9101100    1.000000000000

     16   S      16             4.5498340    1.000000000000

     17   S      17             2.1494630    1.000000000000

     18   S      18             1.0337510    1.000000000000

     19   S      19             0.3089246    1.000000000000

     20   S      20             0.1120671    1.000000000000

     21   P      21         49515.5800000    1.000000000000

     22   P      22          8463.7830000    1.000000000000

     23   P      23          2290.8560000    1.000000000000

     24   P      24           779.6597000    1.000000000000

     25   P      25           305.4569000    1.000000000000

     26   P      26           130.9799000    1.000000000000

     27   P      27            59.6989600    1.000000000000

     28   P      28            28.4087900    1.000000000000

     29   P      29            13.8830000    1.000000000000

     30   P      30             6.6102210    1.000000000000

     31   P      31             3.0821260    1.000000000000

     32   P      32             1.3919830    1.000000000000

     33   P      33             0.4825470    1.000000000000

     34   P      34             0.1922826    1.000000000000

     35   P      35             0.0728497    1.000000000000

     36   D      36           718.9648000    1.000000000000

     37   D      37           207.9840000    1.000000000000

     38   D      38            79.5908500    1.000000000000

     39   D      39            34.5141100    1.000000000000

     40   D      40            15.7305400    1.000000000000

     41   D      41             7.2805600    1.000000000000

     42   D      42             3.3000700    1.000000000000

     43   D      43             1.4173160    1.000000000000

     44   D      44             0.5447273    1.000000000000

 TOTAL NUMBER OF BASIS SET SHELLS             =   44
 NUMBER OF CARTESIAN GAUSSIAN BASIS FUNCTIONS =  119
 NOTE: THIS RUN WILL RESTRICT THE MO VARIATION SPACE TO SPHERICAL HARMONICS.
 THE NUMBER OF ORBITALS KEPT IN THE VARIATIONAL SPACE WILL BE PRINTED LATER.
 NUMBER OF ELECTRONS                          =   33
 CHARGE OF MOLECULE                           =    0
 SPIN MULTIPLICITY                            =    4
 NUMBER OF OCCUPIED ORBITALS (ALPHA)          =   18
 NUMBER OF OCCUPIED ORBITALS (BETA )          =   15
 TOTAL NUMBER OF ATOMS                        =    1
 THE NUCLEAR REPULSION ENERGY IS        0.0000000000

     ---------------------------------
     RELATIVISTIC WAVEFUNCTION OPTIONS
     ---------------------------------
     METHOD=DK       NORDER= 3       NESOC=  0      MODEQR=      1
     NRATOM=  0      QMTTOL= 1.000E-10      QRTOL= 1.000E-02
     CLIGHT=137.03598950     TAU= 3.500E+00

 INTERNAL BASIS SET UNCONTRACTION FOR RESC/DK/IOTC/LUT-IOTC:
    44 SHELLS AND    119 AOS ARE CONSTRUCTED, COMPARED TO
    44 SHELLS AND    119 AOS IN THE CONTRACTED BASIS SET


 THIS MOLECULE IS RECOGNIZED AS BEING LINEAR,
 ORBITAL LZ DEGENERACY TOLERANCE ETOLLZ= 1.00E-06

     $CONTRL OPTIONS
     ---------------
 SCFTYP=ROHF         RUNTYP=ENERGY       EXETYP=RUN     
 MPLEVL=       0     CITYP =NONE         CCTYP =NONE         VBTYP =NONE    
 DFTTYP=NONE         TDDFT =NONE    
 MULT  =       4     ICHARG=       0     NZVAR =       0     COORD =UNIQUE  
 PP    =NONE         RELWFN=DK           LOCAL =NONE         NUMGRD=       F
 ISPHER=       1     NOSYM =       0     MAXIT =      30     UNITS =ANGS    
 PLTORB=       F     MOLPLT=       F     AIMPAC=       F     FRIEND=        
 NPRINT=       7     IREST =       0     GEOM  =INPUT   
 NORMF =       0     NORMP =       0     ITOL  =      20     ICUT  =       9
 INTTYP=BEST         GRDTYP=BEST         QMTTOL= 1.0E-06

     $SYSTEM OPTIONS
     ---------------
  REPLICATED MEMORY=     2000000 WORDS (ON EVERY NODE).
 DISTRIBUTED MEMDDI=           0 MILLION WORDS IN AGGREGATE,
 MEMDDI DISTRIBUTED OVER   1 PROCESSORS IS           0 WORDS/PROCESSOR.
 TOTAL MEMORY REQUESTED ON EACH PROCESSOR=     2000000 WORDS.
 TIMLIM=           2.00 MINUTES, OR       0.0 DAYS.
 PARALL= F  BALTYP=  DLB     KDIAG=    0  COREFL= F
 MXSEQ2=     300 MXSEQ3=     150  mem10=         0

          ----------------
          PROPERTIES INPUT
          ----------------

     MOMENTS            FIELD           POTENTIAL          DENSITY
 IEMOM =       1   IEFLD =       0   IEPOT =       0   IEDEN =       0
 WHERE =COMASS     WHERE =NUCLEI     WHERE =NUCLEI     WHERE =NUCLEI  
 OUTPUT=BOTH       OUTPUT=BOTH       OUTPUT=BOTH       OUTPUT=BOTH    
 IEMINT=       0   IEFINT=       0                     IEDINT=       0
                                                       MORB  =       0
          EXTRAPOLATION IN EFFECT
          SOSCF IN EFFECT
 ORBITAL PRINTING OPTION: NPREO=     1   119     2     1

     -------------------------------
     INTEGRAL TRANSFORMATION OPTIONS
     -------------------------------
     NWORD  =            0
     CUTOFF = 1.0E-09     MPTRAN =       0
     DIRTRF =       F     AOINTS =DUP     

          ----------------------
          INTEGRAL INPUT OPTIONS
          ----------------------
 NOPK  =       1 NORDER=       0 SCHWRZ=       F

     ------------------------------------------
     THE POINT GROUP IS DNH, NAXIS= 2, ORDER= 8
     ------------------------------------------

 -- VARIATIONAL SPACE WILL BE RESTRICTED TO PURE SPHERICAL HARMONICS ONLY --
 AFTER EXCLUDING CONTAMINANT COMBINATIONS FROM THE CARTESIAN GAUSSIAN BASIS
 SET, THE NUMBER OF SPHERICAL HARMONICS KEPT IN THE VARIATION SPACE IS  110

     DIMENSIONS OF THE SYMMETRY SUBSPACES ARE
 AG  =   38     AU  =    0     B3U =   15     B3G =    9     B1G =    9
 B1U =   15     B2U =   15     B2G =    9

 ..... DONE SETTING UP THE RUN .....
 STEP CPU TIME =     0.02 TOTAL CPU TIME =        0.0 (    0.0 MIN)
 TOTAL WALL CLOCK TIME=        0.0 SECONDS, CPU UTILIZATION IS  66.67%

          ********************
          1 ELECTRON INTEGRALS
          ********************
 TIME TO DO ORDINARY INTEGRALS=      0.00

 ------------------------------------------------------------------
 3RD ORDER DOUGLAS-KROLL-HESS RELATIVISTIC ONE-ELECTRON HAMILTONIAN
            CODED BY TAKAHITO NAKAJIMA AND DMITRI FEDOROV
 ------------------------------------------------------------------

 TIME TO DO  RELATIVISTIC INTS=      0.31
 ...... END OF ONE-ELECTRON INTEGRALS ......
 STEP CPU TIME =     0.31 TOTAL CPU TIME =        0.3 (    0.0 MIN)
 TOTAL WALL CLOCK TIME=        0.4 SECONDS, CPU UTILIZATION IS  94.29%

          -------------
          GUESS OPTIONS
          -------------
          GUESS =HUCKEL            NORB  =       0          NORDER=       0
          MIX   =       F          PRTMO =       F          PUNMO =       F
          TOLZ  = 1.0E-08          TOLE  = 1.0E-05
          SYMDEN=       F          PURIFY=       F

 INITIAL GUESS ORBITALS GENERATED BY HUCKEL   ROUTINE.
 HUCKEL GUESS REQUIRES    104998 WORDS.

 STATISTICS FOR GENERATION OF SYMMETRY ORBITAL -Q- MATRIX
 NUMBER OF CARTESIAN ATOMIC ORBITALS=        119
 NUMBER OF SPHERICAL CONTAMINANTS DROPPED=     9
 NUMBER OF LINEARLY DEPENDENT MOS DROPPED=     0
 TOTAL NUMBER OF MOS IN VARIATION SPACE=     110

 SYMMETRIES FOR INITIAL GUESS ORBITALS FOLLOW.  ALPHA SET(S).
    18 ORBITALS ARE OCCUPIED (   14 CORE ORBITALS).
    15=AG      16=B3U     17=B2U     18=B1U     19=AG      20=AG      21=AG  
    22=AG      23=AG      24=AG      25=AG      26=AG      27=AG      28=AG  

 SYMMETRIES FOR INITIAL GUESS ORBITALS FOLLOW.   BETA SET(S).
    15 ORBITALS ARE OCCUPIED (   14 CORE ORBITALS).
    15=AG      16=B3U     17=B2U     18=B1U     19=AG      20=AG      21=AG  
    22=AG      23=AG      24=AG      25=AG  
 ...... END OF INITIAL ORBITAL SELECTION ......
 STEP CPU TIME =     0.02 TOTAL CPU TIME =        0.3 (    0.0 MIN)
 TOTAL WALL CLOCK TIME=        0.4 SECONDS, CPU UTILIZATION IS  97.22%

                    ----------------------
                    AO INTEGRAL TECHNOLOGY
                    ----------------------
     S,P,L SHELL ROTATED AXIS INTEGRALS, REPROGRAMMED BY
        KAZUYA ISHIMURA (IMS) AND JOSE SIERRA (SYNSTAR).
     S,P,D,L SHELL ROTATED AXIS INTEGRALS PROGRAMMED BY
        KAZUYA ISHIMURA (INSTITUTE FOR MOLECULAR SCIENCE).
     S,P,D,F,G SHELL TO TOTAL QUARTET ANGULAR MOMENTUM SUM 5,
        ERIC PROGRAM BY GRAHAM FLETCHER (ELORET AND NASA ADVANCED
        SUPERCOMPUTING DIVISION, AMES RESEARCH CENTER).
     S,P,D,F,G,L SHELL GENERAL RYS QUADRATURE PROGRAMMED BY
        MICHEL DUPUIS (PACIFIC NORTHWEST NATIONAL LABORATORY).

          --------------------
          2 ELECTRON INTEGRALS
          --------------------

 THE -PK- OPTION IS OFF, THE INTEGRALS ARE NOT IN SUPERMATRIX FORM.
 STORING   15000 INTEGRALS/RECORD ON DISK, USING 12 BYTES/INTEGRAL.
 TWO ELECTRON INTEGRAL EVALUATION REQUIRES   91386 WORDS OF MEMORY.
 II,JST,KST,LST =  1  1  1  1 NREC =         1 INTLOC =    1
 II,JST,KST,LST =  2  1  1  1 NREC =         1 INTLOC =    2
 II,JST,KST,LST =  3  1  1  1 NREC =         1 INTLOC =    7
 II,JST,KST,LST =  4  1  1  1 NREC =         1 INTLOC =   22
 II,JST,KST,LST =  5  1  1  1 NREC =         1 INTLOC =   56
 II,JST,KST,LST =  6  1  1  1 NREC =         1 INTLOC =  121
 II,JST,KST,LST =  7  1  1  1 NREC =         1 INTLOC =  232
 II,JST,KST,LST =  8  1  1  1 NREC =         1 INTLOC =  407
 II,JST,KST,LST =  9  1  1  1 NREC =         1 INTLOC =  667
 II,JST,KST,LST = 10  1  1  1 NREC =         1 INTLOC = 1036
 II,JST,KST,LST = 11  1  1  1 NREC =         1 INTLOC = 1541
 II,JST,KST,LST = 12  1  1  1 NREC =         1 INTLOC = 2212
 II,JST,KST,LST = 13  1  1  1 NREC =         1 INTLOC = 3082
 II,JST,KST,LST = 14  1  1  1 NREC =         1 INTLOC = 4187
 II,JST,KST,LST = 15  1  1  1 NREC =         1 INTLOC = 5566
 II,JST,KST,LST = 16  1  1  1 NREC =         1 INTLOC = 7261
 II,JST,KST,LST = 17  1  1  1 NREC =         1 INTLOC = 9317
 II,JST,KST,LST = 18  1  1  1 NREC =         1 INTLOC =11782
 II,JST,KST,LST = 19  1  1  1 NREC =         1 INTLOC =14707
 II,JST,KST,LST = 20  1  1  1 NREC =         2 INTLOC = 3146
 II,JST,KST,LST = 21  1  1  1 NREC =         2 INTLOC = 7156
 II,JST,KST,LST = 22  1  1  1 NREC =         2 INTLOC = 8425
 II,JST,KST,LST = 23  1  1  1 NREC =         2 INTLOC =11581
 II,JST,KST,LST = 24  1  1  1 NREC =         3 INTLOC = 1732
 II,JST,KST,LST = 25  1  1  1 NREC =         3 INTLOC = 9037
 II,JST,KST,LST = 26  1  1  1 NREC =         4 INTLOC = 3703
 II,JST,KST,LST = 27  1  1  1 NREC =         5 INTLOC =  994
 II,JST,KST,LST = 28  1  1  1 NREC =         6 INTLOC = 1168
 II,JST,KST,LST = 29  1  1  1 NREC =         7 INTLOC = 4567
 II,JST,KST,LST = 30  1  1  1 NREC =         8 INTLOC =11602
 II,JST,KST,LST = 31  1  1  1 NREC =        10 INTLOC = 7714
 II,JST,KST,LST = 32  1  1  1 NREC =        12 INTLOC = 8395
 II,JST,KST,LST = 33  1  1  1 NREC =        14 INTLOC =14128
 II,JST,KST,LST = 34  1  1  1 NREC =        17 INTLOC = 9880
 II,JST,KST,LST = 35  1  1  1 NREC =        20 INTLOC =10939
 II,JST,KST,LST = 36  1  1  1 NREC =        24 INTLOC = 2179
 II,JST,KST,LST = 37  1  1  1 NREC =        32 INTLOC = 9262
 II,JST,KST,LST = 38  1  1  1 NREC =        43 INTLOC = 9877
 II,JST,KST,LST = 39  1  1  1 NREC =        57 INTLOC = 8059
 II,JST,KST,LST = 40  1  1  1 NREC =        74 INTLOC = 8659
 II,JST,KST,LST = 41  1  1  1 NREC =        95 INTLOC = 1528
 II,JST,KST,LST = 42  1  1  1 NREC =       119 INTLOC = 6919
 II,JST,KST,LST = 43  1  1  1 NREC =       147 INTLOC =14212
 II,JST,KST,LST = 44  1  1  1 NREC =       180 INTLOC =10897
 TOTAL NUMBER OF NONZERO TWO-ELECTRON INTEGRALS =             3252726
        217 INTEGRAL RECORDS WERE STORED ON DISK FILE  8.
  ...... END OF TWO-ELECTRON INTEGRALS .....
 STEP CPU TIME =     0.53 TOTAL CPU TIME =        0.9 (    0.0 MIN)
 TOTAL WALL CLOCK TIME=        0.9 SECONDS, CPU UTILIZATION IS  97.78%

          ---------------------------
                 ROHF SCF CALCULATION
          ---------------------------

     NUCLEAR ENERGY =         0.0000000000
     MAXIT = 30     NPUNCH=  2     MULT=  4
     EXTRAP=T  DAMP=F  SHIFT=F  RSTRCT=F  DIIS=F  SOSCF=T
     DENSITY MATRIX CONV=  1.00E-05
     ROHF CANONICALIZATION PARAMETERS
             C-C     O-O     V-V
     ALPHA -0.5000  0.5000  1.5000
     BETA   1.5000  0.5000 -0.5000
     SOSCF WILL OPTIMIZE    1701 ORBITAL ROTATION ANGLES. SOGTOL= 2.500E-01
     MEMORY REQUIRED FOR UHF/ROHF ITERS=    169119 WORDS.

 ITER EX      TOTAL ENERGY        E CHANGE  DENSITY CHANGE    ORB. GRAD 
   1  0    -2242.1931582684 -2242.1931582684   0.167758679   0.000000000
   2  1    -2259.0851673406   -16.8920090722   0.134435370   0.287095943
          ---------------START SECOND ORDER SCF---------------
   3  2    -2259.0941854944    -0.0090181538   0.024930033   0.023165836
   4  3    -2259.0948593919    -0.0006738975   0.006275640   0.015497277
   5  4    -2259.0955077928    -0.0006484009   0.007183979   0.000942273
   6  5    -2259.0955118973    -0.0000041045   0.001950664   0.000376824
   7  6    -2259.0955126694    -0.0000007721   0.000027644   0.000011943
   8  7    -2259.0955126698    -0.0000000004   0.000001284   0.000001620
   9  8    -2259.0955126699    -0.0000000000   0.000000238   0.000000041

          -----------------
          DENSITY CONVERGED
          -----------------
     TIME TO FORM FOCK OPERATORS=       0.5 SECONDS (       0.1 SEC/ITER)
     TIME TO SOLVE SCF EQUATIONS=       0.0 SECONDS (       0.0 SEC/ITER)

 FINAL ROHF ENERGY IS    -2259.0955126699 AFTER   9 ITERATIONS

          --------------------
          SPIN SZ   =    1.500
          S-SQUARED =    3.750
          --------------------

 LZ VALUE ANALYSIS FOR THE MOS
 ----------------------------------------
 MO     1 (    1) HAS LZ(WEIGHT)= 0.00(100.0%) 
 MO     2 (    2) HAS LZ(WEIGHT)= 0.00(100.0%) 
 MO     3 (    3) HAS LZ(WEIGHT)=-1.00( 50.0%)  1.00( 50.0%) 
 MO     4 (    3) HAS LZ(WEIGHT)= 0.00(100.0%) 
 MO     5 (    3) HAS LZ(WEIGHT)=-1.00( 50.0%)  1.00( 50.0%) 
 MO     6 (    4) HAS LZ(WEIGHT)= 0.00(100.0%) 
 MO     7 (    5) HAS LZ(WEIGHT)=-1.00( 50.0%)  1.00( 50.0%) 
 MO     8 (    5) HAS LZ(WEIGHT)= 0.00(100.0%) 
 MO     9 (    5) HAS LZ(WEIGHT)=-1.00( 50.0%)  1.00( 50.0%) 
 MO    10 (    6) HAS LZ(WEIGHT)=-1.00( 50.0%)  1.00( 50.0%) 
 MO    11 (    6) HAS LZ(WEIGHT)=-1.00( 50.0%)  1.00( 50.0%) 
 MO    12 (    6) HAS LZ(WEIGHT)=-2.00( 50.0%)  2.00( 50.0%) 
 MO    13 (    6) HAS LZ(WEIGHT)=-2.00(  8.2%)  0.00( 83.5%)  2.00(  8.2%) 
 MO    14 (    6) HAS LZ(WEIGHT)=-2.00( 41.8%)  0.00( 16.5%)  2.00( 41.8%) 
 MO    15 (    7) HAS LZ(WEIGHT)= 0.00(100.0%) 
 MO    16 (    8) HAS LZ(WEIGHT)= 0.00(100.0%) 
 MO    17 (    8) HAS LZ(WEIGHT)=-1.00( 50.0%)  1.00( 50.0%) 
 MO    18 (    8) HAS LZ(WEIGHT)=-1.00( 50.0%)  1.00( 50.0%) 
 MO    19 (    9) HAS LZ(WEIGHT)=-1.00( 50.0%)  1.00( 50.0%) 
 MO    20 (    9) HAS LZ(WEIGHT)= 0.00(100.0%) 
 MO    21 (    9) HAS LZ(WEIGHT)=-1.00( 50.0%)  1.00( 50.0%) 
 MO    22 (   10) HAS LZ(WEIGHT)= 0.00(100.0%) 
 MO    23 (   11) HAS LZ(WEIGHT)=-2.00( 49.9%)  2.00( 49.9%) 
 MO    24 (   11) HAS LZ(WEIGHT)= 0.00( 99.9%) 
 MO    25 (   11) HAS LZ(WEIGHT)=-1.00( 50.0%)  1.00( 50.0%) 
 MO    26 (   11) HAS LZ(WEIGHT)=-2.00( 50.0%)  2.00( 50.0%) 
 MO    27 (   11) HAS LZ(WEIGHT)=-1.00( 50.0%)  1.00( 50.0%) 
 MO    28 (   12) HAS LZ(WEIGHT)=-1.00( 50.0%)  1.00( 50.0%) 
 MO    29 (   12) HAS LZ(WEIGHT)=-1.00( 50.0%)  1.00( 50.0%) 
 MO    30 (   12) HAS LZ(WEIGHT)= 0.00(100.0%) 
 MO    31 (   13) HAS LZ(WEIGHT)= 0.00(100.0%) 
 MO    32 (   14) HAS LZ(WEIGHT)=-1.00( 50.0%)  1.00( 50.0%) 
 MO    33 (   14) HAS LZ(WEIGHT)=-1.00( 50.0%)  1.00( 50.0%) 
 MO    34 (   14) HAS LZ(WEIGHT)=-2.00( 50.0%)  2.00( 50.0%) 
 MO    35 (   14) HAS LZ(WEIGHT)=-2.00( 45.4%)  0.00(  9.1%)  2.00( 45.4%) 
 MO    36 (   14) HAS LZ(WEIGHT)=-2.00(  4.6%)  0.00( 90.9%)  2.00(  4.6%) 
 MO    37 (   15) HAS LZ(WEIGHT)=-1.00( 50.0%)  1.00( 50.0%) 
 MO    38 (   15) HAS LZ(WEIGHT)=-1.00( 50.0%)  1.00( 50.0%) 
 MO    39 (   15) HAS LZ(WEIGHT)= 0.00(100.0%) 
 MO    40 (   16) HAS LZ(WEIGHT)= 0.00(100.0%) 
 MO    41 (   17) HAS LZ(WEIGHT)=-2.00(  9.7%) -0.00( 80.6%)  2.00(  9.7%) 
 MO    42 (   17) HAS LZ(WEIGHT)=-2.00( 40.3%) -0.00( 19.4%)  2.00( 40.3%) 
 MO    43 (   17) HAS LZ(WEIGHT)=-1.00( 50.0%)  1.00( 50.0%) 
 MO    44 (   17) HAS LZ(WEIGHT)=-1.00( 50.0%)  1.00( 50.0%) 
 MO    45 (   17) HAS LZ(WEIGHT)=-2.00( 50.0%)  2.00( 50.0%) 
 MO    46 (   18) HAS LZ(WEIGHT)=-1.00( 50.0%)  1.00( 50.0%) 
 MO    47 (   18) HAS LZ(WEIGHT)=-1.00( 50.0%)  1.00( 50.0%) 
 MO    48 (   18) HAS LZ(WEIGHT)= 0.00(100.0%) 
 MO    49 (   19) HAS LZ(WEIGHT)=-2.00( 15.1%)  0.00( 69.9%)  2.00( 15.1%) 
 MO    50 (   19) HAS LZ(WEIGHT)=-2.00( 34.9%)  0.00( 30.1%)  2.00( 34.9%) 
 MO    51 (   19) HAS LZ(WEIGHT)=-1.00( 50.0%)  1.00( 50.0%) 
 MO    52 (   19) HAS LZ(WEIGHT)=-1.00( 50.0%)  1.00( 50.0%) 
 MO    53 (   19) HAS LZ(WEIGHT)=-2.00( 50.0%)  2.00( 50.0%) 
 MO    54 (   20) HAS LZ(WEIGHT)= 0.00(100.0%) 
 MO    55 (   21) HAS LZ(WEIGHT)=-1.00( 50.0%)  1.00( 50.0%) 
 MO    56 (   21) HAS LZ(WEIGHT)=-1.00( 50.0%)  1.00( 50.0%) 
 MO    57 (   21) HAS LZ(WEIGHT)= 0.00(100.0%) 
 MO    58 (   22) HAS LZ(WEIGHT)=-2.00(  1.2%) -0.00( 97.6%)  2.00(  1.2%) 
 MO    59 (   22) HAS LZ(WEIGHT)=-2.00( 48.8%) -0.00(  2.4%)  2.00( 48.8%) 
 MO    60 (   22) HAS LZ(WEIGHT)=-1.00( 50.0%)  1.00( 50.0%) 
 MO    61 (   22) HAS LZ(WEIGHT)=-2.00( 50.0%)  2.00( 50.0%) 
 MO    62 (   22) HAS LZ(WEIGHT)=-1.00( 50.0%)  1.00( 50.0%) 
 MO    63 (   23) HAS LZ(WEIGHT)=-1.00( 50.0%)  1.00( 50.0%) 
 MO    64 (   23) HAS LZ(WEIGHT)=-1.00( 50.0%)  1.00( 50.0%) 
 MO    65 (   23) HAS LZ(WEIGHT)= 0.00(100.0%) 
 MO    66 (   24) HAS LZ(WEIGHT)= 0.00(100.0%) 
 MO    67 (   25) HAS LZ(WEIGHT)=-0.00( 99.5%) 
 MO    68 (   25) HAS LZ(WEIGHT)=-2.00( 49.8%)  2.00( 49.8%) 
 MO    69 (   25) HAS LZ(WEIGHT)=-1.00( 50.0%)  1.00( 50.0%) 
 MO    70 (   25) HAS LZ(WEIGHT)=-1.00( 50.0%)  1.00( 50.0%) 
 MO    71 (   25) HAS LZ(WEIGHT)=-2.00( 50.0%)  2.00( 50.0%) 
 MO    72 (   26) HAS LZ(WEIGHT)=-1.00( 50.0%)  1.00( 50.0%) 
 MO    73 (   26) HAS LZ(WEIGHT)=-1.00( 50.0%)  1.00( 50.0%) 
 MO    74 (   26) HAS LZ(WEIGHT)= 0.00(100.0%) 
 MO    75 (   27) HAS LZ(WEIGHT)= 0.00(100.0%) 
 MO    76 (   28) HAS LZ(WEIGHT)=-2.00( 39.0%) -0.00( 22.1%)  2.00( 39.0%) 
 MO    77 (   28) HAS LZ(WEIGHT)=-2.00( 11.0%) -0.00( 77.9%)  2.00( 11.0%) 
 MO    78 (   28) HAS LZ(WEIGHT)=-1.00( 50.0%)  1.00( 50.0%) 
 MO    79 (   28) HAS LZ(WEIGHT)=-2.00( 50.0%)  2.00( 50.0%) 
 MO    80 (   28) HAS LZ(WEIGHT)=-1.00( 50.0%)  1.00( 50.0%) 
 MO    81 (   29) HAS LZ(WEIGHT)=-1.00( 50.0%)  1.00( 50.0%) 
 MO    82 (   29) HAS LZ(WEIGHT)= 0.00(100.0%) 
 MO    83 (   29) HAS LZ(WEIGHT)=-1.00( 50.0%)  1.00( 50.0%) 
 MO    84 (   30) HAS LZ(WEIGHT)= 0.00(100.0%) 
 MO    85 (   31) HAS LZ(WEIGHT)=-1.00( 50.0%)  1.00( 50.0%) 
 MO    86 (   31) HAS LZ(WEIGHT)=-1.00( 50.0%)  1.00( 50.0%) 
 MO    87 (   31) HAS LZ(WEIGHT)= 0.00(100.0%) 
 MO    88 (   32) HAS LZ(WEIGHT)=-1.00( 50.0%)  1.00( 50.0%) 
 MO    89 (   32) HAS LZ(WEIGHT)=-1.00( 50.0%)  1.00( 50.0%) 
 MO    90 (   32) HAS LZ(WEIGHT)=-2.00( 50.0%)  2.00( 50.0%) 
 MO    91 (   32) HAS LZ(WEIGHT)=-2.00(  8.4%)  0.00( 83.1%)  2.00(  8.4%) 
 MO    92 (   32) HAS LZ(WEIGHT)=-2.00( 41.6%)  0.00( 16.9%)  2.00( 41.6%) 
 MO    93 (   33) HAS LZ(WEIGHT)= 0.00(100.0%) 
 MO    94 (   34) HAS LZ(WEIGHT)= 0.00(100.0%) 
 MO    95 (   34) HAS LZ(WEIGHT)=-1.00( 50.0%)  1.00( 50.0%) 
 MO    96 (   34) HAS LZ(WEIGHT)=-1.00( 50.0%)  1.00( 50.0%) 
 MO    97 (   35) HAS LZ(WEIGHT)= 0.00(100.0%) 
 MO    98 (   36) HAS LZ(WEIGHT)= 0.00(100.0%) 
 MO    99 (   37) HAS LZ(WEIGHT)= 0.00(100.0%) 
 MO   100 (   37) HAS LZ(WEIGHT)=-1.00( 50.0%)  1.00( 50.0%) 
 MO   101 (   37) HAS LZ(WEIGHT)=-1.00( 50.0%)  1.00( 50.0%) 
 MO   102 (   38) HAS LZ(WEIGHT)= 0.00(100.0%) 
 MO   103 (   39) HAS LZ(WEIGHT)=-1.00( 50.0%)  1.00( 50.0%) 
 MO   104 (   39) HAS LZ(WEIGHT)=-1.00( 50.0%)  1.00( 50.0%) 
 MO   105 (   39) HAS LZ(WEIGHT)= 0.00(100.0%) 
 MO   106 (   40) HAS LZ(WEIGHT)= 0.00(100.0%) 
 MO   107 (   41) HAS LZ(WEIGHT)= 0.00(100.0%) 
 MO   108 (   42) HAS LZ(WEIGHT)= 0.00(100.0%) 
 MO   109 (   43) HAS LZ(WEIGHT)= 0.00(100.0%) 
 MO   110 (   44) HAS LZ(WEIGHT)= 0.00(100.0%) 

          ------------
          EIGENVECTORS
          ------------

                      1          2          3          4          5
                 -438.9501   -57.7704   -50.4752   -50.4752   -50.4752
                     AG         AG         B3U        B1U        B2U 
    1  AS 1  S    0.000041  -0.000013  -0.000000  -0.000000  -0.000000
    2  AS 1  S    0.000158  -0.000050  -0.000000  -0.000000  -0.000000
    3  AS 1  S    0.000484  -0.000155  -0.000000  -0.000000  -0.000000
    4  AS 1  S    0.001317  -0.000422  -0.000000  -0.000000  -0.000000
    5  AS 1  S    0.003381  -0.001089  -0.000000  -0.000000  -0.000000
    6  AS 1  S    0.008603  -0.002786  -0.000000  -0.000000  -0.000000
    7  AS 1  S    0.021893  -0.007193  -0.000000  -0.000000  -0.000000
    8  AS 1  S    0.055368  -0.018601  -0.000000  -0.000000  -0.000000
    9  AS 1  S    0.130836  -0.046517  -0.000000  -0.000000  -0.000000
   10  AS 1  S    0.260720  -0.103389  -0.000000  -0.000000  -0.000000
   11  AS 1  S    0.367337  -0.186200  -0.000000  -0.000000  -0.000000
   12  AS 1  S    0.266534  -0.184411  -0.000000  -0.000000  -0.000000
   13  AS 1  S    0.051562   0.158381  -0.000000  -0.000000  -0.000000
   14  AS 1  S   -0.006211   0.592533  -0.000000  -0.000000  -0.000000
   15  AS 1  S    0.003254   0.381842  -0.000000  -0.000000  -0.000000
   16  AS 1  S   -0.001629   0.043004  -0.000000  -0.000000  -0.000000
   17  AS 1  S    0.000936  -0.003147  -0.000000  -0.000000  -0.000000
   18  AS 1  S   -0.000390   0.001646  -0.000000  -0.000000  -0.000000
   19  AS 1  S    0.000098  -0.000273  -0.000000  -0.000000  -0.000000
   20  AS 1  S   -0.000032   0.000128  -0.000000  -0.000000  -0.000000
   21  AS 1  X   -0.000000  -0.000000   0.000112  -0.000000  -0.000000
   22  AS 1  Y   -0.000000  -0.000000  -0.000000  -0.000000   0.000112
   23  AS 1  Z   -0.000000  -0.000000  -0.000000   0.000112  -0.000000
   24  AS 1  X   -0.000000  -0.000000   0.000649  -0.000000  -0.000000
   25  AS 1  Y   -0.000000  -0.000000  -0.000000  -0.000000   0.000649
   26  AS 1  Z   -0.000000  -0.000000  -0.000000   0.000649  -0.000000
   27  AS 1  X   -0.000000  -0.000000   0.003288  -0.000000  -0.000000
   28  AS 1  Y   -0.000000  -0.000000  -0.000000  -0.000000   0.003288
   29  AS 1  Z   -0.000000  -0.000000  -0.000000   0.003288  -0.000000
   30  AS 1  X   -0.000000  -0.000000   0.014399  -0.000000  -0.000000
   31  AS 1  Y   -0.000000  -0.000000  -0.000000  -0.000000   0.014399
   32  AS 1  Z   -0.000000  -0.000000  -0.000000   0.014399  -0.000000
   33  AS 1  X   -0.000000  -0.000000   0.052041  -0.000000  -0.000000
   34  AS 1  Y   -0.000000  -0.000000  -0.000000  -0.000000   0.052041
   35  AS 1  Z   -0.000000  -0.000000  -0.000000   0.052041  -0.000000
   36  AS 1  X   -0.000000  -0.000000   0.147779  -0.000000  -0.000000
   37  AS 1  Y   -0.000000  -0.000000  -0.000000  -0.000000   0.147779
   38  AS 1  Z   -0.000000  -0.000000  -0.000000   0.147779  -0.000000
   39  AS 1  X   -0.000000  -0.000000   0.301259  -0.000000  -0.000000
   40  AS 1  Y   -0.000000  -0.000000  -0.000000  -0.000000   0.301259
   41  AS 1  Z   -0.000000  -0.000000  -0.000000   0.301259  -0.000000
   42  AS 1  X   -0.000000  -0.000000   0.385571  -0.000000  -0.000000
   43  AS 1  Y   -0.000000  -0.000000  -0.000000  -0.000000   0.385571
   44  AS 1  Z   -0.000000  -0.000000  -0.000000   0.385571  -0.000000
   45  AS 1  X   -0.000000  -0.000000   0.237765  -0.000000  -0.000000
   46  AS 1  Y   -0.000000  -0.000000  -0.000000  -0.000000   0.237765
   47  AS 1  Z   -0.000000  -0.000000  -0.000000   0.237765  -0.000000
   48  AS 1  X   -0.000000  -0.000000   0.047604  -0.000000  -0.000000
   49  AS 1  Y   -0.000000  -0.000000  -0.000000  -0.000000   0.047604
   50  AS 1  Z   -0.000000  -0.000000  -0.000000   0.047604  -0.000000
   51  AS 1  X   -0.000000  -0.000000   0.001707  -0.000000  -0.000000
   52  AS 1  Y   -0.000000  -0.000000  -0.000000  -0.000000   0.001707
   53  AS 1  Z   -0.000000  -0.000000  -0.000000   0.001707  -0.000000
   54  AS 1  X   -0.000000  -0.000000   0.000805  -0.000000  -0.000000
   55  AS 1  Y   -0.000000  -0.000000  -0.000000  -0.000000   0.000805
   56  AS 1  Z   -0.000000  -0.000000  -0.000000   0.000805  -0.000000
   57  AS 1  X   -0.000000  -0.000000  -0.000106  -0.000000  -0.000000
   58  AS 1  Y   -0.000000  -0.000000  -0.000000  -0.000000  -0.000106
   59  AS 1  Z   -0.000000  -0.000000  -0.000000  -0.000106  -0.000000
   60  AS 1  X   -0.000000  -0.000000   0.000057  -0.000000  -0.000000
   61  AS 1  Y   -0.000000  -0.000000  -0.000000  -0.000000   0.000057
   62  AS 1  Z   -0.000000  -0.000000  -0.000000   0.000057  -0.000000
   63  AS 1  X   -0.000000  -0.000000  -0.000019  -0.000000  -0.000000
   64  AS 1  Y   -0.000000  -0.000000  -0.000000  -0.000000  -0.000019
   65  AS 1  Z   -0.000000  -0.000000  -0.000000  -0.000019  -0.000000
   66  AS 1 XX   -0.000000  -0.000000  -0.000000  -0.000000  -0.000000
   67  AS 1 YY   -0.000000  -0.000000  -0.000000  -0.000000  -0.000000
   68  AS 1 ZZ   -0.000000  -0.000000  -0.000000  -0.000000  -0.000000
   69  AS 1 XY   -0.000000  -0.000000  -0.000000  -0.000000  -0.000000
   70  AS 1 XZ   -0.000000  -0.000000  -0.000000  -0.000000  -0.000000
   71  AS 1 YZ   -0.000000  -0.000000  -0.000000  -0.000000  -0.000000
   72  AS 1 XX   -0.000000  -0.000000  -0.000000  -0.000000  -0.000000
   73  AS 1 YY   -0.000000  -0.000000  -0.000000  -0.000000  -0.000000
   74  AS 1 ZZ   -0.000000  -0.000000  -0.000000  -0.000000  -0.000000
   75  AS 1 XY   -0.000000  -0.000000  -0.000000  -0.000000  -0.000000
   76  AS 1 XZ   -0.000000  -0.000000  -0.000000  -0.000000  -0.000000
   77  AS 1 YZ   -0.000000  -0.000000  -0.000000  -0.000000  -0.000000
   78  AS 1 XX   -0.000000  -0.000000  -0.000000  -0.000000  -0.000000
   79  AS 1 YY   -0.000000  -0.000000  -0.000000  -0.000000  -0.000000
   80  AS 1 ZZ   -0.000000  -0.000000  -0.000000  -0.000000  -0.000000
   81  AS 1 XY   -0.000000  -0.000000  -0.000000  -0.000000  -0.000000
   82  AS 1 XZ   -0.000000  -0.000000  -0.000000  -0.000000  -0.000000
   83  AS 1 YZ   -0.000000  -0.000000  -0.000000  -0.000000  -0.000000
   84  AS 1 XX   -0.000000  -0.000000  -0.000000  -0.000000  -0.000000
   85  AS 1 YY   -0.000000   0.000000  -0.000000  -0.000000  -0.000000
   86  AS 1 ZZ   -0.000000  -0.000000  -0.000000  -0.000000  -0.000000
   87  AS 1 XY   -0.000000  -0.000000  -0.000000  -0.000000  -0.000000
   88  AS 1 XZ   -0.000000  -0.000000  -0.000000  -0.000000  -0.000000
   89  AS 1 YZ   -0.000000  -0.000000  -0.000000  -0.000000  -0.000000
   90  AS 1 XX   -0.000000  -0.000000  -0.000000  -0.000000  -0.000000
   91  AS 1 YY   -0.000000  -0.000000  -0.000000  -0.000000  -0.000000
   92  AS 1 ZZ   -0.000000  -0.000000  -0.000000  -0.000000  -0.000000
   93  AS 1 XY   -0.000000  -0.000000  -0.000000  -0.000000  -0.000000
   94  AS 1 XZ   -0.000000  -0.000000  -0.000000  -0.000000  -0.000000
   95  AS 1 YZ   -0.000000  -0.000000  -0.000000  -0.000000  -0.000000
   96  AS 1 XX   -0.000000  -0.000000  -0.000000  -0.000000  -0.000000
   97  AS 1 YY   -0.000000  -0.000000  -0.000000  -0.000000  -0.000000
   98  AS 1 ZZ   -0.000000  -0.000000  -0.000000  -0.000000  -0.000000
   99  AS 1 XY   -0.000000  -0.000000  -0.000000  -0.000000  -0.000000
  100  AS 1 XZ   -0.000000  -0.000000  -0.000000  -0.000000  -0.000000
  101  AS 1 YZ   -0.000000  -0.000000  -0.000000  -0.000000  -0.000000
  102  AS 1 XX   -0.000000  -0.000000  -0.000000  -0.000000  -0.000000
  103  AS 1 YY   -0.000000  -0.000000  -0.000000  -0.000000  -0.000000
  104  AS 1 ZZ   -0.000000  -0.000000  -0.000000  -0.000000  -0.000000
  105  AS 1 XY   -0.000000  -0.000000  -0.000000  -0.000000  -0.000000
  106  AS 1 XZ   -0.000000  -0.000000  -0.000000  -0.000000  -0.000000
  107  AS 1 YZ   -0.000000  -0.000000  -0.000000  -0.000000  -0.000000
  108  AS 1 XX   -0.000000  -0.000000  -0.000000  -0.000000  -0.000000
  109  AS 1 YY   -0.000000   0.000000  -0.000000  -0.000000  -0.000000
  110  AS 1 ZZ   -0.000000  -0.000000  -0.000000  -0.000000  -0.000000
  111  AS 1 XY   -0.000000  -0.000000  -0.000000  -0.000000  -0.000000
  112  AS 1 XZ   -0.000000  -0.000000  -0.000000  -0.000000  -0.000000
  113  AS 1 YZ   -0.000000  -0.000000  -0.000000  -0.000000  -0.000000
  114  AS 1 XX   -0.000000  -0.000000  -0.000000  -0.000000  -0.000000
  115  AS 1 YY    0.000000  -0.000000  -0.000000  -0.000000  -0.000000
  116  AS 1 ZZ   -0.000000  -0.000000  -0.000000  -0.000000  -0.000000
  117  AS 1 XY   -0.000000  -0.000000  -0.000000  -0.000000  -0.000000
  118  AS 1 XZ   -0.000000  -0.000000  -0.000000  -0.000000  -0.000000
  119  AS 1 YZ   -0.000000  -0.000000  -0.000000  -0.000000  -0.000000

                      6          7          8          9         10
                   -8.2559    -5.9091    -5.9091    -5.9091    -2.0501
                     AG         B3U        B1U        B2U        B3G 
    1  AS 1  S    0.000005   0.000000   0.000000   0.000000  -0.000000
    2  AS 1  S    0.000020   0.000000   0.000000   0.000000  -0.000000
    3  AS 1  S    0.000061   0.000000   0.000000   0.000000  -0.000000
    4  AS 1  S    0.000165   0.000000   0.000000   0.000000  -0.000000
    5  AS 1  S    0.000427   0.000000   0.000000   0.000000  -0.000000
    6  AS 1  S    0.001089   0.000000   0.000000   0.000000  -0.000000
    7  AS 1  S    0.002825   0.000000   0.000000   0.000000  -0.000000
    8  AS 1  S    0.007299   0.000000   0.000000   0.000000  -0.000000
    9  AS 1  S    0.018477   0.000000   0.000000   0.000000  -0.000000
   10  AS 1  S    0.041414   0.000000   0.000000   0.000000  -0.000000
   11  AS 1  S    0.077806   0.000000   0.000000   0.000000  -0.000000
   12  AS 1  S    0.080252   0.000000   0.000000   0.000000  -0.000000
   13  AS 1  S   -0.081018   0.000000   0.000000   0.000000  -0.000000
   14  AS 1  S   -0.431316   0.000000   0.000000   0.000000  -0.000000
   15  AS 1  S   -0.357823   0.000000   0.000000   0.000000  -0.000000
   16  AS 1  S    0.453049   0.000000   0.000000   0.000000  -0.000000
   17  AS 1  S    0.680034   0.000000   0.000000   0.000000  -0.000000
   18  AS 1  S    0.181261   0.000000   0.000000   0.000000  -0.000000
   19  AS 1  S    0.003997   0.000000   0.000000   0.000000  -0.000000
   20  AS 1  S   -0.001061   0.000000   0.000000   0.000000  -0.000000
   21  AS 1  X   -0.000000  -0.000044   0.000000   0.000000  -0.000000
   22  AS 1  Y   -0.000000   0.000000   0.000000  -0.000044  -0.000000
   23  AS 1  Z   -0.000000   0.000000  -0.000044   0.000000  -0.000000
   24  AS 1  X   -0.000000  -0.000255   0.000000   0.000000  -0.000000
   25  AS 1  Y   -0.000000   0.000000   0.000000  -0.000255  -0.000000
   26  AS 1  Z   -0.000000   0.000000  -0.000255   0.000000  -0.000000
   27  AS 1  X   -0.000000  -0.001295   0.000000   0.000000  -0.000000
   28  AS 1  Y   -0.000000   0.000000   0.000000  -0.001295  -0.000000
   29  AS 1  Z   -0.000000   0.000000  -0.001295   0.000000  -0.000000
   30  AS 1  X   -0.000000  -0.005733   0.000000   0.000000  -0.000000
   31  AS 1  Y   -0.000000   0.000000   0.000000  -0.005733  -0.000000
   32  AS 1  Z   -0.000000   0.000000  -0.005733   0.000000  -0.000000
   33  AS 1  X   -0.000000  -0.021048   0.000000   0.000000  -0.000000
   34  AS 1  Y   -0.000000   0.000000   0.000000  -0.021048  -0.000000
   35  AS 1  Z   -0.000000   0.000000  -0.021048   0.000000  -0.000000
   36  AS 1  X   -0.000000  -0.062116   0.000000   0.000000  -0.000000
   37  AS 1  Y   -0.000000   0.000000   0.000000  -0.062116  -0.000000
   38  AS 1  Z   -0.000000   0.000000  -0.062116   0.000000  -0.000000
   39  AS 1  X   -0.000000  -0.132638   0.000000   0.000000  -0.000000
   40  AS 1  Y   -0.000000   0.000000   0.000000  -0.132638  -0.000000
   41  AS 1  Z   -0.000000   0.000000  -0.132638   0.000000  -0.000000
   42  AS 1  X   -0.000000  -0.180775   0.000000   0.000000  -0.000000
   43  AS 1  Y   -0.000000   0.000000   0.000000  -0.180775  -0.000000
   44  AS 1  Z   -0.000000   0.000000  -0.180775   0.000000  -0.000000
   45  AS 1  X   -0.000000  -0.042861   0.000000   0.000000  -0.000000
   46  AS 1  Y   -0.000000   0.000000   0.000000  -0.042861  -0.000000
   47  AS 1  Z   -0.000000   0.000000  -0.042861   0.000000  -0.000000
   48  AS 1  X   -0.000000   0.315942   0.000000   0.000000  -0.000000
   49  AS 1  Y   -0.000000   0.000000   0.000000   0.315942  -0.000000
   50  AS 1  Z   -0.000000   0.000000   0.315942   0.000000  -0.000000
   51  AS 1  X   -0.000000   0.517071   0.000000   0.000000  -0.000000
   52  AS 1  Y   -0.000000   0.000000   0.000000   0.517071  -0.000000
   53  AS 1  Z   -0.000000   0.000000   0.517071   0.000000  -0.000000
   54  AS 1  X   -0.000000   0.285849   0.000000   0.000000  -0.000000
   55  AS 1  Y   -0.000000   0.000000   0.000000   0.285849  -0.000000
   56  AS 1  Z   -0.000000   0.000000   0.285849   0.000000  -0.000000
   57  AS 1  X   -0.000000   0.026249   0.000000   0.000000  -0.000000
   58  AS 1  Y   -0.000000   0.000000   0.000000   0.026249  -0.000000
   59  AS 1  Z   -0.000000   0.000000   0.026249   0.000000  -0.000000
   60  AS 1  X   -0.000000  -0.003225   0.000000   0.000000  -0.000000
   61  AS 1  Y   -0.000000   0.000000   0.000000  -0.003225  -0.000000
   62  AS 1  Z   -0.000000   0.000000  -0.003225   0.000000  -0.000000
   63  AS 1  X   -0.000000   0.000905   0.000000   0.000000  -0.000000
   64  AS 1  Y   -0.000000   0.000000   0.000000   0.000905  -0.000000
   65  AS 1  Z   -0.000000   0.000000   0.000905   0.000000  -0.000000
   66  AS 1 XX   -0.000000   0.000000   0.000000   0.000000  -0.000000
   67  AS 1 YY   -0.000000   0.000000   0.000000   0.000000  -0.000000
   68  AS 1 ZZ   -0.000000   0.000000   0.000000   0.000000  -0.000000
   69  AS 1 XY   -0.000000   0.000000   0.000000   0.000000  -0.000000
   70  AS 1 XZ   -0.000000   0.000000   0.000000   0.000000  -0.000000
   71  AS 1 YZ   -0.000000   0.000000   0.000000   0.000000   0.000360
   72  AS 1 XX   -0.000000   0.000000   0.000000   0.000000  -0.000000
   73  AS 1 YY   -0.000000   0.000000   0.000000   0.000000  -0.000000
   74  AS 1 ZZ   -0.000000   0.000000   0.000000   0.000000  -0.000000
   75  AS 1 XY   -0.000000   0.000000   0.000000   0.000000  -0.000000
   76  AS 1 XZ   -0.000000   0.000000   0.000000   0.000000  -0.000000
   77  AS 1 YZ   -0.000000   0.000000   0.000000   0.000000   0.003267
   78  AS 1 XX   -0.000000   0.000000   0.000000   0.000000  -0.000000
   79  AS 1 YY   -0.000000   0.000000   0.000000   0.000000  -0.000000
   80  AS 1 ZZ   -0.000000   0.000000   0.000000   0.000000  -0.000000
   81  AS 1 XY   -0.000000   0.000000   0.000000   0.000000  -0.000000
   82  AS 1 XZ   -0.000000   0.000000   0.000000   0.000000  -0.000000
   83  AS 1 YZ   -0.000000   0.000000   0.000000   0.000000   0.017152
   84  AS 1 XX   -0.000000   0.000000   0.000000   0.000000  -0.000000
   85  AS 1 YY   -0.000000   0.000000   0.000000   0.000000  -0.000000
   86  AS 1 ZZ   -0.000000   0.000000   0.000000   0.000000  -0.000000
   87  AS 1 XY   -0.000000   0.000000   0.000000   0.000000  -0.000000
   88  AS 1 XZ   -0.000000   0.000000   0.000000   0.000000  -0.000000
   89  AS 1 YZ   -0.000000   0.000000   0.000000   0.000000   0.061065
   90  AS 1 XX   -0.000000   0.000000   0.000000   0.000000  -0.000000
   91  AS 1 YY   -0.000000   0.000000   0.000000   0.000000  -0.000000
   92  AS 1 ZZ   -0.000000   0.000000   0.000000   0.000000  -0.000000
   93  AS 1 XY   -0.000000   0.000000   0.000000   0.000000  -0.000000
   94  AS 1 XZ   -0.000000   0.000000   0.000000   0.000000  -0.000000
   95  AS 1 YZ   -0.000000   0.000000   0.000000   0.000000   0.163790
   96  AS 1 XX   -0.000000   0.000000   0.000000   0.000000  -0.000000
   97  AS 1 YY   -0.000000   0.000000   0.000000   0.000000  -0.000000
   98  AS 1 ZZ   -0.000000   0.000000   0.000000   0.000000  -0.000000
   99  AS 1 XY   -0.000000   0.000000   0.000000   0.000000  -0.000000
  100  AS 1 XZ   -0.000000   0.000000   0.000000   0.000000  -0.000000
  101  AS 1 YZ   -0.000000   0.000000   0.000000   0.000000   0.299309
  102  AS 1 XX   -0.000000   0.000000   0.000000   0.000000  -0.000000
  103  AS 1 YY   -0.000000   0.000000   0.000000   0.000000  -0.000000
  104  AS 1 ZZ   -0.000000   0.000000   0.000000   0.000000  -0.000000
  105  AS 1 XY   -0.000000   0.000000   0.000000   0.000000  -0.000000
  106  AS 1 XZ   -0.000000   0.000000   0.000000   0.000000  -0.000000
  107  AS 1 YZ   -0.000000   0.000000   0.000000   0.000000   0.373458
  108  AS 1 XX   -0.000000   0.000000   0.000000   0.000000  -0.000000
  109  AS 1 YY   -0.000000   0.000000   0.000000   0.000000  -0.000000
  110  AS 1 ZZ   -0.000000   0.000000   0.000000   0.000000  -0.000000
  111  AS 1 XY   -0.000000   0.000000   0.000000   0.000000  -0.000000
  112  AS 1 XZ   -0.000000   0.000000   0.000000   0.000000  -0.000000
  113  AS 1 YZ   -0.000000   0.000000   0.000000   0.000000   0.297916
  114  AS 1 XX   -0.000000   0.000000   0.000000   0.000000  -0.000000
  115  AS 1 YY   -0.000000   0.000000   0.000000   0.000000  -0.000000
  116  AS 1 ZZ   -0.000000   0.000000   0.000000   0.000000  -0.000000
  117  AS 1 XY   -0.000000   0.000000   0.000000   0.000000  -0.000000
  118  AS 1 XZ   -0.000000   0.000000   0.000000   0.000000  -0.000000
  119  AS 1 YZ   -0.000000   0.000000   0.000000   0.000000   0.098710

                     11         12         13         14         15
                   -2.0501    -2.0501    -2.0501    -2.0501    -0.4438
                     B2G        B1G        AG         AG         AG  
    1  AS 1  S   -0.000000  -0.000000   0.000000  -0.000000  -0.000001
    2  AS 1  S   -0.000000  -0.000000   0.000000  -0.000000  -0.000005
    3  AS 1  S   -0.000000  -0.000000   0.000000  -0.000000  -0.000017
    4  AS 1  S   -0.000000  -0.000000   0.000000  -0.000000  -0.000045
    5  AS 1  S   -0.000000  -0.000000   0.000000  -0.000000  -0.000118
    6  AS 1  S   -0.000000  -0.000000   0.000000  -0.000000  -0.000299
    7  AS 1  S   -0.000000  -0.000000   0.000000  -0.000000  -0.000781
    8  AS 1  S   -0.000000  -0.000000   0.000000  -0.000000  -0.002004
    9  AS 1  S   -0.000000  -0.000000   0.000000  -0.000000  -0.005124
   10  AS 1  S   -0.000000  -0.000000   0.000000  -0.000000  -0.011378
   11  AS 1  S   -0.000000  -0.000000   0.000000  -0.000000  -0.021817
   12  AS 1  S   -0.000000  -0.000000  -0.000000  -0.000000  -0.022017
   13  AS 1  S   -0.000000  -0.000000   0.000000   0.000000   0.021852
   14  AS 1  S   -0.000000  -0.000000  -0.000000  -0.000000   0.133813
   15  AS 1  S   -0.000000  -0.000000  -0.000000   0.000000   0.105679
   16  AS 1  S   -0.000000  -0.000000   0.000000  -0.000000  -0.155530
   17  AS 1  S   -0.000000  -0.000000  -0.000000   0.000000  -0.400224
   18  AS 1  S   -0.000000  -0.000000   0.000000  -0.000000  -0.132621
   19  AS 1  S   -0.000000  -0.000000   0.000000   0.000000   0.717049
   20  AS 1  S   -0.000000  -0.000000  -0.000000   0.000000   0.494922
   21  AS 1  X   -0.000000  -0.000000   0.000000  -0.000000  -0.000000
   22  AS 1  Y   -0.000000  -0.000000   0.000000  -0.000000  -0.000000
   23  AS 1  Z   -0.000000  -0.000000   0.000000  -0.000000  -0.000000
   24  AS 1  X   -0.000000  -0.000000   0.000000  -0.000000  -0.000000
   25  AS 1  Y   -0.000000  -0.000000   0.000000  -0.000000  -0.000000
   26  AS 1  Z   -0.000000  -0.000000   0.000000  -0.000000  -0.000000
   27  AS 1  X   -0.000000  -0.000000   0.000000  -0.000000  -0.000000
   28  AS 1  Y   -0.000000  -0.000000   0.000000  -0.000000  -0.000000
   29  AS 1  Z   -0.000000  -0.000000   0.000000  -0.000000  -0.000000
   30  AS 1  X   -0.000000  -0.000000   0.000000  -0.000000  -0.000000
   31  AS 1  Y   -0.000000  -0.000000   0.000000  -0.000000  -0.000000
   32  AS 1  Z   -0.000000  -0.000000   0.000000  -0.000000  -0.000000
   33  AS 1  X   -0.000000  -0.000000   0.000000  -0.000000  -0.000000
   34  AS 1  Y   -0.000000  -0.000000   0.000000  -0.000000  -0.000000
   35  AS 1  Z   -0.000000  -0.000000   0.000000  -0.000000  -0.000000
   36  AS 1  X   -0.000000  -0.000000   0.000000  -0.000000  -0.000000
   37  AS 1  Y   -0.000000  -0.000000   0.000000  -0.000000  -0.000000
   38  AS 1  Z   -0.000000  -0.000000   0.000000  -0.000000  -0.000000
   39  AS 1  X   -0.000000  -0.000000   0.000000  -0.000000  -0.000000
   40  AS 1  Y   -0.000000  -0.000000   0.000000  -0.000000  -0.000000
   41  AS 1  Z   -0.000000  -0.000000   0.000000  -0.000000  -0.000000
   42  AS 1  X   -0.000000  -0.000000   0.000000  -0.000000  -0.000000
   43  AS 1  Y   -0.000000  -0.000000   0.000000  -0.000000  -0.000000
   44  AS 1  Z   -0.000000  -0.000000   0.000000  -0.000000  -0.000000
   45  AS 1  X   -0.000000  -0.000000   0.000000  -0.000000  -0.000000
   46  AS 1  Y   -0.000000  -0.000000   0.000000  -0.000000  -0.000000
   47  AS 1  Z   -0.000000  -0.000000   0.000000  -0.000000  -0.000000
   48  AS 1  X   -0.000000  -0.000000   0.000000  -0.000000  -0.000000
   49  AS 1  Y   -0.000000  -0.000000   0.000000  -0.000000  -0.000000
   50  AS 1  Z   -0.000000  -0.000000   0.000000  -0.000000  -0.000000
   51  AS 1  X   -0.000000  -0.000000   0.000000  -0.000000  -0.000000
   52  AS 1  Y   -0.000000  -0.000000   0.000000  -0.000000  -0.000000
   53  AS 1  Z   -0.000000  -0.000000   0.000000  -0.000000  -0.000000
   54  AS 1  X   -0.000000  -0.000000   0.000000  -0.000000  -0.000000
   55  AS 1  Y   -0.000000  -0.000000   0.000000  -0.000000  -0.000000
   56  AS 1  Z   -0.000000  -0.000000   0.000000  -0.000000  -0.000000
   57  AS 1  X   -0.000000  -0.000000   0.000000  -0.000000  -0.000000
   58  AS 1  Y   -0.000000  -0.000000   0.000000  -0.000000  -0.000000
   59  AS 1  Z   -0.000000  -0.000000   0.000000  -0.000000  -0.000000
   60  AS 1  X   -0.000000  -0.000000   0.000000  -0.000000  -0.000000
   61  AS 1  Y   -0.000000  -0.000000   0.000000  -0.000000  -0.000000
   62  AS 1  Z   -0.000000  -0.000000   0.000000  -0.000000  -0.000000
   63  AS 1  X   -0.000000  -0.000000   0.000000  -0.000000  -0.000000
   64  AS 1  Y   -0.000000  -0.000000   0.000000  -0.000000  -0.000000
   65  AS 1  Z   -0.000000  -0.000000   0.000000  -0.000000  -0.000000
   66  AS 1 XX   -0.000000  -0.000000  -0.000291  -0.000212  -0.000000
   67  AS 1 YY   -0.000000  -0.000000  -0.000038   0.000358  -0.000000
   68  AS 1 ZZ   -0.000000  -0.000000   0.000329  -0.000146  -0.000000
   69  AS 1 XY   -0.000000   0.000360   0.000000  -0.000000  -0.000000
   70  AS 1 XZ    0.000360  -0.000000   0.000000  -0.000000  -0.000000
   71  AS 1 YZ   -0.000000  -0.000000   0.000000  -0.000000  -0.000000
   72  AS 1 XX   -0.000000  -0.000000  -0.002641  -0.001923  -0.000000
   73  AS 1 YY   -0.000000  -0.000000  -0.000345   0.003249  -0.000000
   74  AS 1 ZZ   -0.000000  -0.000000   0.002986  -0.001325  -0.000000
   75  AS 1 XY   -0.000000   0.003267   0.000000  -0.000000  -0.000000
   76  AS 1 XZ    0.003267  -0.000000   0.000000  -0.000000  -0.000000
   77  AS 1 YZ   -0.000000  -0.000000   0.000000  -0.000000  -0.000000
   78  AS 1 XX   -0.000000  -0.000000  -0.013865  -0.010098  -0.000000
   79  AS 1 YY   -0.000000  -0.000000  -0.001812   0.017056  -0.000000
   80  AS 1 ZZ   -0.000000  -0.000000   0.015677  -0.006959  -0.000000
   81  AS 1 XY   -0.000000   0.017152   0.000000  -0.000000  -0.000000
   82  AS 1 XZ    0.017152  -0.000000   0.000000  -0.000000  -0.000000
   83  AS 1 YZ   -0.000000  -0.000000   0.000000  -0.000000  -0.000000
   84  AS 1 XX   -0.000000  -0.000000  -0.049361  -0.035949  -0.000000
   85  AS 1 YY   -0.000000  -0.000000  -0.006452   0.060723  -0.000000
   86  AS 1 ZZ   -0.000000  -0.000000   0.055814  -0.024773   0.000000
   87  AS 1 XY   -0.000000   0.061065   0.000000  -0.000000  -0.000000
   88  AS 1 XZ    0.061065  -0.000000   0.000000  -0.000000  -0.000000
   89  AS 1 YZ   -0.000000  -0.000000   0.000000  -0.000000  -0.000000
   90  AS 1 XX   -0.000000  -0.000000  -0.132399  -0.096425  -0.000000
   91  AS 1 YY   -0.000000  -0.000000  -0.017307   0.162873  -0.000000
   92  AS 1 ZZ   -0.000000  -0.000000   0.149706  -0.066449  -0.000000
   93  AS 1 XY   -0.000000   0.163790   0.000000  -0.000000  -0.000000
   94  AS 1 XZ    0.163790  -0.000000   0.000000  -0.000000  -0.000000
   95  AS 1 YZ   -0.000000  -0.000000   0.000000  -0.000000  -0.000000
   96  AS 1 XX   -0.000000  -0.000000  -0.241945  -0.176206  -0.000000
   97  AS 1 YY   -0.000000  -0.000000  -0.031626   0.297633  -0.000000
   98  AS 1 ZZ   -0.000000  -0.000000   0.273571  -0.121428   0.000000
   99  AS 1 XY   -0.000000   0.299309   0.000000  -0.000000  -0.000000
  100  AS 1 XZ    0.299309  -0.000000   0.000000  -0.000000  -0.000000
  101  AS 1 YZ   -0.000000  -0.000000   0.000000  -0.000000  -0.000000
  102  AS 1 XX   -0.000000  -0.000000  -0.301883  -0.219858  -0.000000
  103  AS 1 YY   -0.000000  -0.000000  -0.039461   0.371367  -0.000000
  104  AS 1 ZZ   -0.000000  -0.000000   0.341344  -0.151509   0.000000
  105  AS 1 XY   -0.000000   0.373458   0.000000  -0.000000  -0.000000
  106  AS 1 XZ    0.373458  -0.000000   0.000000  -0.000000  -0.000000
  107  AS 1 YZ   -0.000000  -0.000000   0.000000  -0.000000  -0.000000
  108  AS 1 XX   -0.000000  -0.000000  -0.240819  -0.175386  -0.000000
  109  AS 1 YY   -0.000000  -0.000000  -0.031479   0.296248  -0.000000
  110  AS 1 ZZ   -0.000000  -0.000000   0.272298  -0.120863   0.000000
  111  AS 1 XY   -0.000000   0.297916   0.000000  -0.000000  -0.000000
  112  AS 1 XZ    0.297916  -0.000000   0.000000  -0.000000  -0.000000
  113  AS 1 YZ   -0.000000  -0.000000   0.000000  -0.000000  -0.000000
  114  AS 1 XX   -0.000000  -0.000000  -0.079792  -0.058112  -0.000000
  115  AS 1 YY   -0.000000  -0.000000  -0.010430   0.098158  -0.000000
  116  AS 1 ZZ   -0.000000  -0.000000   0.090222  -0.040046   0.000000
  117  AS 1 XY   -0.000000   0.098710   0.000000  -0.000000  -0.000000
  118  AS 1 XZ    0.098710  -0.000000   0.000000  -0.000000  -0.000000
  119  AS 1 YZ   -0.000000  -0.000000   0.000000  -0.000000  -0.000000

                     16         17         18         19         20
                   -0.1496    -0.1496    -0.1496     0.2334     0.2334
                     B1U        B2U        B3U        B2U        B1U 
    1  AS 1  S   -0.000000  -0.000000  -0.000000  -0.000000  -0.000000
    2  AS 1  S   -0.000000  -0.000000  -0.000000  -0.000000  -0.000000
    3  AS 1  S   -0.000000  -0.000000  -0.000000  -0.000000  -0.000000
    4  AS 1  S   -0.000000  -0.000000  -0.000000  -0.000000  -0.000000
    5  AS 1  S   -0.000000  -0.000000  -0.000000  -0.000000  -0.000000
    6  AS 1  S   -0.000000  -0.000000  -0.000000  -0.000000  -0.000000
    7  AS 1  S   -0.000000  -0.000000  -0.000000  -0.000000  -0.000000
    8  AS 1  S   -0.000000  -0.000000  -0.000000  -0.000000  -0.000000
    9  AS 1  S   -0.000000  -0.000000  -0.000000  -0.000000  -0.000000
   10  AS 1  S   -0.000000  -0.000000  -0.000000  -0.000000  -0.000000
   11  AS 1  S   -0.000000  -0.000000  -0.000000  -0.000000  -0.000000
   12  AS 1  S   -0.000000  -0.000000  -0.000000  -0.000000  -0.000000
   13  AS 1  S   -0.000000  -0.000000  -0.000000  -0.000000  -0.000000
   14  AS 1  S   -0.000000  -0.000000  -0.000000  -0.000000  -0.000000
   15  AS 1  S   -0.000000  -0.000000  -0.000000  -0.000000  -0.000000
   16  AS 1  S   -0.000000  -0.000000  -0.000000  -0.000000  -0.000000
   17  AS 1  S   -0.000000  -0.000000  -0.000000  -0.000000  -0.000000
   18  AS 1  S   -0.000000  -0.000000  -0.000000  -0.000000  -0.000000
   19  AS 1  S   -0.000000  -0.000000  -0.000000  -0.000000  -0.000000
   20  AS 1  S   -0.000000  -0.000000  -0.000000  -0.000000  -0.000000
   21  AS 1  X   -0.000000  -0.000000   0.000010  -0.000000  -0.000000
   22  AS 1  Y   -0.000000   0.000010  -0.000000  -0.000006  -0.000000
   23  AS 1  Z    0.000010  -0.000000  -0.000000  -0.000000  -0.000006
   24  AS 1  X   -0.000000  -0.000000   0.000057  -0.000000  -0.000000
   25  AS 1  Y   -0.000000   0.000057  -0.000000  -0.000038  -0.000000
   26  AS 1  Z    0.000057  -0.000000  -0.000000  -0.000000  -0.000038
   27  AS 1  X   -0.000000  -0.000000   0.000287  -0.000000  -0.000000
   28  AS 1  Y   -0.000000   0.000287  -0.000000  -0.000174  -0.000000
   29  AS 1  Z    0.000287  -0.000000  -0.000000  -0.000000  -0.000174
   30  AS 1  X   -0.000000  -0.000000   0.001281  -0.000000  -0.000000
   31  AS 1  Y   -0.000000   0.001281  -0.000000  -0.000882  -0.000000
   32  AS 1  Z    0.001281  -0.000000  -0.000000  -0.000000  -0.000882
   33  AS 1  X   -0.000000  -0.000000   0.004679  -0.000000  -0.000000
   34  AS 1  Y   -0.000000   0.004679  -0.000000  -0.002782  -0.000000
   35  AS 1  Z    0.004679  -0.000000  -0.000000  -0.000000  -0.002782
   36  AS 1  X   -0.000000  -0.000000   0.013980  -0.000000  -0.000000
   37  AS 1  Y   -0.000000   0.013980  -0.000000  -0.009829  -0.000000
   38  AS 1  Z    0.013980  -0.000000  -0.000000  -0.000000  -0.009829
   39  AS 1  X   -0.000000  -0.000000   0.029712  -0.000000  -0.000000
   40  AS 1  Y   -0.000000   0.029712  -0.000000  -0.016687  -0.000000
   41  AS 1  Z    0.029712  -0.000000  -0.000000  -0.000000  -0.016687
   42  AS 1  X   -0.000000  -0.000000   0.041602  -0.000000  -0.000000
   43  AS 1  Y   -0.000000   0.041602  -0.000000  -0.033427  -0.000000
   44  AS 1  Z    0.041602  -0.000000  -0.000000  -0.000000  -0.033427
   45  AS 1  X   -0.000000  -0.000000   0.005738  -0.000000  -0.000000
   46  AS 1  Y   -0.000000   0.005738  -0.000000   0.011312  -0.000000
   47  AS 1  Z    0.005738  -0.000000  -0.000000  -0.000000   0.011312
   48  AS 1  X   -0.000000  -0.000000  -0.083824  -0.000000  -0.000000
   49  AS 1  Y   -0.000000  -0.083824  -0.000000   0.023842  -0.000000
   50  AS 1  Z   -0.083824  -0.000000  -0.000000  -0.000000   0.023842
   51  AS 1  X   -0.000000  -0.000000  -0.154898  -0.000000  -0.000000
   52  AS 1  Y   -0.000000  -0.154898  -0.000000   0.162659  -0.000000
   53  AS 1  Z   -0.154898  -0.000000  -0.000000  -0.000000   0.162659
   54  AS 1  X   -0.000000  -0.000000  -0.077907  -0.000000  -0.000000
   55  AS 1  Y   -0.000000  -0.077907  -0.000000  -0.055941  -0.000000
   56  AS 1  Z   -0.077907  -0.000000  -0.000000  -0.000000  -0.055941
   57  AS 1  X   -0.000000  -0.000000   0.292449  -0.000000  -0.000000
   58  AS 1  Y   -0.000000   0.292449  -0.000000   0.067726  -0.000000
   59  AS 1  Z    0.292449  -0.000000  -0.000000  -0.000000   0.067726
   60  AS 1  X   -0.000000  -0.000000   0.566861  -0.000000  -0.000000
   61  AS 1  Y   -0.000000   0.566861  -0.000000  -1.321789  -0.000000
   62  AS 1  Z    0.566861  -0.000000  -0.000000  -0.000000  -1.321789
   63  AS 1  X   -0.000000  -0.000000   0.296312  -0.000000  -0.000000
   64  AS 1  Y   -0.000000   0.296312  -0.000000   1.533407  -0.000000
   65  AS 1  Z    0.296312  -0.000000  -0.000000  -0.000000   1.533407
   66  AS 1 XX   -0.000000  -0.000000  -0.000000  -0.000000  -0.000000
   67  AS 1 YY   -0.000000  -0.000000  -0.000000  -0.000000  -0.000000
   68  AS 1 ZZ   -0.000000  -0.000000  -0.000000  -0.000000  -0.000000
   69  AS 1 XY   -0.000000  -0.000000  -0.000000  -0.000000  -0.000000
   70  AS 1 XZ   -0.000000  -0.000000  -0.000000  -0.000000  -0.000000
   71  AS 1 YZ   -0.000000  -0.000000  -0.000000  -0.000000  -0.000000
   72  AS 1 XX   -0.000000  -0.000000  -0.000000  -0.000000  -0.000000
   73  AS 1 YY   -0.000000  -0.000000  -0.000000  -0.000000  -0.000000
   74  AS 1 ZZ   -0.000000  -0.000000  -0.000000  -0.000000  -0.000000
   75  AS 1 XY   -0.000000  -0.000000  -0.000000  -0.000000  -0.000000
   76  AS 1 XZ   -0.000000  -0.000000  -0.000000  -0.000000  -0.000000
   77  AS 1 YZ   -0.000000  -0.000000  -0.000000  -0.000000  -0.000000
   78  AS 1 XX   -0.000000  -0.000000  -0.000000  -0.000000  -0.000000
   79  AS 1 YY   -0.000000  -0.000000  -0.000000  -0.000000  -0.000000
   80  AS 1 ZZ   -0.000000  -0.000000  -0.000000  -0.000000  -0.000000
   81  AS 1 XY   -0.000000  -0.000000  -0.000000  -0.000000  -0.000000
   82  AS 1 XZ   -0.000000  -0.000000  -0.000000  -0.000000  -0.000000
   83  AS 1 YZ   -0.000000  -0.000000  -0.000000  -0.000000  -0.000000
   84  AS 1 XX   -0.000000  -0.000000  -0.000000  -0.000000  -0.000000
   85  AS 1 YY   -0.000000  -0.000000  -0.000000  -0.000000  -0.000000
   86  AS 1 ZZ   -0.000000  -0.000000  -0.000000  -0.000000  -0.000000
   87  AS 1 XY   -0.000000  -0.000000  -0.000000  -0.000000  -0.000000
   88  AS 1 XZ   -0.000000  -0.000000  -0.000000  -0.000000  -0.000000
   89  AS 1 YZ   -0.000000  -0.000000  -0.000000  -0.000000  -0.000000
   90  AS 1 XX   -0.000000  -0.000000  -0.000000  -0.000000  -0.000000
   91  AS 1 YY   -0.000000  -0.000000  -0.000000  -0.000000  -0.000000
   92  AS 1 ZZ   -0.000000  -0.000000  -0.000000  -0.000000  -0.000000
   93  AS 1 XY   -0.000000  -0.000000  -0.000000  -0.000000  -0.000000
   94  AS 1 XZ   -0.000000  -0.000000  -0.000000  -0.000000  -0.000000
   95  AS 1 YZ   -0.000000  -0.000000  -0.000000  -0.000000  -0.000000
   96  AS 1 XX   -0.000000  -0.000000  -0.000000  -0.000000  -0.000000
   97  AS 1 YY   -0.000000  -0.000000  -0.000000  -0.000000  -0.000000
   98  AS 1 ZZ   -0.000000  -0.000000  -0.000000  -0.000000  -0.000000
   99  AS 1 XY   -0.000000  -0.000000  -0.000000  -0.000000  -0.000000
  100  AS 1 XZ   -0.000000  -0.000000  -0.000000  -0.000000  -0.000000
  101  AS 1 YZ   -0.000000  -0.000000  -0.000000  -0.000000  -0.000000
  102  AS 1 XX   -0.000000  -0.000000  -0.000000  -0.000000  -0.000000
  103  AS 1 YY   -0.000000  -0.000000  -0.000000  -0.000000  -0.000000
  104  AS 1 ZZ   -0.000000  -0.000000  -0.000000  -0.000000  -0.000000
  105  AS 1 XY   -0.000000  -0.000000  -0.000000  -0.000000  -0.000000
  106  AS 1 XZ   -0.000000  -0.000000  -0.000000  -0.000000  -0.000000
  107  AS 1 YZ   -0.000000  -0.000000  -0.000000  -0.000000  -0.000000
  108  AS 1 XX   -0.000000  -0.000000  -0.000000  -0.000000  -0.000000
  109  AS 1 YY   -0.000000  -0.000000  -0.000000  -0.000000  -0.000000
  110  AS 1 ZZ   -0.000000  -0.000000  -0.000000  -0.000000  -0.000000
  111  AS 1 XY   -0.000000  -0.000000  -0.000000  -0.000000  -0.000000
  112  AS 1 XZ   -0.000000  -0.000000  -0.000000  -0.000000  -0.000000
  113  AS 1 YZ   -0.000000  -0.000000  -0.000000  -0.000000  -0.000000
  114  AS 1 XX   -0.000000  -0.000000  -0.000000  -0.000000  -0.000000
  115  AS 1 YY   -0.000000  -0.000000  -0.000000  -0.000000  -0.000000
  116  AS 1 ZZ   -0.000000  -0.000000  -0.000000  -0.000000  -0.000000
  117  AS 1 XY   -0.000000  -0.000000  -0.000000  -0.000000  -0.000000
  118  AS 1 XZ   -0.000000  -0.000000  -0.000000  -0.000000  -0.000000
  119  AS 1 YZ   -0.000000  -0.000000  -0.000000  -0.000000  -0.000000

                     21         22         23         24         25
                    0.2334     0.3503     1.0110     1.0110     1.0110
                     B3U        AG         AG         AG         B3G 
    1  AS 1  S   -0.000000  -0.000001  -0.000000   0.000000   0.000000
    2  AS 1  S   -0.000000  -0.000004  -0.000000   0.000000   0.000000
    3  AS 1  S   -0.000000  -0.000013  -0.000000   0.000000   0.000000
    4  AS 1  S   -0.000000  -0.000036  -0.000000   0.000000   0.000000
    5  AS 1  S   -0.000000  -0.000090  -0.000000   0.000000   0.000000
    6  AS 1  S   -0.000000  -0.000246  -0.000000   0.000000   0.000000
    7  AS 1  S   -0.000000  -0.000583  -0.000000   0.000000   0.000000
    8  AS 1  S   -0.000000  -0.001696  -0.000000   0.000000   0.000000
    9  AS 1  S   -0.000000  -0.003698  -0.000000   0.000000   0.000000
   10  AS 1  S   -0.000000  -0.010011  -0.000000   0.000000   0.000000
   11  AS 1  S   -0.000000  -0.014518  -0.000000   0.000000   0.000000
   12  AS 1  S   -0.000000  -0.023992  -0.000000   0.000000   0.000000
   13  AS 1  S   -0.000000   0.037063   0.000000   0.000000   0.000000
   14  AS 1  S   -0.000000   0.057463  -0.000000   0.000000   0.000000
   15  AS 1  S   -0.000000   0.179468   0.000000  -0.000000   0.000000
   16  AS 1  S   -0.000000  -0.349480  -0.000000   0.000000   0.000000
   17  AS 1  S   -0.000000   0.147465   0.000000   0.000000   0.000000
   18  AS 1  S   -0.000000  -0.859380  -0.000000  -0.000000   0.000000
   19  AS 1  S   -0.000000   2.556766   0.000000   0.000000   0.000000
   20  AS 1  S   -0.000000  -2.021347  -0.000000  -0.000000   0.000000
   21  AS 1  X   -0.000006  -0.000000  -0.000000   0.000000   0.000000
   22  AS 1  Y   -0.000000  -0.000000  -0.000000   0.000000   0.000000
   23  AS 1  Z   -0.000000  -0.000000  -0.000000   0.000000   0.000000
   24  AS 1  X   -0.000038  -0.000000  -0.000000   0.000000   0.000000
   25  AS 1  Y   -0.000000  -0.000000  -0.000000   0.000000   0.000000
   26  AS 1  Z   -0.000000  -0.000000  -0.000000   0.000000   0.000000
   27  AS 1  X   -0.000174  -0.000000  -0.000000   0.000000   0.000000
   28  AS 1  Y   -0.000000  -0.000000  -0.000000   0.000000   0.000000
   29  AS 1  Z   -0.000000  -0.000000  -0.000000   0.000000   0.000000
   30  AS 1  X   -0.000882  -0.000000  -0.000000   0.000000   0.000000
   31  AS 1  Y   -0.000000  -0.000000  -0.000000   0.000000   0.000000
   32  AS 1  Z   -0.000000  -0.000000  -0.000000   0.000000   0.000000
   33  AS 1  X   -0.002782  -0.000000  -0.000000   0.000000   0.000000
   34  AS 1  Y   -0.000000  -0.000000  -0.000000   0.000000   0.000000
   35  AS 1  Z   -0.000000  -0.000000  -0.000000   0.000000   0.000000
   36  AS 1  X   -0.009829  -0.000000  -0.000000   0.000000   0.000000
   37  AS 1  Y   -0.000000  -0.000000  -0.000000   0.000000   0.000000
   38  AS 1  Z   -0.000000  -0.000000  -0.000000   0.000000   0.000000
   39  AS 1  X   -0.016687  -0.000000  -0.000000   0.000000   0.000000
   40  AS 1  Y   -0.000000  -0.000000  -0.000000   0.000000   0.000000
   41  AS 1  Z   -0.000000  -0.000000  -0.000000   0.000000   0.000000
   42  AS 1  X   -0.033427  -0.000000  -0.000000   0.000000   0.000000
   43  AS 1  Y   -0.000000  -0.000000  -0.000000   0.000000   0.000000
   44  AS 1  Z   -0.000000  -0.000000  -0.000000   0.000000   0.000000
   45  AS 1  X    0.011312  -0.000000  -0.000000   0.000000   0.000000
   46  AS 1  Y   -0.000000  -0.000000  -0.000000   0.000000   0.000000
   47  AS 1  Z   -0.000000  -0.000000  -0.000000   0.000000   0.000000
   48  AS 1  X    0.023842  -0.000000  -0.000000   0.000000   0.000000
   49  AS 1  Y   -0.000000  -0.000000  -0.000000   0.000000   0.000000
   50  AS 1  Z   -0.000000  -0.000000  -0.000000   0.000000   0.000000
   51  AS 1  X    0.162659  -0.000000  -0.000000   0.000000   0.000000
   52  AS 1  Y   -0.000000  -0.000000  -0.000000   0.000000   0.000000
   53  AS 1  Z   -0.000000  -0.000000  -0.000000   0.000000   0.000000
   54  AS 1  X   -0.055941  -0.000000  -0.000000   0.000000   0.000000
   55  AS 1  Y   -0.000000  -0.000000  -0.000000   0.000000   0.000000
   56  AS 1  Z   -0.000000  -0.000000  -0.000000   0.000000   0.000000
   57  AS 1  X    0.067726  -0.000000  -0.000000   0.000000   0.000000
   58  AS 1  Y   -0.000000  -0.000000  -0.000000   0.000000   0.000000
   59  AS 1  Z   -0.000000  -0.000000  -0.000000   0.000000   0.000000
   60  AS 1  X   -1.321789  -0.000000  -0.000000   0.000000   0.000000
   61  AS 1  Y   -0.000000  -0.000000  -0.000000   0.000000   0.000000
   62  AS 1  Z   -0.000000  -0.000000  -0.000000   0.000000   0.000000
   63  AS 1  X    1.533407  -0.000000  -0.000000   0.000000   0.000000
   64  AS 1  Y   -0.000000  -0.000000  -0.000000   0.000000   0.000000
   65  AS 1  Z   -0.000000  -0.000000  -0.000000   0.000000   0.000000
   66  AS 1 XX   -0.000000  -0.000000  -0.000074   0.000040   0.000000
   67  AS 1 YY   -0.000000  -0.000000   0.000071   0.000045   0.000000
   68  AS 1 ZZ   -0.000000  -0.000000   0.000003  -0.000084   0.000000
   69  AS 1 XY   -0.000000  -0.000000  -0.000000   0.000000   0.000000
   70  AS 1 XZ   -0.000000  -0.000000  -0.000000   0.000000   0.000000
   71  AS 1 YZ   -0.000000  -0.000000  -0.000000   0.000000  -0.000084
   72  AS 1 XX   -0.000000  -0.000000  -0.001665   0.000886   0.000000
   73  AS 1 YY   -0.000000  -0.000000   0.001600   0.000999   0.000000
   74  AS 1 ZZ   -0.000000  -0.000000   0.000065  -0.001885   0.000000
   75  AS 1 XY   -0.000000  -0.000000  -0.000000   0.000000   0.000000
   76  AS 1 XZ   -0.000000  -0.000000  -0.000000   0.000000   0.000000
   77  AS 1 YZ   -0.000000  -0.000000  -0.000000   0.000000  -0.001886
   78  AS 1 XX   -0.000000  -0.000000  -0.004174   0.002222   0.000000
   79  AS 1 YY   -0.000000  -0.000000   0.004012   0.002504   0.000000
   80  AS 1 ZZ   -0.000000  -0.000000   0.000162  -0.004726   0.000000
   81  AS 1 XY   -0.000000  -0.000000  -0.000000   0.000000   0.000000
   82  AS 1 XZ   -0.000000  -0.000000  -0.000000   0.000000   0.000000
   83  AS 1 YZ   -0.000000  -0.000000  -0.000000   0.000000  -0.004729
   84  AS 1 XX   -0.000000  -0.000000  -0.030533   0.016257   0.000000
   85  AS 1 YY   -0.000000  -0.000000   0.029346   0.018314   0.000000
   86  AS 1 ZZ   -0.000000  -0.000000   0.001188  -0.034571   0.000000
   87  AS 1 XY   -0.000000  -0.000000  -0.000000   0.000000   0.000000
   88  AS 1 XZ   -0.000000  -0.000000  -0.000000   0.000000   0.000000
   89  AS 1 YZ   -0.000000  -0.000000  -0.000000   0.000000  -0.034591
   90  AS 1 XX   -0.000000  -0.000000  -0.038845   0.020683   0.000000
   91  AS 1 YY   -0.000000  -0.000000   0.037334   0.023300   0.000000
   92  AS 1 ZZ   -0.000000  -0.000000   0.001511  -0.043982   0.000000
   93  AS 1 XY   -0.000000  -0.000000  -0.000000   0.000000   0.000000
   94  AS 1 XZ   -0.000000  -0.000000  -0.000000   0.000000   0.000000
   95  AS 1 YZ   -0.000000  -0.000000  -0.000000   0.000000  -0.044008
   96  AS 1 XX   -0.000000  -0.000000  -0.167345   0.089101   0.000000
   97  AS 1 YY   -0.000000  -0.000000   0.160836   0.100375   0.000000
   98  AS 1 ZZ   -0.000000  -0.000000   0.006509  -0.189475   0.000000
   99  AS 1 XY   -0.000000  -0.000000  -0.000000   0.000000   0.000000
  100  AS 1 XZ   -0.000000  -0.000000  -0.000000   0.000000   0.000000
  101  AS 1 YZ   -0.000000  -0.000000  -0.000000   0.000000  -0.189587
  102  AS 1 XX   -0.000000  -0.000000  -0.002577   0.001372   0.000000
  103  AS 1 YY   -0.000000  -0.000000   0.002477   0.001546   0.000000
  104  AS 1 ZZ   -0.000000  -0.000000   0.000100  -0.002918   0.000000
  105  AS 1 XY   -0.000000  -0.000000  -0.000000   0.000000   0.000000
  106  AS 1 XZ   -0.000000  -0.000000  -0.000000   0.000000   0.000000
  107  AS 1 YZ   -0.000000  -0.000000  -0.000000   0.000000  -0.002920
  108  AS 1 XX   -0.000000   0.000000  -0.369347   0.196654   0.000000
  109  AS 1 YY   -0.000000  -0.000000   0.354981   0.221537   0.000000
  110  AS 1 ZZ   -0.000000  -0.000000   0.014366  -0.418191   0.000000
  111  AS 1 XY   -0.000000  -0.000000  -0.000000   0.000000   0.000000
  112  AS 1 XZ   -0.000000  -0.000000  -0.000000   0.000000   0.000000
  113  AS 1 YZ   -0.000000  -0.000000  -0.000000   0.000000  -0.418438
  114  AS 1 XX   -0.000000   0.000000   1.055605  -0.562044   0.000000
  115  AS 1 YY   -0.000000  -0.000000  -1.014547  -0.633159   0.000000
  116  AS 1 ZZ   -0.000000  -0.000000  -0.041058   1.195203   0.000000
  117  AS 1 XY   -0.000000  -0.000000  -0.000000   0.000000   0.000000
  118  AS 1 XZ   -0.000000  -0.000000  -0.000000   0.000000   0.000000
  119  AS 1 YZ   -0.000000  -0.000000  -0.000000   0.000000   1.195908

                     26         27         28         29         30
                    1.0110     1.0110     1.2321     1.2321     1.2321
                     B1G        B2G        B2U        B3U        B1U 
    1  AS 1  S    0.000000   0.000000   0.000000   0.000000   0.000000
    2  AS 1  S    0.000000   0.000000   0.000000   0.000000   0.000000
    3  AS 1  S    0.000000   0.000000   0.000000   0.000000   0.000000
    4  AS 1  S    0.000000   0.000000   0.000000   0.000000   0.000000
    5  AS 1  S    0.000000   0.000000   0.000000   0.000000   0.000000
    6  AS 1  S    0.000000   0.000000   0.000000   0.000000   0.000000
    7  AS 1  S    0.000000   0.000000   0.000000   0.000000   0.000000
    8  AS 1  S    0.000000   0.000000   0.000000   0.000000   0.000000
    9  AS 1  S    0.000000   0.000000   0.000000   0.000000   0.000000
   10  AS 1  S    0.000000   0.000000   0.000000   0.000000   0.000000
   11  AS 1  S    0.000000   0.000000   0.000000   0.000000   0.000000
   12  AS 1  S    0.000000   0.000000   0.000000   0.000000   0.000000
   13  AS 1  S    0.000000   0.000000   0.000000   0.000000   0.000000
   14  AS 1  S    0.000000   0.000000   0.000000   0.000000   0.000000
   15  AS 1  S    0.000000   0.000000   0.000000   0.000000   0.000000
   16  AS 1  S    0.000000   0.000000   0.000000   0.000000   0.000000
   17  AS 1  S    0.000000   0.000000   0.000000   0.000000   0.000000
   18  AS 1  S    0.000000   0.000000   0.000000   0.000000   0.000000
   19  AS 1  S    0.000000   0.000000   0.000000   0.000000   0.000000
   20  AS 1  S    0.000000   0.000000   0.000000   0.000000   0.000000
   21  AS 1  X    0.000000   0.000000   0.000000  -0.000015   0.000000
   22  AS 1  Y    0.000000   0.000000  -0.000015   0.000000   0.000000
   23  AS 1  Z    0.000000   0.000000   0.000000   0.000000  -0.000015
   24  AS 1  X    0.000000   0.000000   0.000000  -0.000076   0.000000
   25  AS 1  Y    0.000000   0.000000  -0.000076   0.000000   0.000000
   26  AS 1  Z    0.000000   0.000000   0.000000   0.000000  -0.000076
   27  AS 1  X    0.000000   0.000000   0.000000  -0.000468   0.000000
   28  AS 1  Y    0.000000   0.000000  -0.000468   0.000000   0.000000
   29  AS 1  Z    0.000000   0.000000   0.000000   0.000000  -0.000468
   30  AS 1  X    0.000000   0.000000   0.000000  -0.001611   0.000000
   31  AS 1  Y    0.000000   0.000000  -0.001611   0.000000   0.000000
   32  AS 1  Z    0.000000   0.000000   0.000000   0.000000  -0.001611
   33  AS 1  X    0.000000   0.000000   0.000000  -0.007861   0.000000
   34  AS 1  Y    0.000000   0.000000  -0.007861   0.000000   0.000000
   35  AS 1  Z    0.000000   0.000000   0.000000   0.000000  -0.007861
   36  AS 1  X    0.000000   0.000000   0.000000  -0.016741   0.000000
   37  AS 1  Y    0.000000   0.000000  -0.016741   0.000000   0.000000
   38  AS 1  Z    0.000000   0.000000   0.000000   0.000000  -0.016741
   39  AS 1  X    0.000000   0.000000   0.000000  -0.054507   0.000000
   40  AS 1  Y    0.000000   0.000000  -0.054507   0.000000   0.000000
   41  AS 1  Z    0.000000   0.000000   0.000000   0.000000  -0.054507
   42  AS 1  X    0.000000   0.000000   0.000000  -0.031271   0.000000
   43  AS 1  Y    0.000000   0.000000  -0.031271   0.000000   0.000000
   44  AS 1  Z    0.000000   0.000000   0.000000   0.000000  -0.031271
   45  AS 1  X    0.000000   0.000000   0.000000  -0.074704   0.000000
   46  AS 1  Y    0.000000   0.000000  -0.074704   0.000000   0.000000
   47  AS 1  Z    0.000000   0.000000   0.000000   0.000000  -0.074704
   48  AS 1  X    0.000000   0.000000   0.000000   0.269863   0.000000
   49  AS 1  Y    0.000000   0.000000   0.269863   0.000000   0.000000
   50  AS 1  Z    0.000000   0.000000   0.000000   0.000000   0.269863
   51  AS 1  X    0.000000   0.000000   0.000000  -0.045664   0.000000
   52  AS 1  Y    0.000000   0.000000  -0.045664   0.000000   0.000000
   53  AS 1  Z    0.000000   0.000000   0.000000   0.000000  -0.045664
   54  AS 1  X    0.000000   0.000000   0.000000   0.663050   0.000000
   55  AS 1  Y    0.000000   0.000000   0.663050   0.000000   0.000000
[...]
   10  AS 1  S    1.182906  -0.616497   0.295158   0.121849  -0.038116
   11  AS 1  S   -0.866722   0.456121  -0.219477  -0.090817   0.028438
   12  AS 1  S    0.585749  -0.310026   0.149612   0.061993  -0.019424
   13  AS 1  S   -0.430465   0.228636  -0.110529  -0.045837   0.014368
   14  AS 1  S    0.340160  -0.180949   0.087544   0.036319  -0.011386
   15  AS 1  S   -0.203246   0.108212  -0.052377  -0.021734   0.006814
   16  AS 1  S    0.115118  -0.061325   0.029690   0.012322  -0.003864
   17  AS 1  S   -0.072193   0.038467  -0.018626  -0.007730   0.002424
   18  AS 1  S    0.030179  -0.016082   0.007788   0.003232  -0.001014
   19  AS 1  S   -0.007735   0.004123  -0.001996  -0.000829   0.000260
   20  AS 1  S    0.002385  -0.001271   0.000615   0.000255  -0.000080
   21  AS 1  X    0.000000   0.000000   0.000000   0.000000  -0.000000
   22  AS 1  Y    0.000000   0.000000   0.000000   0.000000  -0.000000
   23  AS 1  Z    0.000000   0.000000   0.000000   0.000000  -0.000000
   24  AS 1  X    0.000000   0.000000   0.000000   0.000000  -0.000000
   25  AS 1  Y    0.000000   0.000000   0.000000   0.000000  -0.000000
   26  AS 1  Z    0.000000   0.000000   0.000000   0.000000  -0.000000
   27  AS 1  X    0.000000   0.000000   0.000000   0.000000  -0.000000
   28  AS 1  Y    0.000000   0.000000   0.000000   0.000000  -0.000000
   29  AS 1  Z    0.000000   0.000000   0.000000   0.000000  -0.000000
   30  AS 1  X    0.000000   0.000000   0.000000   0.000000  -0.000000
   31  AS 1  Y    0.000000   0.000000   0.000000   0.000000  -0.000000
   32  AS 1  Z    0.000000   0.000000   0.000000   0.000000  -0.000000
   33  AS 1  X    0.000000   0.000000   0.000000   0.000000  -0.000000
   34  AS 1  Y    0.000000   0.000000   0.000000   0.000000  -0.000000
   35  AS 1  Z    0.000000   0.000000   0.000000   0.000000  -0.000000
   36  AS 1  X    0.000000   0.000000   0.000000   0.000000  -0.000000
   37  AS 1  Y    0.000000   0.000000   0.000000   0.000000  -0.000000
   38  AS 1  Z    0.000000   0.000000   0.000000   0.000000  -0.000000
   39  AS 1  X    0.000000   0.000000   0.000000   0.000000  -0.000000
   40  AS 1  Y    0.000000   0.000000   0.000000   0.000000  -0.000000
   41  AS 1  Z    0.000000   0.000000   0.000000   0.000000  -0.000000
   42  AS 1  X    0.000000   0.000000   0.000000   0.000000  -0.000000
   43  AS 1  Y    0.000000   0.000000   0.000000   0.000000  -0.000000
   44  AS 1  Z    0.000000   0.000000   0.000000   0.000000  -0.000000
   45  AS 1  X    0.000000   0.000000   0.000000   0.000000  -0.000000
   46  AS 1  Y    0.000000   0.000000   0.000000   0.000000  -0.000000
   47  AS 1  Z    0.000000   0.000000   0.000000   0.000000  -0.000000
   48  AS 1  X    0.000000   0.000000   0.000000   0.000000  -0.000000
   49  AS 1  Y    0.000000   0.000000   0.000000   0.000000  -0.000000
   50  AS 1  Z    0.000000   0.000000   0.000000   0.000000  -0.000000
   51  AS 1  X    0.000000   0.000000   0.000000   0.000000  -0.000000
   52  AS 1  Y    0.000000   0.000000   0.000000   0.000000  -0.000000
   53  AS 1  Z    0.000000   0.000000   0.000000   0.000000  -0.000000
   54  AS 1  X    0.000000   0.000000   0.000000   0.000000  -0.000000
   55  AS 1  Y    0.000000   0.000000   0.000000   0.000000  -0.000000
   56  AS 1  Z    0.000000   0.000000   0.000000   0.000000  -0.000000
   57  AS 1  X    0.000000   0.000000   0.000000   0.000000  -0.000000
   58  AS 1  Y    0.000000   0.000000   0.000000   0.000000  -0.000000
   59  AS 1  Z    0.000000   0.000000   0.000000   0.000000  -0.000000
   60  AS 1  X    0.000000   0.000000   0.000000   0.000000  -0.000000
   61  AS 1  Y    0.000000   0.000000   0.000000   0.000000  -0.000000
   62  AS 1  Z    0.000000   0.000000   0.000000   0.000000  -0.000000
   63  AS 1  X    0.000000   0.000000   0.000000   0.000000  -0.000000
   64  AS 1  Y    0.000000   0.000000   0.000000   0.000000  -0.000000
   65  AS 1  Z    0.000000   0.000000   0.000000   0.000000  -0.000000
   66  AS 1 XX    0.000000   0.000000   0.000000   0.000000  -0.000000
   67  AS 1 YY    0.000000   0.000000   0.000000   0.000000  -0.000000
   68  AS 1 ZZ    0.000000   0.000000   0.000000   0.000000  -0.000000
   69  AS 1 XY    0.000000   0.000000   0.000000   0.000000  -0.000000
   70  AS 1 XZ    0.000000   0.000000   0.000000   0.000000  -0.000000
   71  AS 1 YZ    0.000000   0.000000   0.000000   0.000000  -0.000000
   72  AS 1 XX    0.000000   0.000000   0.000000   0.000000  -0.000000
   73  AS 1 YY    0.000000   0.000000   0.000000   0.000000  -0.000000
   74  AS 1 ZZ    0.000000   0.000000   0.000000   0.000000  -0.000000
   75  AS 1 XY    0.000000   0.000000   0.000000   0.000000  -0.000000
   76  AS 1 XZ    0.000000   0.000000   0.000000   0.000000  -0.000000
   77  AS 1 YZ    0.000000   0.000000   0.000000   0.000000  -0.000000
   78  AS 1 XX    0.000000   0.000000   0.000000   0.000000  -0.000000
   79  AS 1 YY    0.000000   0.000000   0.000000   0.000000  -0.000000
   80  AS 1 ZZ    0.000000   0.000000   0.000000   0.000000  -0.000000
   81  AS 1 XY    0.000000   0.000000   0.000000   0.000000  -0.000000
   82  AS 1 XZ    0.000000   0.000000   0.000000   0.000000  -0.000000
   83  AS 1 YZ    0.000000   0.000000   0.000000   0.000000  -0.000000
   84  AS 1 XX    0.000000   0.000000   0.000000   0.000000  -0.000000
   85  AS 1 YY    0.000000   0.000000   0.000000   0.000000  -0.000000
   86  AS 1 ZZ    0.000000   0.000000   0.000000   0.000000  -0.000000
   87  AS 1 XY    0.000000   0.000000   0.000000   0.000000  -0.000000
   88  AS 1 XZ    0.000000   0.000000   0.000000   0.000000  -0.000000
   89  AS 1 YZ    0.000000   0.000000   0.000000   0.000000  -0.000000
   90  AS 1 XX    0.000000   0.000000   0.000000   0.000000  -0.000000
   91  AS 1 YY    0.000000   0.000000   0.000000   0.000000  -0.000000
   92  AS 1 ZZ    0.000000   0.000000   0.000000   0.000000  -0.000000
   93  AS 1 XY    0.000000   0.000000   0.000000   0.000000  -0.000000
   94  AS 1 XZ    0.000000   0.000000   0.000000   0.000000  -0.000000
   95  AS 1 YZ    0.000000   0.000000   0.000000   0.000000  -0.000000
   96  AS 1 XX    0.000000   0.000000   0.000000   0.000000  -0.000000
   97  AS 1 YY    0.000000   0.000000   0.000000   0.000000  -0.000000
   98  AS 1 ZZ    0.000000   0.000000   0.000000   0.000000  -0.000000
   99  AS 1 XY    0.000000   0.000000   0.000000   0.000000  -0.000000
  100  AS 1 XZ    0.000000   0.000000   0.000000   0.000000  -0.000000
  101  AS 1 YZ    0.000000   0.000000   0.000000   0.000000  -0.000000
  102  AS 1 XX    0.000000   0.000000   0.000000   0.000000  -0.000000
  103  AS 1 YY    0.000000   0.000000   0.000000   0.000000  -0.000000
  104  AS 1 ZZ    0.000000   0.000000   0.000000   0.000000  -0.000000
  105  AS 1 XY    0.000000   0.000000   0.000000   0.000000  -0.000000
  106  AS 1 XZ    0.000000   0.000000   0.000000   0.000000  -0.000000
  107  AS 1 YZ    0.000000   0.000000   0.000000   0.000000  -0.000000
  108  AS 1 XX    0.000000   0.000000   0.000000   0.000000  -0.000000
  109  AS 1 YY    0.000000   0.000000   0.000000   0.000000  -0.000000
  110  AS 1 ZZ    0.000000   0.000000   0.000000   0.000000  -0.000000
  111  AS 1 XY    0.000000   0.000000   0.000000   0.000000  -0.000000
  112  AS 1 XZ    0.000000   0.000000   0.000000   0.000000  -0.000000
  113  AS 1 YZ    0.000000   0.000000   0.000000   0.000000  -0.000000
  114  AS 1 XX    0.000000   0.000000   0.000000   0.000000  -0.000000
  115  AS 1 YY    0.000000   0.000000   0.000000   0.000000  -0.000000
  116  AS 1 ZZ    0.000000   0.000000   0.000000   0.000000  -0.000000
  117  AS 1 XY    0.000000   0.000000   0.000000   0.000000  -0.000000
  118  AS 1 XZ    0.000000   0.000000   0.000000   0.000000  -0.000000
  119  AS 1 YZ    0.000000   0.000000   0.000000   0.000000  -0.000000
 ...... END OF ROHF CALCULATION ......
 STEP CPU TIME =     0.54 TOTAL CPU TIME =        1.4 (    0.0 MIN)
 TOTAL WALL CLOCK TIME=        1.4 SECONDS, CPU UTILIZATION IS  99.30%

     ----------------------------------------------------------------
     PROPERTY VALUES FOR THE ROHF  SELF-CONSISTENT FIELD WAVEFUNCTION
     ----------------------------------------------------------------

          -----------------
          ENERGY COMPONENTS
          -----------------

         WAVEFUNCTION NORMALIZATION =       1.0000000000

                ONE ELECTRON ENERGY =   -3146.4871052907
                TWO ELECTRON ENERGY =     887.3915926208
           NUCLEAR REPULSION ENERGY =       0.0000000000
                                      ------------------
                       TOTAL ENERGY =   -2259.0955126699

 ELECTRON-ELECTRON POTENTIAL ENERGY =     887.3915926208
  NUCLEUS-ELECTRON POTENTIAL ENERGY =   -5461.9640588892
   NUCLEUS-NUCLEUS POTENTIAL ENERGY =       0.0000000000
                                      ------------------
             TOTAL POTENTIAL ENERGY =   -4574.5724662684
               TOTAL KINETIC ENERGY =    2315.4769535985
                 VIRIAL RATIO (V/T) =       1.9756501826

          ---------------------------------------
          MULLIKEN AND LOWDIN POPULATION ANALYSES
          ---------------------------------------

     ATOMIC MULLIKEN POPULATION IN EACH MOLECULAR ORBITAL

                      1          2          3          4          5

                  2.000000   2.000000   2.000000   2.000000   2.000000

    1             2.000000   2.000000   2.000000   2.000000   2.000000

                      6          7          8          9         10

                  2.000000   2.000000   2.000000   2.000000   2.000000

    1             2.000000   2.000000   2.000000   2.000000   2.000000

                     11         12         13         14         15

                  2.000000   2.000000   2.000000   2.000000   2.000000

    1             2.000000   2.000000   2.000000   2.000000   2.000000

                     16         17         18

                  1.000000   1.000000   1.000000

    1             1.000000   1.000000   1.000000

          MULLIKEN SPHERICAL HARMONIC POPULATIONS
       ATOM           S       P       D      F      G      H      I    TOTAL
    1 ARSENIC       4.00    9.00    5.00   0.00   0.00   0.00   0.00   18.00

          MULLIKEN SPHERICAL HARMONIC POPULATIONS
       ATOM           S       P       D      F      G      H      I    TOTAL
    1 ARSENIC       4.00    6.00    5.00   0.00   0.00   0.00   0.00   15.00

     ATOMIC SPIN POPULATION (ALPHA MINUS BETA)
       ATOM         MULL.POP.                    LOW.POP.
    1 ARSENIC       3.000000                     3.000000

               ----- POPULATIONS IN EACH AO -----
                             MULLIKEN      LOWDIN
              1  AS 1  S      0.00000     0.00000
              2  AS 1  S      0.00000     0.00000
              3  AS 1  S      0.00001     0.00002
              4  AS 1  S      0.00011     0.00016
              5  AS 1  S      0.00066     0.00107
              6  AS 1  S      0.00348     0.00605
              7  AS 1  S      0.01630     0.02948
              8  AS 1  S      0.06665     0.12142
              9  AS 1  S      0.22155     0.28892
             10  AS 1  S      0.52827     0.36536
             11  AS 1  S      0.72719     0.34813
             12  AS 1  S      0.35126     0.22142
             13  AS 1  S      0.30452     0.21714
             14  AS 1  S      1.13718     0.28996
             15  AS 1  S      0.57973     0.23894
             16  AS 1  S      0.63944     0.23092
             17  AS 1  S      1.14898     0.29122
             18  AS 1  S      0.23906     0.21881
             19  AS 1  S      1.13957     0.37673
             20  AS 1  S      0.89604     0.73214
             21  AS 1  X      0.00000     0.00000
             22  AS 1  Y      0.00000     0.00000
             23  AS 1  Z      0.00000     0.00000
             24  AS 1  X      0.00003     0.00005
             25  AS 1  Y      0.00003     0.00005
             26  AS 1  Z      0.00003     0.00005
             27  AS 1  X      0.00060     0.00104
             28  AS 1  Y      0.00060     0.00104
             29  AS 1  Z      0.00060     0.00104
             30  AS 1  X      0.00718     0.01175
             31  AS 1  Y      0.00718     0.01175
             32  AS 1  Z      0.00718     0.01175
             33  AS 1  X      0.05289     0.07624
             34  AS 1  Y      0.05289     0.07624
             35  AS 1  Z      0.05289     0.07624
             36  AS 1  X      0.23939     0.28828
             37  AS 1  Y      0.23939     0.28828
             38  AS 1  Z      0.23939     0.28828
             39  AS 1  X      0.60960     0.60840
             40  AS 1  Y      0.60960     0.60840
             41  AS 1  Z      0.60960     0.60840
             42  AS 1  X      0.74692     0.65830
             43  AS 1  Y      0.74692     0.65830
             44  AS 1  Z      0.74692     0.65830
             45  AS 1  X      0.36055     0.40497
             46  AS 1  Y      0.36055     0.40497
             47  AS 1  Z      0.36055     0.40497
             48  AS 1  X      0.51676     0.52900
             49  AS 1  Y      0.51676     0.52900
             50  AS 1  Z      0.51676     0.52900
             51  AS 1  X      0.97758     0.83874
             52  AS 1  Y      0.97758     0.83874
             53  AS 1  Z      0.97758     0.83874
             54  AS 1  X      0.46978     0.53210
             55  AS 1  Y      0.46978     0.53210
             56  AS 1  Z      0.46978     0.53210
             57  AS 1  X      0.23366     0.29114
             58  AS 1  Y      0.23366     0.29114
             59  AS 1  Z      0.23366     0.29114
             60  AS 1  X      0.54373     0.47727
             61  AS 1  Y      0.54373     0.47727
             62  AS 1  Z      0.54373     0.47727
             63  AS 1  X      0.24133     0.28272
             64  AS 1  Y      0.24133     0.28272
             65  AS 1  Z      0.24133     0.28272
             66  AS 1 XX      0.00001     0.14513
             67  AS 1 YY      0.00001     0.14513
             68  AS 1 ZZ      0.00001     0.14513
             69  AS 1 XY      0.00001     0.00001
             70  AS 1 XZ      0.00001     0.00001
             71  AS 1 YZ      0.00000     0.00001
             72  AS 1 XX      0.00039     0.06842
             73  AS 1 YY      0.00039     0.06842
             74  AS 1 ZZ      0.00039     0.06842
             75  AS 1 XY      0.00039     0.00062
             76  AS 1 XZ      0.00039     0.00062
             77  AS 1 YZ      0.00000     0.00062
             78  AS 1 XX      0.00608     0.14749
             79  AS 1 YY      0.00608     0.14749
             80  AS 1 ZZ      0.00608     0.14749
             81  AS 1 XY      0.00608     0.00852
             82  AS 1 XZ      0.00608     0.00852
             83  AS 1 YZ      0.00000     0.00852
             84  AS 1 XX      0.04599     0.22850
             85  AS 1 YY      0.04599     0.22850
             86  AS 1 ZZ      0.04599     0.22850
             87  AS 1 XY      0.04599     0.05731
             88  AS 1 XZ      0.04599     0.05731
             89  AS 1 YZ      0.00000     0.05731
             90  AS 1 XX      0.20642     0.24389
             91  AS 1 YY      0.20642     0.24389
             92  AS 1 ZZ      0.20642     0.24389
             93  AS 1 XY      0.20642     0.22183
             94  AS 1 XZ      0.20642     0.22183
             95  AS 1 YZ      0.00000     0.22183
             96  AS 1 XX      0.50901     0.51501
             97  AS 1 YY      0.50901     0.51501
             98  AS 1 ZZ      0.50901     0.51501
             99  AS 1 XY      0.50901     0.50330
            100  AS 1 XZ      0.50901     0.50330
            101  AS 1 YZ      0.00000     0.50330
            102  AS 1 XX      0.68812     0.62944
            103  AS 1 YY      0.68812     0.62944
            104  AS 1 ZZ      0.68812     0.62944
            105  AS 1 XY      0.68812     0.65871
            106  AS 1 XZ      0.68812     0.65871
            107  AS 1 YZ      0.00000     0.65871
            108  AS 1 XX      0.45705     0.37230
            109  AS 1 YY      0.45705     0.37230
            110  AS 1 ZZ      0.45705     0.37230
            111  AS 1 XY      0.45705     0.44045
            112  AS 1 XZ      0.45705     0.44045
            113  AS 1 YZ      0.00000     0.44045
            114  AS 1 XX      0.08693     0.32387
            115  AS 1 YY      0.08693     0.32387
            116  AS 1 ZZ      0.08693     0.32387
            117  AS 1 XY      0.08693     0.10925
            118  AS 1 XZ      0.08693     0.10925
            119  AS 1 YZ      0.00000     0.10925

          ----- MULLIKEN ATOMIC OVERLAP POPULATIONS -----
          (OFF-DIAGONAL ELEMENTS NEED TO BE MULTIPLIED BY 2)

             1

    1   33.0000000

          TOTAL MULLIKEN AND LOWDIN ATOMIC POPULATIONS
       ATOM         MULL.POP.    CHARGE          LOW.POP.     CHARGE
    1 ARSENIC      33.000000    0.000000        33.000000   -0.000000

          MULLIKEN SPHERICAL HARMONIC POPULATIONS
       ATOM           S       P       D      F      G      H      I    TOTAL
    1 ARSENIC       8.00   15.00   10.00   0.00   0.00   0.00   0.00   33.00

          --------------------
          RADIAL WAVEFUNCTIONS
          --------------------
 THERE ARE   2 SHELLS TO BE COMPUTED
 SHELL   1 CONTAINS ATOMIC ORBITALS  15
 SHELL   2 CONTAINS ATOMIC ORBITALS  16  17  18
 RMAX=  10.000 NTICKS= 1001 (SO, RADIAL INCREMENT= 0.010 BOHR)

 SHELL      <R**0>          <R>       <R**2>
         NORMALIZATION      BOHR     BOHR**2
    1     0.99999753      1.9970      4.5953
    2     0.99999811      2.5043      7.3250

          -------------------------------
          BOND ORDER AND VALENCE ANALYSIS     BOND ORDER THRESHOLD=0.050
          -------------------------------

                   BOND                       BOND                       BOND
  ATOM PAIR DIST  ORDER      ATOM PAIR DIST  ORDER      ATOM PAIR DIST  ORDER

                       TOTAL       BONDED        FREE
      ATOM            VALENCE     VALENCE     VALENCE
    1 ARSENIC           3.000       0.000       3.000

          -----------------------------------------
          ATOMIC SPIN DENSITY AT THE NUCLEUS (A.U.)
          -----------------------------------------
                            SPIN DENS    ALPHA DENS     BETA DENS
    1  ARSENIC     33.0     0.0000000   39185.60407   39185.60407

          ---------------------
          ELECTROSTATIC MOMENTS
          ---------------------

 POINT   1           X           Y           Z (BOHR)    CHARGE
                 0.000000    0.000000    0.000000       -0.00 (A.U.)
         DX          DY          DZ         /D/  (DEBYE)
     0.000000    0.000000    0.000000    0.000000
 ...... END OF PROPERTY EVALUATION ......
 STEP CPU TIME =     0.55 TOTAL CPU TIME =        2.0 (    0.0 MIN)
 TOTAL WALL CLOCK TIME=        2.0 SECONDS, CPU UTILIZATION IS  99.49%
               580000  WORDS OF DYNAMIC MEMORY USED
 EXECUTION OF GAMESS TERMINATED NORMALLY Wed Aug  9 22:40:13 2017
 DDI: 263640 bytes (0.3 MB / 0 MWords) used by master data server.

 ----------------------------------------
 CPU timing information for all processes
 ========================================
 0: 1.891 + 0.84 = 1.976
 ----------------------------------------
 ddikick.x: exited gracefully.
unset echo
----- accounting info -----
Files used on the master node compute-1-7.local were:
-rw-rw-r-- 1 sarom sarom 3.2K Aug  9 22:40 /scratch/exam35-protect.F05
-rw-rw-r-- 1 sarom sarom  38M Aug  9 22:40 /scratch/exam35-protect.F08
-rw-rw-r-- 1 sarom sarom 5.5M Aug  9 22:40 /scratch/exam35-protect.F10
rm: cannot remove `/scratch/tmp': Is a directory
ls: No match.
ls: No match.
ls: No match.
Wed Aug  9 22:40:16 CDT 2017
0.259u 0.199s 0:05.50 8.0%	0+0k 8+360io 0pf+0w
/opt/gridengine/default/spool/compute-1-7/active_jobs/36300.1/pe_hostfile compute-1-7.local
