-catch_rsh /opt/gridengine/default/spool/compute-0-6/active_jobs/36011.1/pe_hostfile
compute-0-6
The primary node assigned by SGE to this run is compute-0-6
Warning: no access to tty (Bad file descriptor).
Thus no job control in this shell.
source /home/sarom/dir.git.branch.saromleang-travis-ci/install.info
setenv GMS_PATH /home/sarom/dir.git.branch.saromleang-travis-ci
setenv GMS_BUILD_DIR /home/sarom/dir.git.branch.saromleang-travis-ci
setenv GMS_TARGET linux64
setenv GMS_FORTRAN gfortran
setenv GMS_GFORTRAN_VERNO 4.4
setenv GMS_MATHLIB mkl-so
setenv GMS_MATHLIB none
setenv GMS_MATHLIB_PATH /share/apps/intel/compilers_and_libraries_2017.1.132/linux/mkl/lib/intel64
setenv GMS_MKL_VERNO 12
setenv GMS_DDI_COMM sockets
setenv GMS_LIBCCHEM false
setenv GMS_EIGEN_PATH
setenv GMS_PHI false
setenv GMS_SHMTYPE sysv
setenv GMS_OPENMP false
unset echo
moro-wat2
/home/sarom/dir.git.branch.saromleang-travis-ci/tests/eda/parallel
----- GAMESS execution script 'rungms' -----
This job is running on host compute-0-6.local
under operating system Linux at Wed Aug 9 21:04:56 CDT 2017
Available scratch disk space (Kbyte units) at beginning of the job is
Filesystem           1K-blocks      Used Available Use% Mounted on
/dev/sda1             16126920   3962040  11345680  26% /
GAMESS temporary binary files will be written to /scratch
GAMESS supplementary output files will be written to /home/sarom/restart
Copying input file moro-wat2.inp to your run's scratch directory...
cp /home/sarom/dir.git.branch.saromleang-travis-ci/tests/eda/parallel/moro-wat2.inp /scratch/moro-wat2.F05
unset echo
The generated host list is
compute-0-6.local
/home/sarom/dir.git.branch.saromleang-travis-ci/ddikick.x /home/sarom/dir.git.branch.saromleang-travis-ci/gamess.00.x moro-wat2 -ddi 1 1 compute-0-6.local -scr /scratch

 Distributed Data Interface kickoff program.
 Initiating 1 compute processes on 1 nodes to run the following command:
 /home/sarom/dir.git.branch.saromleang-travis-ci/gamess.00.x moro-wat2 

          ******************************************************
          *         GAMESS VERSION = 20 APR 2017 (R1)          *
          *             FROM IOWA STATE UNIVERSITY             *
          * M.W.SCHMIDT, K.K.BALDRIDGE, J.A.BOATZ, S.T.ELBERT, *
          *   M.S.GORDON, J.H.JENSEN, S.KOSEKI, N.MATSUNAGA,   *
          *          K.A.NGUYEN, S.J.SU, T.L.WINDUS,           *
          *       TOGETHER WITH M.DUPUIS, J.A.MONTGOMERY       *
          *         J.COMPUT.CHEM.  14, 1347-1363(1993)        *
          **************** 64 BIT LINUX VERSION ****************

  SINCE 1993, STUDENTS AND POSTDOCS WORKING AT IOWA STATE UNIVERSITY
  AND ALSO IN THEIR VARIOUS JOBS AFTER LEAVING ISU HAVE MADE IMPORTANT
  CONTRIBUTIONS TO THE CODE:
     IVANA ADAMOVIC, CHRISTINE AIKENS, YURI ALEXEEV, POOJA ARORA,
     ANDREY ASADCHEV, ROB BELL, PRADIPTA BANDYOPADHYAY, JONATHAN BENTZ,
     BRETT BODE, KURT BRORSEN, CALEB CARLIN, GALINA CHABAN, WEI CHEN,
     CHEOL HO CHOI, PAUL DAY, ALBERT DEFUSCO, NUWAN DESILVA, TIM DUDLEY,
     DMITRI FEDOROV, GRAHAM FLETCHER, MARK FREITAG, KURT GLAESEMANN,
     DAN KEMP, GRANT MERRILL, NORIYUKI MINEZAWA, JONATHAN MULLIN,
     TAKESHI NAGATA, SEAN NEDD, HEATHER NETZLOFF, BOSILJKA NJEGIC, RYAN OLSON,
     MIKE PAK, SPENCER PRUITT, LUKE ROSKOP, JIM SHOEMAKER, LYUDMILA SLIPCHENKO,
     TONY SMITH, SAROM SOK LEANG, JIE SONG, TETSUYA TAKETSUGU, SIMON WEBB,
     PENG XU, SOOHAENG YOO, FEDERICO ZAHARIEV

  ADDITIONAL CODE HAS BEEN PROVIDED BY COLLABORATORS IN OTHER GROUPS:
     IOWA STATE UNIVERSITY:
          JOE IVANIC, AARON WEST, LAIMUTIS BYTAUTAS, KLAUS RUEDENBERG
     UNIVERSITY OF TOKYO: KIMIHIKO HIRAO, TAKAHITO NAKAJIMA,
          TAKAO TSUNEDA, MUNEAKI KAMIYA, SUSUMU YANAGISAWA,
          KIYOSHI YAGI, MAHITO CHIBA, SEIKEN TOKURA, NAOAKI KAWAKAMI
     UNIVERSITY OF AARHUS: FRANK JENSEN
     UNIVERSITY OF IOWA: VISVALDAS KAIRYS, HUI LI
     NATIONAL INST. OF STANDARDS AND TECHNOLOGY: WALT STEVENS, DAVID GARMER
     UNIVERSITY OF PISA: BENEDETTA MENNUCCI, JACOPO TOMASI
     UNIVERSITY OF MEMPHIS: HENRY KURTZ, PRAKASHAN KORAMBATH
     UNIVERSITY OF ALBERTA: TOBY ZENG, MARIUSZ KLOBUKOWSKI
     UNIVERSITY OF NEW ENGLAND: MARK SPACKMAN
     MIE UNIVERSITY: HIROAKI UMEDA
     NAT. INST. OF ADVANCED INDUSTRIAL SCIENCE AND TECHNOLOGY: KAZUO KITAURA
     MICHIGAN STATE UNIVERSITY:
          KAROL KOWALSKI, MARTA WLOCH, JEFFREY GOUR, JESSE LUTZ,
          WEI LI, PIOTR PIECUCH
     UNIVERSITY OF SILESIA: MONIKA MUSIAL, STANISLAW KUCHARSKI
     FACULTES UNIVERSITAIRES NOTRE-DAME DE LA PAIX:
          OLIVIER QUINET, BENOIT CHAMPAGNE
     UNIVERSITY OF CALIFORNIA - SANTA BARBARA: BERNARD KIRTMAN
     INSTITUTE FOR MOLECULAR SCIENCE:
          KAZUYA ISHIMURA, MICHIO KATOUDA, AND SHIGERU NAGASE
     UNIVERSITY OF NOTRE DAME: ANNA POMOGAEVA, DAN CHIPMAN
     KYUSHU UNIVERSITY:
          HARUYUKI NAKANO,
          FENG LONG GU, JACEK KORCHOWIEC, MARCIN MAKOWSKI, AND YURIKO AOKI,
          HIROTOSHI MORI AND EISAKU MIYOSHI
     PENNSYLVANIA STATE UNIVERSITY:
          TZVETELIN IORDANOV, CHET SWALINA, JONATHAN SKONE,
          SHARON HAMMES-SCHIFFER
     WASEDA UNIVERSITY:
          MASATO KOBAYASHI, TOMOKO AKAMA, TSUGUKI TOUMA,
          TAKESHI YOSHIKAWA, YASUHIRO IKABATA, JUNJI SEINO,
          YUYA NAKAJIMA, HIROMI NAKAI
     NANJING UNIVERSITY: SHUHUA LI
     UNIVERSITY OF NEBRASKA:
          PEIFENG SU, DEJUN SI, NANDUN THELLAMUREGE, YALI WANG, HUI LI
     UNIVERSITY OF ZURICH: ROBERTO PEVERATI, KIM BALDRIDGE
     N. COPERNICUS UNIVERSITY AND JACKSON STATE UNIVERSITY:
          MARIA BARYSZ
     UNIVERSITY OF COPENHAGEN: Jimmy Kromann, CASPER STEINMANN
     TOKYO INSTITUTE OF TECHNOLOGY: HIROYA NAKATA
     NAGOYA UNIVERSITY: YOSHIO NISHIMOTO, STEPHAN IRLE
     MOSCOW STATE UNIVERSITY: VLADIMIR MIRONOV

 EXECUTION OF GAMESS BEGUN Wed Aug  9 21:04:56 2017

            ECHO OF THE FIRST FEW INPUT CARDS -
 INPUT CARD>!   RVS method paper...water dimer interaction energy.                          
 INPUT CARD>!   W.J.Stevens, W.H.Fink   Chem.Phys.Lett. 139, 15-22(1987)                    
 INPUT CARD>!                                                                               
 INPUT CARD>!   this geometry is not what is quoted in the paper, rOO=2.991 vs. 3.0085,     
 INPUT CARD>!   because the paper optimized only to OPTTOL=5d-4 (not very tight).           
 INPUT CARD>!   Energies found at the tightly optimized dimer geometry, but with            
 INPUT CARD>!   the monomers kept at the paper's constraints, are:                          
 INPUT CARD>!     F_NAL RHF ENERGY IS      -76.0464785458 AFTER  13 ITERATIONS  m           
 INPUT CARD>!     F_NAL RHF ENERGY IS      -76.0464785458 AFTER  14 ITERATIONS  m           
 INPUT CARD>!     F_NAL RHF ENERGY IS      -76.0467031635 AFTER   7 ITERATIONS              
 INPUT CARD>!     F_NAL RHF ENERGY IS      -76.0465390155 AFTER  15 ITERATIONS              
 INPUT CARD>!     F_NAL RHF ENERGY IS     -152.1011131752 AFTER   9 ITERATIONS  x           
 INPUT CARD>!     F_NAL RHF ENERGY IS     -152.1159067735 AFTER   7 ITERATIONS              
 INPUT CARD>!     F_NAL RHF ENERGY IS     -152.1146884920 AFTER   6 ITERATIONS              
 INPUT CARD>!     F_NAL RHF ENERGY IS     -152.0988303923 AFTER   8 ITERATIONS              
 INPUT CARD>!     F_NAL RHF ENERGY IS     -152.0991500175 AFTER   8 ITERATIONS              
 INPUT CARD>!     F_NAL RHF ENERGY IS     -152.1001869213 AFTER   9 ITERATIONS              
 INPUT CARD>!     F_NAL RHF ENERGY IS     -152.0993488163 AFTER   8 ITERATIONS              
 INPUT CARD>!     F_NAL RHF ENERGY IS     -152.1064388324 AFTER   8 ITERATIONS              
 INPUT CARD>!     F_NAL RHF ENERGY IS     -152.1060407363 AFTER   8 ITERATIONS              
 INPUT CARD>!     F_NAL RHF ENERGY IS     -152.1058669188 AFTER   8 ITERATIONS              
 INPUT CARD>!   m is quoted monomer energy in table 2.                                      
 INPUT CARD>!   x is the energy optimized under the $STATPT's (paper's) constraints.        
 INPUT CARD>!   x-2m = -5.12, in agreement with Kitaura/Morokuma's printout.                
 INPUT CARD>!                                                                               
 INPUT CARD>!   The final column below is data from Table 3 of the paper, at the            
 INPUT CARD>!   paper's unknown geometry, for the RVS analysis:                             
 INPUT CARD>!                                                                               
 INPUT CARD>!                                          HARTREE    KCAL/MOLE                 
 INPUT CARD>!   Es (electrostatic, or coulomb)        -.012582      -7.90                   
 INPUT CARD>!   EX (exchange repulsion)                .007071       4.44                   
 INPUT CARD>!   POL            MON=  1                -.000363       -.23      0.21         
 INPUT CARD>!   POL            MON=  2                -.000682       -.43      0.39         
 INPUT CARD>!   CT             MON=  1                -.001132       -.71      0.74         
 INPUT CARD>!   CT             MON=  2                -.000138       -.09      0.08         
 INPUT CARD>!                                                                               
 INPUT CARD>!            t.tal coulomb/exchange       -.005511      -3.46      3.44         
 INPUT CARD>!            t.tal polarization           -.001045       -.66                   
 INPUT CARD>!            t.tal charge transfer        -.001270       -.80                   
 INPUT CARD>!            T.TAL of CEX+POL+CT          -.007826      -4.91      4.86         
 INPUT CARD>!            t.tal interaction energy     -.008156      -5.12                   
 INPUT CARD>!                                                                               
 INPUT CARD>!   BSSE(VIR)      MON=  1                -.000225       -.14                   
 INPUT CARD>!   BSSE(VIR)      MON=  2                -.000060       -.04                   
 INPUT CARD>!   total BSSE        =                   -.000285       -.18                   
 INPUT CARD>!   bsse corrected total interaction =    -.007871      -4.94      4.89         
 INPUT CARD>!                                                                               
 INPUT CARD>!   this run takes 1 seconds on 2.66 GHz Cloverton (28 Apr 2009)                
 INPUT CARD>!   results in 2009 were unchanged from the input file's undated answers        
 INPUT CARD>!                                                                               
    1000000 WORDS OF MEMORY AVAILABLE

     BASIS OPTIONS
     -------------
     GBASIS=DZV          IGAUSS=       0      POLAR=DUNNING 
     NDFUNC=       1     NFFUNC=       0     DIFFSP=       F
     NPFUNC=       1      DIFFS=       F     BASNAM=        


     RUN TITLE
     ---------
 water dimer...almost duplicating Stevens and Fink                               

 THE POINT GROUP OF THE MOLECULE IS CS      
 THE ORDER OF THE PRINCIPAL AXIS IS     0

 YOUR FULLY SUBSTITUTED Z-MATRIX IS
 O   
 H      1   0.9560000
 H      1   0.9560000  2  105.2000
 H      1   2.0359468  2  114.3035  3  114.3035  1
 O      4   0.9560000  2  158.7470  3  158.7470  1
 H      5   0.9560000  4  105.2000  1  180.0000  0

 THE MOMENTS OF INERTIA ARE (AMU-ANGSTROM**2)
 IXX=     2.248   IYY=    83.332   IZZ=    83.409

 ATOM      ATOMIC                      COORDINATES (BOHR)
           CHARGE         X                   Y                   Z
 O           8.0    -2.7476002846       -0.1077159986        0.0000000000
 H           1.0    -3.5110303737        0.6804337502       -1.4351720115
 H           1.0    -3.5110303737        0.6804337502        1.4351720115
 H           1.0     1.0985843889       -0.0117552723        0.0000000000
 O           8.0     2.9001794605        0.1223321174        0.0000000000
 H           1.0     3.5019347352       -1.5810805805        0.0000000000

          INTERNUCLEAR DISTANCES (ANGS.)
          ------------------------------

                1 O          2 H          3 H          4 H          5 O     

   1 O       0.0000000    0.9560000 *  0.9560000 *  2.0359468 *  2.9911548 *
   2 H       0.9560000 *  0.0000000    1.5189208 *  2.5809202 *  3.4891529  
   3 H       0.9560000 *  1.5189208 *  0.0000000    2.5809202 *  3.4891529  
   4 H       2.0359468 *  2.5809202 *  2.5809202 *  0.0000000    0.9560000 *
   5 O       2.9911548 *  3.4891529    3.4891529    0.9560000 *  0.0000000  
   6 H       3.3977750    3.9725617    3.9725617    1.5189208 *  0.9560000 *

                6 H     

   1 O       3.3977750  
   2 H       3.9725617  
   3 H       3.9725617  
   4 H       1.5189208 *
   5 O       0.9560000 *
   6 H       0.0000000  

  * ... LESS THAN  3.000


     ATOMIC BASIS SET
     ----------------
 THE CONTRACTED PRIMITIVE FUNCTIONS HAVE BEEN UNNORMALIZED
 THE CONTRACTED BASIS FUNCTIONS ARE NOW NORMALIZED TO UNITY

  SHELL TYPE  PRIMITIVE        EXPONENT          CONTRACTION COEFFICIENT(S)

 O         

      1   S       1          7817.0000000    0.001176000331
      1   S       2          1176.0000000    0.008968002523
      1   S       3           273.2000000    0.042868012059
      1   S       4            81.1700000    0.143930040487
      1   S       5            27.1800000    0.355630100037
      1   S       6             9.5320000    0.461248129747
      1   S       7             3.4140000    0.140206039439

      2   S       8             9.5320000   -0.154153073905
      2   S       9             0.9398000    1.056914506712

      3   S      10             0.2846000    1.000000000000

      4   P      11            35.1800000    0.019580000501
      4   P      12             7.9040000    0.124200003180
      4   P      13             2.3050000    0.394714010108
      4   P      14             0.7171000    0.627376016066

      5   P      15             0.2137000    1.000000000000

      6   D      16             0.8500000    1.000000000000

 H         

     10   S      17            19.2384000    0.032827991019
     10   S      18             2.8987200    0.231203936751
     10   S      19             0.6534720    0.817225776436

     11   S      20             0.1630642    1.000000000000

     12   P      21             1.0000000    1.000000000000

 H         

     13   S      22            19.2384000    0.032827991019
     13   S      23             2.8987200    0.231203936751
     13   S      24             0.6534720    0.817225776436

     14   S      25             0.1630642    1.000000000000

     15   P      26             1.0000000    1.000000000000

 O         

     16   S      27          7817.0000000    0.001176000331
     16   S      28          1176.0000000    0.008968002523
     16   S      29           273.2000000    0.042868012059
     16   S      30            81.1700000    0.143930040487
     16   S      31            27.1800000    0.355630100037
     16   S      32             9.5320000    0.461248129747
     16   S      33             3.4140000    0.140206039439

     17   S      34             9.5320000   -0.154153073905
     17   S      35             0.9398000    1.056914506712

     18   S      36             0.2846000    1.000000000000

     19   P      37            35.1800000    0.019580000501
     19   P      38             7.9040000    0.124200003180
     19   P      39             2.3050000    0.394714010108
     19   P      40             0.7171000    0.627376016066

     20   P      41             0.2137000    1.000000000000

     21   D      42             0.8500000    1.000000000000

 H         

     22   S      43            19.2384000    0.032827991019
     22   S      44             2.8987200    0.231203936751
     22   S      45             0.6534720    0.817225776436

     23   S      46             0.1630642    1.000000000000

     24   P      47             1.0000000    1.000000000000

 TOTAL NUMBER OF BASIS SET SHELLS             =   24
 NUMBER OF CARTESIAN GAUSSIAN BASIS FUNCTIONS =   50
 NUMBER OF ELECTRONS                          =   20
 CHARGE OF MOLECULE                           =    0
 SPIN MULTIPLICITY                            =    1
 NUMBER OF OCCUPIED ORBITALS (ALPHA)          =   10
 NUMBER OF OCCUPIED ORBITALS (BETA )          =   10
 TOTAL NUMBER OF ATOMS                        =    6
 THE NUCLEAR REPULSION ENERGY IS       36.1607002111

     $CONTRL OPTIONS
     ---------------
 SCFTYP=RHF          RUNTYP=MOROKUMA     EXETYP=RUN     
 MPLEVL=       0     CITYP =NONE         CCTYP =NONE         VBTYP =NONE    
 DFTTYP=NONE         TDDFT =NONE    
 MULT  =       1     ICHARG=       0     NZVAR =      12     COORD =ZMT     
 PP    =NONE         RELWFN=NONE         LOCAL =NONE         NUMGRD=       F
 ISPHER=       0     NOSYM =       0     MAXIT =      30     UNITS =ANGS    
 PLTORB=       F     MOLPLT=       F     AIMPAC=       F     FRIEND=        
 NPRINT=       7     IREST =       0     GEOM  =INPUT   
 NORMF =       0     NORMP =       0     ITOL  =      20     ICUT  =       9
 INTTYP=BEST         GRDTYP=BEST         QMTTOL= 1.0E-06
 UNDOCUMENTED OPTION -NOSO- SELECTED

     $SYSTEM OPTIONS
     ---------------
  REPLICATED MEMORY=     1000000 WORDS (ON EVERY NODE).
 DISTRIBUTED MEMDDI=           0 MILLION WORDS IN AGGREGATE,
 MEMDDI DISTRIBUTED OVER   1 PROCESSORS IS           0 WORDS/PROCESSOR.
 TOTAL MEMORY REQUESTED ON EACH PROCESSOR=     1000000 WORDS.
 TIMLIM=           2.00 MINUTES, OR       0.0 DAYS.
 PARALL= F  BALTYP=  DLB     KDIAG=    0  COREFL= F
 MXSEQ2=     300 MXSEQ3=     150  mem10=         0

          ----------------
          PROPERTIES INPUT
          ----------------

     MOMENTS            FIELD           POTENTIAL          DENSITY
 IEMOM =       1   IEFLD =       0   IEPOT =       0   IEDEN =       0
 WHERE =COMASS     WHERE =NUCLEI     WHERE =NUCLEI     WHERE =NUCLEI  
 OUTPUT=BOTH       OUTPUT=BOTH       OUTPUT=BOTH       OUTPUT=BOTH    
 IEMINT=       0   IEFINT=       0                     IEDINT=       0
                                                       MORB  =       0
          EXTRAPOLATION IN EFFECT
          SOSCF IN EFFECT
 ORBITAL PRINTING OPTION: NPREO=     1    50     2     1

     -------------------------------
     INTEGRAL TRANSFORMATION OPTIONS
     -------------------------------
     NWORD  =            0
     CUTOFF = 1.0E-09     MPTRAN =       0
     DIRTRF =       F     AOINTS =DUP     

          ----------------------
          INTEGRAL INPUT OPTIONS
          ----------------------
 NOPK  =       1 NORDER=       0 SCHWRZ=       T

   --- ENCODED Z MATRIX ---
 COORD  TYPE   I   J   K   L   M   N
    1      1    3   1
    2      1    2   1
    3      2    2   1   3
    4      1    4   1
    5      2    4   1   3
    6      2    4   1   2
    7      1    5   4
    8      2    5   4   3
    9      2    5   4   2
   10      1    6   5
   11      2    6   5   4
   12      3    6   5   4   1

 THE DETERMINANT OF THE G MATRIX IS 10**(    -4)


                     --------------------
                     INTERNAL COORDINATES
                     --------------------

                 - - ATOMS - -         COORDINATE      COORDINATE
 NO.   TYPE    I  J  K  L  M  N        (BOHR,RAD)       (ANG,DEG)
 ----------------------------------------------------------------
   1 STRETCH   3  1                     1.8065780       0.9560000
   2 STRETCH   2  1                     1.8065780       0.9560000
   3 BEND      2  1  3                  1.8360864     105.2000000
   4 STRETCH   4  1                     3.8473816       2.0359468
   5 BEND      4  1  3                  1.9949732     114.3035456
   6 BEND      4  1  2                  1.9949732     114.3035456
   7 STRETCH   5  4                     1.8065780       0.9560000
   8 BEND      5  4  3                  2.7706571     158.7469599
   9 BEND      5  4  2                  2.7706571     158.7469599
  10 STRETCH   6  5                     1.8065780       0.9560000
  11 BEND      6  5  4                  1.8360864     105.2000000
  12 TORSION   6  5  4  1               3.1415925     179.9999901

     ------------------------------------------
     THE POINT GROUP IS CS , NAXIS= 0, ORDER= 2
     ------------------------------------------

     DIMENSIONS OF THE SYMMETRY SUBSPACES ARE
 A'  =   35     A'' =   15

 ..... DONE SETTING UP THE RUN .....
 STEP CPU TIME =     0.02 TOTAL CPU TIME =        0.0 (    0.0 MIN)
 TOTAL WALL CLOCK TIME=        0.0 SECONDS, CPU UTILIZATION IS  66.67%
 MOROKUMA ANALYSIS DOES NOT APPLY SYMMETRY OPERATION

                    ----------------------
                    AO INTEGRAL TECHNOLOGY
                    ----------------------
     S,P,L SHELL ROTATED AXIS INTEGRALS, REPROGRAMMED BY
        KAZUYA ISHIMURA (IMS) AND JOSE SIERRA (SYNSTAR).
     S,P,D,L SHELL ROTATED AXIS INTEGRALS PROGRAMMED BY
        KAZUYA ISHIMURA (INSTITUTE FOR MOLECULAR SCIENCE).
     S,P,D,F,G SHELL TO TOTAL QUARTET ANGULAR MOMENTUM SUM 5,
        ERIC PROGRAM BY GRAHAM FLETCHER (ELORET AND NASA ADVANCED
        SUPERCOMPUTING DIVISION, AMES RESEARCH CENTER).
     S,P,D,F,G,L SHELL GENERAL RYS QUADRATURE PROGRAMMED BY
        MICHEL DUPUIS (PACIFIC NORTHWEST NATIONAL LABORATORY).

          --------------------
          2 ELECTRON INTEGRALS
          --------------------

 THE -PK- OPTION IS OFF, THE INTEGRALS ARE NOT IN SUPERMATRIX FORM.
 STORING   15000 INTEGRALS/RECORD ON DISK, USING 12 BYTES/INTEGRAL.
 TWO ELECTRON INTEGRAL EVALUATION REQUIRES   90696 WORDS OF MEMORY.
 SCHWARZ INEQUALITY OVERHEAD:      1274 INTEGRALS, T=        0.00
 II,JST,KST,LST =  1  1  1  1 NREC =         1 INTLOC =    1
 II,JST,KST,LST =  2  1  1  1 NREC =         1 INTLOC =    2
 II,JST,KST,LST =  3  1  1  1 NREC =         1 INTLOC =    7
 II,JST,KST,LST =  4  1  1  1 NREC =         1 INTLOC =   22
 II,JST,KST,LST =  5  1  1  1 NREC =         1 INTLOC =   67
 II,JST,KST,LST =  6  1  1  1 NREC =         1 INTLOC =  214
 II,JST,KST,LST =  7  1  1  1 NREC =         1 INTLOC = 1189
 II,JST,KST,LST =  8  1  1  1 NREC =         1 INTLOC = 3245
 II,JST,KST,LST =  9  1  1  1 NREC =         1 INTLOC = 5710
 II,JST,KST,LST = 10  1  1  1 NREC =         2 INTLOC =  997
 II,JST,KST,LST = 11  1  1  1 NREC =         2 INTLOC = 5533
 II,JST,KST,LST = 12  1  1  1 NREC =         2 INTLOC =10734
 II,JST,KST,LST = 13  1  1  1 NREC =         4 INTLOC =  568
 II,JST,KST,LST = 14  1  1  1 NREC =         4 INTLOC = 8458
 II,JST,KST,LST = 15  1  1  1 NREC =         5 INTLOC = 2257
 II,JST,KST,LST = 16  1  1  1 NREC =         7 INTLOC = 3252
 II,JST,KST,LST = 17  1  1  1 NREC =         7 INTLOC = 7698
 II,JST,KST,LST = 18  1  1  1 NREC =         8 INTLOC = 1267
 II,JST,KST,LST = 19  1  1  1 NREC =         9 INTLOC =  524
 II,JST,KST,LST = 20  1  1  1 NREC =        11 INTLOC = 7287
 II,JST,KST,LST = 21  1  1  1 NREC =        15 INTLOC = 6761
 II,JST,KST,LST = 22  1  1  1 NREC =        23 INTLOC = 4129
 II,JST,KST,LST = 23  1  1  1 NREC =        24 INTLOC =12021
 II,JST,KST,LST = 24  1  1  1 NREC =        27 INTLOC = 2334
 SCHWARZ INEQUALITY TEST SKIPPED        6906 INTEGRAL BLOCKS.
 TOTAL NUMBER OF NONZERO TWO-ELECTRON INTEGRALS =              463197
         31 INTEGRAL RECORDS WERE STORED ON DISK FILE 24.
  ...... END OF TWO-ELECTRON INTEGRALS .....
 CPU     0: STEP CPU TIME=     0.08 TOTAL CPU TIME=        0.1 (    0.0 MIN)
 TOTAL WALL CLOCK TIME=        0.1 SECONDS, CPU UTILIZATION IS  90.91%

          ----------------------
          RUNNING FOR MONOMER  1
          ----------------------

          ********************
          1 ELECTRON INTEGRALS
          ********************
 ...... END OF ONE-ELECTRON INTEGRALS ......
 STEP CPU TIME =     0.00 TOTAL CPU TIME =        0.1 (    0.0 MIN)
 TOTAL WALL CLOCK TIME=        0.1 SECONDS, CPU UTILIZATION IS  90.91%

          -------------
          GUESS OPTIONS
          -------------
          GUESS =HUCKEL            NORB  =       0          NORDER=       0
          MIX   =       F          PRTMO =       F          PUNMO =       F
          TOLZ  = 1.0E-08          TOLE  = 1.0E-05
          SYMDEN=       F          PURIFY=       F

 INITIAL GUESS ORBITALS GENERATED BY HCORE    ROUTINE.

 SYMMETRIES FOR INITIAL GUESS ORBITALS FOLLOW.   BOTH SET(S).
     5 ORBITALS ARE OCCUPIED (    2 CORE ORBITALS).
     3=A        4=A        5=A        6=A        7=A        8=A        9=A   
    10=A       11=A       12=A       13=A       14=A       15=A   
 ...... END OF INITIAL ORBITAL SELECTION ......
 STEP CPU TIME =     0.00 TOTAL CPU TIME =        0.1 (    0.0 MIN)
 TOTAL WALL CLOCK TIME=        0.1 SECONDS, CPU UTILIZATION IS  90.91%


 SIFTING INTEGRALS FOR MONOMER   1 FROM FILE  24
      45570 INTEGRALS IN      4 RECORDS OF 15000 INTEGRALS WRITTEN ON UNIT  8

          --------------------------
                 RHF SCF CALCULATION
          --------------------------

     NUCLEAR ENERGY =         9.2049132945
     MAXIT =   30     NPUNCH=    2
     EXTRAP=T  DAMP=F  SHIFT=F  RSTRCT=F  DIIS=F  DEM=F  SOSCF=T
     DENSITY MATRIX CONV=  1.00E-05
     SOSCF WILL OPTIMIZE     100 ORBITAL ROTATIONS, SOGTOL=   0.250
     MEMORY REQUIRED FOR RHF ITERS=     48325 WORDS.

 ITER EX DEM     TOTAL ENERGY        E CHANGE  DENSITY CHANGE     ORB. GRAD
   1  0  0      -69.0396787971   -69.0396787971   7.701311758   0.000000000
   2  1  0      -71.5631130003    -2.5234342032   7.899651473   0.867691687
   3  2  0      -74.1320878329    -2.5689748327   1.483435209   0.637977204
   4  3  0      -75.1400714567    -1.0079836238   0.909515582   0.518370535
   5  0  0      -75.7068071597    -0.5667357030   0.391556344   0.284259480
          ---------------START SECOND ORDER SCF---------------
   6  1  0      -76.0453891336    -0.3385819739   0.028486735   0.016447373
   7  2  0      -76.0462376283    -0.0008484947   0.010677286   0.008500333
   8  3  0      -76.0464686887    -0.0002310604   0.002097810   0.001171309
   9  4  0      -76.0464777466    -0.0000090579   0.000614385   0.000330872
  10  5  0      -76.0464785092    -0.0000007626   0.000151209   0.000095640
  11  6  0      -76.0464785441    -0.0000000348   0.000037461   0.000022451
  12  7  0      -76.0464785457    -0.0000000016   0.000007979   0.000003600
  13  8  0      -76.0464785458    -0.0000000001   0.000001444   0.000000827

          -----------------
          DENSITY CONVERGED
          -----------------
     TIME TO FORM FOCK OPERATORS=       0.0 SECONDS (       0.0 SEC/ITER)
     TIME TO SOLVE SCF EQUATIONS=       0.0 SECONDS (       0.0 SEC/ITER)

 FINAL RHF ENERGY IS      -76.0464785458 AFTER  13 ITERATIONS
 ...... END OF RHF CALCULATION ......
 STEP CPU TIME =     0.01 TOTAL CPU TIME =        0.1 (    0.0 MIN)
 TOTAL WALL CLOCK TIME=        0.1 SECONDS, CPU UTILIZATION IS  91.67%

          ----------------------
          RUNNING FOR MONOMER  2
          ----------------------

          ********************
          1 ELECTRON INTEGRALS
          ********************
 ...... END OF ONE-ELECTRON INTEGRALS ......
 STEP CPU TIME =     0.00 TOTAL CPU TIME =        0.1 (    0.0 MIN)
 TOTAL WALL CLOCK TIME=        0.1 SECONDS, CPU UTILIZATION IS  91.67%

          -------------
          GUESS OPTIONS
          -------------
          GUESS =HUCKEL            NORB  =       0          NORDER=       0
          MIX   =       F          PRTMO =       F          PUNMO =       F
          TOLZ  = 1.0E-08          TOLE  = 1.0E-05
          SYMDEN=       F          PURIFY=       F

 INITIAL GUESS ORBITALS GENERATED BY HCORE    ROUTINE.

 SYMMETRIES FOR INITIAL GUESS ORBITALS FOLLOW.   BOTH SET(S).
     5 ORBITALS ARE OCCUPIED (    2 CORE ORBITALS).
     3=A        4=A        5=A        6=A        7=A        8=A        9=A   
    10=A       11=A       12=A       13=A       14=A       15=A   
 ...... END OF INITIAL ORBITAL SELECTION ......
 STEP CPU TIME =     0.00 TOTAL CPU TIME =        0.1 (    0.0 MIN)
 TOTAL WALL CLOCK TIME=        0.1 SECONDS, CPU UTILIZATION IS  91.67%


 SIFTING INTEGRALS FOR MONOMER   2 FROM FILE  24
      26108 INTEGRALS IN      2 RECORDS OF 15000 INTEGRALS WRITTEN ON UNIT  8

          --------------------------
                 RHF SCF CALCULATION
          --------------------------

     NUCLEAR ENERGY =         9.2049132945
     MAXIT =   30     NPUNCH=    2
     EXTRAP=T  DAMP=F  SHIFT=F  RSTRCT=F  DIIS=F  DEM=F  SOSCF=T
     DENSITY MATRIX CONV=  1.00E-05
     SOSCF WILL OPTIMIZE     100 ORBITAL ROTATIONS, SOGTOL=   0.250
     MEMORY REQUIRED FOR RHF ITERS=     48325 WORDS.

 ITER EX DEM     TOTAL ENERGY        E CHANGE  DENSITY CHANGE     ORB. GRAD
   1  0  0      -69.0396787971   -69.0396787971   7.701311758   0.000000000
   2  1  0      -71.5631130003    -2.5234342032   7.899651473   0.867691687
   3  2  0      -74.1320878329    -2.5689748327   1.527905635   0.637977204
   4  3  0      -75.1400714567    -1.0079836238   0.933126600   0.518370535
   5  0  0      -75.7068071597    -0.5667357030   0.384972299   0.284259480
          ---------------START SECOND ORDER SCF---------------
   6  1  0      -76.0453846581    -0.3385774985   0.025194784   0.016497024
   7  2  0      -76.0462361943    -0.0008515362   0.011771935   0.008529063
   8  3  0      -76.0464686110    -0.0002324167   0.002054753   0.001178689
   9  4  0      -76.0464777420    -0.0000091310   0.000673928   0.000331699
  10  5  0      -76.0464785088    -0.0000007669   0.000165002   0.000095947
  11  6  0      -76.0464785441    -0.0000000352   0.000051194   0.000022518
  12  7  0      -76.0464785457    -0.0000000017   0.000010195   0.000003619
  13  8  0      -76.0464785458    -0.0000000001   0.000001672   0.000000830
  14  9  0      -76.0464785458    -0.0000000000   0.000000268   0.000000132

          -----------------
          DENSITY CONVERGED
          -----------------
     TIME TO FORM FOCK OPERATORS=       0.0 SECONDS (       0.0 SEC/ITER)
     TIME TO SOLVE SCF EQUATIONS=       0.0 SECONDS (       0.0 SEC/ITER)

 FINAL RHF ENERGY IS      -76.0464785458 AFTER  14 ITERATIONS
 ...... END OF RHF CALCULATION ......
 STEP CPU TIME =     0.02 TOTAL CPU TIME =        0.1 (    0.0 MIN)
 TOTAL WALL CLOCK TIME=        0.1 SECONDS, CPU UTILIZATION IS 100.00%

          ********************
          1 ELECTRON INTEGRALS
          ********************
 ...... END OF ONE-ELECTRON INTEGRALS ......
 STEP CPU TIME =     0.00 TOTAL CPU TIME =        0.1 (    0.0 MIN)
 TOTAL WALL CLOCK TIME=        0.1 SECONDS, CPU UTILIZATION IS 100.00%

          ------------------------------------------
          RUNNING FOR MONOMER (BSSE WITH ALL VIR)  1
          ------------------------------------------

          --------------------------
                 RHF SCF CALCULATION
          --------------------------

     NUCLEAR ENERGY =         9.2049132945
     MAXIT =   30     NPUNCH=    2
     EXTRAP=T  DAMP=F  SHIFT=F  RSTRCT=F  DIIS=F  DEM=F  SOSCF=T
     DENSITY MATRIX CONV=  1.00E-05
     SOSCF WILL OPTIMIZE     225 ORBITAL ROTATIONS, SOGTOL=   0.250
     MEMORY REQUIRED FOR RHF ITERS=     49100 WORDS.

 ITER EX DEM     TOTAL ENERGY        E CHANGE  DENSITY CHANGE     ORB. GRAD
   1  0  0      -76.0464785458   -76.0464785458   0.011442014   0.000000000
          ---------------START SECOND ORDER SCF---------------
   2  1  0      -76.0466990593    -0.0002205135   0.001646825   0.000707306
   3  2  0      -76.0467030290    -0.0000039698   0.000326543   0.000143388
   4  3  0      -76.0467031534    -0.0000001244   0.000058096   0.000040743
   5  4  0      -76.0467031626    -0.0000000092   0.000016869   0.000012659
   6  5  0      -76.0467031635    -0.0000000009   0.000004526   0.000001561
   7  6  0      -76.0467031635    -0.0000000000   0.000002589   0.000000602

          -----------------
          DENSITY CONVERGED
          -----------------
     TIME TO FORM FOCK OPERATORS=       0.0 SECONDS (       0.0 SEC/ITER)
     TIME TO SOLVE SCF EQUATIONS=       0.0 SECONDS (       0.0 SEC/ITER)

 FINAL RHF ENERGY IS      -76.0467031635 AFTER   7 ITERATIONS
 ...... END OF RHF CALCULATION ......
 STEP CPU TIME =     0.04 TOTAL CPU TIME =        0.2 (    0.0 MIN)
 TOTAL WALL CLOCK TIME=        0.2 SECONDS, CPU UTILIZATION IS  94.44%

          ********************
          1 ELECTRON INTEGRALS
          ********************
 ...... END OF ONE-ELECTRON INTEGRALS ......
 STEP CPU TIME =     0.00 TOTAL CPU TIME =        0.2 (    0.0 MIN)
 TOTAL WALL CLOCK TIME=        0.2 SECONDS, CPU UTILIZATION IS  94.44%

          ------------------------------------------
          RUNNING FOR MONOMER (BSSE WITH ALL VIR)  2
          ------------------------------------------

          --------------------------
                 RHF SCF CALCULATION
          --------------------------

     NUCLEAR ENERGY =         9.2049132945
     MAXIT =   30     NPUNCH=    2
     EXTRAP=T  DAMP=F  SHIFT=F  RSTRCT=F  DIIS=F  DEM=F  SOSCF=T
     DENSITY MATRIX CONV=  1.00E-05
     SOSCF WILL OPTIMIZE     225 ORBITAL ROTATIONS, SOGTOL=   0.250
     MEMORY REQUIRED FOR RHF ITERS=     49100 WORDS.

 ITER EX DEM     TOTAL ENERGY        E CHANGE  DENSITY CHANGE     ORB. GRAD
   1  0  0        9.2049132945     9.2049132945   1.999368620   0.000000000
   2  1  0      -69.0322012222   -78.2371145167   1.459735096   1.187030112
   3  2  0      -70.5022181120    -1.4700168899   1.732738670   0.644241847
   4  3  0      -73.8660680273    -3.3638499153   1.178522838   0.575232678
   5  4  0      -74.9223800255    -1.0563119982   0.788595844   0.553259648
   6  0  0      -75.6142958891    -0.6919158637   0.278819314   0.312897548
          ---------------START SECOND ORDER SCF---------------
   7  1  0      -76.0438502332    -0.4295543440   0.028394247   0.019702980
   8  2  0      -76.0459024943    -0.0020522611   0.022412329   0.012951774
   9  3  0      -76.0465113942    -0.0006089000   0.007360528   0.002068988
  10  4  0      -76.0465370185    -0.0000256243   0.001557996   0.000475152
  11  5  0      -76.0465389172    -0.0000018986   0.000260376   0.000150798
  12  6  0      -76.0465390121    -0.0000000949   0.000051907   0.000031103
  13  7  0      -76.0465390153    -0.0000000033   0.000010481   0.000004778
  14  8  0      -76.0465390155    -0.0000000002   0.000002043   0.000001024
  15  9  0      -76.0465390155    -0.0000000000   0.000000429   0.000000174

          -----------------
          DENSITY CONVERGED
          -----------------
     TIME TO FORM FOCK OPERATORS=       0.1 SECONDS (       0.0 SEC/ITER)
     TIME TO SOLVE SCF EQUATIONS=       0.0 SECONDS (       0.0 SEC/ITER)

 FINAL RHF ENERGY IS      -76.0465390155 AFTER  15 ITERATIONS
 ...... END OF RHF CALCULATION ......
 STEP CPU TIME =     0.09 TOTAL CPU TIME =        0.3 (    0.0 MIN)
 TOTAL WALL CLOCK TIME=        0.3 SECONDS, CPU UTILIZATION IS 100.00%

          ********************
          1 ELECTRON INTEGRALS
          ********************
 ...... END OF ONE-ELECTRON INTEGRALS ......
 STEP CPU TIME =     0.00 TOTAL CPU TIME =        0.3 (    0.0 MIN)
 TOTAL WALL CLOCK TIME=        0.3 SECONDS, CPU UTILIZATION IS  96.30%

          ---------------------
          RUNNING FOR E3 AND E4
          ---------------------

          --------------------------
                 RHF SCF CALCULATION
          --------------------------

     NUCLEAR ENERGY =        36.1607002111
     MAXIT =   30     NPUNCH=    2
     EXTRAP=T  DAMP=F  SHIFT=F  RSTRCT=F  DIIS=F  DEM=F  SOSCF=T
     DENSITY MATRIX CONV=  1.00E-05
     SOSCF WILL OPTIMIZE     400 ORBITAL ROTATIONS, SOGTOL=   0.250
     MEMORY REQUIRED FOR RHF ITERS=     49800 WORDS.

 ITER EX DEM     TOTAL ENERGY        E CHANGE  DENSITY CHANGE     ORB. GRAD
   1  0  0     -152.0984676580  -152.0984676580   0.029375519   0.000000000
          ---------------START SECOND ORDER SCF---------------
   2  1  0     -152.1008764120    -0.0024087540   0.008872433   0.003329524
   3  2  0     -152.1010775859    -0.0002011740   0.005612507   0.001338672
   4  3  0     -152.1011120129    -0.0000344270   0.001032368   0.000404500
   5  4  0     -152.1011129687    -0.0000009558   0.000237357   0.000183189
   6  5  0     -152.1011131682    -0.0000001995   0.000061683   0.000023358
   7  6  0     -152.1011131747    -0.0000000066   0.000013303   0.000004134
   8  7  0     -152.1011131751    -0.0000000004   0.000004226   0.000002385
   9  8  0     -152.1011131752    -0.0000000000   0.000001322   0.000000847

          -----------------
          DENSITY CONVERGED
          -----------------
     TIME TO FORM FOCK OPERATORS=       0.0 SECONDS (       0.0 SEC/ITER)
     TIME TO SOLVE SCF EQUATIONS=       0.0 SECONDS (       0.0 SEC/ITER)

 FINAL RHF ENERGY IS     -152.1011131752 AFTER   9 ITERATIONS
 ...... END OF RHF CALCULATION ......
 STEP CPU TIME =     0.05 TOTAL CPU TIME =        0.3 (    0.0 MIN)
 TOTAL WALL CLOCK TIME=        0.3 SECONDS, CPU UTILIZATION IS  96.88%

          ---------------------------------
          RUNNING FOR E6 (SPLIT), IMOL =  1
          ---------------------------------

          --------------------------
                 RHF SCF CALCULATION
          --------------------------

     NUCLEAR ENERGY =        36.1607002111
     MAXIT =   30     NPUNCH=    2
     EXTRAP=T  DAMP=F  SHIFT=F  RSTRCT=F  DIIS=F  DEM=F  SOSCF=T
     DENSITY MATRIX CONV=  1.00E-05
     SOSCF WILL OPTIMIZE     400 ORBITAL ROTATIONS, SOGTOL=   0.250
     MEMORY REQUIRED FOR RHF ITERS=     49800 WORDS.

 ITER EX DEM     TOTAL ENERGY        E CHANGE  DENSITY CHANGE     ORB. GRAD
   1  0  0     -152.1143568003  -152.1143568003   0.027004080   0.000000000
          ---------------START SECOND ORDER SCF---------------
   2  1  0     -152.1158369775    -0.0014801772   0.006892234   0.003575476
   3  2  0     -152.1159031479    -0.0000661704   0.002260551   0.000897945
   4  3  0     -152.1159067655    -0.0000036176   0.000062133   0.000034796
   5  4  0     -152.1159067731    -0.0000000076   0.000013806   0.000006976
   6  5  0     -152.1159067735    -0.0000000004   0.000001613   0.000000698
   7  6  0     -152.1159067735    -0.0000000000   0.000000451   0.000000152

          -----------------
          DENSITY CONVERGED
          -----------------
     TIME TO FORM FOCK OPERATORS=       0.0 SECONDS (       0.0 SEC/ITER)
     TIME TO SOLVE SCF EQUATIONS=       0.0 SECONDS (       0.0 SEC/ITER)

 FINAL RHF ENERGY IS     -152.1159067735 AFTER   7 ITERATIONS
 ...... END OF RHF CALCULATION ......
 STEP CPU TIME =     0.04 TOTAL CPU TIME =        0.3 (    0.0 MIN)
 TOTAL WALL CLOCK TIME=        0.4 SECONDS, CPU UTILIZATION IS  97.22%

          ---------------------------------
          RUNNING FOR E6 (SPLIT), IMOL =  2
          ---------------------------------

          --------------------------
                 RHF SCF CALCULATION
          --------------------------

     NUCLEAR ENERGY =        36.1607002111
     MAXIT =   30     NPUNCH=    2
     EXTRAP=T  DAMP=F  SHIFT=F  RSTRCT=F  DIIS=F  DEM=F  SOSCF=T
     DENSITY MATRIX CONV=  1.00E-05
     SOSCF WILL OPTIMIZE     400 ORBITAL ROTATIONS, SOGTOL=   0.250
     MEMORY REQUIRED FOR RHF ITERS=     49800 WORDS.

 ITER EX DEM     TOTAL ENERGY        E CHANGE  DENSITY CHANGE     ORB. GRAD
   1  0  0     -152.1143568003  -152.1143568003   0.010918647   0.000000000
          ---------------START SECOND ORDER SCF---------------
   2  1  0     -152.1146825910    -0.0003257907   0.001555110   0.001143459
   3  2  0     -152.1146883687    -0.0000057777   0.000264822   0.000164797
   4  3  0     -152.1146884919    -0.0000001232   0.000011671   0.000005098
   5  4  0     -152.1146884920    -0.0000000001   0.000002274   0.000000841
   6  5  0     -152.1146884920    -0.0000000000   0.000000013   0.000000017

          -----------------
          DENSITY CONVERGED
          -----------------
     TIME TO FORM FOCK OPERATORS=       0.0 SECONDS (       0.0 SEC/ITER)
     TIME TO SOLVE SCF EQUATIONS=       0.0 SECONDS (       0.0 SEC/ITER)

 FINAL RHF ENERGY IS     -152.1146884920 AFTER   6 ITERATIONS
 ...... END OF RHF CALCULATION ......
 STEP CPU TIME =     0.03 TOTAL CPU TIME =        0.4 (    0.0 MIN)
 TOTAL WALL CLOCK TIME=        0.4 SECONDS, CPU UTILIZATION IS  97.44%

          -----------------------------------
          RUNNING FOR E8 (RVS POL), IMOL =  1
          -----------------------------------

          --------------------------
                 RHF SCF CALCULATION
          --------------------------

     NUCLEAR ENERGY =        36.1607002111
     MAXIT =   30     NPUNCH=    2
     EXTRAP=T  DAMP=F  SHIFT=F  RSTRCT=F  DIIS=F  DEM=F  SOSCF=T
     DENSITY MATRIX CONV=  1.00E-05
     SOSCF WILL OPTIMIZE     400 ORBITAL ROTATIONS, SOGTOL=   0.250
     MEMORY REQUIRED FOR RHF ITERS=     49800 WORDS.

 ITER EX DEM     TOTAL ENERGY        E CHANGE  DENSITY CHANGE     ORB. GRAD
   1  0  0     -152.0984676580  -152.0984676580   0.009830809   0.000000000
          ---------------START SECOND ORDER SCF---------------
   2  1  0     -152.0988011225    -0.0003334645   0.003209129   0.001413192
   3  2  0     -152.0988262959    -0.0000251734   0.002613180   0.000651696
   4  3  0     -152.0988300832    -0.0000037873   0.000327043   0.000291506
   5  4  0     -152.0988303789    -0.0000002957   0.000083483   0.000070815
   6  5  0     -152.0988303911    -0.0000000122   0.000029462   0.000014567
   7  6  0     -152.0988303922    -0.0000000011   0.000008762   0.000003654
   8  7  0     -152.0988303923    -0.0000000001   0.000000976   0.000000720

          -----------------
          DENSITY CONVERGED
          -----------------
     TIME TO FORM FOCK OPERATORS=       0.0 SECONDS (       0.0 SEC/ITER)
     TIME TO SOLVE SCF EQUATIONS=       0.0 SECONDS (       0.0 SEC/ITER)

 FINAL RHF ENERGY IS     -152.0988303923 AFTER   8 ITERATIONS
 ...... END OF RHF CALCULATION ......
 STEP CPU TIME =     0.05 TOTAL CPU TIME =        0.4 (    0.0 MIN)
 TOTAL WALL CLOCK TIME=        0.4 SECONDS, CPU UTILIZATION IS  97.73%

          -----------------------------------
          RUNNING FOR E8 (RVS POL), IMOL =  2
          -----------------------------------

          --------------------------
                 RHF SCF CALCULATION
          --------------------------

     NUCLEAR ENERGY =        36.1607002111
     MAXIT =   30     NPUNCH=    2
     EXTRAP=T  DAMP=F  SHIFT=F  RSTRCT=F  DIIS=F  DEM=F  SOSCF=T
     DENSITY MATRIX CONV=  1.00E-05
     SOSCF WILL OPTIMIZE     400 ORBITAL ROTATIONS, SOGTOL=   0.250
     MEMORY REQUIRED FOR RHF ITERS=     49800 WORDS.

 ITER EX DEM     TOTAL ENERGY        E CHANGE  DENSITY CHANGE     ORB. GRAD
   1  0  0     -152.0984676580  -152.0984676580   0.015253464   0.000000000
          ---------------START SECOND ORDER SCF---------------
   2  1  0     -152.0990784044    -0.0006107464   0.004762460   0.002532467
   3  2  0     -152.0991390166    -0.0000606122   0.003133699   0.001067345
   4  3  0     -152.0991493960    -0.0000103794   0.000499563   0.000402301
   5  4  0     -152.0991499656    -0.0000005696   0.000126769   0.000132810
   6  5  0     -152.0991500154    -0.0000000498   0.000028793   0.000019758
   7  6  0     -152.0991500173    -0.0000000019   0.000008930   0.000003529
   8  7  0     -152.0991500175    -0.0000000002   0.000000800   0.000000592

          -----------------
          DENSITY CONVERGED
          -----------------
     TIME TO FORM FOCK OPERATORS=       0.1 SECONDS (       0.0 SEC/ITER)
     TIME TO SOLVE SCF EQUATIONS=       0.0 SECONDS (       0.0 SEC/ITER)

 FINAL RHF ENERGY IS     -152.0991500175 AFTER   8 ITERATIONS
 ...... END OF RHF CALCULATION ......
 STEP CPU TIME =     0.05 TOTAL CPU TIME =        0.5 (    0.0 MIN)
 TOTAL WALL CLOCK TIME=        0.5 SECONDS, CPU UTILIZATION IS  97.96%

          ----------------------------------
          RUNNING FOR E9 (RVS CT), IMOL =  1
          ----------------------------------

          --------------------------
                 RHF SCF CALCULATION
          --------------------------

     NUCLEAR ENERGY =        36.1607002111
     MAXIT =   30     NPUNCH=    2
     EXTRAP=T  DAMP=F  SHIFT=F  RSTRCT=F  DIIS=F  DEM=F  SOSCF=T
     DENSITY MATRIX CONV=  1.00E-05
     SOSCF WILL OPTIMIZE     400 ORBITAL ROTATIONS, SOGTOL=   0.250
     MEMORY REQUIRED FOR RHF ITERS=     49800 WORDS.

 ITER EX DEM     TOTAL ENERGY        E CHANGE  DENSITY CHANGE     ORB. GRAD
   1  0  0     -152.0984676580  -152.0984676580   0.020223002   0.000000000
          ---------------START SECOND ORDER SCF---------------
   2  1  0     -152.1000751410    -0.0016074830   0.005098317   0.003709744
   3  2  0     -152.1001751509    -0.0001000099   0.002750023   0.001013694
   4  3  0     -152.1001866727    -0.0000115218   0.000375592   0.000206530
   5  4  0     -152.1001868771    -0.0000002043   0.000100382   0.000079244
   6  5  0     -152.1001869201    -0.0000000430   0.000021887   0.000009632
   7  6  0     -152.1001869212    -0.0000000011   0.000010863   0.000002460
   8  7  0     -152.1001869213    -0.0000000001   0.000002940   0.000000716
   9  8  0     -152.1001869213    -0.0000000000   0.000000877   0.000000198

          -----------------
          DENSITY CONVERGED
          -----------------
     TIME TO FORM FOCK OPERATORS=       0.0 SECONDS (       0.0 SEC/ITER)
     TIME TO SOLVE SCF EQUATIONS=       0.0 SECONDS (       0.0 SEC/ITER)

 FINAL RHF ENERGY IS     -152.1001869213 AFTER   9 ITERATIONS
 ...... END OF RHF CALCULATION ......
 STEP CPU TIME =     0.05 TOTAL CPU TIME =        0.5 (    0.0 MIN)
 TOTAL WALL CLOCK TIME=        0.5 SECONDS, CPU UTILIZATION IS  98.15%

          ----------------------------------
          RUNNING FOR E9 (RVS CT), IMOL =  2
          ----------------------------------

          --------------------------
                 RHF SCF CALCULATION
          --------------------------

     NUCLEAR ENERGY =        36.1607002111
     MAXIT =   30     NPUNCH=    2
     EXTRAP=T  DAMP=F  SHIFT=F  RSTRCT=F  DIIS=F  DEM=F  SOSCF=T
     DENSITY MATRIX CONV=  1.00E-05
     SOSCF WILL OPTIMIZE     400 ORBITAL ROTATIONS, SOGTOL=   0.250
     MEMORY REQUIRED FOR RHF ITERS=     49800 WORDS.

 ITER EX DEM     TOTAL ENERGY        E CHANGE  DENSITY CHANGE     ORB. GRAD
   1  0  0     -152.0984676580  -152.0984676580   0.015053736   0.000000000
          ---------------START SECOND ORDER SCF---------------
   2  1  0     -152.0992751135    -0.0008074555   0.004604486   0.002670342
   3  2  0     -152.0993378584    -0.0000627450   0.003065222   0.001091993
   4  3  0     -152.0993482811    -0.0000104227   0.000502556   0.000314471
   5  4  0     -152.0993487549    -0.0000004738   0.000136283   0.000123822
   6  5  0     -152.0993488142    -0.0000000594   0.000030585   0.000018698
   7  6  0     -152.0993488162    -0.0000000019   0.000009192   0.000003452
   8  7  0     -152.0993488163    -0.0000000001   0.000000912   0.000000525

          -----------------
          DENSITY CONVERGED
          -----------------
     TIME TO FORM FOCK OPERATORS=       0.0 SECONDS (       0.0 SEC/ITER)
     TIME TO SOLVE SCF EQUATIONS=       0.0 SECONDS (       0.0 SEC/ITER)

 FINAL RHF ENERGY IS     -152.0993488163 AFTER   8 ITERATIONS
 ...... END OF RHF CALCULATION ......
 STEP CPU TIME =     0.05 TOTAL CPU TIME =        0.6 (    0.0 MIN)
 TOTAL WALL CLOCK TIME=        0.6 SECONDS, CPU UTILIZATION IS  98.31%

          ********************
          1 ELECTRON INTEGRALS
          FOR SA(1)SB(2) = 0 
          ********************
 ...... END OF ONE-ELECTRON INTEGRALS ......
 STEP CPU TIME =     0.00 TOTAL CPU TIME =        0.6 (    0.0 MIN)
 TOTAL WALL CLOCK TIME=        0.6 SECONDS, CPU UTILIZATION IS  98.31%


 SIFTING INTEGRALS FROM FILE  24
     158550 INTEGRALS IN     11 RECORDS OF 15000 INTEGRALS WRITTEN ON UNIT  8

          ---------------------
          RUNNING FOR E1 AND E2
          ---------------------

          --------------------------
                 RHF SCF CALCULATION
          --------------------------

     NUCLEAR ENERGY =        36.1607002111
     MAXIT =   30     NPUNCH=    2
     EXTRAP=T  DAMP=F  SHIFT=F  RSTRCT=F  DIIS=F  DEM=F  SOSCF=T
     DENSITY MATRIX CONV=  1.00E-05
     SOSCF WILL OPTIMIZE     400 ORBITAL ROTATIONS, SOGTOL=   0.250
     MEMORY REQUIRED FOR RHF ITERS=     49800 WORDS.

 ITER EX DEM     TOTAL ENERGY        E CHANGE  DENSITY CHANGE     ORB. GRAD
   1  0  0     -152.1055389616  -152.1055389616   0.011159138   0.000000000
          ---------------START SECOND ORDER SCF---------------
   2  1  0     -152.1063291760    -0.0007902145   0.005622484   0.002803480
   3  2  0     -152.1064193886    -0.0000902126   0.003520654   0.001007137
   4  3  0     -152.1064374934    -0.0000181048   0.000582556   0.000410517
   5  4  0     -152.1064387861    -0.0000012927   0.000135559   0.000102946
   6  5  0     -152.1064388281    -0.0000000420   0.000048579   0.000022392
   7  6  0     -152.1064388322    -0.0000000042   0.000009145   0.000004326
   8  7  0     -152.1064388324    -0.0000000002   0.000001555   0.000000750

          -----------------
          DENSITY CONVERGED
          -----------------
     TIME TO FORM FOCK OPERATORS=       0.0 SECONDS (       0.0 SEC/ITER)
     TIME TO SOLVE SCF EQUATIONS=       0.0 SECONDS (       0.0 SEC/ITER)

 FINAL RHF ENERGY IS     -152.1064388324 AFTER   8 ITERATIONS
 ...... END OF RHF CALCULATION ......
 STEP CPU TIME =     0.03 TOTAL CPU TIME =        0.6 (    0.0 MIN)
 TOTAL WALL CLOCK TIME=        0.6 SECONDS, CPU UTILIZATION IS 100.00%

          ---------------------------------
          RUNNING FOR E2 (SPLIT), IMOL =  1
          ---------------------------------

          ********************
          1 ELECTRON INTEGRALS
          FOR SA(1)SB(2) = 0 
          ********************
 ...... END OF ONE-ELECTRON INTEGRALS ......
 STEP CPU TIME =     0.00 TOTAL CPU TIME =        0.6 (    0.0 MIN)
 TOTAL WALL CLOCK TIME=        0.6 SECONDS, CPU UTILIZATION IS 100.00%

          --------------------------
                 RHF SCF CALCULATION
          --------------------------

     NUCLEAR ENERGY =        36.1607002111
     MAXIT =   30     NPUNCH=    2
     EXTRAP=T  DAMP=F  SHIFT=F  RSTRCT=F  DIIS=F  DEM=F  SOSCF=T
     DENSITY MATRIX CONV=  1.00E-05
     SOSCF WILL OPTIMIZE     400 ORBITAL ROTATIONS, SOGTOL=   0.250
     MEMORY REQUIRED FOR RHF ITERS=     49800 WORDS.

 ITER EX DEM     TOTAL ENERGY        E CHANGE  DENSITY CHANGE     ORB. GRAD
   1  0  0     -152.1055389616  -152.1055389616   0.012999829   0.000000000
          ---------------START SECOND ORDER SCF---------------
   2  1  0     -152.1059895997    -0.0004506381   0.004116280   0.002656413
   3  2  0     -152.1060330359    -0.0000434362   0.003555252   0.000875413
   4  3  0     -152.1060401508    -0.0000071149   0.000453296   0.000382575
   5  4  0     -152.1060407205    -0.0000005697   0.000092880   0.000072879
   6  5  0     -152.1060407345    -0.0000000141   0.000036370   0.000016965
   7  6  0     -152.1060407363    -0.0000000017   0.000008080   0.000003162
   8  7  0     -152.1060407363    -0.0000000001   0.000001361   0.000000747

          -----------------
          DENSITY CONVERGED
          -----------------
     TIME TO FORM FOCK OPERATORS=       0.0 SECONDS (       0.0 SEC/ITER)
     TIME TO SOLVE SCF EQUATIONS=       0.0 SECONDS (       0.0 SEC/ITER)

 FINAL RHF ENERGY IS     -152.1060407363 AFTER   8 ITERATIONS
 ...... END OF RHF CALCULATION ......
 STEP CPU TIME =     0.02 TOTAL CPU TIME =        0.6 (    0.0 MIN)
 TOTAL WALL CLOCK TIME=        0.6 SECONDS, CPU UTILIZATION IS 100.00%

          ---------------------------------
          RUNNING FOR E2 (SPLIT), IMOL =  2
          ---------------------------------

          ********************
          1 ELECTRON INTEGRALS
          FOR SA(1)SB(2) = 0 
          ********************
 ...... END OF ONE-ELECTRON INTEGRALS ......
 STEP CPU TIME =     0.00 TOTAL CPU TIME =        0.6 (    0.0 MIN)
 TOTAL WALL CLOCK TIME=        0.6 SECONDS, CPU UTILIZATION IS 100.00%

          --------------------------
                 RHF SCF CALCULATION
          --------------------------

     NUCLEAR ENERGY =        36.1607002111
     MAXIT =   30     NPUNCH=    2
     EXTRAP=T  DAMP=F  SHIFT=F  RSTRCT=F  DIIS=F  DEM=F  SOSCF=T
     DENSITY MATRIX CONV=  1.00E-05
     SOSCF WILL OPTIMIZE     400 ORBITAL ROTATIONS, SOGTOL=   0.250
     MEMORY REQUIRED FOR RHF ITERS=     49800 WORDS.

 ITER EX DEM     TOTAL ENERGY        E CHANGE  DENSITY CHANGE     ORB. GRAD
   1  0  0     -152.1055389616  -152.1055389616   0.008814358   0.000000000
          ---------------START SECOND ORDER SCF---------------
   2  1  0     -152.1058385100    -0.0002995484   0.002791753   0.001692966
   3  2  0     -152.1058620300    -0.0000235200   0.002123839   0.000533254
   4  3  0     -152.1058666584    -0.0000046284   0.000183572   0.000189222
   5  4  0     -152.1058669084    -0.0000002500   0.000050970   0.000041623
   6  5  0     -152.1058669179    -0.0000000096   0.000021789   0.000013077
   7  6  0     -152.1058669188    -0.0000000008   0.000002864   0.000001346
   8  7  0     -152.1058669188    -0.0000000000   0.000000933   0.000000391

          -----------------
          DENSITY CONVERGED
          -----------------
     TIME TO FORM FOCK OPERATORS=       0.0 SECONDS (       0.0 SEC/ITER)
     TIME TO SOLVE SCF EQUATIONS=       0.0 SECONDS (       0.0 SEC/ITER)

 FINAL RHF ENERGY IS     -152.1058669188 AFTER   8 ITERATIONS
 ...... END OF RHF CALCULATION ......
 STEP CPU TIME =     0.01 TOTAL CPU TIME =        0.6 (    0.0 MIN)
 TOTAL WALL CLOCK TIME=        0.6 SECONDS, CPU UTILIZATION IS  98.46%

          ------------------------------------
          RESULTS OF KITAURA-MOROKUMA ANALYSIS
          ------------------------------------

                                         HARTREE    KCAL/MOLE
 ELECTROSTATIC ENERGY             ES=   -0.012582      -7.90
 EXCHANGE REPULSION ENERGY        EX=    0.007071       4.44
 POLARIZATION ENERGY              PL=   -0.000900      -0.56
 CHARGE TRANSFER ENERGY           CT=   -0.001882      -1.18
 HIGH ORDER COUPLING ENERGY      MIX=    0.000136       0.09
 TOTAL INTERACTION ENERGY,   DELTA-E=   -0.008156      -5.12

 DECOMPOSITION OF CT
 CHARGE TRANSFER ENERGY, MON=  1  CT=   -0.001550      -0.97
 CHARGE TRANSFER ENERGY, MON=  2  CT=   -0.000332      -0.21

 DECOMPOSITION OF PL
 EPL,                    MON=  1  PL=   -0.000502      -0.31
 EPL,                    MON=  2  PL=   -0.000328      -0.21
 HIGH ORDER COUPLING FOR PL,    PMIX=   -0.000070      -0.04

          -----------------------
          RESULTS OF RVS ANALYSIS
          -----------------------

                                        HARTREE    KCAL/MOLE
 ES (ELECTROSTATIC, OR COULOMB)       -0.012582      -7.90
 EX (EXCHANGE REPULSION)               0.007071       4.44
 POL         MONOMER  1               -0.000363      -0.23
 POL         MONOMER  2               -0.000682      -0.43
 CT          MONOMER  1               -0.001132      -0.71
 CT          MONOMER  2               -0.000138      -0.09

          TOTAL COULOMB/EXCHANGE      -0.005511      -3.46
          TOTAL POLARIZATION          -0.001045      -0.66
          TOTAL CHARGE TRANSFER       -0.001270      -0.80
          TOTAL OF CEX+POL+CT         -0.007826      -4.91
          TOTAL INTERACTION ENERGY    -0.008156      -5.12

 BSSE(VIR)   MONOMER  1               -0.000225      -0.14
 BSSE(VIR)   MONOMER  2               -0.000060      -0.04
 TOTAL BSSE                           -0.000285      -0.18
 BSSE CORRECTED TOTAL INTERACTION     -0.007871      -4.94

 ... END OF MOROKUMA DECOMPOSITION ...
 STEP CPU TIME =     0.00 TOTAL CPU TIME =        0.6 (    0.0 MIN)
 TOTAL WALL CLOCK TIME=        0.6 SECONDS, CPU UTILIZATION IS  98.46%
               580000  WORDS OF DYNAMIC MEMORY USED
 EXECUTION OF GAMESS TERMINATED NORMALLY Wed Aug  9 21:04:57 2017
 DDI: 263640 bytes (0.3 MB / 0 MWords) used by master data server.

 ----------------------------------------
 CPU timing information for all processes
 ========================================
 0: 0.588 + 0.66 = 0.655
 ----------------------------------------
 ddikick.x: exited gracefully.
unset echo
----- accounting info -----
Files used on the master node compute-0-6.local were:
-rw-rw-r-- 1 sarom sarom 3.3K Aug  9 21:04 /scratch/moro-wat2.F05
-rw-rw-r-- 1 sarom sarom 1.9M Aug  9 21:04 /scratch/moro-wat2.F08
-rw-rw-r-- 1 sarom sarom 1.8M Aug  9 21:04 /scratch/moro-wat2.F10
-rw-rw-r-- 1 sarom sarom 5.4M Aug  9 21:04 /scratch/moro-wat2.F24
rm: No match.
ls: No match.
ls: No match.
ls: No match.
Wed Aug  9 21:05:00 CDT 2017
0.247u 0.150s 0:04.12 9.4%	0+0k 8+360io 0pf+0w
/opt/gridengine/default/spool/compute-0-6/active_jobs/36011.1/pe_hostfile compute-0-6.local
