-catch_rsh /opt/gridengine/default/spool/compute-1-7/active_jobs/35796.1/pe_hostfile
compute-1-7
The primary node assigned by SGE to this run is compute-1-7
Warning: no access to tty (Bad file descriptor).
Thus no job control in this shell.
source /home/sarom/dir.git.branch.saromleang-travis-ci/install.info
setenv GMS_PATH /home/sarom/dir.git.branch.saromleang-travis-ci
setenv GMS_BUILD_DIR /home/sarom/dir.git.branch.saromleang-travis-ci
setenv GMS_TARGET linux64
setenv GMS_FORTRAN gfortran
setenv GMS_GFORTRAN_VERNO 4.4
setenv GMS_MATHLIB mkl-so
setenv GMS_MATHLIB none
setenv GMS_MATHLIB_PATH /share/apps/intel/compilers_and_libraries_2017.1.132/linux/mkl/lib/intel64
setenv GMS_MKL_VERNO 12
setenv GMS_DDI_COMM sockets
setenv GMS_LIBCCHEM false
setenv GMS_EIGEN_PATH
setenv GMS_PHI false
setenv GMS_SHMTYPE sysv
setenv GMS_OPENMP false
unset echo
efp1-fo-irc
/home/sarom/dir.git.branch.saromleang-travis-ci/tests/solvent/efp1/parallel
----- GAMESS execution script 'rungms' -----
This job is running on host compute-1-7.local
under operating system Linux at Wed Aug 9 20:14:11 CDT 2017
Available scratch disk space (Kbyte units) at beginning of the job is
Filesystem           1K-blocks      Used Available Use% Mounted on
/dev/sda1             16126920   8505684   6802036  56% /
GAMESS temporary binary files will be written to /scratch
GAMESS supplementary output files will be written to /home/sarom/restart
Copying input file efp1-fo-irc.inp to your run's scratch directory...
cp /home/sarom/dir.git.branch.saromleang-travis-ci/tests/solvent/efp1/parallel/efp1-fo-irc.inp /scratch/efp1-fo-irc.F05
unset echo
The generated host list is
compute-1-7.local
/home/sarom/dir.git.branch.saromleang-travis-ci/ddikick.x /home/sarom/dir.git.branch.saromleang-travis-ci/gamess.00.x efp1-fo-irc -ddi 1 1 compute-1-7.local -scr /scratch

 Distributed Data Interface kickoff program.
 Initiating 1 compute processes on 1 nodes to run the following command:
 /home/sarom/dir.git.branch.saromleang-travis-ci/gamess.00.x efp1-fo-irc 

          ******************************************************
          *         GAMESS VERSION = 20 APR 2017 (R1)          *
          *             FROM IOWA STATE UNIVERSITY             *
          * M.W.SCHMIDT, K.K.BALDRIDGE, J.A.BOATZ, S.T.ELBERT, *
          *   M.S.GORDON, J.H.JENSEN, S.KOSEKI, N.MATSUNAGA,   *
          *          K.A.NGUYEN, S.J.SU, T.L.WINDUS,           *
          *       TOGETHER WITH M.DUPUIS, J.A.MONTGOMERY       *
          *         J.COMPUT.CHEM.  14, 1347-1363(1993)        *
          **************** 64 BIT LINUX VERSION ****************

  SINCE 1993, STUDENTS AND POSTDOCS WORKING AT IOWA STATE UNIVERSITY
  AND ALSO IN THEIR VARIOUS JOBS AFTER LEAVING ISU HAVE MADE IMPORTANT
  CONTRIBUTIONS TO THE CODE:
     IVANA ADAMOVIC, CHRISTINE AIKENS, YURI ALEXEEV, POOJA ARORA,
     ANDREY ASADCHEV, ROB BELL, PRADIPTA BANDYOPADHYAY, JONATHAN BENTZ,
     BRETT BODE, KURT BRORSEN, CALEB CARLIN, GALINA CHABAN, WEI CHEN,
     CHEOL HO CHOI, PAUL DAY, ALBERT DEFUSCO, NUWAN DESILVA, TIM DUDLEY,
     DMITRI FEDOROV, GRAHAM FLETCHER, MARK FREITAG, KURT GLAESEMANN,
     DAN KEMP, GRANT MERRILL, NORIYUKI MINEZAWA, JONATHAN MULLIN,
     TAKESHI NAGATA, SEAN NEDD, HEATHER NETZLOFF, BOSILJKA NJEGIC, RYAN OLSON,
     MIKE PAK, SPENCER PRUITT, LUKE ROSKOP, JIM SHOEMAKER, LYUDMILA SLIPCHENKO,
     TONY SMITH, SAROM SOK LEANG, JIE SONG, TETSUYA TAKETSUGU, SIMON WEBB,
     PENG XU, SOOHAENG YOO, FEDERICO ZAHARIEV

  ADDITIONAL CODE HAS BEEN PROVIDED BY COLLABORATORS IN OTHER GROUPS:
     IOWA STATE UNIVERSITY:
          JOE IVANIC, AARON WEST, LAIMUTIS BYTAUTAS, KLAUS RUEDENBERG
     UNIVERSITY OF TOKYO: KIMIHIKO HIRAO, TAKAHITO NAKAJIMA,
          TAKAO TSUNEDA, MUNEAKI KAMIYA, SUSUMU YANAGISAWA,
          KIYOSHI YAGI, MAHITO CHIBA, SEIKEN TOKURA, NAOAKI KAWAKAMI
     UNIVERSITY OF AARHUS: FRANK JENSEN
     UNIVERSITY OF IOWA: VISVALDAS KAIRYS, HUI LI
     NATIONAL INST. OF STANDARDS AND TECHNOLOGY: WALT STEVENS, DAVID GARMER
     UNIVERSITY OF PISA: BENEDETTA MENNUCCI, JACOPO TOMASI
     UNIVERSITY OF MEMPHIS: HENRY KURTZ, PRAKASHAN KORAMBATH
     UNIVERSITY OF ALBERTA: TOBY ZENG, MARIUSZ KLOBUKOWSKI
     UNIVERSITY OF NEW ENGLAND: MARK SPACKMAN
     MIE UNIVERSITY: HIROAKI UMEDA
     NAT. INST. OF ADVANCED INDUSTRIAL SCIENCE AND TECHNOLOGY: KAZUO KITAURA
     MICHIGAN STATE UNIVERSITY:
          KAROL KOWALSKI, MARTA WLOCH, JEFFREY GOUR, JESSE LUTZ,
          WEI LI, PIOTR PIECUCH
     UNIVERSITY OF SILESIA: MONIKA MUSIAL, STANISLAW KUCHARSKI
     FACULTES UNIVERSITAIRES NOTRE-DAME DE LA PAIX:
          OLIVIER QUINET, BENOIT CHAMPAGNE
     UNIVERSITY OF CALIFORNIA - SANTA BARBARA: BERNARD KIRTMAN
     INSTITUTE FOR MOLECULAR SCIENCE:
          KAZUYA ISHIMURA, MICHIO KATOUDA, AND SHIGERU NAGASE
     UNIVERSITY OF NOTRE DAME: ANNA POMOGAEVA, DAN CHIPMAN
     KYUSHU UNIVERSITY:
          HARUYUKI NAKANO,
          FENG LONG GU, JACEK KORCHOWIEC, MARCIN MAKOWSKI, AND YURIKO AOKI,
          HIROTOSHI MORI AND EISAKU MIYOSHI
     PENNSYLVANIA STATE UNIVERSITY:
          TZVETELIN IORDANOV, CHET SWALINA, JONATHAN SKONE,
          SHARON HAMMES-SCHIFFER
     WASEDA UNIVERSITY:
          MASATO KOBAYASHI, TOMOKO AKAMA, TSUGUKI TOUMA,
          TAKESHI YOSHIKAWA, YASUHIRO IKABATA, JUNJI SEINO,
          YUYA NAKAJIMA, HIROMI NAKAI
     NANJING UNIVERSITY: SHUHUA LI
     UNIVERSITY OF NEBRASKA:
          PEIFENG SU, DEJUN SI, NANDUN THELLAMUREGE, YALI WANG, HUI LI
     UNIVERSITY OF ZURICH: ROBERTO PEVERATI, KIM BALDRIDGE
     N. COPERNICUS UNIVERSITY AND JACKSON STATE UNIVERSITY:
          MARIA BARYSZ
     UNIVERSITY OF COPENHAGEN: Jimmy Kromann, CASPER STEINMANN
     TOKYO INSTITUTE OF TECHNOLOGY: HIROYA NAKATA
     NAGOYA UNIVERSITY: YOSHIO NISHIMOTO, STEPHAN IRLE
     MOSCOW STATE UNIVERSITY: VLADIMIR MIRONOV

 EXECUTION OF GAMESS BEGUN Wed Aug  9 20:14:11 2017

            ECHO OF THE FIRST FEW INPUT CARDS -
 INPUT CARD>!  efp irc of water pentamer (H20)5                                             
 INPUT CARD>!                                                                               
 INPUT CARD>!  Point  1 on reaction path: FINAL EFP ENERGY= -.0472384019, S=  0.24966       
 INPUT CARD>!  Point 43 on reaction path: FINAL EFP ENERGY= -.0501465142, S= 10.71197       
 INPUT CARD>!                                                                               
 INPUT CARD>!     this run ends the IRC gracefully, saying that it                          
 INPUT CARD>!     has reached the minimum based on such a small gradient.                   
 INPUT CARD>!     Because it is many steps, the path distance to point 43                   
 INPUT CARD>!     will vary a little bit, eg in 3rd decimal place.                          
 INPUT CARD>!                                                                               
 INPUT CARD>!  This run takes 0 seconds on 2.66 GHz Cloverton (20 Mar 2007)                 
 INPUT CARD>!                                                                               
 INPUT CARD> $contrl runtyp=irc coord=fragonly $end                                         
 INPUT CARD> $system mwords=3 $end                                                          
 INPUT CARD> $statpt opttol=0.00001 hess=read $end                                          
 INPUT CARD> $irc pace=gs2 opttol=0.00001 stride=0.25 npoint=100 saddle=.t. $end            
 INPUT CARD> $efrag                                                                         
 INPUT CARD> coord=cart polmethd=frgscf position=optimize                                   
 INPUT CARD> FRAGNAME=h2orhf                                                                
 INPUT CARD> ZO1                .3916076915  -1.4279610353    .2112990425                   
 INPUT CARD> ZH2               1.2517782014  -1.5789864487    .5693164617                   
 INPUT CARD> ZH3                .2179300551   -.5047403849    .3028313507                   
 INPUT CARD> FRAGNAME=h2orhf                                                                
 INPUT CARD> ZO1               2.6103512528    .0139492822   1.5820296372                   
 INPUT CARD> ZH2               2.7909481869    .1495050017   2.4984835905                   
 INPUT CARD> ZH3               2.0679044684    .7342057977   1.3029947072                   
 INPUT CARD> FRAGNAME=h2orhf                                                                
 INPUT CARD> ZO1                .6841386476   1.9053801992    .3542213915                   
 INPUT CARD> ZH2               -.2310747549   1.7765483310    .1627397171                   
 INPUT CARD> ZH3               1.0450056656   2.3984899259   -.3651507284                   
 INPUT CARD> FRAGNAME=h2orhf                                                                
 INPUT CARD> ZO1              -1.7729268109  -1.5534203503  -1.6274688033                   
 INPUT CARD> ZH2              -1.6013508578  -1.7779672962  -2.5280346340                   
 INPUT CARD> ZH3              -1.0460126940  -1.8817182023  -1.1227957993                   
 INPUT CARD> FRAGNAME=h2orhf                                                                
 INPUT CARD> ZO1              -1.9403281188   1.0602563764   -.4416658592                   
 INPUT CARD> ZH2              -1.9784324888    .2610377267   -.9423414638                   
 INPUT CARD> ZH3              -2.7135981964   1.0786390379    .0992536533                   
 INPUT CARD> $end                                                                           
 INPUT CARD> $HESS                                                                          
 INPUT CARD>ENERGY IS        -.0472272128 E(NUC) IS         .0000000000                     
 INPUT CARD> 1  1 1.24326613E-02 3.28091651E-03 9.36474176E-03 1.29552735E-03 4.03909637E-03
 INPUT CARD> 1  2-1.84355343E-03-5.44258102E-03-3.56096940E-03-2.96305399E-03-1.74949961E-03
 INPUT CARD> 1  3 3.00993532E-04 6.37603774E-04-1.23915889E-04 1.78854651E-03-1.34986326E-04
 INPUT CARD> 1  4 1.61344404E-04-8.88963348E-04-1.96156439E-03-6.65009031E-03-2.83555082E-04
 INPUT CARD> 1  5-5.86396890E-03 8.83213888E-04-2.89546148E-04-1.92938465E-03-2.16079553E-04
 INPUT CARD> 1  6-1.22493843E-03-4.02727263E-04 1.47575922E-03 6.18105165E-04-1.99251947E-03
 INPUT CARD> 2  1 3.28091651E-03 9.45875697E-03 3.61582037E-03 4.80452630E-03 4.12065866E-03
 INPUT CARD> 2  2-3.71370411E-03-3.49816832E-03-2.46165864E-03-1.74060179E-03-2.83440088E-03
 INPUT CARD> 2  3 2.46984507E-04 2.37847392E-03 1.83116728E-03-3.31236593E-03 1.80904589E-04
    3000000 WORDS OF MEMORY AVAILABLE

     $CONTRL OPTIONS
     ---------------
 SCFTYP=RHF          RUNTYP=IRC          EXETYP=RUN     
 MPLEVL=       0     CITYP =NONE         CCTYP =NONE         VBTYP =NONE    
 DFTTYP=NONE         TDDFT =NONE    
 MULT  =       1     ICHARG=       0     NZVAR =       0     COORD =FRAGONLY
 PP    =NONE         RELWFN=NONE         LOCAL =NONE         NUMGRD=       F
 ISPHER=      -1     NOSYM =       0     MAXIT =      30     UNITS =ANGS    
 PLTORB=       F     MOLPLT=       F     AIMPAC=       F     FRIEND=        
 NPRINT=       7     IREST =       0     GEOM  =INPUT   
 NORMF =       0     NORMP =       0     ITOL  =      20     ICUT  =       9
 INTTYP=BEST         GRDTYP=BEST         QMTTOL= 1.0E-06

     $SYSTEM OPTIONS
     ---------------
  REPLICATED MEMORY=     3000000 WORDS (ON EVERY NODE).
 DISTRIBUTED MEMDDI=           0 MILLION WORDS IN AGGREGATE,
 MEMDDI DISTRIBUTED OVER   1 PROCESSORS IS           0 WORDS/PROCESSOR.
 TOTAL MEMORY REQUESTED ON EACH PROCESSOR=     3000000 WORDS.
 TIMLIM=      525600.00 MINUTES, OR     365.0 DAYS.
 PARALL= F  BALTYP=  DLB     KDIAG=    0  COREFL= F
 MXSEQ2=     300 MXSEQ3=     150  mem10=         0

 READING $EFRAG GROUP
 COORD=CART      POSITION=OPTIMIZE  POLMETHD=FRGSCF   NBUFFMO=0
 READING COORDINATES OF FRAGMENT   1 NAMED   H2ORHF
 READING COORDINATES OF FRAGMENT   2 NAMED   H2ORHF
 READING COORDINATES OF FRAGMENT   3 NAMED   H2ORHF
 READING COORDINATES OF FRAGMENT   4 NAMED   H2ORHF
 READING COORDINATES OF FRAGMENT   5 NAMED   H2ORHF
 FINISHED READING $EFRAG GROUP,   5 FRAGMENTS WILL BE USED.



     SUMMARY OF THE EFFECTIVE FRAGMENT POTENTIAL MODEL CHOSEN
     --------------------------------------------------------
 TOTAL NUMBER OF MULTIPOLE POINTS   =        40  (EFP1/EFP2 ELECTROSTATICS)
 TOTAL NUMBER OF POLARIZABLE POINTS =        25  (EFP1/EFP2 INDUCTION)
 TOTAL NUMBER OF L-J POINTS         =         0  (REPULSION AND DISPERSION)
 TOTAL NUMBER OF REPULSIVE POINTS   =        15  (EFP1 REPULSION/ETC.)

 THIS IS A -EFP1- TYPE RUN, WITH PAULI REPULSION, CHARGE TRANSFER, AND
 HIGHER ORDER EFFECTS COLLECTED IN A FITTED REPULSIVE POTENTIAL.

 OPTIONS FOR EFP SCREENING:
     ELECTROSTATIC EFP-EFP SCREENING CHOICE IS GAUSSIAN, FOR CHARGE/CHARGE
     POLARIZATION EFP-EFP SCREENING IS OFF

     $EWALD OPTIONS
     -----------

     IFEWLD   =        F         TINFOIL        =        T
     BETA    =    0.200         ELECTRIC CONST =     1.00
     EPSILON =     1.00         CUT_OFF        = 0.10E+04
     CUTLIST =  1000.00         LEVEL          =    1
     KMAX    =       10         EWLDPL         =        F

            MULTIPOLE COORDINATES, ELECTRONIC AND NUCLEAR CHARGES

                  X              Y              Z           ELEC.   NUC.
 ZO1        0.7400312316  -2.6984550779   0.3992972918    8.00000    0.0
 ZH2        2.3655177981  -2.9838517264   1.0758521129    1.00000    0.0
 ZH3        0.4118280886  -0.9538210225   0.5722682733    1.00000    0.0
 O1         0.7400312316  -2.6984550779   0.3992972918   -8.21083    0.0
 H2         2.3655177981  -2.9838517264   1.0758521129   -0.55665    0.0
 H3         0.4118280886  -0.9538210225   0.5722682733   -0.55665    0.0
 B12        1.5527742102  -2.8411537448   0.7375745029   -0.33793    0.0
 B13        0.5759293555  -1.8261383928   0.4857825831   -0.33793    0.0
 ZO1        4.9328485995   0.0263603211   2.9896025188    8.00000    0.0
 ZH2        5.2741273191   0.2825234870   4.7214493707    1.00000    0.0
 ZH3        3.9077728141   1.3874477761   2.4623029600    1.00000    0.0
 O1         4.9328485995   0.0263603211   2.9896025188   -8.21083    0.0
 H2         5.2741273191   0.2825234870   4.7214493707   -0.55665    0.0
 H3         3.9077728141   1.3874477761   2.4623029600   -0.55665    0.0
 B12        5.1034881199   0.1544415243   3.8555256619   -0.33793    0.0
 B13        4.4203108674   0.7069036689   2.7259524565   -0.33793    0.0
 ZO1        1.2928345816   3.6006464789   0.6693813689    8.00000    0.0
 ZH2       -0.4366679695   3.3571895495   0.3075334726    1.00000    0.0
 ZH3        1.9747743636   4.5324887442  -0.6900348208    1.00000    0.0
 O1         1.2928345816   3.6006464789   0.6693813689   -8.21083    0.0
 H2        -0.4366679695   3.3571895495   0.3075334726   -0.55665    0.0
 H3         1.9747743636   4.5324887442  -0.6900348208   -0.55665    0.0
 B12        0.4280835520   3.4789178526   0.4884578250   -0.33793    0.0
 B13        1.6338047186   4.0665674499  -0.0103263218   -0.33793    0.0
 ZO1       -3.3503458689  -2.9355388058  -3.0754700918    8.00000    0.0
 ZH2       -3.0261143314  -3.3598710050  -4.7772927458    1.00000    0.0
 ZH3       -1.9766773713  -3.5559317885  -2.1217764007    1.00000    0.0
 O1        -3.3503458689  -2.9355388058  -3.0754700918   -8.21083    0.0
 H2        -3.0261143314  -3.3598710050  -4.7772927458   -0.55665    0.0
 H3        -1.9766773713  -3.5559317885  -2.1217764007   -0.55665    0.0
 B12       -3.1882304989  -3.1477046601  -3.9263812431   -0.33793    0.0
 B13       -2.6635120188  -3.2457350518  -2.5986230706   -0.33793    0.0
 ZO1       -3.6666884708   2.0035940281  -0.8346274520    8.00000    0.0
 ZH2       -3.7386952890   0.4932897759  -1.7807671534    1.00000    0.0
 ZH3       -5.1279570319   2.0383322213   0.1875622080    1.00000    0.0
 O1        -3.6666884708   2.0035940281  -0.8346274520   -8.21083    0.0
 H2        -3.7386952890   0.4932897759  -1.7807671534   -0.55665    0.0
 H3        -5.1279570319   2.0383322213   0.1875622080   -0.55665    0.0
 B12       -3.7026915199   1.2484422485  -1.3076973206   -0.33793    0.0
 B13       -4.3973223913   2.0209634712  -0.3235326399   -0.33793    0.0

   CHARGE SCREENING PARAMETERS (COEF AND ZETA)
   ICHGP=   3 AI-FRAGMENT SCREENING= 1   FRAGMENT-FRAGMENT SCREENING= 1

             GAUSSIAN DAMPING    EXPONENTIAL DAMPING
 ZO1        3.17107   0.30798      3.17107   0.30798
 ZH2       -0.74355   0.22035     -0.74355   0.22035
 ZH3       -0.74355   0.22035     -0.74355   0.22035
 O1         3.06389   0.30817      3.06389   0.30817
 H2        -1.50149   0.23358     -1.50149   0.23358
 H3        -1.50149   0.23358     -1.50149   0.23358
 B12        1.99014   0.44003      1.99014   0.44003
 B13        1.99014   0.44003      1.99014   0.44003
 ZO1        3.17107   0.30798      3.17107   0.30798
 ZH2       -0.74355   0.22035     -0.74355   0.22035
 ZH3       -0.74355   0.22035     -0.74355   0.22035
 O1         3.06389   0.30817      3.06389   0.30817
 H2        -1.50149   0.23358     -1.50149   0.23358
 H3        -1.50149   0.23358     -1.50149   0.23358
 B12        1.99014   0.44003      1.99014   0.44003
 B13        1.99014   0.44003      1.99014   0.44003
 ZO1        3.17107   0.30798      3.17107   0.30798
 ZH2       -0.74355   0.22035     -0.74355   0.22035
 ZH3       -0.74355   0.22035     -0.74355   0.22035
 O1         3.06389   0.30817      3.06389   0.30817
 H2        -1.50149   0.23358     -1.50149   0.23358
 H3        -1.50149   0.23358     -1.50149   0.23358
 B12        1.99014   0.44003      1.99014   0.44003
 B13        1.99014   0.44003      1.99014   0.44003
 ZO1        3.17107   0.30798      3.17107   0.30798
 ZH2       -0.74355   0.22035     -0.74355   0.22035
 ZH3       -0.74355   0.22035     -0.74355   0.22035
 O1         3.06389   0.30817      3.06389   0.30817
 H2        -1.50149   0.23358     -1.50149   0.23358
 H3        -1.50149   0.23358     -1.50149   0.23358
 B12        1.99014   0.44003      1.99014   0.44003
 B13        1.99014   0.44003      1.99014   0.44003
 ZO1        3.17107   0.30798      3.17107   0.30798
 ZH2       -0.74355   0.22035     -0.74355   0.22035
 ZH3       -0.74355   0.22035     -0.74355   0.22035
 O1         3.06389   0.30817      3.06389   0.30817
 H2        -1.50149   0.23358     -1.50149   0.23358
 H3        -1.50149   0.23358     -1.50149   0.23358
 B12        1.99014   0.44003      1.99014   0.44003
 B13        1.99014   0.44003      1.99014   0.44003

   SCREENING FOR POLARIZATION WITH EXPONENTIAL FORMULA  OFF

   SCREENING FOR POLARIZATION WITH TANG-TOENNIS FORMULA  OFF

                  DIPOLE MOMENTS AND THE SECOND MOMENT TENSOR

                  X        Y        Z           XX/XY    YY/XZ    ZZ/YZ
 O1            0.26534  0.29847  0.17376     -3.93118 -3.84829 -4.44852
                                             -0.26086  0.23178  0.01267
 H2            0.05277 -0.01967  0.02005     -0.26865 -0.28165 -0.28147
                                             -0.00014  0.00722  0.00052
 H3           -0.02027  0.05622  0.00123     -0.28207 -0.26596 -0.28374
                                             -0.00072  0.00109  0.00314
 B12          -0.16404  0.03000 -0.06806     -0.12255 -0.14212 -0.15035
                                             -0.00668  0.01404 -0.00034
 B13           0.03423 -0.17602 -0.01695     -0.14369 -0.11741 -0.15392
                                             -0.00758  0.00439  0.00379
 O1           -0.13986  0.33079  0.24638     -4.28756 -4.13452 -3.80591
                                             -0.29345  0.27209 -0.08376
 H2            0.01698 -0.00040  0.05731     -0.28357 -0.28116 -0.26703
                                             -0.00094  0.00214  0.00476
 H3           -0.03410  0.04091 -0.02714     -0.27862 -0.27170 -0.28144
                                             -0.00880  0.00187 -0.00140
 B12          -0.03512 -0.02485 -0.17490     -0.15069 -0.14669 -0.11764
                                             -0.00518  0.00884  0.00394
 B13           0.10354 -0.13698  0.05437     -0.14289 -0.13178 -0.14034
                                             -0.01755  0.00842 -0.00575
 O1           -0.21427  0.14080 -0.35206     -3.76061 -4.34347 -4.12390
                                              0.25356 -0.08861 -0.26256
 H2           -0.05819 -0.01335 -0.00291     -0.26750 -0.28388 -0.28038
                                              0.00137  0.00554 -0.00103
 H3            0.03195  0.03059 -0.04020     -0.28089 -0.27959 -0.27129
                                              0.00250 -0.00268 -0.00821
 B12           0.17477  0.02520  0.03550     -0.11724 -0.15211 -0.14567
                                              0.00719  0.00525 -0.00472
 B13          -0.06995 -0.09408  0.13674     -0.13832 -0.14536 -0.13135
                                              0.00898 -0.00770 -0.01602
 O1            0.34729 -0.21369 -0.15302     -4.12002 -4.43429 -3.67368
                                             -0.21253  0.18967  0.02242
 H2            0.00165 -0.00942 -0.05901     -0.28062 -0.28248 -0.26866
                                             -0.00295 -0.00448  0.00480
 H3            0.04088 -0.01675  0.04027     -0.27118 -0.28139 -0.27919
                                             -0.00674  0.00539 -0.00216
 B12          -0.03170  0.04232  0.17218     -0.14589 -0.15211 -0.11702
                                             -0.00626 -0.00247  0.00707
 B13          -0.13820  0.06222 -0.09732     -0.13102 -0.15040 -0.13359
                                             -0.01222  0.01306 -0.00389
 O1           -0.31361 -0.30181  0.01556     -4.08001 -4.04521 -4.10277
                                             -0.00959 -0.33100  0.34240
 H2            0.00677 -0.04736 -0.03584     -0.28180 -0.26996 -0.28000
                                              0.00338  0.00018  0.00747
 H3           -0.04517  0.01040  0.03774     -0.27052 -0.28204 -0.27921
                                              0.00254 -0.00809  0.00009
 B12           0.00622  0.15222  0.09607     -0.14650 -0.12707 -0.14145
                                              0.00267 -0.00514  0.01763
 B13           0.14721 -0.00457 -0.10368     -0.12873 -0.14609 -0.14021
                                              0.00134 -0.01817  0.00600

                  THE THIRD MOMENT TENSOR

               XXX/XYY  YYY/YYZ  ZZZ/XZZ  XXY/YZZ  XXZ/XYZ
 O1            0.57326  0.64059  0.40087  0.24139  0.11729
               0.21958  0.13129  0.19892  0.23359  0.00735
 H2            0.03987 -0.02635  0.01993 -0.00646 -0.00085
               0.01827  0.00662  0.01613 -0.00861  0.00086
 H3           -0.02659  0.03896 -0.00078  0.01937 -0.00029
              -0.00561 -0.00299 -0.00903  0.02026 -0.00001
 B12          -0.48108  0.11207 -0.19667  0.03599 -0.06518
              -0.16170 -0.06466 -0.16023  0.03499  0.00039
 B13           0.12169 -0.51531 -0.04251 -0.17294 -0.01158
               0.03972 -0.01362  0.03959 -0.17195 -0.00017
 O1           -0.31383  0.74748  0.51989  0.24132  0.19540
              -0.09094  0.20556 -0.11798  0.24755 -0.01202
 H2            0.02134 -0.00507  0.04178 -0.00153  0.02039
               0.00716  0.01996  0.00319 -0.00546 -0.00023
 H3           -0.03366  0.03210 -0.03373  0.00839 -0.00945
              -0.00420 -0.00827 -0.01124  0.01277 -0.00268
 B12          -0.11372 -0.05530 -0.51508 -0.01772 -0.17255
              -0.04034 -0.17235 -0.03838 -0.01830  0.00089
 B13           0.30523 -0.39583  0.18277 -0.13213  0.05894
               0.10123  0.05930  0.10329 -0.13120 -0.00031
 O1           -0.44640  0.31866 -0.79817  0.11346 -0.25702
              -0.17194 -0.26069 -0.18250  0.09414  0.01326
 H2           -0.04347 -0.01724  0.00180 -0.00294  0.00543
              -0.02127  0.00034 -0.01988 -0.00579  0.00021
 H3            0.03817  0.03066 -0.03083  0.00935 -0.01152
               0.01102 -0.00906  0.00876  0.00350  0.00327
 B12           0.51673  0.08349  0.08621  0.02860  0.02840
               0.17292  0.02843  0.17304  0.03019 -0.00103
 B13          -0.22819 -0.27663  0.39385 -0.09344  0.13032
              -0.07387  0.13153 -0.07451 -0.09165  0.00023
 O1            0.78599 -0.49445 -0.31163 -0.15741 -0.13983
               0.26553 -0.12047  0.24650 -0.14681  0.00865
 H2           -0.00309 -0.00789 -0.04641 -0.00213 -0.02078
              -0.00136 -0.02084 -0.00494  0.00251 -0.00153
 H3            0.03139 -0.01575  0.04482  0.00010  0.00923
               0.01185  0.01493  0.00940 -0.00345  0.00319
 B12          -0.07492  0.11699  0.51298  0.03695  0.17234
              -0.02537  0.17061 -0.02400  0.03808 -0.00072
 B13          -0.39854  0.17705 -0.30755  0.05824 -0.10072
              -0.13274 -0.10050 -0.13233  0.05749  0.00057
 O1           -0.70018 -0.66856  0.03369 -0.24033 -0.01135
              -0.24670  0.03579 -0.22528 -0.21915  0.00199
 H2            0.01200 -0.03638 -0.03855 -0.01644 -0.01368
               0.00557 -0.00498  0.00398 -0.01165  0.00050
 H3           -0.03493  0.01596  0.03951  0.00594  0.00538
              -0.01566  0.01426 -0.01000  0.00498  0.00004
 B12          -0.00068  0.44337  0.29166  0.14756  0.09971
               0.00036  0.09675 -0.00091  0.14844 -0.00036
 B13           0.42759 -0.03301 -0.31283 -0.01027 -0.10376
               0.14211 -0.10683  0.14303 -0.01136  0.00023

                  POLARIZABLE POINTS AND THE POLARIZABILITY TENSOR

              X       Y       Z       XX/YZ    YY/YX    ZZ/ZX    XY/ZY     XZ
 LMO1      0.7402 -2.6983  0.3994   0.00143  0.00146  0.00135  0.00007  0.00007
                                    0.00006  0.00007  0.00007  0.00006
 LMO2      0.5895 -1.7434  0.5071   0.73344  2.90030  0.78830 -0.19426 -0.05956
                                    0.15389 -0.52170 -0.11965  0.30073
 LMO3      1.6287 -2.8232  0.7749   2.61837  0.69720  1.10646 -0.44087  0.74046
                                   -0.06730 -0.11343  0.80054 -0.21414
 LMO4      0.7618 -2.8154 -0.1564   0.97294  1.12764  1.06814 -0.27330  0.50283
                                    0.40494 -0.37338  0.09941  0.01669
 LMO5      0.3667 -2.9771  0.7247   1.33816  1.29576  0.53479 -0.09324 -0.18823
                                   -0.39244  0.00684  0.21519 -0.00419
 LMO1      4.9328  0.0265  2.9897   0.00135  0.00146  0.00143 -0.00007 -0.00002
                                    0.00009 -0.00007 -0.00002  0.00009
 LMO2      4.3749  0.7803  2.7315   1.50989  2.08148  0.83067 -0.93290  0.43179
                                   -0.65456 -1.01972  0.24130 -0.35696
 LMO3      5.1017  0.1926  3.9331   0.81503  0.75251  2.85450  0.08294  0.27887
                                    0.50674  0.16976  0.46937  0.20914
 LMO4      5.4259  0.0635  2.7095   1.10781  0.71843  1.34247 -0.14351  0.09838
                                    0.03157 -0.59247 -0.12120 -0.23996
 LMO5      4.6251 -0.4491  2.9432   0.71765  1.30911  1.14195 -0.25595  0.27936
                                   -0.15459  0.19301  0.49894  0.11694
 LMO1      1.2927  3.6007  0.6692   0.00141  0.00135  0.00148 -0.00002  0.00008
                                   -0.00007 -0.00002  0.00008 -0.00007
 LMO2      1.6361  4.1091 -0.0856   0.95784  1.38689  2.07731  0.32552 -0.50592
                                   -0.84824  0.49813 -0.81612 -0.92803
 LMO3      0.3535  3.4839  0.4450   2.83656  0.78519  0.80029  0.33868  0.33876
                                    0.07960  0.16607  0.64896  0.15938
 LMO4      1.3275  3.9247  1.1349   1.19396  0.66953  1.30522  0.45712  0.07308
                                   -0.21894  0.25888 -0.16049  0.26028
 LMO5      1.5421  3.0900  0.6704   1.35420  1.07896  0.73555 -0.10530 -0.20219
                                   -0.13768  0.09295  0.03137 -0.61690
 LMO1     -3.3502 -2.9356 -3.0755   0.00148  0.00137  0.00139 -0.00010 -0.00005
                                    0.00004 -0.00010 -0.00005  0.00004
 LMO2     -2.5882 -3.2849 -2.5821   2.10503  1.05078  1.26623 -0.57110  1.08349
                                   -0.52868 -0.61668  0.76743 -0.35429
 LMO3     -3.1464 -3.1806 -3.9945   0.77985  0.89845  2.74374 -0.08520 -0.61725
                                    0.62281 -0.03962 -0.30118  0.44841
 LMO4     -3.3458 -2.3687 -3.0354   0.73935  1.12708  1.30228 -0.57648  0.21319
                                    0.00011 -0.04876  0.25216  0.20867
 LMO5     -3.8151 -3.2192 -2.9128   1.30708  0.49397  1.36767  0.29105  0.05289
                                    0.02763 -0.23668  0.01392 -0.18092
 LMO1     -3.6668  2.0035 -0.8346   0.00145  0.00145  0.00134  0.00010 -0.00003
                                    0.00002  0.00010 -0.00003  0.00002
 LMO2     -4.4724  1.9947 -0.2895   2.27819  0.68235  1.46150 -0.15700 -1.12339
                                   -0.14187  0.10683 -0.94951  0.03855
 LMO3     -3.7334  1.1729 -1.3365   0.69399  2.37787  1.35017  0.22546  0.21203
                                    1.07487 -0.03837  0.03816  0.89446
 LMO4     -3.2162  1.9696 -0.4900   1.31700  0.83014  1.02158 -0.20686  0.11331
                                    0.56682  0.18430 -0.19373  0.29073
 LMO5     -3.7016  2.4375 -1.1999   0.78661  1.32206  1.06004  0.18466 -0.56838
                                   -0.09515 -0.20650 -0.26134  0.18094

                    --------------                     ------------------
                      REP POINTS                         REP PARAMETERS  
                    --------------                     ------------------

                X         Y         Z               COEF       N          ZETA

  O1         0.74003  -2.69846   0.39930        -0.00016       0       0.01886
                                                 1.24695       0       0.41986
  H2         2.36552  -2.98385   1.07585         0.00044       0       0.06432
                                                 0.11726       0       0.69633
  H3         0.41183  -0.95382   0.57227         0.00044       0       0.06432
                                                 0.11726       0       0.69633
  O1         4.93285   0.02636   2.98960        -0.00016       0       0.01886
                                                 1.24695       0       0.41986
  H2         5.27413   0.28252   4.72145         0.00044       0       0.06432
                                                 0.11726       0       0.69633
  H3         3.90777   1.38745   2.46230         0.00044       0       0.06432
                                                 0.11726       0       0.69633
  O1         1.29283   3.60065   0.66938        -0.00016       0       0.01886
                                                 1.24695       0       0.41986
  H2        -0.43667   3.35719   0.30753         0.00044       0       0.06432
                                                 0.11726       0       0.69633
  H3         1.97477   4.53249  -0.69003         0.00044       0       0.06432
                                                 0.11726       0       0.69633
  O1        -3.35035  -2.93554  -3.07547        -0.00016       0       0.01886
                                                 1.24695       0       0.41986
  H2        -3.02611  -3.35987  -4.77729         0.00044       0       0.06432
                                                 0.11726       0       0.69633
  H3        -1.97668  -3.55593  -2.12178         0.00044       0       0.06432
                                                 0.11726       0       0.69633
  O1        -3.66669   2.00359  -0.83463        -0.00016       0       0.01886
                                                 1.24695       0       0.41986
  H2        -3.73870   0.49329  -1.78077         0.00044       0       0.06432
                                                 0.11726       0       0.69633
  H3        -5.12796   2.03833   0.18756         0.00044       0       0.06432
                                                 0.11726       0       0.69633

 THERE ARE   1 FRAGMENT TYPES, AND   1 FRAGMENT-FRAGMENT INTERACTIONS.

 REPULSIVE FIT FOR FRAGMENT PAIR H2ORHF-H2ORHF (COEF,EXPONENT)
 O1      -O1         -24.26976500    1.43620410
 O1      -H2           3.70228520    1.66183490
 O1      -H3           3.70228520    1.66183490
 O1      -CENTER       4.26456410    1.25780170
 H2      -O1           3.70228520    1.66183490
 H2      -H2           6.23169300    3.52648490
 H2      -H3           6.23169300    3.52648490
 H2      -CENTER      -0.42798437    1.13356290
 H3      -O1           3.70228520    1.66183490
 H3      -H2           6.23169300    3.52648490
 H3      -H3           6.23169300    3.52648490
 H3      -CENTER      -0.42798437    1.13356290
 CENTER  -O1           4.26456410    1.25780170
 CENTER  -H2          -0.42798437    1.13356290
 CENTER  -H3          -0.42798437    1.13356290
 CENTER  -CENTER     128.74969000    1.87124510

          ----------------
          PROPERTIES INPUT
          ----------------

     MOMENTS            FIELD           POTENTIAL          DENSITY
 IEMOM =       1   IEFLD =       0   IEPOT =       0   IEDEN =       0
 WHERE =COMASS     WHERE =NUCLEI     WHERE =NUCLEI     WHERE =NUCLEI  
 OUTPUT=BOTH       OUTPUT=BOTH       OUTPUT=BOTH       OUTPUT=BOTH    
 IEMINT=       0   IEFINT=       0                     IEDINT=       0
                                                       MORB  =       0
          EXTRAPOLATION IN EFFECT
 ORBITAL PRINTING OPTION: NPREO=     1     0     2     1

     -------------------------------
     INTEGRAL TRANSFORMATION OPTIONS
     -------------------------------
     NWORD  =            0
     CUTOFF = 1.0E-09     MPTRAN =       0
     DIRTRF =       F     AOINTS =DUP     

          ----------------------
          INTEGRAL INPUT OPTIONS
          ----------------------
 NOPK  =       1 NORDER=       0 SCHWRZ=       F

 ..... DONE SETTING UP THE RUN .....
 STEP CPU TIME =     0.03 TOTAL CPU TIME =        0.0 (    0.0 MIN)
 TOTAL WALL CLOCK TIME=        0.0 SECONDS, CPU UTILIZATION IS 100.00%

          -----------------------------
          INTRINSIC REACTION COORDINATE
          -----------------------------
          PACE   =GS2     
          STRIDE = 0.25000 BOHR*SQRT(AMU)
          NPOINT =     100
          NEXTPT =       0
          STOTAL =  0.0000 BOHR*SQRT(AMU)
          SAB    =  0.0000 BOHR*SQRT(AMU)
          NPRT   =       0
          NPUN   =       0

          SADDLE =       T
          TSENGY =       F
          FORWRD =       T
          EVIB   = 0.00050 HARTREE
          FREQ   =     0.0 CM**-1

          STABLZ =       F
          ELBOW  =  175.00 DEGREES
          DELTA  = 0.02500 BOHR

          READQB =       F
          EB     =        0.0000000000 HARTREES
          GBNORM =        0.0000000000 HARTREES/SQRT(AMU)-BOHR

          GCUT   = 0.0000833 HARTREES/SQRT(AMU)-BOHR
          RCUT   = 0.0008333 BOHR
          ACUT   =    5.00 DEGREES
          MXOPT  =      20
          IHUPD  =       2

 ATOMIC MASSES USED (IN AMU) ARE

 FRAGMENT MASSES USED ARE (IN AMU)
    1  H2ORHF   18.010560
    2  H2ORHF   18.010560
    3  H2ORHF   18.010560
    4  H2ORHF   18.010560
    5  H2ORHF   18.010560

 FRAGMENT MOMENTS OF INERTIA USED (LOW TRIANGLE) ARE (IN AMU)
    1  H2ORHF    3.480328   1.151372   3.127293  -0.988970  -0.039624   5.706099
    2  H2ORHF    5.006844   1.255662   4.371174  -1.186870   0.386071   2.935702
    3  H2ORHF    2.735482  -1.105455   5.248725   0.405268   1.121068   4.329514
    4  H2ORHF    4.311761   0.897505   5.649047  -0.835844  -0.087416   2.352913
    5  H2ORHF    4.132202   0.069147   3.979565   1.430144  -1.482256   4.201953

 JUMP AWAY FROM SADDLE POINT WILL BE FOUND FROM THE INPUT HESSIAN MATRIX


 JUMPING OFF SADDLE POINT ALONG THE IMAGINARY NORMAL MODE...

 $HESS GROUP READ FROM CARDS
 ENERGY IS        -.0472272128 E(NUC) IS         .0000000000                     
 INITIAL DISPLACEMENT=  0.13 ALONG MODE WITH FREQUENCY=      95.386 I CM**-1
 THE COMPONENTS OF THE DISPLACEMENT ARE (BOHR) -

 THE COMPONENTS OF THE MASS_WEIGHTED DISPLACEMENT  FOR EFFECTIVE FRAGMENT(S) ARE (BORE*AMU**0.5) -
   -0.042716  -0.017973   0.037522       0.018338   0.019426   0.044682      -0.018689  -0.001011  -0.042508
 THE COMPONENTS OF THE MASS_WEIGHTED DISPLACEMENT  FOR EFFECTIVE FRAGMENT(S) ARE (BORE*AMU**0.5) -
    0.002983  -0.003384  -0.004017       0.019992   0.056728   0.018449      -0.006081  -0.008010   0.009580
 THE COMPONENTS OF THE MASS_WEIGHTED DISPLACEMENT  FOR EFFECTIVE FRAGMENT(S) ARE (BORE*AMU**0.5) -
    0.010353  -0.007117  -0.024718       0.002286   0.007020  -0.000111       0.031060  -0.030626   0.011254
 THE COMPONENTS OF THE MASS_WEIGHTED DISPLACEMENT  FOR EFFECTIVE FRAGMENT(S) ARE (BORE*AMU**0.5) -
    0.004006  -0.007334  -0.009592

 *********************************************
 ***** STARTING CONSTRAINED OPTIMIZATION *****
 *** TO FIND THE NEXT REACTION PATH POINT ****
 *********************************************
 CONSTRAINED OPTIMIZATION POINT   1 FOR PATH POINT   1
  
 COORDINATES OF FRAGMENT MULTIPOLE CENTERS (ANGS)
 MULTIPOLE NAME        X              Y              Z
 ------------------------------------------------------------
 FRAGNAME=H2ORHF
 ZO1               0.3822311939  -1.4333854394   0.2203774818
 ZH2               1.2541831047  -1.5577119805   0.5596726786
 ZH3               0.1739652168  -0.5200271663   0.3356181074
 FRAGNAME=H2ORHF
 ZO1               2.6056193394   0.0137087294   1.5713727319
 ZH2               2.7836284627   0.1461480798   2.4887881365
 ZH3               2.0670338377   0.7368725819   1.2923778324
 FRAGNAME=H2ORHF
 ZO1               0.6888476814   1.9203952448   0.3593272188
 ZH2              -0.2229428713   1.7793217183   0.1602927941
 ZH3               1.0512344667   2.4102344277  -0.3615138503
 FRAGNAME=H2ORHF
 ZO1              -1.7702203970  -1.5552402536  -1.6332906943
 ZH2              -1.6038251213  -1.7782528295  -2.5352089042
 ZH3              -1.0403500960  -1.8842683821  -1.1333824142
 FRAGNAME=H2ORHF
 ZO1              -1.9320050778   1.0520436539  -0.4381068643
 ZH2              -1.9752362015   0.2566803309  -0.9444730446
 ZH3              -2.7104642586   1.0768488697   0.0950577061

                 --------------------------------------
                 FRAGMENT-FRAGMENT INTERACTION ENERGIES
                 --------------------------------------

                 ELECTROSTATIC ENERGY  =  -0.0590898139
                 REPULSION ENERGY      =   0.0219228223
                 POLARIZATION ENERGY   =  -0.0100710809
                 --------------------------------------
                 FINAL EFP ENERGY      =  -0.0472380725

                     -----------------------------
                     FRAGMENT GRADIENT INFORMATION
                     -----------------------------


      FRAGMENT NO.    1     E'X               E'Y               E'Z 
      TOTALS           0.000128392       0.000053783      -0.000110433
      TORQUE          -0.000023546      -0.000023186      -0.000077637

      FRAGMENT NO.    2     E'X               E'Y               E'Z 
      TOTALS           0.000061176      -0.000010609       0.000116300
      TORQUE          -0.000034224      -0.000030272       0.000011184

      FRAGMENT NO.    3     E'X               E'Y               E'Z 
      TOTALS          -0.000063414      -0.000143021      -0.000027675
      TORQUE          -0.000029274       0.000027681      -0.000035854

      FRAGMENT NO.    4     E'X               E'Y               E'Z 
      TOTALS          -0.000016315       0.000019166       0.000063265
      TORQUE          -0.000013001       0.000005454      -0.000060360

      FRAGMENT NO.    5     E'X               E'Y               E'Z 
      TOTALS          -0.000109839       0.000080681      -0.000041457
      TORQUE          -0.000050259       0.000065715      -0.000009317

      TOTAL FORCE ON ALL FRAGMENTS
      FORCE            0.000000000      -0.000000000      -0.000000000

 UNITS ARE HARTREE/BOHR    E'X               E'Y               E'Z 
      TOTAL QM TRANS.  0.000000000       0.000000000       0.000000000
      TOTAL QM TORQUE  0.000000000       0.000000000       0.000000000
  EFP           TRANS GRADIENT                           TORQUE
    1   0.0001284  0.0000538 -0.0001104    -0.0000235 -0.0000232 -0.0000776
    2   0.0000612 -0.0000106  0.0001163    -0.0000342 -0.0000303  0.0000112
    3  -0.0000634 -0.0001430 -0.0000277    -0.0000293  0.0000277 -0.0000359
    4  -0.0000163  0.0000192  0.0000633    -0.0000130  0.0000055 -0.0000604
    5  -0.0001098  0.0000807 -0.0000415    -0.0000503  0.0000657 -0.0000093

 CURRENT OPTIMIZATION POINT :
 ENERGY                                 =    -0.0472381 HARTREE
 MASS WEIGHTED TANGENT GRADIENT NORM    =     0.0000669 HARTREE/BOHR-SQRT(AMU)
 NEXT GEOMETRY STEP HAS PREDICTED ANGLE =         5.985 DEGREES
 AND CARTESIAN RMS DISPLACEMENT         =     0.0073938 BOHR

 CONSTRAINED OPTIMIZATION POINT   2 FOR PATH POINT   1
  
 COORDINATES OF FRAGMENT MULTIPOLE CENTERS (ANGS)
 MULTIPOLE NAME        X              Y              Z
 ------------------------------------------------------------
 FRAGNAME=H2ORHF
 ZO1               0.3821349240  -1.4332098580   0.2203521070
 ZH2               1.2542106991  -1.5580550464   0.5591381390
 ZH3               0.1740640996  -0.5199478113   0.3367025268
 FRAGNAME=H2ORHF
 ZO1               2.6055883678   0.0139203379   1.5714350030
 ZH2               2.7855081938   0.1464529360   2.4884641305
 ZH3               2.0668313269   0.7373151141   1.2933715161
 FRAGNAME=H2ORHF
 ZO1               0.6888739509   1.9199296299   0.3591478856
 ZH2              -0.2228610215   1.7789477515   0.1597941695
 ZH3               1.0509406390   2.4120048534  -0.3603298014
 FRAGNAME=H2ORHF
 ZO1              -1.7705671859  -1.5553773492  -1.6333670366
 ZH2              -1.6011817201  -1.7753011632  -2.5354870586
 ZH3              -1.0407362230  -1.8831655878  -1.1325875539
 FRAGNAME=H2ORHF
 ZO1              -1.9317406947   1.0518204563  -0.4378900731
 ZH2              -1.9748385763   0.2567180686  -0.9446772274
 ZH3              -2.7118005376   1.0778393097   0.0928717519
                 FINAL EFP ENERGY      =  -0.0472384021

 UNITS ARE HARTREE/BOHR    E'X               E'Y               E'Z 
      TOTAL QM TRANS.  0.000000000       0.000000000       0.000000000
      TOTAL QM TORQUE  0.000000000       0.000000000       0.000000000
  EFP           TRANS GRADIENT                           TORQUE
    1   0.0001294  0.0000492 -0.0001121    -0.0000260 -0.0000287 -0.0000733
    2   0.0000535 -0.0000021  0.0001238    -0.0000059 -0.0000009  0.0000055
    3  -0.0000599 -0.0001597 -0.0000510    -0.0000018  0.0000113 -0.0000169
    4  -0.0000267  0.0000183  0.0000742    -0.0000088 -0.0000039 -0.0000029
    5  -0.0000963  0.0000942 -0.0000349    -0.0000017  0.0000134  0.0000124

 ANGLE TO PREVIOUS OPTIMIZATION POINT IS   5.985
 LINEAR INTERPOLATION GIVES ANGLE          5.979

 CURRENT OPTIMIZATION POINT :
 ENERGY                                 =    -0.0472384 HARTREE
 MASS WEIGHTED TANGENT GRADIENT NORM    =     0.0000027 HARTREE/BOHR-SQRT(AMU)
 NEXT GEOMETRY STEP HAS PREDICTED ANGLE =         0.344 DEGREES
 AND CARTESIAN RMS DISPLACEMENT         =     0.0003414 BOHR

 *******************************************
 ***** END OF CONSTRAINED OPTIMIZATION *****
 *******************************************

 ANGLE BETWEEN GRADIENTS AT CURRENT AND PREVIOUS IRC POINT =   5.979
 ENERGY WAS LOWERED BY      0.0000003296 HARTREE DURING OPTIMIZATION

 ***** NEXT POINT ON IRC FOUND *****
 STEP DISTANCE IS   0.24966 SQRT(AMU)-BOHR)

1         POINT   1 ON THE REACTION PATH
          ******************************
          AT PATH DISTANCE STOTAL =   0.24966     SQRT(AMU)-BOHR
          TOTAL ENERGY            =    -0.0472384 HARTREE
            2 CONSTRAINED OPTIMIZATION STEPS WERE PERFORMED
  
  
 COORDINATES OF FRAGMENT MULTIPOLE CENTERS (ANGS)
 MULTIPOLE NAME        X              Y              Z
 ------------------------------------------------------------
 FRAGNAME=H2ORHF
 ZO1               0.3821346750  -1.4332102274   0.2203529321
 ZH2               1.2542133151  -1.5580531472   0.5591324254
 ZH3               0.1740663218  -0.5199466121   0.3366954584
 FRAGNAME=H2ORHF
 ZO1               2.6055885398   0.0139201668   1.5714349397
 ZH2               2.7855053518   0.1464533796   2.4884645697
 ZH3               2.0668300143   0.7373132356   1.2933698875
 FRAGNAME=H2ORHF
 ZO1               0.6888735760   1.9199299714   0.3591482322
 ZH2              -0.2228607534   1.7789512208   0.1597893634
 ZH3               1.0509463609   2.4120027024  -0.3603280913
 FRAGNAME=H2ORHF
 ZO1              -1.7705668037  -1.5553770213  -1.6333671831
 ZH2              -1.6011827410  -1.7753069059  -2.5354859886
 ZH3              -1.0407378688  -1.8831670303  -1.1325859036
 FRAGNAME=H2ORHF
 ZO1              -1.9317411937   1.0518209416  -0.4378899855
 ZH2              -1.9748331390   0.2567201447  -0.9446801404
 ZH3              -2.7118009569   1.0778316880   0.0928723540
  

 * * * IRC RESTART INFORMATION * * *
 COORDINATES FOR $DATA AND ENTIRE $IRC GROUP FOLLOW

  
 COORDINATES OF FRAGMENT MULTIPOLE CENTERS (ANGS)
 MULTIPOLE NAME        X              Y              Z
 ------------------------------------------------------------
 FRAGNAME=H2ORHF
 ZO1               0.3821346750  -1.4332102274   0.2203529321
 ZH2               1.2542133151  -1.5580531472   0.5591324254
 ZH3               0.1740663218  -0.5199466121   0.3366954584
 FRAGNAME=H2ORHF
 ZO1               2.6055885398   0.0139201668   1.5714349397
 ZH2               2.7855053518   0.1464533796   2.4884645697
 ZH3               2.0668300143   0.7373132356   1.2933698875
 FRAGNAME=H2ORHF
 ZO1               0.6888735760   1.9199299714   0.3591482322
 ZH2              -0.2228607534   1.7789512208   0.1597893634
 ZH3               1.0509463609   2.4120027024  -0.3603280913
 FRAGNAME=H2ORHF
 ZO1              -1.7705668037  -1.5553770213  -1.6333671831
 ZH2              -1.6011827410  -1.7753069059  -2.5354859886
 ZH3              -1.0407378688  -1.8831670303  -1.1325859036
 FRAGNAME=H2ORHF
 ZO1              -1.9317411937   1.0518209416  -0.4378899855
 ZH2              -1.9748331390   0.2567201447  -0.9446801404
 ZH3              -2.7118009569   1.0778316880   0.0928723540
 $IRC   PACE=GS2        STRIDE= 0.25000   NPOINT=??
        STOTAL=  0.249658   NEXTPT=   2
        NPRT= 0   NPUN= 0   SADDLE=.FALSE.
         GA(   1)= 1.293947896E-04, 4.924422564E-05,-1.121332422E-04
         GA(   4)=-2.602408310E-05,-2.866918098E-05,-7.333347750E-05
         GA(   7)= 5.351722807E-05,-2.066439428E-06, 1.238086167E-04
         GA(  10)=-5.902637615E-06,-9.418368694E-07, 5.521228977E-06
         GA(  13)=-5.988657745E-05,-1.596420827E-04,-5.093093034E-05
         GA(  16)=-1.824199885E-06, 1.127714650E-05,-1.690307819E-05
         GA(  19)=-2.672193997E-05, 1.827631150E-05, 7.418860838E-05
         GA(  22)=-8.844139640E-06,-3.904496497E-06,-2.970804604E-06
         GA(  25)=-9.630350026E-05, 9.418798502E-05,-3.493305255E-05
         GA(  28)=-1.719591381E-06, 1.347372423E-05, 1.233841284E-05
 $END   
 A GS2 RESTART ALSO REQUIRES THE UPDATED $HESS GROUP FROM THE PUNCH FILE

 *********************************************
 ***** STARTING CONSTRAINED OPTIMIZATION *****
 *** TO FIND THE NEXT REACTION PATH POINT ****
 *********************************************
 CONSTRAINED OPTIMIZATION POINT   1 FOR PATH POINT   2
  
 COORDINATES OF FRAGMENT MULTIPOLE CENTERS (ANGS)
 MULTIPOLE NAME        X              Y              Z
 ------------------------------------------------------------
 FRAGNAME=H2ORHF
 ZO1               0.3727306663  -1.4381123437   0.2291244871
 ZH2               1.2551094866  -1.5358907695   0.5496326008
 ZH3               0.1297120825  -0.5376478404   0.3739833853
 FRAGNAME=H2ORHF
 ZO1               2.6008978759   0.0140800213   1.5610050227
 ZH2               2.7817735089   0.1438049495   2.4782475765
 ZH3               2.0653033604   0.7405021886   1.2847301528
 FRAGNAME=H2ORHF
 ZO1               0.6936190446   1.9338823114   0.3637809649
 ZH2              -0.2140042400   1.7792774985   0.1559450219
 ZH3               1.0559643667   2.4279962111  -0.3541575949
 FRAGNAME=H2ORHF
 ZO1              -1.7685014461  -1.5573575587  -1.6392942305
 ZH2              -1.5986816194  -1.7701162679  -2.5430494032
 ZH3              -1.0362209667  -1.8841438539  -1.1414443828
 FRAGNAME=H2ORHF
 ZO1              -1.9230073228   1.0432210464  -0.4339414301
 ZH2              -1.9709475801   0.2524784349  -0.9470752413
 ZH3              -2.7108754293   1.0782866395   0.0846265066
                 FINAL EFP ENERGY      =  -0.0472706098

 UNITS ARE HARTREE/BOHR    E'X               E'Y               E'Z 
      TOTAL QM TRANS.  0.000000000       0.000000000       0.000000000
      TOTAL QM TORQUE  0.000000000       0.000000000       0.000000000
  EFP           TRANS GRADIENT                           TORQUE
    1   0.0002667  0.0001209 -0.0002137     0.0000039 -0.0000452 -0.0001560
    2   0.0001133 -0.0000164  0.0002678     0.0000219  0.0000538  0.0000466
    3  -0.0001388 -0.0003156 -0.0001444     0.0000330 -0.0000013 -0.0000420
    4  -0.0000764  0.0000036  0.0001641     0.0000621 -0.0000520 -0.0000054
    5  -0.0001648  0.0002075 -0.0000739     0.0000912 -0.0000167  0.0000392

 CURRENT OPTIMIZATION POINT :
 ENERGY                                 =    -0.0472706 HARTREE
 MASS WEIGHTED TANGENT GRADIENT NORM    =     0.0000925 HARTREE/BOHR-SQRT(AMU)
 NEXT GEOMETRY STEP HAS PREDICTED ANGLE =         7.002 DEGREES
 AND CARTESIAN RMS DISPLACEMENT         =     0.0079160 BOHR

 CONSTRAINED OPTIMIZATION POINT   2 FOR PATH POINT   2
  
 COORDINATES OF FRAGMENT MULTIPOLE CENTERS (ANGS)
 MULTIPOLE NAME        X              Y              Z
 ------------------------------------------------------------
 FRAGNAME=H2ORHF
 ZO1               0.3727155058  -1.4384424678   0.2291928435
 ZH2               1.2548467465  -1.5358882594   0.5504828152
 ZH3               0.1301588696  -0.5374425408   0.3714737760
 FRAGNAME=H2ORHF
 ZO1               2.6006744715   0.0141058156   1.5608615212
 ZH2               2.7795252534   0.1440805437   2.4784656962
 ZH3               2.0661723931   0.7407545209   1.2830708781
 FRAGNAME=H2ORHF
 ZO1               0.6938809731   1.9340767201   0.3639739511
 ZH2              -0.2138480851   1.7788221155   0.1570864970
 ZH3               1.0555595761   2.4269608895  -0.3551451195
 FRAGNAME=H2ORHF
 ZO1              -1.7680309077  -1.5570407718  -1.6392222963
 ZH2              -1.6020739504  -1.7738672951  -2.5427282461
 ZH3              -1.0349853872  -1.8841104209  -1.1426861309
 FRAGNAME=H2ORHF
 ZO1              -1.9232759005   1.0433210963  -0.4340342499
 ZH2              -1.9716544397   0.2519574192  -0.9461685111
 ZH3              -2.7101440649   1.0784092435   0.0860482128
                 FINAL EFP ENERGY      =  -0.0472711710

 UNITS ARE HARTREE/BOHR    E'X               E'Y               E'Z 
      TOTAL QM TRANS.  0.000000000       0.000000000       0.000000000
      TOTAL QM TORQUE  0.000000000       0.000000000       0.000000000
  EFP           TRANS GRADIENT                           TORQUE
    1   0.0002574  0.0001131 -0.0002198    -0.0000387 -0.0000474 -0.0001487
    2   0.0001172 -0.0000071  0.0002543    -0.0000086  0.0000127  0.0000142
    3  -0.0001272 -0.0003198 -0.0001091     0.0000042  0.0000140 -0.0000300
    4  -0.0000674  0.0000308  0.0001443     0.0000005 -0.0000315 -0.0000050
    5  -0.0001799  0.0001829 -0.0000697    -0.0000010  0.0000150  0.0000271

 ANGLE TO PREVIOUS OPTIMIZATION POINT IS   7.002
 LINEAR INTERPOLATION GIVES ANGLE          6.943

 CURRENT OPTIMIZATION POINT :
 ENERGY                                 =    -0.0472712 HARTREE
 MASS WEIGHTED TANGENT GRADIENT NORM    =     0.0000053 HARTREE/BOHR-SQRT(AMU)
 NEXT GEOMETRY STEP HAS PREDICTED ANGLE =         0.395 DEGREES
 AND CARTESIAN RMS DISPLACEMENT         =     0.0004019 BOHR

 *******************************************
 ***** END OF CONSTRAINED OPTIMIZATION *****
 *******************************************

 ANGLE BETWEEN GRADIENTS AT CURRENT AND PREVIOUS IRC POINT =   6.943
 ENERGY WAS LOWERED BY      0.0000005611 HARTREE DURING OPTIMIZATION

 ***** NEXT POINT ON IRC FOUND *****
 STEP DISTANCE IS   0.24954 SQRT(AMU)-BOHR)

1         POINT   2 ON THE REACTION PATH
          ******************************
          AT PATH DISTANCE STOTAL =   0.49920     SQRT(AMU)-BOHR
          TOTAL ENERGY            =    -0.0472712 HARTREE
            2 CONSTRAINED OPTIMIZATION STEPS WERE PERFORMED
  
  
 COORDINATES OF FRAGMENT MULTIPOLE CENTERS (ANGS)
 MULTIPOLE NAME        X              Y              Z
 ------------------------------------------------------------
 FRAGNAME=H2ORHF
 ZO1               0.3727157786  -1.4384393970   0.2291911624
 ZH2               1.2548437163  -1.5358928304   0.5504878848
 ZH3               0.1301520050  -0.5374466604   0.3715054568
 FRAGNAME=H2ORHF
 ZO1               2.6006760552   0.0141055570   1.5608623804
 ZH2               2.7795452267   0.1440776976   2.4784633374
 ZH3               2.0661662323   0.7407536800   1.2830851160
 FRAGNAME=H2ORHF
 ZO1               0.6938790813   1.9340758074   0.3639724807
 ZH2              -0.2138483642   1.7788208462   0.1570782185
 ZH3               1.0555597840   2.4269706777  -0.3551381993
 FRAGNAME=H2ORHF
 ZO1              -1.7680350047  -1.5570439162  -1.6392229599
 ZH2              -1.6020456164  -1.7738342214  -2.5427316431
 ZH3              -1.0349921493  -1.8841054698  -1.1426775275
 FRAGNAME=H2ORHF
 ZO1              -1.9232732940   1.0433199065  -0.4340333250
 ZH2              -1.9716487516   0.2519609465  -0.9461751663
 ZH3              -2.7101509562   1.0784101910   0.0860346232
  

 * * * IRC RESTART INFORMATION * * *
 COORDINATES FOR $DATA AND ENTIRE $IRC GROUP FOLLOW

  
 COORDINATES OF FRAGMENT MULTIPOLE CENTERS (ANGS)
 MULTIPOLE NAME        X              Y              Z
 ------------------------------------------------------------
 FRAGNAME=H2ORHF
 ZO1               0.3727157786  -1.4384393970   0.2291911624
 ZH2               1.2548437163  -1.5358928304   0.5504878848
 ZH3               0.1301520050  -0.5374466604   0.3715054568
 FRAGNAME=H2ORHF
 ZO1               2.6006760552   0.0141055570   1.5608623804
 ZH2               2.7795452267   0.1440776976   2.4784633374
 ZH3               2.0661662323   0.7407536800   1.2830851160
 FRAGNAME=H2ORHF
 ZO1               0.6938790813   1.9340758074   0.3639724807
 ZH2              -0.2138483642   1.7788208462   0.1570782185
 ZH3               1.0555597840   2.4269706777  -0.3551381993
 FRAGNAME=H2ORHF
 ZO1              -1.7680350047  -1.5570439162  -1.6392229599
 ZH2              -1.6020456164  -1.7738342214  -2.5427316431
 ZH3              -1.0349921493  -1.8841054698  -1.1426775275
 FRAGNAME=H2ORHF
 ZO1              -1.9232732940   1.0433199065  -0.4340333250
 ZH2              -1.9716487516   0.2519609465  -0.9461751663
 ZH3              -2.7101509562   1.0784101910   0.0860346232
 $IRC   PACE=GS2        STRIDE= 0.25000   NPOINT=??
        STOTAL=  0.499199   NEXTPT=   3
        NPRT= 0   NPUN= 0   SADDLE=.FALSE.
         GA(   1)= 2.574781470E-04, 1.131415287E-04,-2.197438319E-04
         GA(   4)=-3.836127477E-05,-4.736688662E-05,-1.487312865E-04
         GA(   7)= 1.171575328E-04,-7.147226423E-06, 2.543764658E-04
         GA(  10)=-8.344762553E-06, 1.302849866E-05, 1.442498899E-05
         GA(  13)=-1.273376496E-04,-3.197596730E-04,-1.093762346E-04
         GA(  16)= 4.395339211E-06, 1.385456689E-05,-3.010533689E-05
         GA(  19)=-6.751227951E-05, 3.060915943E-05, 1.444460109E-04
         GA(  22)= 1.006302690E-06,-3.167182031E-05,-5.048964609E-06
         GA(  25)=-1.797857508E-04, 1.831562113E-04,-6.970241015E-05
         GA(  28)=-1.772491690E-07, 1.474699581E-05, 2.722038338E-05
 $END   
 A GS2 RESTART ALSO REQUIRES THE UPDATED $HESS GROUP FROM THE PUNCH FILE

 *********************************************
 ***** STARTING CONSTRAINED OPTIMIZATION *****
 *** TO FIND THE NEXT REACTION PATH POINT ****
 *********************************************
 CONSTRAINED OPTIMIZATION POINT   1 FOR PATH POINT   3
  
 COORDINATES OF FRAGMENT MULTIPOLE CENTERS (ANGS)
 MULTIPOLE NAME        X              Y              Z
 ------------------------------------------------------------
 FRAGNAME=H2ORHF
 ZO1               0.3633227969  -1.4440661019   0.2380117076
 ZH2               1.2538443992  -1.5120645733   0.5433409361
 ZH3               0.0866608501  -0.5570312479   0.4038604011
 FRAGNAME=H2ORHF
 ZO1               2.5956381119   0.0143734843   1.5501446817
 ZH2               2.7711849340   0.1413655265   2.4688039158
 ZH3               2.0664070207   0.7445867080   1.2716100265
 FRAGNAME=H2ORHF
 ZO1               0.6990464354   1.9482974833   0.3689586546
 ZH2              -0.2049177559   1.7800060498   0.1558737223
 ZH3               1.0603479257   2.4404623515  -0.3508423107
 FRAGNAME=H2ORHF
 ZO1              -1.7650893430  -1.5584367125  -1.6449290124
 ZH2              -1.6059847584  -1.7761430218  -2.5494554897
 ZH3              -1.0270492018  -1.8827029782  -1.1539844199
 FRAGNAME=H2ORHF
 ZO1              -1.9150831713   1.0349132844  -0.4303549385
 ZH2              -1.9695512510   0.2470908044  -0.9473147265
 ZH3              -2.7070744138   1.0790084873   0.0811955859
                 FINAL EFP ENERGY      =  -0.0473244521

 UNITS ARE HARTREE/BOHR    E'X               E'Y               E'Z 
      TOTAL QM TRANS.  0.000000000       0.000000000       0.000000000
      TOTAL QM TORQUE  0.000000000       0.000000000       0.000000000
  EFP           TRANS GRADIENT                           TORQUE
    1   0.0003713  0.0001289 -0.0003326    -0.0001095 -0.0000653 -0.0001567
    2   0.0002022 -0.0000120  0.0003674    -0.0000677 -0.0000369 -0.0000178
    3  -0.0002182 -0.0004212 -0.0001112    -0.0000074  0.0000396 -0.0002095
    4  -0.0001070  0.0000832  0.0002008    -0.0000778 -0.0000389  0.0000649
    5  -0.0002483  0.0002212 -0.0001243    -0.0000764  0.0001095 -0.0000100

 CURRENT OPTIMIZATION POINT :
 ENERGY                                 =    -0.0473245 HARTREE
 MASS WEIGHTED TANGENT GRADIENT NORM    =     0.0001330 HARTREE/BOHR-SQRT(AMU)
 NEXT GEOMETRY STEP HAS PREDICTED ANGLE =         5.043 DEGREES
 AND CARTESIAN RMS DISPLACEMENT         =     0.0052466 BOHR

 CONSTRAINED OPTIMIZATION POINT   2 FOR PATH POINT   3
  
 COORDINATES OF FRAGMENT MULTIPOLE CENTERS (ANGS)
 MULTIPOLE NAME        X              Y              Z
 ------------------------------------------------------------
 FRAGNAME=H2ORHF
 ZO1               0.3632843774  -1.4440199020   0.2379882678
 ZH2               1.2536736700  -1.5133867088   0.5433955496
 ZH3               0.0875919009  -0.5568728283   0.4048480355
 FRAGNAME=H2ORHF
 ZO1               2.5953883881   0.0144997828   1.5500181206
 ZH2               2.7719727260   0.1409726507   2.4685501230
 ZH3               2.0656010817   0.7447200325   1.2725613652
 FRAGNAME=H2ORHF
 ZO1               0.6991529670   1.9481067296   0.3687714533
 ZH2              -0.2043524665   1.7779332035   0.1552360774
 ZH3               1.0592922966   2.4426028839  -0.3500134037
 FRAGNAME=H2ORHF
 ZO1              -1.7650090450  -1.5584831208  -1.6449339076
 ZH2              -1.6049140588  -1.7752042309  -2.5495222173
 ZH3              -1.0278496841  -1.8839227723  -1.1534427439
 FRAGNAME=H2ORHF
 ZO1              -1.9150077966   1.0350441252  -0.4300207042
 ZH2              -1.9683959314   0.2477278506  -0.9478635809
 ZH3              -2.7083401165   1.0789577453   0.0794632291
                 FINAL EFP ENERGY      =  -0.0473250528

 UNITS ARE HARTREE/BOHR    E'X               E'Y               E'Z 
      TOTAL QM TRANS.  0.000000000       0.000000000       0.000000000
      TOTAL QM TORQUE  0.000000000       0.000000000       0.000000000
  EFP           TRANS GRADIENT                           TORQUE
    1   0.0003744  0.0001604 -0.0003226    -0.0000752 -0.0000663 -0.0002154
    2   0.0001836 -0.0000154  0.0003745    -0.0000161  0.0000091  0.0000213
    3  -0.0001904 -0.0004512 -0.0001478    -0.0000090  0.0000220 -0.0000673
    4  -0.0001033  0.0000492  0.0002081    -0.0000086 -0.0000302  0.0000028
    5  -0.0002643  0.0002569 -0.0001122    -0.0000030  0.0000367  0.0000341

 ANGLE TO PREVIOUS OPTIMIZATION POINT IS   5.043
 LINEAR INTERPOLATION GIVES ANGLE          4.990

 CURRENT OPTIMIZATION POINT :
 ENERGY                                 =    -0.0473251 HARTREE
 MASS WEIGHTED TANGENT GRADIENT NORM    =     0.0000110 HARTREE/BOHR-SQRT(AMU)
 NEXT GEOMETRY STEP HAS PREDICTED ANGLE =         0.863 DEGREES
 AND CARTESIAN RMS DISPLACEMENT         =     0.0009244 BOHR

 CONSTRAINED OPTIMIZATION POINT   3 FOR PATH POINT   3
  
 COORDINATES OF FRAGMENT MULTIPOLE CENTERS (ANGS)
 MULTIPOLE NAME        X              Y              Z
 ------------------------------------------------------------
 FRAGNAME=H2ORHF
 ZO1               0.3633447382  -1.4439598087   0.2379352133
 ZH2               1.2537346897  -1.5129944955   0.5434158187
 ZH3               0.0871204778  -0.5570700870   0.4052828562
 FRAGNAME=H2ORHF
 ZO1               2.5954004898   0.0144630865   1.5500691865
 ZH2               2.7720158724   0.1411285433   2.4685686817
 ZH3               2.0656843206   0.7446750593   1.2724548696
 FRAGNAME=H2ORHF
 ZO1               0.6991514329   1.9480709465   0.3687553153
 ZH2              -0.2043110393   1.7778330909   0.1550894827
 ZH3               1.0593525640   2.4426143176  -0.3499660865
 FRAGNAME=H2ORHF
 ZO1              -1.7650318797  -1.5584837003  -1.6449161471
 ZH2              -1.6049563783  -1.7751559857  -2.5495196009
 ZH3              -1.0278787066  -1.8839810699  -1.1534539250
 FRAGNAME=H2ORHF
 ZO1              -1.9150351138   1.0350427255  -0.4300387600
 ZH2              -1.9684773709   0.2477161753  -0.9478604306
 ZH3              -2.7083347494   1.0789902650   0.0794931389
                 FINAL EFP ENERGY      =  -0.0473250611

 UNITS ARE HARTREE/BOHR    E'X               E'Y               E'Z 
      TOTAL QM TRANS.  0.000000000       0.000000000       0.000000000
      TOTAL QM TORQUE  0.000000000       0.000000000       0.000000000
  EFP           TRANS GRADIENT                           TORQUE
    1   0.0003748  0.0001631 -0.0003236    -0.0000694 -0.0000694 -0.0002091
    2   0.0001861 -0.0000160  0.0003752    -0.0000192  0.0000075  0.0000198
    3  -0.0001924 -0.0004537 -0.0001484    -0.0000077  0.0000204 -0.0000699
    4  -0.0001031  0.0000484  0.0002095    -0.0000074 -0.0000346 -0.0000027
    5  -0.0002653  0.0002582 -0.0001128    -0.0000040  0.0000406  0.0000329

 ANGLE TO PREVIOUS OPTIMIZATION POINT IS   0.863
 LINEAR INTERPOLATION GIVES ANGLE          0.878

 CURRENT OPTIMIZATION POINT :
 ENERGY                                 =    -0.0473251 HARTREE
 MASS WEIGHTED TANGENT GRADIENT NORM    =     0.0000022 HARTREE/BOHR-SQRT(AMU)
 NEXT GEOMETRY STEP HAS PREDICTED ANGLE =         0.107 DEGREES
 AND CARTESIAN RMS DISPLACEMENT         =     0.0001109 BOHR

 *******************************************
 ***** END OF CONSTRAINED OPTIMIZATION *****
 *******************************************

 ANGLE BETWEEN GRADIENTS AT CURRENT AND PREVIOUS IRC POINT =   5.015
 ENERGY WAS LOWERED BY      0.0000006090 HARTREE DURING OPTIMIZATION

 ***** NEXT POINT ON IRC FOUND *****
 STEP DISTANCE IS   0.24976 SQRT(AMU)-BOHR)

1         POINT   3 ON THE REACTION PATH
          ******************************
          AT PATH DISTANCE STOTAL =   0.74896     SQRT(AMU)-BOHR
          TOTAL ENERGY            =    -0.0473251 HARTREE
            3 CONSTRAINED OPTIMIZATION STEPS WERE PERFORMED
  
  
 COORDINATES OF FRAGMENT MULTIPOLE CENTERS (ANGS)
 MULTIPOLE NAME        X              Y              Z
 ------------------------------------------------------------
 FRAGNAME=H2ORHF
 ZO1               0.3633458343  -1.4439587862   0.2379343155
 ZH2               1.2537364578  -1.5129864844   0.5434145417
 ZH3               0.0871112406  -0.5570740777   0.4052914701
 FRAGNAME=H2ORHF
 ZO1               2.5954006583   0.0144624554   1.5500700843
 ZH2               2.7720168144   0.1411313496   2.4685689568
 ZH3               2.0656857000   0.7446742848   1.2724530796
 FRAGNAME=H2ORHF
 ZO1               0.6991514158   1.9480702402   0.3687549839
 ZH2              -0.2043102855   1.7778312556   0.1550867916
 ZH3               1.0593535305   2.4426149395  -0.3499650109
 FRAGNAME=H2ORHF
 ZO1              -1.7650322677  -1.5584837108  -1.6449158291
 ZH2              -1.6049569408  -1.7751550129  -2.5495195493
 ZH3              -1.0278794051  -1.8839823685  -1.1534539942
 FRAGNAME=H2ORHF
 ZO1              -1.9150355861   1.0350427297  -0.4300390222
 ZH2              -1.9684786143   0.2477159883  -0.9478603225
 ZH3              -2.7083349635   1.0789910367   0.0794932124
  

 * * * IRC RESTART INFORMATION * * *
 COORDINATES FOR $DATA AND ENTIRE $IRC GROUP FOLLOW

  
 COORDINATES OF FRAGMENT MULTIPOLE CENTERS (ANGS)
 MULTIPOLE NAME        X              Y              Z
 ------------------------------------------------------------
 FRAGNAME=H2ORHF
 ZO1               0.3633458343  -1.4439587862   0.2379343155
 ZH2               1.2537364578  -1.5129864844   0.5434145417
 ZH3               0.0871112406  -0.5570740777   0.4052914701
 FRAGNAME=H2ORHF
 ZO1               2.5954006583   0.0144624554   1.5500700843
 ZH2               2.7720168144   0.1411313496   2.4685689568
 ZH3               2.0656857000   0.7446742848   1.2724530796
 FRAGNAME=H2ORHF
 ZO1               0.6991514158   1.9480702402   0.3687549839
 ZH2              -0.2043102855   1.7778312556   0.1550867916
 ZH3               1.0593535305   2.4426149395  -0.3499650109
 FRAGNAME=H2ORHF
 ZO1              -1.7650322677  -1.5584837108  -1.6449158291
 ZH2              -1.6049569408  -1.7751550129  -2.5495195493
 ZH3              -1.0278794051  -1.8839823685  -1.1534539942
 FRAGNAME=H2ORHF
 ZO1              -1.9150355861   1.0350427297  -0.4300390222
 ZH2              -1.9684786143   0.2477159883  -0.9478603225
 ZH3              -2.7083349635   1.0789910367   0.0794932124
 $IRC   PACE=GS2        STRIDE= 0.25000   NPOINT=??
        STOTAL=  0.748960   NEXTPT=   4
        NPRT= 0   NPUN= 0   SADDLE=.FALSE.
         GA(   1)= 3.748060631E-04, 1.631584051E-04,-3.235898914E-04
         GA(   4)=-6.924333767E-05,-6.948551212E-05,-2.090034384E-04
         GA(   7)= 1.860948549E-04,-1.604422691E-05, 3.752427078E-04
         GA(  10)=-1.924566034E-05, 7.464422511E-06, 1.982917545E-05
         GA(  13)=-1.924694647E-04,-4.537113687E-04,-1.483973433E-04
         GA(  16)=-7.716668581E-06, 2.035414604E-05,-6.993798119E-05
         GA(  19)=-1.030781895E-04, 4.837482723E-05, 2.095334700E-04
         GA(  22)=-7.344557092E-06,-3.467895837E-05,-2.785281002E-06
         GA(  25)=-2.653532637E-04, 2.582223632E-04,-1.127889431E-04
         GA(  28)=-4.009173111E-06, 4.064651450E-05, 3.292692902E-05
 $END   
 A GS2 RESTART ALSO REQUIRES THE UPDATED $HESS GROUP FROM THE PUNCH FILE

 *********************************************
 ***** STARTING CONSTRAINED OPTIMIZATION *****
 *** TO FIND THE NEXT REACTION PATH POINT ****
 *********************************************
 CONSTRAINED OPTIMIZATION POINT   1 FOR PATH POINT   4
  
 COORDINATES OF FRAGMENT MULTIPOLE CENTERS (ANGS)
 MULTIPOLE NAME        X              Y              Z
 ------------------------------------------------------------
 FRAGNAME=H2ORHF
 ZO1               0.3540112433  -1.4492951925   0.2465583688
 ZH2               1.2511368429  -1.4904100087   0.5369954266
 ZH3               0.0456084128  -0.5786467165   0.4408194803
 FRAGNAME=H2ORHF
 ZO1               2.5898885300   0.0149321667   1.5391939372
 ZH2               2.7652414452   0.1378926680   2.4584384772
 ZH3               2.0644889575   0.7486878684   1.2627227570
 FRAGNAME=H2ORHF
 ZO1               0.7045597138   1.9618124705   0.3733262134
 ZH2              -0.1938165005   1.7744617887   0.1526491786
 ZH3               1.0617494463   2.4606073016  -0.3439587129
 FRAGNAME=H2ORHF
 ZO1              -1.7619863882  -1.5599725271  -1.6506111939
 ZH2              -1.6068798705  -1.7756765851  -2.5563110236
 ZH3              -1.0214249227  -1.8846450898  -1.1637488963
 FRAGNAME=H2ORHF
 ZO1              -1.9067985794   1.0268885169  -0.4257699462
 ZH2              -1.9640559990   0.2438424861  -0.9496391623
 ZH3              -2.7073772664   1.0798278782   0.0713715266
                 FINAL EFP ENERGY      =  -0.0473979987

 UNITS ARE HARTREE/BOHR    E'X               E'Y               E'Z 
      TOTAL QM TRANS.  0.000000000       0.000000000       0.000000000
      TOTAL QM TORQUE  0.000000000       0.000000000       0.000000000
  EFP           TRANS GRADIENT                           TORQUE
    1   0.0004911  0.0002485 -0.0004054    -0.0000524 -0.0000600 -0.0002931
    2   0.0002428 -0.0000491  0.0005001    -0.0000102  0.0000346  0.0000846
    3  -0.0002363 -0.0005738 -0.0002116    -0.0000333  0.0000073 -0.0000160
    4  -0.0001411  0.0000255  0.0002688     0.0000680 -0.0000261 -0.0000859
    5  -0.0003564  0.0003490 -0.0001518     0.0000476  0.0000309  0.0000730

 CURRENT OPTIMIZATION POINT :
 ENERGY                                 =    -0.0473980 HARTREE
 MASS WEIGHTED TANGENT GRADIENT NORM    =     0.0000938 HARTREE/BOHR-SQRT(AMU)
 NEXT GEOMETRY STEP HAS PREDICTED ANGLE =         2.977 DEGREES
 AND CARTESIAN RMS DISPLACEMENT         =     0.0034455 BOHR

 CONSTRAINED OPTIMIZATION POINT   2 FOR PATH POINT   4
  
 COORDINATES OF FRAGMENT MULTIPOLE CENTERS (ANGS)
 MULTIPOLE NAME        X              Y              Z
 ------------------------------------------------------------
 FRAGNAME=H2ORHF
 ZO1               0.3539394993  -1.4494422645   0.2465873069
 ZH2               1.2508375560  -1.4907307523   0.5377017016
 ZH3               0.0458685746  -0.5784219786   0.4397049417
 FRAGNAME=H2ORHF
 ZO1               2.5897147103   0.0149865633   1.5391037512
 ZH2               2.7652412202   0.1385815826   2.4582300589
 ZH3               2.0653547210   0.7492195596   1.2619269791
 FRAGNAME=H2ORHF
 ZO1               0.7046018810   1.9616459631   0.3733220287
 ZH2              -0.1941286608   1.7753287298   0.1532135194
 ZH3               1.0615470491   2.4611115169  -0.3436178304
 FRAGNAME=H2ORHF
 ZO1              -1.7619088421  -1.5599268979  -1.6506304069
 ZH2              -1.6062341344  -1.7758823737  -2.5561728256
 ZH3              -1.0210293790  -1.8832962995  -1.1633847755
 FRAGNAME=H2ORHF
 ZO1              -1.9067326357   1.0268402747  -0.4257184807
 ZH2              -1.9645528214   0.2435157545  -0.9491093254
 ZH3              -2.7072828178   1.0806707423   0.0713732018
                 FINAL EFP ENERGY      =  -0.0473982438

 UNITS ARE HARTREE/BOHR    E'X               E'Y               E'Z 
      TOTAL QM TRANS.  0.000000000       0.000000000       0.000000000
      TOTAL QM TORQUE  0.000000000       0.000000000       0.000000000
  EFP           TRANS GRADIENT                           TORQUE
    1   0.0004853  0.0002195 -0.0004158    -0.0000785 -0.0000863 -0.0002649
    2   0.0002470 -0.0000280  0.0004900    -0.0000159  0.0000132  0.0000274
    3  -0.0002463 -0.0005752 -0.0001929    -0.0000165  0.0000175 -0.0000848
    4  -0.0001445  0.0000521  0.0002671    -0.0000009 -0.0000453 -0.0000135
    5  -0.0003414  0.0003315 -0.0001484     0.0000009  0.0000454  0.0000568

 ANGLE TO PREVIOUS OPTIMIZATION POINT IS   2.977
 LINEAR INTERPOLATION GIVES ANGLE          2.882

 CURRENT OPTIMIZATION POINT :
 ENERGY                                 =    -0.0473982 HARTREE
 MASS WEIGHTED TANGENT GRADIENT NORM    =     0.0000081 HARTREE/BOHR-SQRT(AMU)
 NEXT GEOMETRY STEP HAS PREDICTED ANGLE =         0.463 DEGREES
 AND CARTESIAN RMS DISPLACEMENT         =     0.0005333 BOHR

 *******************************************
 ***** END OF CONSTRAINED OPTIMIZATION *****
 *******************************************

 ANGLE BETWEEN GRADIENTS AT CURRENT AND PREVIOUS IRC POINT =   2.882
 ENERGY WAS LOWERED BY      0.0000002451 HARTREE DURING OPTIMIZATION

 ***** NEXT POINT ON IRC FOUND *****
 STEP DISTANCE IS   0.24992 SQRT(AMU)-BOHR)

1         POINT   4 ON THE REACTION PATH
          ******************************
          AT PATH DISTANCE STOTAL =   0.99888     SQRT(AMU)-BOHR
          TOTAL ENERGY            =    -0.0473982 HARTREE
            2 CONSTRAINED OPTIMIZATION STEPS WERE PERFORMED
  
  
 COORDINATES OF FRAGMENT MULTIPOLE CENTERS (ANGS)
 MULTIPOLE NAME        X              Y              Z
 ------------------------------------------------------------
 FRAGNAME=H2ORHF
 ZO1               0.3539417922  -1.4494375704   0.2465860380
 ZH2               1.2508455788  -1.4907209271   0.5376835063
 ZH3               0.0458574115  -0.5784312287   0.4397450950
 FRAGNAME=H2ORHF
 ZO1               2.5897200487   0.0149848099   1.5391064085
 ZH2               2.7652413099   0.1385602788   2.4582363473
 ZH3               2.0653277649   0.7492029997   1.2619515123
 FRAGNAME=H2ORHF
 ZO1               0.7046005359   1.9616514527   0.3733223119
 ZH2              -0.1941185019   1.7753023710   0.1531937927
 ZH3               1.0615553905   2.4610957462  -0.3436275354
 FRAGNAME=H2ORHF
 ZO1              -1.7619112816  -1.5599284725  -1.6506298926
 ZH2              -1.6062542362  -1.7758749023  -2.5561775047
 ZH3              -1.0210412737  -1.8833383065  -1.1633967197
 FRAGNAME=H2ORHF
 ZO1              -1.9067346066   1.0268416932  -0.4257198751
 ZH2              -1.9645342240   0.2435256396  -0.9491256627
 ZH3              -2.7072876818   1.0806434920   0.0713702519
  

 * * * IRC RESTART INFORMATION * * *
 COORDINATES FOR $DATA AND ENTIRE $IRC GROUP FOLLOW

  
 COORDINATES OF FRAGMENT MULTIPOLE CENTERS (ANGS)
 MULTIPOLE NAME        X              Y              Z
 ------------------------------------------------------------
 FRAGNAME=H2ORHF
 ZO1               0.3539417922  -1.4494375704   0.2465860380
 ZH2               1.2508455788  -1.4907209271   0.5376835063
 ZH3               0.0458574115  -0.5784312287   0.4397450950
 FRAGNAME=H2ORHF
 ZO1               2.5897200487   0.0149848099   1.5391064085
 ZH2               2.7652413099   0.1385602788   2.4582363473
 ZH3               2.0653277649   0.7492029997   1.2619515123
 FRAGNAME=H2ORHF
 ZO1               0.7046005359   1.9616514527   0.3733223119
 ZH2              -0.1941185019   1.7753023710   0.1531937927
 ZH3               1.0615553905   2.4610957462  -0.3436275354
 FRAGNAME=H2ORHF
 ZO1              -1.7619112816  -1.5599284725  -1.6506298926
 ZH2              -1.6062542362  -1.7758749023  -2.5561775047
 ZH3              -1.0210412737  -1.8833383065  -1.1633967197
 FRAGNAME=H2ORHF
 ZO1              -1.9067346066   1.0268416932  -0.4257198751
 ZH2              -1.9645342240   0.2435256396  -0.9491256627
 ZH3              -2.7072876818   1.0806434920   0.0713702519
 $IRC   PACE=GS2        STRIDE= 0.25000   NPOINT=??
        STOTAL=  0.998880   NEXTPT=   5
        NPRT= 0   NPUN= 0   SADDLE=.FALSE.
         GA(   1)= 4.854830897E-04, 2.204498525E-04,-4.154321813E-04
         GA(   4)=-7.766601186E-05,-8.541966293E-05,-2.657895850E-04
         GA(   7)= 2.468624986E-04,-2.862541419E-05, 4.902977568E-04
         GA(  10)=-1.574478277E-05, 1.388549108E-05, 2.921035644E-05
         GA(  13)=-2.460195839E-04,-5.751831567E-04,-1.935260540E-04
         GA(  16)=-1.698655512E-05, 1.721139164E-05,-8.266546099E-05
         GA(  19)=-1.444046170E-04, 5.127849111E-05, 2.671652316E-04
         GA(  22)= 1.248138878E-06,-4.468338572E-05,-1.580369433E-05
         GA(  25)=-3.419213873E-04, 3.320802273E-04,-1.485047530E-04
         GA(  28)= 2.400354363E-06, 4.490720176E-05, 5.727678473E-05
 $END   
 A GS2 RESTART ALSO REQUIRES THE UPDATED $HESS GROUP FROM THE PUNCH FILE

 *********************************************
 ***** STARTING CONSTRAINED OPTIMIZATION *****
 *** TO FIND THE NEXT REACTION PATH POINT ****
 *********************************************
 CONSTRAINED OPTIMIZATION POINT   1 FOR PATH POINT   5
  
 COORDINATES OF FRAGMENT MULTIPOLE CENTERS (ANGS)
 MULTIPOLE NAME        X              Y              Z
 ------------------------------------------------------------
 FRAGNAME=H2ORHF
 ZO1               0.3444531486  -1.4550301928   0.2553814043
 ZH2               1.2470058309  -1.4674387156   0.5312856238
 ZH3               0.0060389024  -0.6011601470   0.4727755091
 FRAGNAME=H2ORHF
 ZO1               2.5839462547   0.0155437895   1.5281052575
 ZH2               2.7583009859   0.1366803959   2.4477817247
 ZH3               2.0651285648   0.7536649788   1.2508260328
 FRAGNAME=H2ORHF
 ZO1               0.7100772627   1.9750089846   0.3778311954
 ZH2              -0.1842164177   1.7742744413   0.1523918236
 ZH3               1.0631702375   2.4802703753  -0.3369518012
 FRAGNAME=H2ORHF
 ZO1              -1.7586867860  -1.5613223169  -1.6563164359
 ZH2              -1.6075057261  -1.7769008976  -2.5627096270
 ZH3              -1.0131861617  -1.8807083743  -1.1735123146
 FRAGNAME=H2ORHF
 ZO1              -1.8983952600   1.0185393873  -0.4214072526
 ZH2              -1.9618578473   0.2393956900  -0.9503553152
 ZH3              -2.7055070602   1.0836661914   0.0635747011
                 FINAL EFP ENERGY      =  -0.0474874936

 UNITS ARE HARTREE/BOHR    E'X               E'Y               E'Z 
      TOTAL QM TRANS.  0.000000000       0.000000000       0.000000000
      TOTAL QM TORQUE  0.000000000       0.000000000       0.000000000
  EFP           TRANS GRADIENT                           TORQUE
    1   0.0005934  0.0002651 -0.0005004    -0.0001220 -0.0000239 -0.0002523
    2   0.0003018 -0.0000589  0.0006014    -0.0000832 -0.0000018  0.0000438
    3  -0.0003121 -0.0006342 -0.0002054    -0.0000146  0.0000465 -0.0002315
    4  -0.0001860  0.0000608  0.0003158     0.0000024 -0.0000241  0.0000167
    5  -0.0003972  0.0003672 -0.0002115     0.0000181  0.0001311 -0.0000100

 CURRENT OPTIMIZATION POINT :
 ENERGY                                 =    -0.0474875 HARTREE
 MASS WEIGHTED TANGENT GRADIENT NORM    =     0.0001140 HARTREE/BOHR-SQRT(AMU)
 NEXT GEOMETRY STEP HAS PREDICTED ANGLE =         4.398 DEGREES
 AND CARTESIAN RMS DISPLACEMENT         =     0.0047343 BOHR

 CONSTRAINED OPTIMIZATION POINT   2 FOR PATH POINT   5
  
 COORDINATES OF FRAGMENT MULTIPOLE CENTERS (ANGS)
 MULTIPOLE NAME        X              Y              Z
 ------------------------------------------------------------
 FRAGNAME=H2ORHF
 ZO1               0.3443374092  -1.4550881193   0.2553077180
 ZH2               1.2461205431  -1.4693943450   0.5336258190
 ZH3               0.0068609420  -0.6008423397   0.4726835130
 FRAGNAME=H2ORHF
 ZO1               2.5838057340   0.0156912329   1.5278989452
 ZH2               2.7584103749   0.1362851533   2.4475993202
 ZH3               2.0652496523   0.7541785934   1.2511057687
 FRAGNAME=H2ORHF
 ZO1               0.7101175516   1.9749401022   0.3777991543
 ZH2              -0.1836745771   1.7724173120   0.1519704489
 ZH3               1.0624187862   2.4811612154  -0.3366954074
 FRAGNAME=H2ORHF
 ZO1              -1.7585184343  -1.5612286706  -1.6563524285
 ZH2              -1.6067064244  -1.7769248037  -2.5626121848
 ZH3              -1.0139077250  -1.8816033434  -1.1728305419
 FRAGNAME=H2ORHF
 ZO1              -1.8983874862   1.0186651383  -0.4212169232
 ZH2              -1.9606172662   0.2392926002  -0.9499742922
 ZH3              -2.7061506186   1.0833644155   0.0627367725
                 FINAL EFP ENERGY      =  -0.0474878893

 UNITS ARE HARTREE/BOHR    E'X               E'Y               E'Z 
      TOTAL QM TRANS.  0.000000000       0.000000000       0.000000000
[...]
         GA(   4)=-3.235378503E-06,-2.305751271E-06,-3.208771846E-07
         GA(   7)= 1.277791767E-05, 9.109184994E-06, 3.545739389E-05
         GA(  10)=-9.703363438E-07,-2.503754393E-06, 1.492781525E-06
         GA(  13)= 6.775763714E-06,-4.511792174E-06,-2.198502991E-06
         GA(  16)=-3.358321503E-07, 9.886275627E-07,-2.519115600E-06
         GA(  19)=-3.563742195E-05,-1.121376535E-05,-7.764222748E-06
         GA(  22)=-5.459790394E-06, 4.030691178E-06, 4.174145443E-07
         GA(  25)= 3.586078815E-06,-1.134636578E-05, 1.598221621E-06
         GA(  28)=-3.921855197E-06, 3.696933542E-06,-2.284303359E-06
 $END   
 A GS2 RESTART ALSO REQUIRES THE UPDATED $HESS GROUP FROM THE PUNCH FILE

 *********************************************
 ***** STARTING CONSTRAINED OPTIMIZATION *****
 *** TO FIND THE NEXT REACTION PATH POINT ****
 *********************************************
 CONSTRAINED OPTIMIZATION POINT   1 FOR PATH POINT  43
  
 COORDINATES OF FRAGMENT MULTIPOLE CENTERS (ANGS)
 MULTIPOLE NAME        X              Y              Z
 ------------------------------------------------------------
 FRAGNAME=H2ORHF
 ZO1              -0.0526853512  -1.6730934526   0.7187829848
 ZH2               0.8370530667  -1.3719365438   0.8112411817
 ZH3              -0.6067722309  -0.9936700752   1.0684257424
 FRAGNAME=H2ORHF
 ZO1               2.3477506820  -0.0645133057   0.9711679715
 ZH2               2.8630217257   0.0339148124   1.7558246551
 ZH3               1.9628170268   0.7784348943   0.7918836521
 FRAGNAME=H2ORHF
 ZO1               0.7314033522   2.2423231514   0.4233087081
 ZH2              -0.1204970430   1.8816904804   0.2359901363
 ZH3               0.9060283876   2.8864885079  -0.2441008697
 FRAGNAME=H2ORHF
 ZO1              -1.2995702438  -1.4425132060  -1.7876604401
 ZH2              -0.7846956089  -1.5524656209  -2.5710460609
 ZH3              -0.8022685372  -1.8217502802  -1.0807313713
 FRAGNAME=H2ORHF
 ZO1              -1.7593566549   0.8989972934  -0.2286960577
 ZH2              -1.7006356343   0.2490637329  -0.9106173601
 ZH3              -2.6668253442   1.1525234360  -0.1729867487
                 FINAL EFP ENERGY      =  -0.0500891481

 UNITS ARE HARTREE/BOHR    E'X               E'Y               E'Z 
      TOTAL QM TRANS.  0.000000000       0.000000000       0.000000000
      TOTAL QM TORQUE  0.000000000       0.000000000       0.000000000
  EFP           TRANS GRADIENT                           TORQUE
    1  -0.0000234  0.0001892  0.0002364     0.0008292  0.0002319 -0.0005850
    2  -0.0000331  0.0000637 -0.0001274     0.0000374 -0.0001820 -0.0003286
    3   0.0000716 -0.0001107 -0.0000992    -0.0000326 -0.0005449  0.0005659
    4   0.0001413 -0.0006384  0.0002560     0.0016630  0.0006368 -0.0002575
    5  -0.0001565  0.0004962 -0.0002658     0.0020205 -0.0001021  0.0004000

 CURRENT OPTIMIZATION POINT :
 ENERGY                                 =    -0.0500891 HARTREE
 MASS WEIGHTED TANGENT GRADIENT NORM    =     0.0016059 HARTREE/BOHR-SQRT(AMU)
 NEXT GEOMETRY STEP HAS PREDICTED ANGLE =        53.359 DEGREES
 AND CARTESIAN RMS DISPLACEMENT         =     0.0440880 BOHR

 ......ENERGY IS GOING UP......

 CONSTRAINED OPTIMIZATION POINT   2 FOR PATH POINT  43
  
 COORDINATES OF FRAGMENT MULTIPOLE CENTERS (ANGS)
 MULTIPOLE NAME        X              Y              Z
 ------------------------------------------------------------
 FRAGNAME=H2ORHF
 ZO1              -0.0474536096  -1.6785428874   0.7157415672
 ZH2               0.8397514790  -1.3679150275   0.8009232399
 ZH3              -0.6063330171  -1.0018141461   1.0629741588
 FRAGNAME=H2ORHF
 ZO1               2.3465492432  -0.0634155765   0.9753490783
 ZH2               2.8608286818   0.0377622494   1.7603065043
 ZH3               1.9583265929   0.7778106065   0.7950711350
 FRAGNAME=H2ORHF
 ZO1               0.7323370805   2.2431078462   0.4220561585
 ZH2              -0.1255736404   1.8925400543   0.2432549495
 ZH3               0.9082795700   2.8845119307  -0.2476628086
 FRAGNAME=H2ORHF
 ZO1              -1.3032625734  -1.4418696695  -1.7857819830
 ZH2              -0.7926884072  -1.5636423251  -2.5702333169
 ZH3              -0.8021268204  -1.8105301709  -1.0759715535
 FRAGNAME=H2ORHF
 ZO1              -1.7595332697   0.9018872721  -0.2310275541
 ZH2              -1.7050263182   0.2324079458  -0.8941300182
 ZH3              -2.6655921271   1.1616938252  -0.1816680959
                 FINAL EFP ENERGY      =  -0.0501455667

 UNITS ARE HARTREE/BOHR    E'X               E'Y               E'Z 
      TOTAL QM TRANS.  0.000000000       0.000000000       0.000000000
      TOTAL QM TORQUE  0.000000000       0.000000000       0.000000000
  EFP           TRANS GRADIENT                           TORQUE
    1  -0.0000037  0.0000365 -0.0000209     0.0000385  0.0001586 -0.0000645
    2   0.0000111 -0.0000145  0.0000185    -0.0000673 -0.0000285 -0.0000437
    3  -0.0000053  0.0000218  0.0000104    -0.0000340 -0.0000149 -0.0000060
    4   0.0000199 -0.0000479  0.0000166     0.0001351  0.0000879 -0.0000294
    5  -0.0000220  0.0000041 -0.0000246     0.0001053 -0.0000170 -0.0000207

 ANGLE TO PREVIOUS OPTIMIZATION POINT IS  53.359
 LINEAR INTERPOLATION GIVES ANGLE         55.981

 CURRENT OPTIMIZATION POINT :
 ENERGY                                 =    -0.0501456 HARTREE
 MASS WEIGHTED TANGENT GRADIENT NORM    =     0.0001402 HARTREE/BOHR-SQRT(AMU)
 NEXT GEOMETRY STEP HAS PREDICTED ANGLE =        30.415 DEGREES
 AND CARTESIAN RMS DISPLACEMENT         =     0.0194625 BOHR

 CONSTRAINED OPTIMIZATION POINT   3 FOR PATH POINT  43
  
 COORDINATES OF FRAGMENT MULTIPOLE CENTERS (ANGS)
 MULTIPOLE NAME        X              Y              Z
 ------------------------------------------------------------
 FRAGNAME=H2ORHF
 ZO1              -0.0500587093  -1.6760960452   0.7192404188
 ZH2               0.8374905881  -1.3667561612   0.8055163420
 ZH3              -0.6087116161  -0.9961282064   1.0604575374
 FRAGNAME=H2ORHF
 ZO1               2.3485465894  -0.0640621728   0.9721177168
 ZH2               2.8648310359   0.0360311300   1.7558971215
 ZH3               1.9589804829   0.7771330697   0.7946148527
 FRAGNAME=H2ORHF
 ZO1               0.7312963303   2.2418332329   0.4237479841
 ZH2              -0.1264505534   1.8918416798   0.2430420063
 ZH3               0.9064543122   2.8877855939  -0.2417921595
 FRAGNAME=H2ORHF
 ZO1              -1.3017051007  -1.4418238979  -1.7874491527
 ZH2              -0.7867920722  -1.5624554583  -2.5692362426
 ZH3              -0.8034989799  -1.8094814899  -1.0750609087
 FRAGNAME=H2ORHF
 ZO1              -1.7594902432   0.9010252021  -0.2317542758
 ZH2              -1.7054372818   0.2319183599  -0.8952697354
 ZH3              -2.6662580572   1.1575495027  -0.1784075906
                 FINAL EFP ENERGY      =  -0.0501463738

 UNITS ARE HARTREE/BOHR    E'X               E'Y               E'Z 
      TOTAL QM TRANS.  0.000000000       0.000000000       0.000000000
      TOTAL QM TORQUE  0.000000000       0.000000000       0.000000000
  EFP           TRANS GRADIENT                           TORQUE
    1   0.0000099 -0.0000090  0.0000261     0.0000153 -0.0000092 -0.0000091
    2   0.0000313  0.0000011  0.0000118     0.0000194 -0.0000100 -0.0000087
    3  -0.0000153  0.0000068 -0.0000093    -0.0000056 -0.0000020  0.0000014
    4  -0.0000263 -0.0000035 -0.0000313     0.0000018 -0.0000249 -0.0000096
    5   0.0000005  0.0000047  0.0000026     0.0000010 -0.0000015 -0.0000031

 ANGLE TO PREVIOUS OPTIMIZATION POINT IS  30.415
 LINEAR INTERPOLATION GIVES ANGLE         27.612

 CURRENT OPTIMIZATION POINT :
 ENERGY                                 =    -0.0501464 HARTREE
 MASS WEIGHTED TANGENT GRADIENT NORM    =     0.0000263 HARTREE/BOHR-SQRT(AMU)
 NEXT GEOMETRY STEP HAS PREDICTED ANGLE =        15.120 DEGREES
 AND CARTESIAN RMS DISPLACEMENT         =     0.0100708 BOHR

 CONSTRAINED OPTIMIZATION POINT   4 FOR PATH POINT  43
  
 COORDINATES OF FRAGMENT MULTIPOLE CENTERS (ANGS)
 MULTIPOLE NAME        X              Y              Z
 ------------------------------------------------------------
 FRAGNAME=H2ORHF
 ZO1              -0.0499004365  -1.6753350121   0.7181380947
 ZH2               0.8375035940  -1.3656961153   0.8048346601
 ZH3              -0.6090188029  -0.9949912524   1.0578401332
 FRAGNAME=H2ORHF
 ZO1               2.3471049128  -0.0637386189   0.9713468516
 ZH2               2.8645175297   0.0360105477   1.7544258653
 ZH3               1.9576608962   0.7776534902   0.7945103994
 FRAGNAME=H2ORHF
 ZO1               0.7317949398   2.2420647834   0.4255235903
 ZH2              -0.1257269507   1.8922990225   0.2433188326
 ZH3               0.9073686491   2.8895469999  -0.2384185050
 FRAGNAME=H2ORHF
 ZO1              -1.3021865096  -1.4432187893  -1.7862853036
 ZH2              -0.7895386909  -1.5658335450  -2.5692516437
 ZH3              -0.8022359259  -1.8097132045  -1.0745200955
 FRAGNAME=H2ORHF
 ZO1              -1.7582118176   0.9011707136  -0.2328399145
 ZH2              -1.7046446246   0.2317864033  -0.8961148613
 ZH3              -2.6654717961   1.1553161794  -0.1765561016
                 FINAL EFP ENERGY      =  -0.0501464164

 UNITS ARE HARTREE/BOHR    E'X               E'Y               E'Z 
      TOTAL QM TRANS.  0.000000000       0.000000000       0.000000000
      TOTAL QM TORQUE  0.000000000       0.000000000       0.000000000
  EFP           TRANS GRADIENT                           TORQUE
    1   0.0000085  0.0000032 -0.0000136    -0.0000032 -0.0000331  0.0000138
    2  -0.0000185  0.0000109  0.0000042     0.0000078  0.0000068  0.0000099
    3   0.0000108 -0.0000184 -0.0000016     0.0000072 -0.0000048  0.0000074
    4  -0.0000088  0.0000017  0.0000071    -0.0000230 -0.0000050  0.0000096
    5   0.0000081  0.0000026  0.0000040    -0.0000054  0.0000128  0.0000067

 ANGLE TO PREVIOUS OPTIMIZATION POINT IS  15.120
 LINEAR INTERPOLATION GIVES ANGLE          8.561

 INTERPOLATION TOO FAR FROM END POINTS. ACUT =   5.000
 SKIPPING INTERPOLATION THIS STEP

 CURRENT OPTIMIZATION POINT :
 ENERGY                                 =    -0.0501464 HARTREE
 MASS WEIGHTED TANGENT GRADIENT NORM    =     0.0000267 HARTREE/BOHR-SQRT(AMU)
 NEXT GEOMETRY STEP HAS PREDICTED ANGLE =         8.824 DEGREES
 AND CARTESIAN RMS DISPLACEMENT         =     0.0055933 BOHR

 CONSTRAINED OPTIMIZATION POINT   5 FOR PATH POINT  43
  
 COORDINATES OF FRAGMENT MULTIPOLE CENTERS (ANGS)
 MULTIPOLE NAME        X              Y              Z
 ------------------------------------------------------------
 FRAGNAME=H2ORHF
 ZO1              -0.0505077026  -1.6752825613   0.7187631338
 ZH2               0.8370355001  -1.3659661333   0.8051857274
 ZH3              -0.6092689680  -0.9947731860   1.0587209142
 FRAGNAME=H2ORHF
 ZO1               2.3475804624  -0.0641030627   0.9714081702
 ZH2               2.8648689242   0.0358685263   1.7545408427
 ZH3               1.9583052011   0.7772831215   0.7941724115
 FRAGNAME=H2ORHF
 ZO1               0.7316509890   2.2420531402   0.4245357163
 ZH2              -0.1260663524   1.8922201348   0.2433830609
 ZH3               0.9068878113   2.8886397173  -0.2403675161
 FRAGNAME=H2ORHF
 ZO1              -1.3013569595  -1.4424515628  -1.7869205190
 ZH2              -0.7875146865  -1.5640650816  -2.5692597833
 ZH3              -0.8023537988  -1.8095754605  -1.0748149486
 FRAGNAME=H2ORHF
 ZO1              -1.7588192160   0.9006645083  -0.2318240668
 ZH2              -1.7048001300   0.2316616613  -0.8954471399
 ZH3              -2.6658302895   1.1560789730  -0.1773005143
                 FINAL EFP ENERGY      =  -0.0501465083

 UNITS ARE HARTREE/BOHR    E'X               E'Y               E'Z 
      TOTAL QM TRANS.  0.000000000       0.000000000       0.000000000
      TOTAL QM TORQUE  0.000000000       0.000000000       0.000000000
  EFP           TRANS GRADIENT                           TORQUE
    1   0.0000044  0.0000028 -0.0000029     0.0000006 -0.0000053  0.0000001
    2   0.0000035  0.0000034  0.0000084     0.0000044  0.0000003 -0.0000011
    3   0.0000005 -0.0000031 -0.0000025    -0.0000003 -0.0000017 -0.0000010
    4  -0.0000101 -0.0000018 -0.0000060    -0.0000056 -0.0000021  0.0000016
    5   0.0000018 -0.0000013  0.0000030    -0.0000041  0.0000007  0.0000009

 ANGLE TO PREVIOUS OPTIMIZATION POINT IS   8.824
 LINEAR INTERPOLATION GIVES ANGLE          9.912

 CURRENT OPTIMIZATION POINT :
 ENERGY                                 =    -0.0501465 HARTREE
 MASS WEIGHTED TANGENT GRADIENT NORM    =     0.0000062 HARTREE/BOHR-SQRT(AMU)
 NEXT GEOMETRY STEP HAS PREDICTED ANGLE =         2.381 DEGREES
 AND CARTESIAN RMS DISPLACEMENT         =     0.0013986 BOHR

 CONSTRAINED OPTIMIZATION POINT   6 FOR PATH POINT  43
  
 COORDINATES OF FRAGMENT MULTIPOLE CENTERS (ANGS)
 MULTIPOLE NAME        X              Y              Z
 ------------------------------------------------------------
 FRAGNAME=H2ORHF
 ZO1              -0.0508627488  -1.6750179681   0.7189019023
 ZH2               0.8367457811  -1.3658988698   0.8053596071
 ZH3              -0.6095077468  -0.9942207634   1.0584742604
 FRAGNAME=H2ORHF
 ZO1               2.3475693496  -0.0642186770   0.9712983043
 ZH2               2.8648478404   0.0358267086   1.7544281390
 ZH3               1.9583920081   0.7771809250   0.7939112679
 FRAGNAME=H2ORHF
 ZO1               0.7316790304   2.2420562231   0.4243186420
 ZH2              -0.1260590104   1.8921795116   0.2433484945
 ZH3               0.9067468813   2.8886423266  -0.2406295607
 FRAGNAME=H2ORHF
 ZO1              -1.3010174556  -1.4423024250  -1.7870943217
 ZH2              -0.7868735739  -1.5636851168  -2.5692712616
 ZH3              -0.8022525538  -1.8095629711  -1.0748923012
 FRAGNAME=H2ORHF
 ZO1              -1.7588295345   0.9003290306  -0.2314401446
 ZH2              -1.7048134775   0.2316514175  -0.8953911740
 ZH3              -2.6658211775   1.1558031242  -0.1768727448
                 FINAL EFP ENERGY      =  -0.0501465146

 UNITS ARE HARTREE/BOHR    E'X               E'Y               E'Z 
      TOTAL QM TRANS.  0.000000000       0.000000000       0.000000000
      TOTAL QM TORQUE  0.000000000       0.000000000       0.000000000
  EFP           TRANS GRADIENT                           TORQUE
    1   0.0000026  0.0000044 -0.0000033     0.0000023 -0.0000004 -0.0000023
    2   0.0000041  0.0000025  0.0000080     0.0000020 -0.0000009 -0.0000018
    3   0.0000008 -0.0000014 -0.0000022    -0.0000003 -0.0000016 -0.0000007
    4  -0.0000078 -0.0000042 -0.0000041     0.0000025  0.0000012 -0.0000003
    5   0.0000004 -0.0000013  0.0000015     0.0000041  0.0000012 -0.0000006

 STOPPING BECAUSE GRADIENT IS BELOW -OPTTOL-
 YOUR RUN IS PROBABLY VERY NEAR A PES MINIMUM.
 MAX GRADIENT= 0.000008 RMS GRADIENT= 0.000003


 *******************************************
 ***** END OF CONSTRAINED OPTIMIZATION *****
 *******************************************

 ANGLE BETWEEN GRADIENTS AT CURRENT AND PREVIOUS IRC POINT =  35.843
 ENERGY WAS LOWERED BY      0.0000573665 HARTREE DURING OPTIMIZATION

 ***** NEXT POINT ON IRC FOUND *****
 STEP DISTANCE IS   0.23788 SQRT(AMU)-BOHR)

1         POINT  43 ON THE REACTION PATH
          ******************************
          AT PATH DISTANCE STOTAL =  10.71208     SQRT(AMU)-BOHR
          TOTAL ENERGY            =    -0.0501465 HARTREE
            6 CONSTRAINED OPTIMIZATION STEPS WERE PERFORMED
  
  
 COORDINATES OF FRAGMENT MULTIPOLE CENTERS (ANGS)
 MULTIPOLE NAME        X              Y              Z
 ------------------------------------------------------------
 FRAGNAME=H2ORHF
 ZO1              -0.0508627488  -1.6750179681   0.7189019023
 ZH2               0.8367457811  -1.3658988698   0.8053596071
 ZH3              -0.6095077468  -0.9942207634   1.0584742604
 FRAGNAME=H2ORHF
 ZO1               2.3475693496  -0.0642186770   0.9712983043
 ZH2               2.8648478404   0.0358267086   1.7544281390
 ZH3               1.9583920081   0.7771809250   0.7939112679
 FRAGNAME=H2ORHF
 ZO1               0.7316790304   2.2420562231   0.4243186420
 ZH2              -0.1260590104   1.8921795116   0.2433484945
 ZH3               0.9067468813   2.8886423266  -0.2406295607
 FRAGNAME=H2ORHF
 ZO1              -1.3010174556  -1.4423024250  -1.7870943217
 ZH2              -0.7868735739  -1.5636851168  -2.5692712616
 ZH3              -0.8022525538  -1.8095629711  -1.0748923012
 FRAGNAME=H2ORHF
 ZO1              -1.7588295345   0.9003290306  -0.2314401446
 ZH2              -1.7048134775   0.2316514175  -0.8953911740
 ZH3              -2.6658211775   1.1558031242  -0.1768727448
  

 * * * IRC RESTART INFORMATION * * *
 COORDINATES FOR $DATA AND ENTIRE $IRC GROUP FOLLOW

  
 COORDINATES OF FRAGMENT MULTIPOLE CENTERS (ANGS)
 MULTIPOLE NAME        X              Y              Z
 ------------------------------------------------------------
 FRAGNAME=H2ORHF
 ZO1              -0.0508627488  -1.6750179681   0.7189019023
 ZH2               0.8367457811  -1.3658988698   0.8053596071
 ZH3              -0.6095077468  -0.9942207634   1.0584742604
 FRAGNAME=H2ORHF
 ZO1               2.3475693496  -0.0642186770   0.9712983043
 ZH2               2.8648478404   0.0358267086   1.7544281390
 ZH3               1.9583920081   0.7771809250   0.7939112679
 FRAGNAME=H2ORHF
 ZO1               0.7316790304   2.2420562231   0.4243186420
 ZH2              -0.1260590104   1.8921795116   0.2433484945
 ZH3               0.9067468813   2.8886423266  -0.2406295607
 FRAGNAME=H2ORHF
 ZO1              -1.3010174556  -1.4423024250  -1.7870943217
 ZH2              -0.7868735739  -1.5636851168  -2.5692712616
 ZH3              -0.8022525538  -1.8095629711  -1.0748923012
 FRAGNAME=H2ORHF
 ZO1              -1.7588295345   0.9003290306  -0.2314401446
 ZH2              -1.7048134775   0.2316514175  -0.8953911740
 ZH3              -2.6658211775   1.1558031242  -0.1768727448
 $IRC   PACE=GS2        STRIDE= 0.25000   NPOINT=??
        STOTAL= 10.712085   NEXTPT=  44
        NPRT= 0   NPUN= 0   SADDLE=.FALSE.
         GA(   1)= 2.567937405E-06, 4.391749957E-06,-3.250679271E-06
         GA(   4)= 2.299948614E-06,-3.965376774E-07,-2.263298087E-06
         GA(   7)= 4.060253618E-06, 2.472500605E-06, 8.046948493E-06
         GA(  10)= 1.963889152E-06,-8.871260709E-07,-1.818582221E-06
         GA(  13)= 7.698382103E-07,-1.369619689E-06,-2.234316750E-06
         GA(  16)=-3.353782532E-07,-1.612588476E-06,-7.442865165E-07
         GA(  19)=-7.765856556E-06,-4.192896913E-06,-4.092197950E-06
         GA(  22)= 2.546812836E-06, 1.224378208E-06,-2.876028337E-07
         GA(  25)= 3.678273226E-07,-1.301733961E-06, 1.530245478E-06
         GA(  28)= 4.115199761E-06, 1.184647759E-06,-6.125080469E-07
 $END   
 A GS2 RESTART ALSO REQUIRES THE UPDATED $HESS GROUP FROM THE PUNCH FILE
 ......DONE WITH THIS PORTION OF THE IRC......
 STEP CPU TIME =     0.25 TOTAL CPU TIME =        0.3 (    0.0 MIN)
 TOTAL WALL CLOCK TIME=        0.3 SECONDS, CPU UTILIZATION IS  96.55%
              2185210  WORDS OF DYNAMIC MEMORY USED
 EXECUTION OF GAMESS TERMINATED NORMALLY Wed Aug  9 20:14:12 2017
 DDI: 263640 bytes (0.3 MB / 0 MWords) used by master data server.

 ----------------------------------------
 CPU timing information for all processes
 ========================================
 0: 0.271 + 0.16 = 0.288
 ----------------------------------------
 ddikick.x: exited gracefully.
unset echo
----- accounting info -----
Files used on the master node compute-1-7.local were:
-rw-rw-r-- 1 sarom sarom  17K Aug  9 20:14 /scratch/efp1-fo-irc.F05
-rw-rw-r-- 1 sarom sarom    0 Aug  9 20:14 /scratch/efp1-fo-irc.F08
-rw-rw-r-- 1 sarom sarom 192K Aug  9 20:14 /scratch/efp1-fo-irc.F10
-rw-rw-r-- 1 sarom sarom    0 Aug  9 20:14 /scratch/efp1-fo-irc.F25
rm: cannot remove `/scratch/tmp': Is a directory
ls: No match.
ls: No match.
ls: No match.
Wed Aug  9 20:14:15 CDT 2017
0.242u 0.178s 0:03.79 10.8%	0+0k 40+392io 0pf+0w
/opt/gridengine/default/spool/compute-1-7/active_jobs/35796.1/pe_hostfile compute-1-7.local
