-catch_rsh /opt/gridengine/default/spool/compute-1-7/active_jobs/34871.1/pe_hostfile
compute-1-7
The primary node assigned by SGE to this run is compute-1-7
Warning: no access to tty (Bad file descriptor).
Thus no job control in this shell.
source /home/sarom/dir.git.branch.saromleang-travis-ci/install.info
setenv GMS_PATH /home/sarom/dir.git.branch.saromleang-travis-ci
setenv GMS_BUILD_DIR /home/sarom/dir.git.branch.saromleang-travis-ci
setenv GMS_TARGET linux64
setenv GMS_FORTRAN gfortran
setenv GMS_GFORTRAN_VERNO 4.4
setenv GMS_MATHLIB mkl-so
setenv GMS_MATHLIB_PATH /share/apps/intel/compilers_and_libraries_2017.1.132/linux/mkl/lib/intel64
setenv GMS_MKL_VERNO 12
setenv GMS_DDI_COMM sockets
setenv GMS_LIBCCHEM false
setenv GMS_EIGEN_PATH
setenv GMS_PHI false
setenv GMS_SHMTYPE sysv
setenv GMS_OPENMP false
unset echo
fmo-h2o4-efp20-ddi
tests/solvent/efp1/parallel
----- GAMESS execution script 'rungms' -----
This job is running on host compute-1-7.local
under operating system Linux at Tue Aug 8 21:44:56 CDT 2017
Available scratch disk space (Kbyte units) at beginning of the job is
Filesystem           1K-blocks      Used Available Use% Mounted on
/dev/sda1             16126920   8505684   6802036  56% /
GAMESS temporary binary files will be written to /scratch
GAMESS supplementary output files will be written to /home/sarom/restart
Copying input file fmo-h2o4-efp20-ddi.inp to your run's scratch directory...
cp tests/solvent/efp1/parallel/fmo-h2o4-efp20-ddi.inp /scratch/fmo-h2o4-efp20-ddi.F05
unset echo
The generated host list is
compute-1-7.local
/home/sarom/dir.git.branch.saromleang-travis-ci/ddikick.x /home/sarom/dir.git.branch.saromleang-travis-ci/gamess.00.x fmo-h2o4-efp20-ddi -ddi 1 1 compute-1-7.local -scr /scratch

 Distributed Data Interface kickoff program.
 Initiating 1 compute processes on 1 nodes to run the following command:
 /home/sarom/dir.git.branch.saromleang-travis-ci/gamess.00.x fmo-h2o4-efp20-ddi 

          ******************************************************
          *         GAMESS VERSION = 20 APR 2017 (R1)          *
          *             FROM IOWA STATE UNIVERSITY             *
          * M.W.SCHMIDT, K.K.BALDRIDGE, J.A.BOATZ, S.T.ELBERT, *
          *   M.S.GORDON, J.H.JENSEN, S.KOSEKI, N.MATSUNAGA,   *
          *          K.A.NGUYEN, S.J.SU, T.L.WINDUS,           *
          *       TOGETHER WITH M.DUPUIS, J.A.MONTGOMERY       *
          *         J.COMPUT.CHEM.  14, 1347-1363(1993)        *
          **************** 64 BIT LINUX VERSION ****************

  SINCE 1993, STUDENTS AND POSTDOCS WORKING AT IOWA STATE UNIVERSITY
  AND ALSO IN THEIR VARIOUS JOBS AFTER LEAVING ISU HAVE MADE IMPORTANT
  CONTRIBUTIONS TO THE CODE:
     IVANA ADAMOVIC, CHRISTINE AIKENS, YURI ALEXEEV, POOJA ARORA,
     ANDREY ASADCHEV, ROB BELL, PRADIPTA BANDYOPADHYAY, JONATHAN BENTZ,
     BRETT BODE, KURT BRORSEN, CALEB CARLIN, GALINA CHABAN, WEI CHEN,
     CHEOL HO CHOI, PAUL DAY, ALBERT DEFUSCO, NUWAN DESILVA, TIM DUDLEY,
     DMITRI FEDOROV, GRAHAM FLETCHER, MARK FREITAG, KURT GLAESEMANN,
     DAN KEMP, GRANT MERRILL, NORIYUKI MINEZAWA, JONATHAN MULLIN,
     TAKESHI NAGATA, SEAN NEDD, HEATHER NETZLOFF, BOSILJKA NJEGIC, RYAN OLSON,
     MIKE PAK, SPENCER PRUITT, LUKE ROSKOP, JIM SHOEMAKER, LYUDMILA SLIPCHENKO,
     TONY SMITH, SAROM SOK LEANG, JIE SONG, TETSUYA TAKETSUGU, SIMON WEBB,
     PENG XU, SOOHAENG YOO, FEDERICO ZAHARIEV

  ADDITIONAL CODE HAS BEEN PROVIDED BY COLLABORATORS IN OTHER GROUPS:
     IOWA STATE UNIVERSITY:
          JOE IVANIC, AARON WEST, LAIMUTIS BYTAUTAS, KLAUS RUEDENBERG
     UNIVERSITY OF TOKYO: KIMIHIKO HIRAO, TAKAHITO NAKAJIMA,
          TAKAO TSUNEDA, MUNEAKI KAMIYA, SUSUMU YANAGISAWA,
          KIYOSHI YAGI, MAHITO CHIBA, SEIKEN TOKURA, NAOAKI KAWAKAMI
     UNIVERSITY OF AARHUS: FRANK JENSEN
     UNIVERSITY OF IOWA: VISVALDAS KAIRYS, HUI LI
     NATIONAL INST. OF STANDARDS AND TECHNOLOGY: WALT STEVENS, DAVID GARMER
     UNIVERSITY OF PISA: BENEDETTA MENNUCCI, JACOPO TOMASI
     UNIVERSITY OF MEMPHIS: HENRY KURTZ, PRAKASHAN KORAMBATH
     UNIVERSITY OF ALBERTA: TOBY ZENG, MARIUSZ KLOBUKOWSKI
     UNIVERSITY OF NEW ENGLAND: MARK SPACKMAN
     MIE UNIVERSITY: HIROAKI UMEDA
     NAT. INST. OF ADVANCED INDUSTRIAL SCIENCE AND TECHNOLOGY: KAZUO KITAURA
     MICHIGAN STATE UNIVERSITY:
          KAROL KOWALSKI, MARTA WLOCH, JEFFREY GOUR, JESSE LUTZ,
          WEI LI, PIOTR PIECUCH
     UNIVERSITY OF SILESIA: MONIKA MUSIAL, STANISLAW KUCHARSKI
     FACULTES UNIVERSITAIRES NOTRE-DAME DE LA PAIX:
          OLIVIER QUINET, BENOIT CHAMPAGNE
     UNIVERSITY OF CALIFORNIA - SANTA BARBARA: BERNARD KIRTMAN
     INSTITUTE FOR MOLECULAR SCIENCE:
          KAZUYA ISHIMURA, MICHIO KATOUDA, AND SHIGERU NAGASE
     UNIVERSITY OF NOTRE DAME: ANNA POMOGAEVA, DAN CHIPMAN
     KYUSHU UNIVERSITY:
          HARUYUKI NAKANO,
          FENG LONG GU, JACEK KORCHOWIEC, MARCIN MAKOWSKI, AND YURIKO AOKI,
          HIROTOSHI MORI AND EISAKU MIYOSHI
     PENNSYLVANIA STATE UNIVERSITY:
          TZVETELIN IORDANOV, CHET SWALINA, JONATHAN SKONE,
          SHARON HAMMES-SCHIFFER
     WASEDA UNIVERSITY:
          MASATO KOBAYASHI, TOMOKO AKAMA, TSUGUKI TOUMA,
          TAKESHI YOSHIKAWA, YASUHIRO IKABATA, JUNJI SEINO,
          YUYA NAKAJIMA, HIROMI NAKAI
     NANJING UNIVERSITY: SHUHUA LI
     UNIVERSITY OF NEBRASKA:
          PEIFENG SU, DEJUN SI, NANDUN THELLAMUREGE, YALI WANG, HUI LI
     UNIVERSITY OF ZURICH: ROBERTO PEVERATI, KIM BALDRIDGE
     N. COPERNICUS UNIVERSITY AND JACKSON STATE UNIVERSITY:
          MARIA BARYSZ
     UNIVERSITY OF COPENHAGEN: Jimmy Kromann, CASPER STEINMANN
     TOKYO INSTITUTE OF TECHNOLOGY: HIROYA NAKATA
     NAGOYA UNIVERSITY: YOSHIO NISHIMOTO, STEPHAN IRLE
     MOSCOW STATE UNIVERSITY: VLADIMIR MIRONOV

 EXECUTION OF GAMESS BEGUN Tue Aug  8 21:44:57 2017

            ECHO OF THE FIRST FEW INPUT CARDS -
 INPUT CARD>!   EFP/FMO-MP2(2) test case.                                                   
 INPUT CARD>!   The system is   four FMO water molecules,                                   
 INPUT CARD>!            plus twenty EFP water molecules                                    
 INPUT CARD>!   test case from Takeshi Nagata, Jan 2007                                     
 INPUT CARD>!                                                                               
 INPUT CARD>!          results for a EFP/FMO MP2/6-31G single point gradient:               
 INPUT CARD>!   Euncorr(1)= -304.249799586, Ecorr  (1)= -304.762051076, RMS=  .0035995      
 INPUT CARD>!   Euncorr(2)= -304.303659595, Ecorr  (2)= -304.820999346, RMS=  .0008002      
 INPUT CARD>!                                                                               
 INPUT CARD>!   the gradient changed as of 11/2010 with a MP2/EFP code change.              
 INPUT CARD>!   this run takes 32 seconds on a 2.66 GHz Cloverton (12 Nov 2010)             
 INPUT CARD>!                                                                               
 INPUT CARD> $mp2 code=ddi $end                                                             
 INPUT CARD> $contrl scftyp=rhf mplevl=2 runtyp=gradient $end                               
 INPUT CARD> $SYSTEM MWORDS=20 memddi=100 $END                                              
 INPUT CARD> $basis  GBASIS=N31 NGAUSS=6 $end                                               
 INPUT CARD> $statpt projct=.false. nstep=999 npun=-1 nprt=-2 opttol=0.00001                
 INPUT CARD>         hess=guess movie=.f.  $end                                             
 INPUT CARD> $fmo    nfrag=4 icharg(1)=0,0,0,0                                              
 INPUT CARD>         frgnam(1)=frag01,frag02,frag03,frag04                                  
 INPUT CARD>         indat(1)=1,1,1,                                                        
 INPUT CARD>                  2,2,2,                                                        
 INPUT CARD>                  3,3,3,                                                        
 INPUT CARD>                  4,4,4                                                         
 INPUT CARD> $end                                                                           
 INPUT CARD> $fmoprp nprint=0 $end                                                          
 INPUT CARD> $fmoxyz                                                                        
 INPUT CARD>O  8   -.2746037289  -1.0311641492  11.0027870394                               
 INPUT CARD>H  1   -.8508902117  -1.1513900463  11.7751123349                               
 INPUT CARD>H  1   -.8069312858   -.9002397842  10.1732123774                               
 INPUT CARD>O  8  -1.9984883429   2.1653821627   8.5604073579                               
 INPUT CARD>H  1  -2.8708254558   2.3423373670   8.9792066102                               
 INPUT CARD>H  1  -2.0313452530   2.4161744007   7.6135581406                               
 INPUT CARD>O  8    .7491115492   1.5616394859  11.6742256589                               
 INPUT CARD>H  1    .8886703705   2.1395043220  10.9025177649                               
 INPUT CARD>H  1    .5350100214    .6469466095  11.3927238711                               
 INPUT CARD>O  8  -1.4930682466   -.5527158580   8.6066297161                               
 INPUT CARD>H  1  -1.7021467635    .4099658014   8.6172766477                               
 INPUT CARD>H  1   -.8227517278   -.7546032094   7.9208349220                               
 INPUT CARD> $end                                                                           
 INPUT CARD>                                                                                
 INPUT CARD> $data                                                                          
 INPUT CARD>water cluster FMO/EFP1 calculation                                              
 INPUT CARD>C1                                                                              
 INPUT CARD>h-1 1                                                                           
 INPUT CARD>c-1 6                                                                           
 INPUT CARD>n-1 7                                                                           
 INPUT CARD>o-1 8                                                                           
 INPUT CARD> $end                                                                           
 INPUT CARD>                                                                                
   20000000 WORDS OF MEMORY AVAILABLE

     BASIS OPTIONS
     -------------
     GBASIS=N31          IGAUSS=       6      POLAR=NONE    
     NDFUNC=       0     NFFUNC=       0     DIFFSP=       F
     NPFUNC=       0      DIFFS=       F     BASNAM=        


     RUN TITLE
     ---------
 water cluster FMO/EFP1 calculation                                              

 THE POINT GROUP OF THE MOLECULE IS C1      
 THE ORDER OF THE PRINCIPAL AXIS IS     0

 ATOM   ATOMIC CHARGE
 H-1         1.0
 C-1         6.0
 N-1         7.0
 O-1         8.0

     ATOMIC BASIS SET LIBRARY
     ----------------
 THE CONTRACTED PRIMITIVE FUNCTIONS HAVE BEEN UNNORMALIZED
 THE CONTRACTED BASIS FUNCTIONS ARE NOW NORMALIZED TO UNITY

  SHELL TYPE  PRIMITIVE        EXPONENT          CONTRACTION COEFFICIENT(S)

 H-1       

      1   S       1            18.7311370    0.033494604338
      1   S       2             2.8253944    0.234726953484
      1   S       3             0.6401217    0.813757326146

      2   S       4             0.1612778    1.000000000000

 C-1       

      3   S       5          3047.5248800    0.001834737132
      3   S       6           457.3695180    0.014037322813
      3   S       7           103.9486850    0.068842622264
      3   S       8            29.2101553    0.232184443216
      3   S       9             9.2866630    0.467941348435
      3   S      10             3.1639270    0.362311985337

      4   L      11             7.8682723   -0.119332419775    0.068999066591
      4   L      12             1.8812885   -0.160854151696    0.316423960957
      4   L      13             0.5442493    1.143456437840    0.744308290898

      5   L      14             0.1687145    1.000000000000    1.000000000000

 N-1       

      6   S      15          4173.5114600    0.001834772160
      6   S      16           627.4579110    0.013994627002
      6   S      17           142.9020930    0.068586551812
      6   S      18            40.2343293    0.232240873040
      6   S      19            12.8202129    0.469069948082
      6   S      20             4.3904370    0.360455199063

      7   L      21            11.6263619   -0.114961181702    0.067579743878
      7   L      22             2.7162798   -0.169117478561    0.323907295893
      7   L      23             0.7722184    1.145851947027    0.740895139755

      8   L      24             0.2120315    1.000000000000    1.000000000000

 O-1       

      9   S      25          5484.6716600    0.001831074430
      9   S      26           825.2349460    0.013950172200
      9   S      27           188.0469580    0.068445078098
      9   S      28            52.9645000    0.232714335992
      9   S      29            16.8975704    0.470192897984
      9   S      30             5.7996353    0.358520852987

     10   L      31            15.5396162   -0.110777549525    0.070874268231
     10   L      32             3.5999336   -0.148026262701    0.339752839147
     10   L      33             1.0137618    1.130767015354    0.727158577316

     11   L      34             0.2700058    1.000000000000    1.000000000000

 TOTAL NUMBER OF BASIS SET SHELLS             =   11
 NUMBER OF CARTESIAN GAUSSIAN BASIS FUNCTIONS =   29

     $CONTRL OPTIONS
     ---------------
 SCFTYP=RHF          RUNTYP=GRADIENT     EXETYP=RUN     
 MPLEVL=       2     CITYP =NONE         CCTYP =NONE         VBTYP =NONE    
 DFTTYP=NONE         TDDFT =NONE    
 MULT  =       1     ICHARG=       0     NZVAR =       0     COORD =UNIQUE  
 PP    =NONE         RELWFN=NONE         LOCAL =NONE         NUMGRD=       F
 ISPHER=      -1     NOSYM =       0     MAXIT =      30     UNITS =ANGS    
 PLTORB=       F     MOLPLT=       F     AIMPAC=       F     FRIEND=        
 NPRINT=       7     IREST =       0     GEOM  =INPUT   
 NORMF =       0     NORMP =       0     ITOL  =      24     ICUT  =      12
 INTTYP=BEST         GRDTYP=BEST         QMTTOL= 1.0E-06

     $SYSTEM OPTIONS
     ---------------
  REPLICATED MEMORY=    20000000 WORDS (ON EVERY NODE).
 DISTRIBUTED MEMDDI=         100 MILLION WORDS IN AGGREGATE,
 MEMDDI DISTRIBUTED OVER   1 PROCESSORS IS   100000000 WORDS/PROCESSOR.
 TOTAL MEMORY REQUESTED ON EACH PROCESSOR=   120000000 WORDS.
 TIMLIM=      525600.00 MINUTES, OR     365.0 DAYS.
 PARALL= F  BALTYP=  DLB     KDIAG=    0  COREFL= F
 MXSEQ2=     300 MXSEQ3=     150  mem10=         0

 READING $EFRAG GROUP
 COORD=CART      POSITION=OPTIMIZE  POLMETHD=FRGSCF   NBUFFMO=0
 READING COORDINATES OF FRAGMENT   1 NAMED   H2ORHF
 READING COORDINATES OF FRAGMENT   2 NAMED   H2ORHF
 READING COORDINATES OF FRAGMENT   3 NAMED   H2ORHF
 READING COORDINATES OF FRAGMENT   4 NAMED   H2ORHF
 READING COORDINATES OF FRAGMENT   5 NAMED   H2ORHF
 READING COORDINATES OF FRAGMENT   6 NAMED   H2ORHF
 READING COORDINATES OF FRAGMENT   7 NAMED   H2ORHF
 READING COORDINATES OF FRAGMENT   8 NAMED   H2ORHF
 READING COORDINATES OF FRAGMENT   9 NAMED   H2ORHF
 READING COORDINATES OF FRAGMENT  10 NAMED   H2ORHF
 READING COORDINATES OF FRAGMENT  11 NAMED   H2ORHF
 READING COORDINATES OF FRAGMENT  12 NAMED   H2ORHF
 READING COORDINATES OF FRAGMENT  13 NAMED   H2ORHF
 READING COORDINATES OF FRAGMENT  14 NAMED   H2ORHF
 READING COORDINATES OF FRAGMENT  15 NAMED   H2ORHF
 READING COORDINATES OF FRAGMENT  16 NAMED   H2ORHF
 READING COORDINATES OF FRAGMENT  17 NAMED   H2ORHF
 READING COORDINATES OF FRAGMENT  18 NAMED   H2ORHF
 READING COORDINATES OF FRAGMENT  19 NAMED   H2ORHF
 READING COORDINATES OF FRAGMENT  20 NAMED   H2ORHF
 FINISHED READING $EFRAG GROUP,  20 FRAGMENTS WILL BE USED.



     SUMMARY OF THE EFFECTIVE FRAGMENT POTENTIAL MODEL CHOSEN
     --------------------------------------------------------
 TOTAL NUMBER OF MULTIPOLE POINTS   =       160  (EFP1/EFP2 ELECTROSTATICS)
 TOTAL NUMBER OF POLARIZABLE POINTS =       100  (EFP1/EFP2 INDUCTION)
 TOTAL NUMBER OF L-J POINTS         =         0  (REPULSION AND DISPERSION)
 TOTAL NUMBER OF REPULSIVE POINTS   =        60  (EFP1 REPULSION/ETC.)

 THIS IS A -EFP1- TYPE RUN, WITH PAULI REPULSION, CHARGE TRANSFER, AND
 HIGHER ORDER EFFECTS COLLECTED IN A FITTED REPULSIVE POTENTIAL.

 OPTIONS FOR EFP SCREENING:
     ELECTROSTATIC AB INITIO-EFP GAUSSIAN SCREENING IS ON
     ELECTROSTATIC EFP-EFP SCREENING CHOICE IS GAUSSIAN, FOR CHARGE/CHARGE
     POLARIZATION EFP-EFP SCREENING IS OFF

     $EWALD OPTIONS
     -----------

     IFEWLD   =        F         TINFOIL        =        T
     BETA    =    0.200         ELECTRIC CONST =     1.00
     EPSILON =     1.00         CUT_OFF        = 0.10E+04
     CUTLIST =  1000.00         LEVEL          =    1
     KMAX    =       10         EWLDPL         =        F

            MULTIPOLE COORDINATES, ELECTRONIC AND NUCLEAR CHARGES

                  X              Y              Z           ELEC.   NUC.
 ZO1       -2.7339851458   6.1976441926  11.1330791359    8.00000    0.0
 ZH2       -1.8230858725   4.9082067864  10.3030201379    1.00000    0.0
 ZH3       -1.5522016245   7.4598627293  11.5707734641    1.00000    0.0
 O1        -2.7339851458   6.1976441926  11.1330791359   -8.21083    0.0
 H2        -1.8230858725   4.9082067864  10.3030201379   -0.55665    0.0
 H3        -1.5522016245   7.4598627293  11.5707734641   -0.55665    0.0
 B12       -2.2785360005   5.5529254959  10.7180497290   -0.33793    0.0
 B13       -2.1430938765   6.8287534674  11.3519263921   -0.33793    0.0
 ZO1       -6.1020850202  -4.9164009799  14.4983210981    8.00000    0.0
 ZH2       -5.2572339727  -3.5489984484  15.2715101275    1.00000    0.0
 ZH3       -6.9020035720  -5.8297133603  15.8049867236    1.00000    0.0
 O1        -6.1020850202  -4.9164009799  14.4983210981   -8.21083    0.0
 H2        -5.2572339727  -3.5489984484  15.2715101275   -0.55665    0.0
 H3        -6.9020035720  -5.8297133603  15.8049867236   -0.55665    0.0
 B12       -5.6796595070  -4.2326998208  14.8849151244   -0.33793    0.0
 B13       -6.5020443067  -5.3730572767  15.1516534225   -0.33793    0.0
 ZO1       -8.7566179420   5.6279592497  17.1812181683    8.00000    0.0
 ZH2       -8.9046412274   6.8528695743  18.4692663252    1.00000    0.0
 ZH3       -9.0506667987   6.4701200151  15.6366519620    1.00000    0.0
 O1        -8.7566179420   5.6279592497  17.1812181683   -8.21083    0.0
 H2        -8.9046412274   6.8528695743  18.4692663252   -0.55665    0.0
 H3        -9.0506667987   6.4701200151  15.6366519620   -0.55665    0.0
 B12       -8.8306294809   6.2404139266  17.8252423070   -0.33793    0.0
 B13       -8.9036422665   6.0490391470  16.4089351254   -0.33793    0.0
 ZO1        5.3032400413  -1.5351058598  15.0105608163    8.00000    0.0
 ZH2        4.8662591691   0.1894136589  15.1388744849    1.00000    0.0
 ZH3        6.9235324924  -1.5994819504  14.2676662461    1.00000    0.0
 O1         5.3032400413  -1.5351058598  15.0105608163   -8.21083    0.0
 H2         4.8662591691   0.1894136589  15.1388744849   -0.55665    0.0
 H3         6.9235324924  -1.5994819504  14.2676662461   -0.55665    0.0
 B12        5.0847493273  -0.6728464903  15.0747177949   -0.33793    0.0
 B13        6.1133859890  -1.5672942949  14.6391136755   -0.33793    0.0
 ZO1        0.8835934496  -9.2046465669  16.1132700507    8.00000    0.0
 ZH2        1.6700258546  -7.9160052449  17.0631710278    1.00000    0.0
 ZH3        1.8936005666 -10.6636502045  16.2937645375    1.00000    0.0
 O1         0.8835934496  -9.2046465669  16.1132700507   -8.21083    0.0
 H2         1.6700258546  -7.9160052449  17.0631710278   -0.55665    0.0
 H3         1.8936005666 -10.6636502045  16.2937645375   -0.55665    0.0
 B12        1.2768092303  -8.5603258659  16.5882202738   -0.33793    0.0
 B13        1.3885965862  -9.9341483457  16.2035170287   -0.33793    0.0
 ZO1       -5.9001355266  11.8032999409  16.2387622605    8.00000    0.0
 ZH2       -6.4740469147  10.8333758649  14.8562799800    1.00000    0.0
 ZH3       -6.9846739895  11.4378034436  17.6068166760    1.00000    0.0
 O1        -5.9001355266  11.8032999409  16.2387622605   -8.21083    0.0
 H2        -6.4740469147  10.8333758649  14.8562799800   -0.55665    0.0
 H3        -6.9846739895  11.4378034436  17.6068166760   -0.55665    0.0
 B12       -6.1870908312  11.3183382165  15.5475211237   -0.33793    0.0
 B13       -6.4424043686  11.6205520058  16.9227894716   -0.33793    0.0
 ZO1       -8.4119187057   9.7675795870  20.7255953979    8.00000    0.0
 ZH2       -9.6805564492  10.4488464439  21.7781247305    1.00000    0.0
 ZH3       -6.9550952861   9.5761079086  21.7367276203    1.00000    0.0
 O1        -8.4119187057   9.7675795870  20.7255953979   -8.21083    0.0
 H2        -9.6805564492  10.4488464439  21.7781247305   -0.55665    0.0
 H3        -6.9550952861   9.5761079086  21.7367276203   -0.55665    0.0
 B12       -9.0462376216  10.1082129004  21.2518595796   -0.33793    0.0
 B13       -7.6835070401   9.6718436328  21.2311610245   -0.33793    0.0
 ZO1       -7.7126444167   8.2361587019  12.1755498029    8.00000    0.0
 ZH2       -6.2986634994   7.4442826172  11.4305837080    1.00000    0.0
 ZH3       -8.8162448968   8.6728360745  10.8440983005    1.00000    0.0
 O1        -7.7126444167   8.2361587019  12.1755498029   -8.21083    0.0
 H2        -6.2986634994   7.4442826172  11.4305837080   -0.55665    0.0
 H3        -8.8162448968   8.6728360745  10.8440983005   -0.55665    0.0
 B12       -7.0056540310   7.8402207430  11.8030672430   -0.33793    0.0
 B13       -8.2644447296   8.4544974716  11.5098245393   -0.33793    0.0
 ZO1        8.1118224776   1.8578375463  10.9999067076    8.00000    0.0
 ZH2        6.8794722886   1.1909119183   9.8963182566    1.00000    0.0
 ZH3        7.2469410521   2.8865037060  12.1726003174    1.00000    0.0
 O1         8.1118224776   1.8578375463  10.9999067076   -8.21083    0.0
 H2         6.8794722886   1.1909119183   9.8963182566   -0.55665    0.0
 H3         7.2469410521   2.8865037060  12.1726003174   -0.55665    0.0
 B12        7.4956478756   1.5243746474  10.4481124658   -0.33793    0.0
 B13        7.6793822573   2.3721705412  11.5862534962   -0.33793    0.0
 ZO1       -3.7969461542   9.5677507149  23.1437961915    8.00000    0.0
 ZH2       -2.5709784772  10.0527377553  21.9424739716    1.00000    0.0
 ZH3       -3.1005141441   8.2101958693  24.0675989559    1.00000    0.0
 O1        -3.7969461542   9.5677507149  23.1437961915   -8.21083    0.0
 H2        -2.5709784772  10.0527377553  21.9424739716   -0.55665    0.0
 H3        -3.1005141441   8.2101958693  24.0675989559   -0.55665    0.0
 B12       -3.1839627671   9.8102444400  22.5431351467   -0.33793    0.0
 B13       -3.4487306006   8.8889734970  23.6056976389   -0.33793    0.0
 ZO1        4.9106906369   1.6081443982   6.1261490887    8.00000    0.0
 ZH2        4.8555004082   0.3501720533   4.8628819480    1.00000    0.0
 ZH3        6.2808206152   2.6774577734   5.7252787869    1.00000    0.0
 O1         4.9106906369   1.6081443982   6.1261490887   -8.21083    0.0
 H2         4.8555004082   0.3501720533   4.8628819480   -0.55665    0.0
 H3         6.2808206152   2.6774577734   5.7252787869   -0.55665    0.0
 B12        4.8830952138   0.9791582700   5.4945159091   -0.33793    0.0
 B13        5.5957553173   2.1428011301   5.9257143286   -0.33793    0.0
 ZO1        0.8362113854   2.3968839916   9.8190376436    8.00000    0.0
 ZH2        0.5620555315   0.7062515996  10.3170185002    1.00000    0.0
 ZH3        1.9352262435   2.3459900254   8.4151286734    1.00000    0.0
 O1         0.8362113854   2.3968839916   9.8190376436   -8.21083    0.0
 H2         0.5620555315   0.7062515996  10.3170185002   -0.55665    0.0
 H3         1.9352262435   2.3459900254   8.4151286734   -0.55665    0.0
 B12        0.6991332648   1.5515682045  10.0680282846   -0.33793    0.0
 B13        1.3857186208   2.3714374174   9.1170833712   -0.33793    0.0
 ZO1        9.6673073065   4.2662816390   6.4305826677    8.00000    0.0
 ZH2        9.8011047233   3.7451415675   8.1311400845    1.00000    0.0
 ZH3       11.2984813500   4.1284347115   5.7223074986    1.00000    0.0
 O1         9.6673073065   4.2662816390   6.4305826677   -8.21083    0.0
 H2         9.8011047233   3.7451415675   8.1311400845   -0.55665    0.0
 H3        11.2984813500   4.1284347115   5.7223074986   -0.55665    0.0
 B12        9.7342056005   4.0057117580   7.2808611431   -0.33793    0.0
 B13       10.4828939138   4.1973583300   6.0764448501   -0.33793    0.0
 ZO1        3.9308319441   3.6353008642  14.1181793150    8.00000    0.0
 ZH2        2.7181403983   3.4922260380  12.8180666047    1.00000    0.0
 ZH3        3.2442331545   4.7378907480  15.3405793728    1.00000    0.0
 O1         3.9308319441   3.6353008642  14.1181793150   -8.21083    0.0
 H2         2.7181403983   3.4922260380  12.8180666047   -0.55665    0.0
 H3         3.2442331545   4.7378907480  15.3405793728   -0.55665    0.0
 B12        3.3244866172   3.5637632258  13.4681229781   -0.33793    0.0
 B13        3.5875329953   4.1865955808  14.7293793621   -0.33793    0.0
 ZO1       -1.6648217872  -6.9251742195  11.8534787514    8.00000    0.0
 ZH2       -3.3275295390  -6.5980049810  12.4100283645    1.00000    0.0
 ZH3       -0.9117866621  -7.9790118991  13.0797529851    1.00000    0.0
 O1        -1.6648217872  -6.9251742195  11.8534787514   -8.21083    0.0
 H2        -3.3275295390  -6.5980049810  12.4100283645   -0.55665    0.0
 H3        -0.9117866621  -7.9790118991  13.0797529851   -0.55665    0.0
 B12       -2.4961754495  -6.7615894296  12.1317531393   -0.33793    0.0
 B13       -1.2883040110  -7.4520928887  12.4666154496   -0.33793    0.0
 ZO1        3.2474868881  -5.2014661699  18.7525501129    8.00000    0.0
 ZH2        2.1435438447  -4.2212318101  19.7534669964    1.00000    0.0
 ZH3        4.1531996762  -4.0618347595  17.7218664347    1.00000    0.0
 O1         3.2474868881  -5.2014661699  18.7525501129   -8.21083    0.0
 H2         2.1435438447  -4.2212318101  19.7534669964   -0.55665    0.0
 H3         4.1531996762  -4.0618347595  17.7218664347   -0.55665    0.0
 B12        2.6955154130  -4.7113494878  19.2530085617   -0.33793    0.0
 B13        3.7003433287  -4.6316509625  18.2372082808   -0.33793    0.0
 ZO1       -1.2467785744   5.4749454803  25.6328824247    8.00000    0.0
 ZH2       -0.1711113352   5.8157520799  27.0142495384    1.00000    0.0
 ZH3       -0.3057133561   4.4906005213  24.4809946232    1.00000    0.0
 O1        -1.2467785744   5.4749454803  25.6328824247   -8.21083    0.0
 H2        -0.1711113352   5.8157520799  27.0142495384   -0.55665    0.0
 H3        -0.3057133561   4.4906005213  24.4809946232   -0.55665    0.0
 B12       -0.7089454283   5.6453489312  26.3235659277   -0.33793    0.0
 B13       -0.7762464388   4.9827731519  25.0569384701   -0.33793    0.0
 ZO1       -1.1058627221  11.3629000004  18.5097824347    8.00000    0.0
 ZH2       -2.6088132753  11.6122122202  17.5822225701    1.00000    0.0
 ZH3       -0.2621742783  12.9338533635  18.5507652534    1.00000    0.0
 O1        -1.1058627221  11.3629000004  18.5097824347   -8.21083    0.0
 H2        -2.6088132753  11.6122122202  17.5822225701   -0.55665    0.0
 H3        -0.2621742783  12.9338533635  18.5507652534   -0.55665    0.0
 B12       -1.8573378439  11.4875556829  18.0460027106   -0.33793    0.0
 B13       -0.6840183454  12.1483762545  18.5302740522   -0.33793    0.0
 ZO1        0.7701952516   6.2836442503  17.5632653300    8.00000    0.0
 ZH2        0.5174023723   8.0029902363  17.9649236320    1.00000    0.0
 ZH3       -0.8450435930   5.5782127217  17.2898533989    1.00000    0.0
 O1         0.7701952516   6.2836442503  17.5632653300   -8.21083    0.0
 H2         0.5174023723   8.0029902363  17.9649236320   -0.55665    0.0
 H3        -0.8450435930   5.5782127217  17.2898533989   -0.55665    0.0
 B12        0.6437992506   7.1433170052  17.7640944509   -0.33793    0.0
 B13       -0.0374237321   5.9309282479  17.4265593343   -0.33793    0.0
 ZO1        0.6932640119  -2.3190141471  12.2559004589    8.00000    0.0
 ZH2        0.0386569885  -3.9168473585  11.8089072552    1.00000    0.0
 ZH3        2.2865392777  -2.6086456706  13.0035445980    1.00000    0.0
 O1         0.6932640119  -2.3190141471  12.2559004589   -8.21083    0.0
 H2         0.0386569885  -3.9168473585  11.8089072552   -0.55665    0.0
 H3         2.2865392777  -2.6086456706  13.0035445980   -0.55665    0.0
 B12        0.3659602798  -3.1179303096  12.0324037864   -0.33793    0.0
 B13        1.4899014244  -2.4638294656  12.6297224578   -0.33793    0.0

   CHARGE SCREENING PARAMETERS (COEF AND ZETA)
   ICHGP=   3 AI-FRAGMENT SCREENING= 1   FRAGMENT-FRAGMENT SCREENING= 1

             GAUSSIAN DAMPING    EXPONENTIAL DAMPING
 ZO1        3.17107   0.30798      3.17107   0.30798
 ZH2       -0.74355   0.22035     -0.74355   0.22035
 ZH3       -0.74355   0.22035     -0.74355   0.22035
 O1         3.06389   0.30817      3.06389   0.30817
 H2        -1.50149   0.23358     -1.50149   0.23358
 H3        -1.50149   0.23358     -1.50149   0.23358
 B12        1.99014   0.44003      1.99014   0.44003
 B13        1.99014   0.44003      1.99014   0.44003
 ZO1        3.17107   0.30798      3.17107   0.30798
 ZH2       -0.74355   0.22035     -0.74355   0.22035
 ZH3       -0.74355   0.22035     -0.74355   0.22035
 O1         3.06389   0.30817      3.06389   0.30817
 H2        -1.50149   0.23358     -1.50149   0.23358
 H3        -1.50149   0.23358     -1.50149   0.23358
 B12        1.99014   0.44003      1.99014   0.44003
 B13        1.99014   0.44003      1.99014   0.44003
 ZO1        3.17107   0.30798      3.17107   0.30798
 ZH2       -0.74355   0.22035     -0.74355   0.22035
 ZH3       -0.74355   0.22035     -0.74355   0.22035
 O1         3.06389   0.30817      3.06389   0.30817
 H2        -1.50149   0.23358     -1.50149   0.23358
 H3        -1.50149   0.23358     -1.50149   0.23358
 B12        1.99014   0.44003      1.99014   0.44003
 B13        1.99014   0.44003      1.99014   0.44003
 ZO1        3.17107   0.30798      3.17107   0.30798
 ZH2       -0.74355   0.22035     -0.74355   0.22035
 ZH3       -0.74355   0.22035     -0.74355   0.22035
 O1         3.06389   0.30817      3.06389   0.30817
 H2        -1.50149   0.23358     -1.50149   0.23358
 H3        -1.50149   0.23358     -1.50149   0.23358
 B12        1.99014   0.44003      1.99014   0.44003
 B13        1.99014   0.44003      1.99014   0.44003
 ZO1        3.17107   0.30798      3.17107   0.30798
 ZH2       -0.74355   0.22035     -0.74355   0.22035
 ZH3       -0.74355   0.22035     -0.74355   0.22035
 O1         3.06389   0.30817      3.06389   0.30817
 H2        -1.50149   0.23358     -1.50149   0.23358
 H3        -1.50149   0.23358     -1.50149   0.23358
 B12        1.99014   0.44003      1.99014   0.44003
 B13        1.99014   0.44003      1.99014   0.44003
 ZO1        3.17107   0.30798      3.17107   0.30798
 ZH2       -0.74355   0.22035     -0.74355   0.22035
 ZH3       -0.74355   0.22035     -0.74355   0.22035
 O1         3.06389   0.30817      3.06389   0.30817
 H2        -1.50149   0.23358     -1.50149   0.23358
 H3        -1.50149   0.23358     -1.50149   0.23358
 B12        1.99014   0.44003      1.99014   0.44003
 B13        1.99014   0.44003      1.99014   0.44003
 ZO1        3.17107   0.30798      3.17107   0.30798
 ZH2       -0.74355   0.22035     -0.74355   0.22035
 ZH3       -0.74355   0.22035     -0.74355   0.22035
 O1         3.06389   0.30817      3.06389   0.30817
 H2        -1.50149   0.23358     -1.50149   0.23358
 H3        -1.50149   0.23358     -1.50149   0.23358
 B12        1.99014   0.44003      1.99014   0.44003
 B13        1.99014   0.44003      1.99014   0.44003
 ZO1        3.17107   0.30798      3.17107   0.30798
 ZH2       -0.74355   0.22035     -0.74355   0.22035
 ZH3       -0.74355   0.22035     -0.74355   0.22035
 O1         3.06389   0.30817      3.06389   0.30817
 H2        -1.50149   0.23358     -1.50149   0.23358
 H3        -1.50149   0.23358     -1.50149   0.23358
 B12        1.99014   0.44003      1.99014   0.44003
 B13        1.99014   0.44003      1.99014   0.44003
 ZO1        3.17107   0.30798      3.17107   0.30798
 ZH2       -0.74355   0.22035     -0.74355   0.22035
 ZH3       -0.74355   0.22035     -0.74355   0.22035
 O1         3.06389   0.30817      3.06389   0.30817
 H2        -1.50149   0.23358     -1.50149   0.23358
 H3        -1.50149   0.23358     -1.50149   0.23358
 B12        1.99014   0.44003      1.99014   0.44003
 B13        1.99014   0.44003      1.99014   0.44003
 ZO1        3.17107   0.30798      3.17107   0.30798
 ZH2       -0.74355   0.22035     -0.74355   0.22035
 ZH3       -0.74355   0.22035     -0.74355   0.22035
 O1         3.06389   0.30817      3.06389   0.30817
 H2        -1.50149   0.23358     -1.50149   0.23358
 H3        -1.50149   0.23358     -1.50149   0.23358
 B12        1.99014   0.44003      1.99014   0.44003
 B13        1.99014   0.44003      1.99014   0.44003
 ZO1        3.17107   0.30798      3.17107   0.30798
 ZH2       -0.74355   0.22035     -0.74355   0.22035
 ZH3       -0.74355   0.22035     -0.74355   0.22035
 O1         3.06389   0.30817      3.06389   0.30817
 H2        -1.50149   0.23358     -1.50149   0.23358
 H3        -1.50149   0.23358     -1.50149   0.23358
 B12        1.99014   0.44003      1.99014   0.44003
 B13        1.99014   0.44003      1.99014   0.44003
 ZO1        3.17107   0.30798      3.17107   0.30798
 ZH2       -0.74355   0.22035     -0.74355   0.22035
 ZH3       -0.74355   0.22035     -0.74355   0.22035
 O1         3.06389   0.30817      3.06389   0.30817
 H2        -1.50149   0.23358     -1.50149   0.23358
 H3        -1.50149   0.23358     -1.50149   0.23358
 B12        1.99014   0.44003      1.99014   0.44003
 B13        1.99014   0.44003      1.99014   0.44003
 ZO1        3.17107   0.30798      3.17107   0.30798
 ZH2       -0.74355   0.22035     -0.74355   0.22035
 ZH3       -0.74355   0.22035     -0.74355   0.22035
 O1         3.06389   0.30817      3.06389   0.30817
 H2        -1.50149   0.23358     -1.50149   0.23358
 H3        -1.50149   0.23358     -1.50149   0.23358
 B12        1.99014   0.44003      1.99014   0.44003
 B13        1.99014   0.44003      1.99014   0.44003
 ZO1        3.17107   0.30798      3.17107   0.30798
 ZH2       -0.74355   0.22035     -0.74355   0.22035
 ZH3       -0.74355   0.22035     -0.74355   0.22035
 O1         3.06389   0.30817      3.06389   0.30817
 H2        -1.50149   0.23358     -1.50149   0.23358
 H3        -1.50149   0.23358     -1.50149   0.23358
 B12        1.99014   0.44003      1.99014   0.44003
 B13        1.99014   0.44003      1.99014   0.44003
 ZO1        3.17107   0.30798      3.17107   0.30798
 ZH2       -0.74355   0.22035     -0.74355   0.22035
 ZH3       -0.74355   0.22035     -0.74355   0.22035
 O1         3.06389   0.30817      3.06389   0.30817
 H2        -1.50149   0.23358     -1.50149   0.23358
 H3        -1.50149   0.23358     -1.50149   0.23358
 B12        1.99014   0.44003      1.99014   0.44003
 B13        1.99014   0.44003      1.99014   0.44003
 ZO1        3.17107   0.30798      3.17107   0.30798
 ZH2       -0.74355   0.22035     -0.74355   0.22035
 ZH3       -0.74355   0.22035     -0.74355   0.22035
 O1         3.06389   0.30817      3.06389   0.30817
 H2        -1.50149   0.23358     -1.50149   0.23358
 H3        -1.50149   0.23358     -1.50149   0.23358
 B12        1.99014   0.44003      1.99014   0.44003
 B13        1.99014   0.44003      1.99014   0.44003
 ZO1        3.17107   0.30798      3.17107   0.30798
 ZH2       -0.74355   0.22035     -0.74355   0.22035
 ZH3       -0.74355   0.22035     -0.74355   0.22035
 O1         3.06389   0.30817      3.06389   0.30817
 H2        -1.50149   0.23358     -1.50149   0.23358
 H3        -1.50149   0.23358     -1.50149   0.23358
 B12        1.99014   0.44003      1.99014   0.44003
 B13        1.99014   0.44003      1.99014   0.44003
 ZO1        3.17107   0.30798      3.17107   0.30798
 ZH2       -0.74355   0.22035     -0.74355   0.22035
 ZH3       -0.74355   0.22035     -0.74355   0.22035
 O1         3.06389   0.30817      3.06389   0.30817
 H2        -1.50149   0.23358     -1.50149   0.23358
 H3        -1.50149   0.23358     -1.50149   0.23358
 B12        1.99014   0.44003      1.99014   0.44003
 B13        1.99014   0.44003      1.99014   0.44003
 ZO1        3.17107   0.30798      3.17107   0.30798
 ZH2       -0.74355   0.22035     -0.74355   0.22035
 ZH3       -0.74355   0.22035     -0.74355   0.22035
 O1         3.06389   0.30817      3.06389   0.30817
 H2        -1.50149   0.23358     -1.50149   0.23358
 H3        -1.50149   0.23358     -1.50149   0.23358
 B12        1.99014   0.44003      1.99014   0.44003
 B13        1.99014   0.44003      1.99014   0.44003
 ZO1        3.17107   0.30798      3.17107   0.30798
 ZH2       -0.74355   0.22035     -0.74355   0.22035
 ZH3       -0.74355   0.22035     -0.74355   0.22035
 O1         3.06389   0.30817      3.06389   0.30817
 H2        -1.50149   0.23358     -1.50149   0.23358
 H3        -1.50149   0.23358     -1.50149   0.23358
 B12        1.99014   0.44003      1.99014   0.44003
 B13        1.99014   0.44003      1.99014   0.44003

   SCREENING FOR POLARIZATION WITH EXPONENTIAL FORMULA  OFF

   SCREENING FOR POLARIZATION WITH TANG-TOENNIS FORMULA  OFF

                  DIPOLE MOMENTS AND THE SECOND MOMENT TENSOR

                  X        Y        Z           XX/XY    YY/XZ    ZZ/YZ
 O1            0.42803 -0.00557 -0.08025     -4.08072 -3.79611 -4.35116
                                              0.07448 -0.04727  0.37804
 H2            0.02115 -0.04804 -0.02861     -0.27492 -0.27591 -0.28094
                                             -0.00628 -0.00503  0.00573
 H3            0.03127  0.04735  0.01878     -0.27192 -0.27627 -0.28357
                                              0.00784  0.00172  0.00298
 B12          -0.09096  0.13084  0.08396     -0.13790 -0.12986 -0.14726
                                             -0.00858 -0.00781  0.01534
 B13          -0.11845 -0.12811 -0.04470     -0.13317 -0.13044 -0.15141
                                              0.01366  0.00282  0.01102
 O1            0.00919  0.09288  0.42541     -4.23938 -3.92681 -4.06180
                                              0.43923 -0.09230 -0.04137
 H2            0.03131  0.04832  0.01608     -0.28098 -0.27457 -0.27621
                                              0.00620  0.00357  0.00677
 H3           -0.03018 -0.03694  0.03602     -0.28137 -0.28006 -0.27034
                                              0.00395 -0.00543 -0.00516
 B12          -0.08571 -0.13845 -0.07699     -0.14529 -0.13017 -0.13956
                                              0.01710  0.00397  0.00892
 B13           0.08121  0.09301 -0.13113     -0.14590 -0.13881 -0.13031
                                              0.01355 -0.01020 -0.00985
 O1           -0.09042  0.42280 -0.05247     -4.53153 -4.08352 -3.61294
                                             -0.09062  0.06025  0.06996
 H2           -0.00281  0.03304  0.04973     -0.28444 -0.27150 -0.27582
                                             -0.00210 -0.00086  0.00771
 H3           -0.00827  0.01873 -0.05616     -0.28410 -0.27569 -0.27197
                                             -0.00246  0.00255 -0.00754
 B12           0.01471 -0.12284 -0.13090     -0.15584 -0.13245 -0.12673
                                             -0.00383 -0.00047  0.01390
 B13           0.02953 -0.08400  0.15657     -0.15530 -0.13905 -0.12067
                                             -0.00438  0.00491 -0.01012
 O1            0.24203  0.33956 -0.12571     -3.91282 -3.88896 -4.42620
                                             -0.21997 -0.28613  0.07313
 H2           -0.02363  0.05423  0.00859     -0.28198 -0.26555 -0.28423
                                             -0.00158 -0.00123 -0.00008
 H3            0.05327 -0.01265 -0.02398     -0.26908 -0.28129 -0.28139
                                              0.00186 -0.00731 -0.00100
 B12           0.04519 -0.17383 -0.01346     -0.14292 -0.11815 -0.15395
                                             -0.00834 -0.00593  0.00222
 B13          -0.16359  0.00771  0.07496     -0.12262 -0.14292 -0.14948
                                             -0.00292 -0.01551  0.00077
 O1            0.36744 -0.03485  0.23121     -4.20591 -3.67209 -4.34998
                                             -0.10411  0.19582  0.22584
 H2            0.01832  0.04923  0.02854     -0.27748 -0.27587 -0.27841
                                              0.00498  0.00650  0.00627
 H3            0.02668 -0.05349 -0.00022     -0.27536 -0.27339 -0.28302
                                             -0.00820  0.00351 -0.00161
 B12          -0.07853 -0.13090 -0.09560     -0.14277 -0.12775 -0.14450
                                              0.00643  0.01128  0.01387
 B13          -0.10122  0.14794 -0.01751     -0.13942 -0.12385 -0.15176
                                             -0.01432  0.00657  0.00147
 O1           -0.33922 -0.27314 -0.00295     -4.23204 -4.32265 -3.67330
                                              0.19946 -0.16110  0.19575
 H2           -0.01123 -0.02802 -0.05159     -0.27961 -0.27758 -0.27458
                                              0.00572  0.00421  0.00715
 H3           -0.03032 -0.00543  0.05123     -0.27512 -0.28186 -0.27479
                                              0.00487 -0.00785 -0.00260
 B12           0.05707  0.09748  0.14029     -0.14603 -0.14329 -0.12571
                                              0.00991  0.00391  0.01452
 B13           0.10889  0.03614 -0.13885     -0.13896 -0.15002 -0.12604
                                              0.00857 -0.01509 -0.00084
 O1            0.03849  0.10018  0.42210     -3.68556 -4.44054 -4.10189
                                             -0.26734  0.02814  0.11165
 H2           -0.04859  0.02245  0.02662     -0.27613 -0.28203 -0.27360
                                             -0.00449 -0.00659  0.00506
 H3            0.05330 -0.01018  0.02507     -0.27342 -0.28430 -0.27405
                                             -0.00139  0.00829  0.00024
 B12           0.12888 -0.06879 -0.10535     -0.12840 -0.15057 -0.13605
                                             -0.01166 -0.01033  0.00873
 B13          -0.14771  0.01978 -0.10115     -0.12412 -0.15414 -0.13676
                                             -0.00678  0.01310  0.00114
 O1            0.06348 -0.07265 -0.42471     -3.80607 -4.36552 -4.05640
                                             -0.37209  0.10352 -0.00555
 H2            0.05095 -0.02741 -0.01504     -0.27401 -0.28130 -0.27646
                                             -0.00611 -0.00637  0.00404
 H3           -0.04317  0.01852 -0.03697     -0.27814 -0.28361 -0.27001
                                             -0.00273  0.00700 -0.00217
 B12          -0.14328  0.08011  0.07413     -0.12714 -0.14804 -0.13984
                                             -0.01574 -0.00758  0.00546
 B13           0.11222 -0.04457  0.13365     -0.13366 -0.15168 -0.12968
                                             -0.01042  0.01346 -0.00432
 O1           -0.42896  0.07399  0.01413     -4.07151 -4.20590 -3.95058
                                             -0.00805  0.08205  0.45235
 H2           -0.03313 -0.02716 -0.04168     -0.27125 -0.28224 -0.27827
                                              0.00341  0.00703  0.00398
 H3           -0.01940  0.03622  0.04341     -0.27533 -0.27899 -0.27744
                                             -0.00565 -0.00554  0.00647
 B12           0.12357  0.06794  0.11204     -0.13198 -0.14685 -0.13619
                                              0.00607  0.01261  0.01383
 B13           0.08628 -0.10414 -0.11896     -0.13841 -0.14174 -0.13487
                                             -0.00820 -0.00719  0.01775
 O1            0.39320 -0.17847 -0.05676     -4.12927 -4.07830 -4.02041
                                             -0.06463 -0.18782 -0.43048
 H2            0.03397  0.02351 -0.04320     -0.27221 -0.28256 -0.27700
                                              0.00106 -0.00848 -0.00284
 H3            0.01418 -0.04537  0.03625     -0.27760 -0.27404 -0.28012
                                             -0.00710  0.00273 -0.00639
 B12          -0.12305 -0.04984  0.12172     -0.13369 -0.14590 -0.13543
                                              0.00244 -0.01592 -0.01195
 B13          -0.06931  0.13715 -0.09395     -0.14218 -0.13249 -0.14035
                                             -0.01041  0.00173 -0.01755
 O1            0.26896 -0.03859 -0.34038     -4.13429 -3.91995 -4.17375
                                              0.36011 -0.08939  0.26722
 H2           -0.01017 -0.04586 -0.03696     -0.28259 -0.27630 -0.27287
                                              0.00010 -0.00235  0.00884
 H3            0.04311  0.04114 -0.00472     -0.27266 -0.27863 -0.28047
                                              0.00749 -0.00563 -0.00185
 B12           0.00653  0.12753  0.12702     -0.14796 -0.13260 -0.13446
                                              0.00647 -0.00280  0.01805
 B13          -0.13811 -0.10865  0.03950     -0.13233 -0.13626 -0.14643
                                              0.01811 -0.00796  0.00122
 O1            0.16872 -0.35621 -0.18530     -4.26277 -3.91912 -4.04610
                                              0.10964 -0.38372 -0.19565
 H2           -0.01534 -0.05246  0.02420     -0.28353 -0.26583 -0.28241
                                              0.00069 -0.00169 -0.00253
 H3            0.03600  0.00884 -0.04690     -0.27753 -0.28095 -0.27328
                                             -0.00207 -0.00914  0.00231
 B12           0.02841  0.17033 -0.05118     -0.15043 -0.11939 -0.14520
                                              0.00450 -0.00828 -0.00899
 B13          -0.11095  0.00393  0.14183     -0.14098 -0.14321 -0.13083
                                              0.00017 -0.02001 -0.00138
 O1            0.36100 -0.13479  0.20296     -3.96242 -4.49151 -3.77407
                                             -0.05677 -0.23408 -0.17708
 H2           -0.00588 -0.01542  0.05745     -0.28078 -0.28282 -0.26817
                                             -0.00182  0.00335 -0.00553
 H3            0.05009 -0.00109 -0.03260     -0.26678 -0.28415 -0.28083
                                             -0.00264 -0.00398 -0.00031
 B12          -0.01233  0.05242 -0.17187     -0.14375 -0.15288 -0.11840
                                             -0.00253 -0.00058 -0.01095
 B13          -0.16428  0.01352  0.07258     -0.12170 -0.15499 -0.13834
                                             -0.00383 -0.01211 -0.00274
 O1           -0.38848  0.19626 -0.01590     -4.13909 -4.27613 -3.81277
                                             -0.11737  0.17031  0.35818
 H2           -0.03362 -0.01127 -0.04812     -0.27249 -0.28352 -0.27575
                                             -0.00135  0.00855  0.00093
 H3           -0.01395  0.03530  0.04618     -0.27778 -0.27719 -0.27679
                                             -0.00628 -0.00424  0.00709
 B12           0.12172  0.01520  0.13188     -0.13420 -0.15091 -0.12991
                                             -0.00209  0.01616  0.00756
 B13           0.06833 -0.11121 -0.12411     -0.14254 -0.14094 -0.13154
                                             -0.00986 -0.00399  0.01725
 O1           -0.18606 -0.14863  0.36466     -3.78688 -4.27645 -4.16466
                                             -0.31843  0.01611 -0.24547
 H2           -0.05655  0.01671  0.00981     -0.26904 -0.28355 -0.27917
                                             -0.00210 -0.00691 -0.00067
 H3            0.03376 -0.03491  0.03485     -0.28068 -0.27823 -0.27285
                                             -0.00342  0.00288 -0.00848
 B12           0.16809 -0.03372 -0.05522     -0.11981 -0.15053 -0.14469
                                             -0.00937 -0.00883 -0.00374
 B13          -0.07707  0.10643 -0.12318     -0.13814 -0.14216 -0.13473
                                             -0.01145  0.00660 -0.01604
 O1           -0.04055  0.43359 -0.00609     -4.08005 -4.07413 -4.07380
                                             -0.00735 -0.47507 -0.04444
 H2           -0.04005  0.02357  0.03760     -0.27824 -0.27408 -0.27944
                                             -0.00625 -0.00590  0.00511
 H3            0.03508  0.02953 -0.03835     -0.28035 -0.27229 -0.27912
                                              0.00495 -0.00499 -0.00631
 B12           0.11189 -0.09797 -0.10160     -0.13834 -0.13660 -0.14008
                                             -0.00951 -0.01726  0.00738
 B13          -0.09206 -0.11415  0.10458     -0.14167 -0.13378 -0.13957
                                              0.00813 -0.01583 -0.01061
 O1            0.41250 -0.13163  0.04694     -4.12033 -4.30617 -3.80149
                                             -0.11718  0.08892  0.37543
 H2            0.02777  0.01671  0.05023     -0.27358 -0.28364 -0.27454
                                              0.00032  0.00846  0.00235
 H3            0.02274 -0.03283 -0.04448     -0.27502 -0.27913 -0.27762
                                             -0.00653 -0.00516  0.00587
 B12          -0.10773 -0.03504 -0.14002     -0.13611 -0.15105 -0.12786
                                             -0.00003  0.01430  0.01016
 B13          -0.09407  0.09944  0.11706     -0.13837 -0.14394 -0.13271
                                             -0.01082 -0.00714  0.01569
 O1           -0.13484  0.37231 -0.18134     -3.86699 -3.99906 -4.36194
                                              0.23379  0.32694 -0.02240
 H2           -0.05212 -0.00191 -0.02921     -0.27222 -0.28030 -0.27925
                                             -0.00345  0.00815 -0.00323
 H3            0.03561  0.04750  0.00700     -0.28041 -0.26756 -0.28380
                                              0.00556  0.00095 -0.00166
 B12           0.15206 -0.02401  0.09350     -0.12572 -0.14383 -0.14547
                                             -0.00019  0.01767 -0.00368
 B13          -0.08609 -0.15813 -0.00479     -0.13862 -0.12376 -0.15264
                                              0.01400  0.00633 -0.00122
 O1           -0.38208  0.20738  0.02623     -3.96757 -3.76047 -4.49994
                                              0.18358  0.08170  0.20454
 H2            0.00207  0.05802  0.01422     -0.28007 -0.26778 -0.28392
                                             -0.00463 -0.00083  0.00384
 H3           -0.04886 -0.03263 -0.01101     -0.26659 -0.28080 -0.28438
                                              0.00371  0.00205  0.00121
 B12           0.02433 -0.17377 -0.04067     -0.14313 -0.11759 -0.15430
                                             -0.00213  0.00033  0.00934
 B13           0.16259  0.07231  0.02784     -0.12190 -0.13810 -0.15502
                                              0.01100  0.00486  0.00519
 O1            0.19199 -0.38606  0.06149     -3.87240 -3.97670 -4.37890
                                              0.15429  0.34288  0.12177
 H2           -0.03026 -0.04809 -0.01856     -0.28136 -0.26679 -0.28361
                                              0.00336  0.00194  0.00309
 H3            0.05377  0.00081  0.02610     -0.27018 -0.27987 -0.28171
                                             -0.00462  0.00670 -0.00184
 B12           0.06710  0.16081  0.04558     -0.14070 -0.12246 -0.15186
                                              0.00983  0.00849  0.00754
 B13          -0.16102  0.02805 -0.07566     -0.12310 -0.14306 -0.14887
                                             -0.00274  0.01599 -0.00023

                  THE THIRD MOMENT TENSOR

               XXX/XYY  YYY/YYZ  ZZZ/XZZ  XXY/YZZ  XXZ/XYZ
 O1            0.98334 -0.01147 -0.18102 -0.01206 -0.06429
               0.29412 -0.05465  0.32236  0.00272 -0.01767
 H2            0.01441 -0.04706 -0.03015 -0.01372 -0.00732
               0.00044 -0.00500  0.00380 -0.01500 -0.00406
 H3            0.02223  0.04693  0.02258  0.01075  0.00532
               0.00282  0.00458  0.00960  0.01740 -0.00255
 B12          -0.24970  0.39705  0.24916  0.13325  0.08328
              -0.08201  0.08435 -0.08424  0.13167  0.00102
 B13          -0.33346 -0.38954 -0.13906 -0.12979 -0.04729
              -0.11028 -0.04837 -0.11142 -0.13001  0.00125
 O1            0.02033  0.19616  0.97383  0.06758  0.31395
              -0.00280  0.30222  0.01682  0.08340 -0.02003
 H2            0.03402  0.04470  0.00993  0.01436  0.00235
               0.00550 -0.00157  0.00967  0.01415 -0.00367
 H3           -0.03330 -0.04094  0.02532 -0.01225  0.00894
              -0.00884  0.00800 -0.00592 -0.00845 -0.00384
 B12          -0.25841 -0.41393 -0.20712 -0.13856 -0.06950
              -0.08715 -0.06887 -0.08750 -0.13891  0.00148
 B13           0.24585  0.28822 -0.37210  0.09636 -0.12436
               0.08419 -0.12319  0.08217  0.09610  0.00110
 O1           -0.20966  0.97028 -0.10494  0.32666 -0.03953
              -0.06861 -0.05164 -0.05969  0.28330 -0.00120
 H2           -0.00216  0.02361  0.04956  0.01101  0.01952
               0.00066  0.01139  0.00019  0.00302  0.00104
 H3           -0.00847  0.01245 -0.04954  0.00520 -0.02116
              -0.00154 -0.01631  0.00006 -0.00265 -0.00176
 B12           0.04007 -0.34719 -0.40248 -0.11658 -0.13228
               0.01262 -0.13357  0.01236 -0.11419  0.00050
 B13           0.08469 -0.22886  0.47277 -0.07767  0.15626
               0.02747  0.15834  0.02793 -0.07472 -0.00018
 O1            0.51920  0.74027 -0.28767  0.26503 -0.07781
               0.20707 -0.10436  0.17835  0.26384 -0.00194
 H2           -0.02995  0.03646  0.01157  0.01799  0.00362
              -0.00566  0.00274 -0.01013  0.01958  0.00065
 H3            0.04109 -0.01906 -0.02480 -0.00632 -0.00037
               0.01886 -0.00841  0.01594 -0.00636  0.00004
 B12           0.15351 -0.50629 -0.04687 -0.16938 -0.01839
               0.05018 -0.01600  0.05038 -0.16918  0.00004
 B13          -0.48109  0.04681  0.21976  0.01446  0.07315
              -0.16177  0.07355 -0.16032  0.01320 -0.00066
 O1            0.84643 -0.07036  0.52969 -0.02041  0.17692
               0.24670  0.15755  0.28021 -0.03947 -0.00819
 H2            0.01370  0.04882  0.02663  0.01575  0.00681
               0.00052  0.00370  0.00204  0.01449 -0.00412
 H3            0.02104 -0.04906 -0.00327 -0.01406 -0.00261
               0.00006 -0.00247  0.00839 -0.02028  0.00148
 B12          -0.21674 -0.40078 -0.27667 -0.13377 -0.09117
              -0.07015 -0.09213 -0.07248 -0.13193 -0.00027
 B13          -0.28565  0.44755 -0.04066  0.14858 -0.01238
              -0.09414 -0.01154 -0.09448  0.14941  0.00107
 O1           -0.77931 -0.62759 -0.00596 -0.20965 -0.01491
              -0.26018  0.00983 -0.22836 -0.18366  0.00242
 H2           -0.00737 -0.02504 -0.04911 -0.00765 -0.01783
               0.00003 -0.01456  0.00131 -0.00219  0.00347
 H3           -0.02484 -0.00244  0.04909  0.00170  0.01306
              -0.00923  0.01898 -0.00214  0.00160 -0.00253
 B12           0.15344  0.28012  0.42657  0.09215  0.14271
               0.05108  0.14083  0.04907  0.09289  0.00053
 B13           0.31065  0.09451 -0.42261  0.03072 -0.13977
               0.10264 -0.14103  0.10272  0.02930 -0.00086
 O1            0.07790  0.22931  0.97115  0.07001  0.28484
               0.03568  0.32165  0.03028  0.07511  0.01330
 H2           -0.04852  0.02374  0.01909  0.00374  0.00193
              -0.01668  0.00648 -0.01297  0.00455  0.00379
 H3            0.04886 -0.01310  0.01787 -0.00256 -0.00074
               0.02036  0.00792  0.01375 -0.00390  0.00095
 B12           0.39484 -0.20242 -0.29412 -0.06836 -0.09632
               0.13003 -0.09902  0.13179 -0.06712 -0.00041
 B13          -0.44652  0.06458 -0.28132  0.02322 -0.09258
              -0.14847 -0.09428 -0.14899  0.02281 -0.00115
 O1            0.13123 -0.16417 -0.97125 -0.04482 -0.29501
               0.04182 -0.32113  0.06423 -0.06256 -0.01565
 H2            0.04697 -0.02916 -0.00898 -0.00371  0.00200
               0.01590 -0.00213  0.01551 -0.00797 -0.00354
 H3           -0.04542  0.02219 -0.02588  0.00510 -0.00618
              -0.01614 -0.01172 -0.00892  0.00451 -0.00256
 B12          -0.43084  0.23793  0.19839  0.08033  0.06531
              -0.14319  0.06737 -0.14488  0.07984  0.00111
 B13           0.34526 -0.13821  0.37977 -0.04837  0.12574
               0.11493  0.12696  0.11469 -0.04669  0.00105
 O1           -0.98439  0.16316  0.02988  0.06271  0.02016
              -0.31636  0.00279 -0.30254  0.05068  0.02113
 H2           -0.02341 -0.03138 -0.04324 -0.00680 -0.00904
              -0.00905 -0.01414 -0.00511 -0.00734  0.00362
 H3           -0.01285  0.03697  0.04384  0.00992  0.01268
              -0.00195  0.01165 -0.00105  0.00784  0.00431
 B12           0.34895  0.20956  0.34061  0.07054  0.11362
               0.11620  0.11463  0.11587  0.07165 -0.00134
 B13           0.23531 -0.31060 -0.35976 -0.10415 -0.12109
               0.07906 -0.12009  0.07781 -0.10487 -0.00140
 O1            0.90132 -0.38934 -0.12147 -0.14454 -0.03096
               0.28964 -0.05973  0.27868 -0.13318  0.01810
 H2            0.02543  0.02900 -0.04261  0.00747 -0.00856
               0.01044 -0.01519  0.00427  0.00688  0.00268
 H3            0.00902 -0.04029  0.03968 -0.01320  0.01232
              -0.00192  0.00728  0.00172 -0.01209  0.00352
 B12          -0.34994 -0.16194  0.36521 -0.05429  0.12138
              -0.11555  0.12386 -0.11662 -0.05476 -0.00092
 B13          -0.18646  0.40472 -0.28816  0.13495 -0.09764
              -0.06252 -0.09587 -0.06099  0.13623 -0.00106
 O1            0.60016 -0.08120 -0.77539 -0.05223 -0.26016
               0.19202 -0.23665  0.21307 -0.01080  0.00808
 H2           -0.01525 -0.04484 -0.02942 -0.01733 -0.01255
              -0.00454 -0.00472 -0.00560 -0.00903  0.00005
 H3            0.03576  0.04335 -0.00041  0.00784  0.00355
               0.00923  0.00117  0.01390  0.01520  0.00248
 B12           0.03601  0.38429  0.36527  0.13017  0.12070
               0.01324  0.12175  0.01190  0.12732 -0.00044
 B13          -0.40268 -0.33208  0.09955 -0.10979  0.03350
              -0.13495  0.03147 -0.13371 -0.11237 -0.00030
 O1            0.37828 -0.78338 -0.40253 -0.27558 -0.12638
               0.14344 -0.16365  0.10887 -0.27241 -0.00105
 H2           -0.01985 -0.03523  0.02983 -0.01832  0.00990
              -0.00406  0.00495 -0.00618 -0.01709 -0.00119
 H3            0.03440  0.01501 -0.04085  0.00552 -0.01024
               0.01265 -0.01667  0.00404  0.00576 -0.00074
 B12           0.09522  0.49477 -0.16670  0.16528 -0.05674
               0.03188 -0.05507  0.03436  0.16536  0.00012
 B13          -0.32608 -0.01224  0.41851 -0.00218  0.13942
              -0.10938  0.14097 -0.10876 -0.00284  0.00095
 O1            0.80022 -0.31171  0.42305 -0.10381  0.18265
               0.27986  0.15287  0.26921 -0.08826 -0.00249
 H2           -0.01176 -0.01577  0.04387 -0.00503  0.02042
              -0.00411  0.01956 -0.00592  0.00107  0.00088
 H3            0.03443  0.00041 -0.03864  0.00224 -0.00641
               0.01781 -0.01352  0.01450  0.00028 -0.00046
 B12          -0.01346  0.15149 -0.50864  0.04962 -0.17136
              -0.00661 -0.16919 -0.00468  0.05027 -0.00020
 B13          -0.47626  0.03427  0.23522  0.01088  0.07689
              -0.15907  0.07662 -0.15894  0.00925 -0.00031
 O1           -0.89070  0.44243 -0.03285  0.15459  0.00174
              -0.29424 -0.02830 -0.26704  0.13652  0.01277
 H2           -0.02539 -0.01555 -0.04683 -0.00507 -0.01035
              -0.01124 -0.01837 -0.00311 -0.00399  0.00066
 H3           -0.00893  0.03310  0.04644  0.00985  0.01528
               0.00017  0.01186  0.00013  0.00610  0.00393
 B12           0.34623  0.05678  0.39944  0.01975  0.13254
               0.11474  0.13422  0.11488  0.02092 -0.00104
 B13           0.18386 -0.32547 -0.37801 -0.10795 -0.12722
               0.06200 -0.12491  0.05963 -0.10929 -0.00049
 O1           -0.38772 -0.33322  0.83430 -0.11937  0.26037
              -0.15193  0.26826 -0.15577 -0.10293  0.01598
 H2           -0.04444  0.02115  0.00532  0.00349 -0.00457
              -0.02040  0.00215 -0.01816  0.00693  0.00083
 H3            0.03952 -0.03409  0.02713 -0.01034  0.00926
               0.01057  0.00611  0.00974 -0.00565  0.00374
 B12           0.49822 -0.11004 -0.14571 -0.03751 -0.04810
               0.16705 -0.04776  0.16653 -0.03870 -0.00116
 B13          -0.24748  0.31350 -0.35221  0.10605 -0.11590
              -0.08074 -0.11763 -0.08145  0.10392 -0.00004
 O1           -0.08754  0.99672 -0.01313  0.31236 -0.00878
              -0.03420 -0.00085 -0.02980  0.31153  0.02338
 H2           -0.04075  0.01625  0.03985  0.00252  0.00952
              -0.01043  0.01031 -0.01075  0.00352  0.00441
 H3            0.03836  0.02080 -0.04020  0.00606 -0.01128
               0.00881 -0.00896  0.00972  0.00485  0.00429
 B12           0.33626 -0.27067 -0.30793 -0.09027 -0.10357
               0.11277 -0.10363  0.11335 -0.08996 -0.00153
 B13          -0.28112 -0.31997  0.31621 -0.10629  0.10689
              -0.09439  0.10584 -0.09489 -0.10655 -0.00145
 O1            0.94916 -0.29597  0.09689 -0.10127  0.03167
               0.30927  0.04687  0.28333 -0.09474 -0.01765
 H2            0.02032  0.02093  0.04712  0.00584  0.01210
               0.00866  0.01859  0.00067  0.00421 -0.00183
 H3            0.01628 -0.03280 -0.04601 -0.00780 -0.01306
               0.00312 -0.01290  0.00230 -0.00677 -0.00440
 B12          -0.30211 -0.11292 -0.42209 -0.03886 -0.14062
              -0.10042 -0.14146 -0.09999 -0.03940  0.00131
 B13          -0.26053  0.29326  0.35883  0.09750  0.12028
              -0.08759  0.11857 -0.08523  0.09906  0.00073
 O1           -0.28301  0.83231 -0.41335  0.27109 -0.11847
              -0.12982 -0.14596 -0.09117  0.28816 -0.00248
 H2           -0.04507 -0.00750 -0.02848 -0.00481 -0.00173
              -0.01849 -0.00971 -0.01421 -0.00357 -0.00184
 H3            0.04045  0.03308  0.01043  0.01240  0.00309
               0.00618  0.00382  0.01435  0.01677 -0.00034
 B12           0.45270 -0.04864  0.27288 -0.01617  0.09113
               0.15288  0.09056  0.15036 -0.01793  0.00060
 B13          -0.27053 -0.45706 -0.02395 -0.15246 -0.01073
              -0.08913 -0.00848 -0.09035 -0.15242  0.00048
 O1           -0.85217  0.43160  0.06039  0.18553  0.02857
              -0.28207  0.00909 -0.29383  0.15799  0.00486
 H2            0.00787  0.04377  0.01609  0.02015  0.00509
               0.00609  0.00040  0.00253  0.02067  0.00080
 H3           -0.03299 -0.03873 -0.01314 -0.00670 -0.00149
              -0.01402 -0.00369 -0.01706 -0.01334  0.00130
 B12           0.04859 -0.51411 -0.12123 -0.17294 -0.04129
               0.01638 -0.04070  0.01837 -0.17125 -0.00065
 B13           0.46989  0.23485  0.08507  0.07683  0.02848
               0.15637  0.03015  0.15724  0.07613 -0.00015
 O1            0.40603 -0.86313  0.13917 -0.28612  0.02947
               0.17118  0.06120  0.14039 -0.29368  0.00789
 H2           -0.03618 -0.03255 -0.02209 -0.01424 -0.00647
              -0.00637 -0.00293 -0.01195 -0.01592  0.00196
 H3            0.04342  0.00655  0.02809  0.00549  0.00186
               0.01852  0.00919  0.01646  0.00260  0.00160
 B12           0.21688  0.46429  0.14062  0.15451  0.04957
               0.07132  0.04702  0.07161  0.15528 -0.00035
 B13          -0.47633  0.05976 -0.22505  0.02038 -0.07538
              -0.16018 -0.07629 -0.15888  0.02165 -0.00104

                  POLARIZABLE POINTS AND THE POLARIZABILITY TENSOR

              X       Y       Z       XX/YZ    YY/YX    ZZ/ZX    XY/ZY     XZ
 LMO1     -2.7338  6.1976 11.1330   0.00155  0.00136  0.00133  0.00000 -0.00004
                                    0.00002  0.00000 -0.00004  0.00002
 LMO2     -2.0666  6.8685 11.3586   1.73838  1.79982  0.88384  1.25186  0.47396
                                    0.35416  0.93262  0.30922  0.29645
 LMO3     -2.2107  5.5113 10.6843   1.31679  1.85147  1.25378 -1.05028 -0.63779
                                    0.68157 -0.73104 -0.47305  0.73929
 LMO4     -3.0952  6.4230 10.7567   1.16307  1.25614  0.74951 -0.24061  0.53203
                                    0.26001  0.01133  0.02494  0.31385
 LMO5     -2.9399  5.9797 11.6158   0.93150  1.24754  0.98967  0.34333 -0.59382
                                    0.26021  0.09140 -0.08673  0.20638
 LMO1     -6.1021 -4.9164 14.4985   0.00133  0.00136  0.00155  0.00003 -0.00000
                                    0.00004  0.00003 -0.00000  0.00004
 LMO2     -6.5267 -5.3938 15.2319   1.19122  1.26585  1.96497  0.46319 -0.65317
                                   -0.72496  0.42471 -0.85884 -1.02263
 LMO3     -5.6519 -4.1807 14.9482   1.24618  2.03608  1.13978  0.74055  0.40432
                                    0.65121  0.77902  0.60999  0.94888
 LMO4     -6.5087 -4.7012 14.1647   0.95964  1.07196  1.13712  0.30956  0.00727
                                   -0.06358  0.41557  0.46051 -0.39044
 LMO5     -5.7077 -5.2547 14.2682   0.93399  1.25102  0.98370  0.29485 -0.13467
                                    0.00289  0.18883 -0.58791  0.32975
 LMO1     -8.7567  5.6282 17.1812   0.00133  0.00154  0.00137 -0.00005  0.00001
                                   -0.00002 -0.00005  0.00001 -0.00002
 LMO2     -8.9212  6.1143 16.3549   0.84671  1.22731  2.34802 -0.15382  0.36092
                                   -1.16342 -0.18194  0.28840 -0.80799
 LMO3     -8.8436  6.3178 17.8616   0.79870  1.81572  1.80762 -0.13262 -0.19118
                                    1.33280 -0.10450 -0.11865  0.97737
 LMO4     -8.2185  5.4454 17.1781   0.89603  0.90185  1.37084 -0.11589  0.04095
                                    0.10048 -0.67881  0.11701  0.07147
 LMO5     -9.1749  5.2502 17.2538   0.59476  1.18928  1.38467 -0.00520  0.04152
                                   -0.00210  0.55772 -0.03454  0.02692
 LMO1      5.3034 -1.5349 15.0105   0.00142  0.00148  0.00134  0.00008 -0.00005
                                   -0.00004  0.00008 -0.00005 -0.00004
 LMO2      6.1870 -1.5385 14.6040   2.60037  0.65183  1.16985 -0.18379 -0.82681
                                   -0.06172  0.14650 -0.84075  0.09027
 LMO3      5.0928 -0.5871 15.0674   0.78988  2.86052  0.77164 -0.33637  0.01276
                                    0.21927 -0.66666  0.02670  0.06728
 LMO4      5.3474 -1.7413 15.5382   0.99632  1.16028  1.01211 -0.19756 -0.51576
                                   -0.41080 -0.37069 -0.16026 -0.00196
 LMO5      4.9384 -1.7788 14.6495   1.34116  1.20465  0.62291 -0.11299  0.12487
                                    0.51550  0.06015 -0.23063  0.10666
 LMO1      0.8838 -9.2047 16.1134   0.00149  0.00137  0.00139 -0.00002  0.00011
                                    0.00000 -0.00002  0.00011  0.00000
 LMO2      1.4541 -9.9838 16.2303   1.48139  2.17012  0.77054 -1.21999  0.05184
                                   -0.15126 -0.92757  0.14945 -0.34452
 LMO3      1.3352 -8.5224 16.6395   1.18269  1.82199  1.41737  0.92207  0.56945
                                    0.76169  0.62965  0.47184  0.95495
 LMO4      0.3801 -9.3129 16.3535   1.29626  1.32118  0.55128  0.07369 -0.28940
                                    0.21034 -0.07921  0.25664  0.25477
 LMO5      0.9001 -9.0502 15.5666   0.63060  1.35306  1.18506 -0.21575  0.55081
                                    0.10124 -0.06285  0.00478  0.05681
 LMO1     -5.9003 11.8032 16.2388   0.00146  0.00141  0.00137  0.00012 -0.00001
                                    0.00001  0.00012 -0.00001  0.00001
 LMO2     -6.5078 11.5841 16.9661   1.60120  0.84181  1.97903  0.20962 -1.20325
                                   -0.52550  0.31018 -0.93046 -0.30673
 LMO3     -6.2362 11.2626 15.5032   0.97138  1.44211  2.00855  0.42936  0.76307
                                    1.06239  0.32880  0.49028  0.84361
 LMO4     -5.3810 11.6173 16.3760   1.29424  0.53674  1.33774 -0.21726  0.03061
                                    0.24788  0.32935 -0.08951  0.14641
 LMO5     -5.9697 12.3513 16.1054   0.59856  1.23519  1.33496  0.48296 -0.25241
                                    0.02144 -0.06365 -0.13230  0.12292
 LMO1     -8.4119  9.7676 20.7258   0.00137  0.00133  0.00154 -0.00001  0.00002
                                    0.00005 -0.00001  0.00002  0.00005
 LMO2     -7.6336  9.6748 21.3017   2.16847  0.78927  1.46430 -0.19123  0.92282
                                   -0.11143 -0.10172  1.25908 -0.21774
 LMO3     -9.0832 10.1390 21.3237   1.78702  1.10718  1.52784 -0.53705 -0.82950
                                    0.45952 -0.62655 -1.16577  0.56584
 LMO4     -8.5805  9.2488 20.5663   1.34702  0.96581  0.85588 -0.12474  0.02896
                                    0.11562 -0.13296  0.20240  0.65725
 LMO5     -8.2944 10.1536 20.3255   1.30866  0.65002  1.21003 -0.24355  0.00821
                                    0.03402 -0.23532 -0.16522 -0.50760
 LMO1     -7.7126  8.2361 12.1754   0.00136  0.00133  0.00155 -0.00003 -0.00002
                                    0.00003 -0.00003 -0.00002  0.00003
 LMO2     -8.2939  8.4618 11.4288   1.52343  0.88630  2.01231 -0.28996  0.90488
                                   -0.34536 -0.25933  1.22785 -0.51010
 LMO3     -6.9548  7.8084 11.7408   2.10457  1.21084  1.10662 -0.73366 -0.64835
                                    0.36104 -0.76428 -0.97132  0.52578
 LMO4     -7.9764  7.8498 12.4982   1.29381  0.74979  1.12511 -0.17754  0.02607
                                   -0.07137 -0.29410 -0.21808 -0.57168
 LMO5     -7.5331  8.7188 12.4158   1.19578  0.96974  1.00319 -0.33410  0.11897
                                    0.06080 -0.21755  0.36311  0.56111
 LMO1      8.1116  1.8579 10.9999   0.00155  0.00134  0.00135 -0.00004 -0.00000
                                    0.00003 -0.00004 -0.00000  0.00003
 LMO2      7.6129  2.4117 11.6249   1.25402  1.49532  1.67270 -0.77348 -0.91683
                                    0.81589 -0.55323 -0.63029  0.77373
 LMO3      7.4174  1.5098 10.4142   1.82717  1.03915  1.55572  0.71967  1.13547
                                    0.42396  0.49943  0.84893  0.46613
 LMO4      8.3393  1.4233 11.2869   0.96881  1.06896  1.13095 -0.51094  0.44803
                                    0.24601 -0.05858  0.11107  0.31904
 LMO5      8.4528  2.1943 10.6942   1.13836  0.87023  1.16013  0.50289 -0.33453
                                    0.37643  0.05052  0.00243  0.30341
 LMO1     -3.7968  9.5677 23.1438   0.00151  0.00138  0.00135 -0.00008 -0.00004
                                   -0.00001 -0.00008 -0.00004 -0.00001
 LMO2     -3.3908  8.8295 23.6300   1.06825  2.05301  1.30079 -0.81581  0.63611
                                   -0.90470 -0.57675  0.40098 -0.76346
 LMO3     -3.1092  9.8095 22.4997   1.82533  0.85731  1.73940  0.56859 -1.17283
                                   -0.26407  0.32952 -0.93769 -0.40530
 LMO4     -3.8675 10.0024 23.5030   0.75494  1.25284  1.16094 -0.40989 -0.51277
                                   -0.11282  0.01243 -0.14660 -0.21805
 LMO5     -4.2475  9.3696 22.8598   1.27553  0.85945  1.03374  0.32762  0.25640
                                   -0.48058 -0.09470 -0.10977 -0.37535
 LMO1      4.9108  1.6081  6.1260   0.00142  0.00135  0.00147  0.00001 -0.00011
                                    0.00003  0.00001 -0.00011  0.00003
 LMO2      5.6638  2.1734  5.8820   2.09569  1.49353  0.83282  1.10628 -0.29372
                                   -0.26711  0.90752 -0.50304 -0.48862
 LMO3      4.9057  0.9355  5.4234   0.70181  1.82007  1.90016 -0.13046 -0.04271
                                    1.01205  0.06830  0.16661  1.23357
 LMO4      4.4345  1.9153  6.0843   1.29493  1.20441  0.66937  0.01064  0.12267
                                    0.19062  0.18202 -0.33983  0.47387
 LMO5      5.0305  1.3521  6.6191   0.73645  1.12870  1.30356  0.48595 -0.23699
                                    0.17589  0.31457  0.22551 -0.10737
 LMO1      0.8363  2.3967  9.8190   0.00136  0.00149  0.00138 -0.00006 -0.00006
                                    0.00006 -0.00006 -0.00006  0.00006
 LMO2      1.4361  2.3375  9.0555   1.62206  0.65879  2.14119  0.03867 -1.07374
                                    0.24799 -0.18486 -1.05435 -0.03845
 LMO3      0.7057  1.4653 10.0671   0.77968  2.78257  0.85979  0.20145 -0.00840
                                   -0.71772  0.42498 -0.02779 -0.43129
 LMO4      0.3390  2.6068  9.6411   1.15588  1.12879  0.88405  0.03584 -0.13563
                                   -0.46922 -0.34212 -0.46149 -0.19634
 LMO5      1.1098  2.6590 10.2426   0.70286  1.19354  1.27231  0.12077 -0.38948
                                    0.19369  0.49873 -0.06362 -0.07919
 LMO1      9.6675  4.2662  6.4307   0.00150  0.00134  0.00141 -0.00006  0.00007
                                   -0.00004 -0.00006  0.00007 -0.00004
 LMO2     10.5677  4.1807  6.0723   2.64587  0.78858  0.98759 -0.11011 -0.96936
                                    0.14572 -0.20941 -0.62682  0.07365
 LMO3      9.7712  3.9769  7.3535   0.68036  0.97643  2.76525 -0.09405  0.40163
                                   -0.65806  0.00526  0.05909 -0.58599
 LMO4      9.3312  3.8947  6.1625   1.25314  0.55606  1.35951  0.46963 -0.00819
                                   -0.13778 -0.00907 -0.08436  0.15979
 LMO5      9.5251  4.8165  6.4297   1.00927  0.98886  1.17059 -0.54313 -0.32093
                                   -0.10333 -0.06443 -0.24476 -0.40090
 LMO1      3.9307  3.6354 14.1182   0.00151  0.00137  0.00136 -0.00009  0.00002
                                    0.00002 -0.00009  0.00002  0.00002
 LMO2      3.5304  4.2396 14.7669   1.05994  1.63206  1.73004 -0.63058 -0.80388
                                    0.99605 -0.45919 -0.52029  0.84577
 LMO3      3.2506  3.5770 13.4252   1.80306  0.74315  1.87583  0.23286  1.27647
                                   -0.01827  0.06147  0.99288  0.13201
 LMO4      3.9860  3.1237 14.3593   0.73502  1.18057  1.25313 -0.51685  0.39111
                                    0.10495 -0.01556  0.14356  0.20950
 LMO5      4.3904  3.8868 13.8981   1.28229  0.65883  1.22759  0.36258 -0.15731
                                    0.38828 -0.13872  0.09024  0.28373
 LMO1     -1.6649 -6.9252 11.8536   0.00140  0.00136  0.00149  0.00001 -0.00007
                                   -0.00008  0.00001 -0.00007 -0.00008
 LMO2     -1.2812 -7.4992 12.5388   1.03841  1.55212  1.83150 -0.42510  0.52884
                                   -0.85254 -0.60491  0.82235 -0.97048
 LMO3     -2.5661 -6.7646 12.1826   2.67275  0.80578  0.94351 -0.41929 -0.55263
                                    0.12604 -0.23948 -0.84614  0.24398
 LMO4     -1.7002 -7.2216 11.3699   1.15369  0.71579  1.29923 -0.45604 -0.10053
                                   -0.21819 -0.32295  0.17392  0.26189
 LMO5     -1.3829 -6.4318 11.8538   1.35939  1.12473  0.68459  0.01517  0.12915
                                   -0.11449 -0.11792 -0.14530 -0.59457
 LMO1      3.2475 -5.2013 18.7525   0.00135  0.00155  0.00134 -0.00002 -0.00003
                                   -0.00001 -0.00002 -0.00003 -0.00001
 LMO2      3.7255 -4.5560 18.2038   1.28951  1.66465  1.46789  0.63924 -0.57283
                                   -0.99221  0.89548 -0.60044 -0.73537
 LMO3      2.6566 -4.6408 19.2844   1.58578  1.41335  1.42291 -0.67696 -0.72795
                                    0.86787 -0.93319 -0.70034  0.61103
 LMO4      3.6199 -5.4516 19.1013   1.10518  0.99547  1.06806 -0.06071 -0.28307
                                   -0.49011 -0.46445 -0.31474 -0.09074
 LMO5      2.9288 -5.5259 18.4118   1.00757  1.10771  1.05344  0.05227 -0.37077
                                    0.42921  0.45601 -0.33909  0.02983
 LMO1     -1.2466  5.4749 25.6329   0.00153  0.00135  0.00136 -0.00007  0.00003
                                    0.00002 -0.00007  0.00003  0.00002
 LMO2     -0.7088  4.9394 25.0245   1.36586  1.45299  1.60319 -0.75077 -0.97577
                                    0.81529 -0.58604 -0.67259  0.69980
 LMO3     -0.6372  5.6443 26.3719   1.56775  0.81876  2.03553  0.37553  1.23867
                                    0.20667  0.21080  0.93549  0.32215
 LMO4     -1.6755  5.1543 25.8234   1.24392  0.71300  1.21179  0.43111 -0.21794
                                    0.35617 -0.07231  0.04540  0.32942
 LMO5     -1.3647  5.9701 25.3802   0.79737  1.08708  1.28427 -0.58722  0.33848
                                    0.16109 -0.08379  0.07513  0.18784
 LMO1     -1.1059 11.3631 18.5097   0.00138  0.00150  0.00136 -0.00004  0.00005
                                   -0.00008 -0.00004  0.00005 -0.00008
 LMO2     -0.6694 12.2322 18.5151   1.16239  2.51167  0.74798  0.77368 -0.00258
                                    0.13308  1.08072 -0.08867 -0.04214
 LMO3     -1.9175 11.5293 18.0000   2.31295  0.72249  1.38660 -0.18367  0.92241
                                   -0.26200 -0.49071  1.00850 -0.08679
 LMO4     -1.2523 11.2320 19.0430   1.09146  0.95536  1.12189  0.24711  0.37770
                                   -0.47669  0.43958  0.11506 -0.01035
 LMO5     -0.7808 11.0004 18.2168   1.31294  1.25582  0.59995  0.07942  0.06992
                                    0.45228 -0.11306  0.33257 -0.01406
 LMO1      0.7700  6.2837 17.5633   0.00151  0.00141  0.00132 -0.00008 -0.00001
                                    0.00002 -0.00008 -0.00001  0.00002
 LMO2     -0.1236  5.9273 17.4202   2.61030  0.98173  0.83002  0.97351  0.35169
                                    0.08657  0.62060  0.26597  0.10887
 LMO3      0.6011  7.2170 17.7793   0.71748  2.81016  0.89440 -0.55006 -0.13799
                                    0.47903 -0.19716 -0.05227  0.45673
 LMO4      1.0534  6.2616 17.0711   1.16684  1.19100  0.81087  0.26309 -0.50161
                                    0.44211  0.12893 -0.01974  0.17135
 LMO5      0.9934  6.0309 18.0207   1.08698  1.35764  0.72410 -0.00291  0.61499
                                   -0.16113  0.13125  0.13312  0.10962
 LMO1      0.6934 -2.3192 12.2559   0.00140  0.00152  0.00133 -0.00007  0.00003
                                   -0.00002 -0.00007  0.00003 -0.00002
 LMO2      1.5581 -2.5081 12.6591   2.52423  0.73474  1.16306 -0.22305  0.82286
                                   -0.27031 -0.54967  0.79626 -0.11220
 LMO3      0.3625 -3.2039 12.0237   0.95499  2.57111  0.89595  0.57141  0.12796
                                    0.58002  0.89804  0.15456  0.42191
 LMO4      0.7788 -2.0274 11.7757   1.05532  1.16862  0.94477  0.12206  0.48954
                                   -0.43778  0.35947  0.22957  0.00894
 LMO5      0.3533 -2.0990 12.6546   1.33987  1.07236  0.75649  0.09733 -0.01878
                                    0.60762 -0.14008  0.24119  0.16090

                    --------------                     ------------------
                      REP POINTS                         REP PARAMETERS  
                    --------------                     ------------------

                X         Y         Z               COEF       N          ZETA

  O1        -2.73399   6.19764  11.13308        -0.00016       0       0.01886
                                                 1.24695       0       0.41986
  H2        -1.82309   4.90821  10.30302         0.00044       0       0.06432
[...]
 TOTAL WALL CLOCK TIME=       17.5 SECONDS, CPU UTILIZATION IS  99.31%

                         ----------------------
                         GRADIENT OF THE ENERGY
                         ----------------------

 UNITS ARE HARTREE/BOHR    E'X               E'Y               E'Z 
    1 O                0.008362663      -0.005680652       0.001879317
    2 H               -0.008515322       0.003690511       0.004445004
    3 H               -0.002158354       0.004843944      -0.008606069
    4 O                0.010678340       0.001566504       0.014864388
    5 H                0.000236078      -0.000821177       0.001746216
    6 H               -0.010915577      -0.002718823      -0.016076878
      TOTAL QM TRANS. -0.002312171       0.000880308      -0.001748023
      TOTAL QM TORQUE  0.000819373      -0.008382484      -0.008452559
  EFP           TRANS GRADIENT                           TORQUE
    1  -0.0003623  0.0032209  0.0018326    -0.0000238  0.0023195 -0.0025103
    2  -0.0006880  0.0005231  0.0014167     0.0012250 -0.0004419 -0.0008502
    3   0.0031690 -0.0057471 -0.0013559    -0.0006386 -0.0030428 -0.0026128
    4   0.0035128 -0.0020360  0.0009057     0.0000597  0.0008682 -0.0005641
    5  -0.0005559 -0.0057663 -0.0005816    -0.0002462 -0.0003050  0.0000480
    6  -0.0024247  0.0017561 -0.0026362    -0.0011805  0.0000834  0.0013235
    7  -0.0073908  0.0021421  0.0016840     0.0016821 -0.0008714 -0.0019549
    8  -0.0035998  0.0001778 -0.0014230    -0.0035639 -0.0026107 -0.0037603
    9   0.0022298 -0.0019639  0.0005195    -0.0010348 -0.0001335 -0.0023563
   10   0.0039420  0.0019051  0.0033343     0.0001772 -0.0002717 -0.0005375
   11  -0.0008239 -0.0017140 -0.0023345    -0.0004096  0.0013034  0.0004062
   12   0.0006650  0.0002876 -0.0051622     0.0042779 -0.0001240 -0.0015657
   13   0.0033680  0.0026489 -0.0017748    -0.0006391  0.0008887  0.0002663
   14   0.0006985  0.0038879 -0.0004967    -0.0029536 -0.0003839 -0.0036072
   15  -0.0032484 -0.0038406 -0.0033476    -0.0007701 -0.0000085 -0.0008783
   16   0.0009621  0.0021920  0.0038623     0.0005419 -0.0006933  0.0024704
   17   0.0011673 -0.0015830  0.0022968    -0.0006022 -0.0007160  0.0002332
   18   0.0048803  0.0018982  0.0008084     0.0001541 -0.0001954  0.0009641
   19  -0.0045202  0.0015305  0.0018131     0.0013776 -0.0018624 -0.0079607
   20   0.0013314 -0.0003996  0.0023872     0.0024284  0.0018964 -0.0009909

                   MAXIMUM GRADIENT =    0.016076878
                       RMS GRADIENT =    0.003515180

..... END OF SINGLE POINT GRADIENT .....
 CPU     0: STEP CPU TIME=     0.00 TOTAL CPU TIME=       17.4 (    0.3 MIN)
 TOTAL WALL CLOCK TIME=       17.5 SECONDS, CPU UTILIZATION IS  99.31%
 Redoing 1e ESP:                    -1
 CPU     0: STEP CPU TIME=     0.00 TOTAL CPU TIME=       17.4 (    0.3 MIN)
 TOTAL WALL CLOCK TIME=       17.5 SECONDS, CPU UTILIZATION IS  99.31%
 CPU     0: STEP CPU TIME=     0.00 TOTAL CPU TIME=       17.4 (    0.3 MIN)
 TOTAL WALL CLOCK TIME=       17.5 SECONDS, CPU UTILIZATION IS  99.31%

  iFrag=      2 jFrag=      1 EFMOc=  -152.265858349

  iFrag=      2 jFrag=      1 EFMOu=  -152.009392152 Tr=-0.000162550
 CPU     0: STEP CPU TIME=     0.00 TOTAL CPU TIME=       17.4 (    0.3 MIN)
 TOTAL WALL CLOCK TIME=       17.5 SECONDS, CPU UTILIZATION IS  99.31%

          --------------------
          2 ELECTRON INTEGRALS
          --------------------

 DIRECT SCF METHOD SKIPS INTEGRAL STORAGE ON DISK.
  ...... END OF TWO-ELECTRON INTEGRALS .....
 CPU     0: STEP CPU TIME=     0.01 TOTAL CPU TIME=       17.4 (    0.3 MIN)
 TOTAL WALL CLOCK TIME=       17.5 SECONDS, CPU UTILIZATION IS  99.31%
 SCHWARZ INEQUALITY OVERHEAD:       430 INTEGRALS, T=        0.00

 ESD LFG=    3: NZ       27960 SKIPPED       358 BLOCKS.

          ----------------------
          GRADIENT OF THE ENERGY
          ----------------------
 THE COARSE/FINE SCHWARZ SCREENINGS SKIPPED        404/       407 BLOCKS.
 THE NUMBER OF GRADIENT INTEGRAL BLOCKS COMPUTED WAS      2129
 ...... END OF 2-ELECTRON GRADIENT ......
 CPU     0: STEP CPU TIME=     0.01 TOTAL CPU TIME=       17.4 (    0.3 MIN)
 TOTAL WALL CLOCK TIME=       17.5 SECONDS, CPU UTILIZATION IS  99.31%

          --------------------
          2 ELECTRON INTEGRALS
          --------------------

 DIRECT SCF METHOD SKIPS INTEGRAL STORAGE ON DISK.
  ...... END OF TWO-ELECTRON INTEGRALS .....
 CPU     0: STEP CPU TIME=     0.00 TOTAL CPU TIME=       17.4 (    0.3 MIN)
 TOTAL WALL CLOCK TIME=       17.5 SECONDS, CPU UTILIZATION IS  99.31%
 SCHWARZ INEQUALITY OVERHEAD:       430 INTEGRALS, T=        0.00

 ESD LFG=    4: NZ       27934 SKIPPED       358 BLOCKS.

          ----------------------
          GRADIENT OF THE ENERGY
          ----------------------
 THE COARSE/FINE SCHWARZ SCREENINGS SKIPPED        404/       414 BLOCKS.
 THE NUMBER OF GRADIENT INTEGRAL BLOCKS COMPUTED WAS      2122
 ...... END OF 2-ELECTRON GRADIENT ......
 CPU     0: STEP CPU TIME=     0.01 TOTAL CPU TIME=       17.4 (    0.3 MIN)
 TOTAL WALL CLOCK TIME=       17.5 SECONDS, CPU UTILIZATION IS  99.31%

          --------------------
          2 ELECTRON INTEGRALS
          --------------------

 DIRECT SCF METHOD SKIPS INTEGRAL STORAGE ON DISK.
  ...... END OF TWO-ELECTRON INTEGRALS .....
 CPU     0: STEP CPU TIME=     0.00 TOTAL CPU TIME=       17.4 (    0.3 MIN)
 TOTAL WALL CLOCK TIME=       17.5 SECONDS, CPU UTILIZATION IS  99.31%
 DONE FMOESD
 CPU     0: STEP CPU TIME=     0.00 TOTAL CPU TIME=       17.4 (    0.3 MIN)
 TOTAL WALL CLOCK TIME=       17.5 SECONDS, CPU UTILIZATION IS  99.31%
 CPU     0: STEP CPU TIME=     0.00 TOTAL CPU TIME=       17.4 (    0.3 MIN)
 TOTAL WALL CLOCK TIME=       17.5 SECONDS, CPU UTILIZATION IS  99.31%

 Dimer synchronisation for layer 1 took     0.0 s.
 CPU     0: STEP CPU TIME=     0.00 TOTAL CPU TIME=       17.4 (    0.3 MIN)
 TOTAL WALL CLOCK TIME=       17.5 SECONDS, CPU UTILIZATION IS  99.31%
 CPU     0: STEP CPU TIME=     0.01 TOTAL CPU TIME=       17.4 (    0.3 MIN)
 TOTAL WALL CLOCK TIME=       17.5 SECONDS, CPU UTILIZATION IS  99.31%
 POLTOT=   0.0000000000000000     
 CPU     0: STEP CPU TIME=     0.00 TOTAL CPU TIME=       17.4 (    0.3 MIN)
 TOTAL WALL CLOCK TIME=       17.5 SECONDS, CPU UTILIZATION IS  99.31%


         FMO properties
         ###############


 Layer 1 converged in  8 iterations (max 30, conv .10E-06).


 Nuclear repulsion energy:            130.503056535
 Total number of atoms:                    12
 Total number of electrons:                40
 Total charge:                              0
 Total spin multiplicity:                   1
 Total number of basis functions:          52
 Total number of molecular orbitals:       52

 Energy values (E) are given with external ESP subtracted.

 D(dipole), Q(quadrupole) and O(octopole) moments are printed in the order:
 X,Y,Z; XX,YY,ZZ,XY,XZ,YZ; XXX,XXY,XXZ,XYY,YYY,YYZ,XZZ,YZZ,ZZZ,XYZ,
 computed at the point:   -1.46836332   1.03528640  18.76242010

 Both uncorrelated and correlated energies are printed.
 Gradient is printed only as correlated values. 
 Other properties correspond to   correlated wavefunction.

 One-body FMO properties.
 =======================

                          E"corr          E"uncorr       DX        DY        DZ
    1(FRAG01  ,L1)    -76.123158975    -75.994170816  -2.76343   0.02317  -0.31178
    2(FRAG02  ,L1)    -76.141107782    -76.013743657  -2.57007   1.19665  -1.30174
    3(FRAG03  ,L1)    -76.132054407    -76.004245578  -0.15252  -0.82221  -2.71346
    4(FRAG04  ,L1)    -76.134647545    -76.006557168   1.27663   1.95399  -1.89171

 Frontier molecular orbital (FMO!) properties based on Koopmans' theorem.
 Electronegativity = - chemical potential. All values are in eV.

  Frag  Ionization    Electron    Chemical    Global       Global  Electrophili-
         potential    affinity    potential  hardness     softness  city index
 EA and related properties are often very inaccurate.
 -------------------------------------------------------------------------------
     1   13.997839    5.300893   -9.649366    8.696947    0.114983      5.353043
     2   14.235120    7.178011  -10.706566    7.057109    0.141701      8.121637
     3   12.988826    6.556972   -9.772899    6.431854    0.155476      7.424729
     4   13.920120    5.820096   -9.870108    8.100024    0.123456      6.013503

 Total energy of the molecule: Ecorr  (1)=     -304.762051076

 Total energy of the molecule: Euncorr(1)=     -304.249799586

 Total energy of the molecule: Edelta (1)=       -0.512251490

 FMO1-MP2(SCS) corr. energy=   -0.509658781 total E=     -304.759458367

 Dipole moment D(xyz),DA(1)=   -4.2093895    2.3516129   -6.2186813    7.8689923

 Energy gradient (hartree/bohr), no BSSE: G(1)

   ATOM#  FRG#   Z            E'X              E'Y              E'Z 
      1     1   8.0       0.010645173      -0.001000211       0.016614380
      2     1   1.0       0.000738342      -0.000146465       0.000791573
      3     1   1.0      -0.011014559       0.000463888      -0.017259551
      4     2   8.0       0.007718773      -0.008807102       0.002853513
      5     2   1.0      -0.008764573       0.004840146       0.004354972
      6     2   1.0      -0.001824139       0.005437361      -0.009167274
      7     3   8.0       0.002716190       0.011501340       0.001735532
      8     3   1.0      -0.001220935      -0.001682583       0.002474984
      9     3   1.0      -0.002776199      -0.010048364      -0.002999899
     10     4   8.0      -0.000557997      -0.015178540       0.003921286
     11     4   1.0       0.000515340       0.016825693       0.000053634
     12     4   1.0       0.002080596      -0.001384056      -0.002985848

                     -----------------------------
                     FRAGMENT GRADIENT INFORMATION, FMO1
                     -----------------------------

   FRG    E'X         E'Y         E'Z          TX          TY          TZ
     1 -0.00023612  0.00015271  0.00033574   0.00014971  0.00047182  0.00034524
     2  0.00018520 -0.00019566 -0.00022867   0.00040782  0.00045925 -0.00082035
     3  0.00090962 -0.00048669  0.00028251   0.00043448  0.00054928 -0.00003582
     4 -0.00000388  0.00003678 -0.00000333   0.00020361 -0.00018463  0.00036657
     5 -0.00009788  0.00000789 -0.00006110  -0.00000046 -0.00021096  0.00004826
     6 -0.00007069 -0.00008259 -0.00010840  -0.00049777  0.00060659 -0.00051839
     7 -0.00035424 -0.00024149 -0.00011920  -0.00006719  0.00003650 -0.00026099
     8  0.00020090 -0.00037434 -0.00025647  -0.00013905 -0.00030636  0.00017528
     9 -0.00005419 -0.00030517  0.00033842   0.00007697  0.00008991 -0.00033426
    10  0.00024215 -0.00009435  0.00027681  -0.00036119 -0.00043964  0.00009159
    11 -0.00016080 -0.00003982 -0.00013687   0.00016764 -0.00055112 -0.00005171
    12  0.00004456 -0.00002544  0.00008216  -0.00001783 -0.00048936  0.00058559
    13  0.00025764  0.00003036 -0.00010821   0.00009396 -0.00014111 -0.00004962
    14 -0.00010921  0.00009591 -0.00003459   0.00022852  0.00035816 -0.00009881
    15 -0.00000663 -0.00011922 -0.00000799  -0.00013729  0.00004940  0.00022023
    16 -0.00039355  0.00014744  0.00024859   0.00044972  0.00031713 -0.00010812
    17  0.00071310 -0.00048494 -0.00084586  -0.00005074 -0.00006799  0.00076817
    18  0.00002226  0.00019541 -0.00001404   0.00038542 -0.00015463 -0.00027460
    19  0.00048230  0.00086209  0.00010824   0.00074518  0.00101413 -0.00065415
    20  0.00017344  0.00010001 -0.00013502  -0.00020139 -0.00011187 -0.00014090

      TOTAL FORCE ON ALL FRAGMENTS
      FORCE            0.001743990      -0.000821108      -0.000387303

      (1) MAXIMUM GRADIENT =  0.0172596    RMS GRADIENT = 0.0035995

 Two-body FMO properties.
 ========================

 DL: D=C dynamically correlated (MP2,CI), D=N not dynamically correlated
 (RHF,DFT). D=S separated dimer: semiclassical interaction (ES), D=M MCSCF.
 L stands for layer, Z is the monomer charge product, R is the interfragment
 distance relative to van-der-Waals radii (-1.00 is printed if distances are
 not computed). dDIJ*VIJ is the explicit embedded charge transfer energy.
 Q(I->J) is the charge transfer amount, printed as zero if not available.
 Positive values correspond to I in IJ having extra negative charge.

    I    J DL  Z    R   Q(I->J)        E"corr          E"uncorr    E"IJ-E"I-E"J,corr/uncorr dDIJ*VIJ,unc   Gsol  tot,corr
 ------------------------------------------------------------------------------------------------------------------------
    2    1 C1  0   1.41  0.0000   -152.265858349   -152.009392152  -0.00159159  -0.00147768 -0.00016255    0.000   -1.101
    3    1 C1  0   0.73  0.0000   -152.268693086   -152.010267829  -0.01347970  -0.01185144 -0.00063536    0.000   -8.857
    3    2 C1  0   1.43  0.0000   -152.277397108   -152.022169401  -0.00423492  -0.00418017  0.00004207    0.000   -2.631
    4    1 C1  0   0.67  0.0000   -152.277568529   -152.018814688  -0.01976201  -0.01808670 -0.00128174    0.000  -13.205
    4    2 C1  0   0.69  0.0000   -152.291331916   -152.034411624  -0.01557659  -0.01411080 -0.00129282    0.000  -10.586
    4    3 C1  0   1.40  0.0000   -152.267573961   -152.011524526  -0.00087201  -0.00072178 -0.00010105    0.000   -0.611

 Total energy of the molecule: Ecorr  (2)=     -304.820999346

 Total energy of the molecule: Euncorr(2)=     -304.303659595

 Total energy of the molecule: Edelta (2)=       -0.517339751

 FMO2-MP2(SCS) corr. energy=   -0.513595013 total E=     -304.817254608

 Dipole moment D(xyz),DA(2)=   -4.7597086    2.6178436   -6.9073714    8.7874747

 Energy gradient (hartree/bohr), no BSSE: G(2)

   ATOM#  FRG#   Z            E'X              E'Y              E'Z 
      1     1   8.0      -0.001954091      -0.002602219      -0.000052264
      2     1   1.0       0.000703257       0.001240411      -0.001031635
      3     1   1.0       0.001421770      -0.000120539       0.002978053
      4     2   8.0       0.001503872       0.000964372       0.002603777
      5     2   1.0      -0.000709054      -0.000081314       0.000515511
      6     2   1.0      -0.000225897      -0.000057118      -0.002720227
      7     3   8.0       0.000911587      -0.001907444      -0.000054416
      8     3   1.0      -0.000559834       0.000485035      -0.000088239
      9     3   1.0       0.000237834       0.002847937      -0.000032798
     10     4   8.0      -0.001393666       0.003485110      -0.003015901
     11     4   1.0       0.000721394      -0.003748521       0.000243633
     12     4   1.0      -0.000234055      -0.000094588       0.000431989

                     -----------------------------
                     FRAGMENT GRADIENT INFORMATION, FMO2
                     -----------------------------

   FRG    E'X         E'Y         E'Z          TX          TY          TZ
     1 -0.00029255  0.00045712 -0.00012482   0.00003832 -0.00010781 -0.00004045
     2  0.00017222  0.00010518 -0.00012732   0.00003643  0.00014035 -0.00010940
     3  0.00010812 -0.00038582  0.00039455   0.00010112  0.00024691 -0.00062484
     4 -0.00002685  0.00008146  0.00002286  -0.00009424 -0.00013535  0.00052909
     5 -0.00010310 -0.00006311 -0.00007189  -0.00002548 -0.00012777  0.00001252
     6  0.00001742 -0.00008258 -0.00009646  -0.00057954  0.00046929 -0.00017980
     7 -0.00048385 -0.00013543 -0.00007210   0.00003612  0.00015620 -0.00036675
     8  0.00014361 -0.00030921 -0.00020935  -0.00050598 -0.00071529  0.00003346
     9 -0.00009903 -0.00029360  0.00034626   0.00004651 -0.00000485 -0.00035158
    10  0.00018594  0.00009325  0.00022466  -0.00034420 -0.00019617 -0.00006564
    11 -0.00012513 -0.00005653 -0.00016035   0.00018209 -0.00049046 -0.00003405
    12  0.00012446  0.00001223  0.00003218  -0.00019351 -0.00045775  0.00025246
    13  0.00027139  0.00003617 -0.00011376   0.00009173 -0.00016936 -0.00006046
    14 -0.00027340  0.00006839  0.00004003   0.00005584  0.00022714  0.00012286
    15 -0.00006404 -0.00010715 -0.00000993  -0.00012511 -0.00004491  0.00013359
    16 -0.00010516  0.00003604  0.00000242   0.00002185  0.00012151 -0.00005504
    17  0.00015215 -0.00011126  0.00013099  -0.00034792  0.00010303  0.00044522
    18  0.00003805  0.00012179  0.00004658   0.00010994 -0.00017769  0.00006207
    19 -0.00013610  0.00014024  0.00001243   0.00042256 -0.00016715 -0.00001112
    20  0.00007272 -0.00001829 -0.00004449  -0.00000694 -0.00008778 -0.00014180

      TOTAL FORCE ON ALL FRAGMENTS
      FORCE           -0.000423117      -0.000411123       0.000222517

      (2) MAXIMUM GRADIENT =  0.0037485    RMS GRADIENT = 0.0008002

                ONE ELECTRON ENERGY =         -681.2842027084
                TWO ELECTRON ENERGY =          245.9601468274
           NUCLEAR REPULSION ENERGY =          130.5030565350
                                      -----------------------
                       TOTAL ENERGY =         -304.8209993459

 ELECTRON-ELECTRON POTENTIAL ENERGY =          245.9601468274
  NUCLEUS-ELECTRON POTENTIAL ENERGY =         -984.2147925250
   NUCLEUS-NUCLEUS POTENTIAL ENERGY =          130.5030565350
                                      -----------------------
             TOTAL POTENTIAL ENERGY =         -607.7515891625
               TOTAL KINETIC ENERGY =          302.9305898166
                 VIRIAL RATIO (V/T) =            2.0062404049

 Done with FMO properties.
 CPU     0: STEP CPU TIME=     0.00 TOTAL CPU TIME=       17.4 (    0.3 MIN)
 TOTAL WALL CLOCK TIME=       17.5 SECONDS, CPU UTILIZATION IS  99.31%
 CPU     0: STEP CPU TIME=     0.00 TOTAL CPU TIME=       17.4 (    0.3 MIN)
 TOTAL WALL CLOCK TIME=       17.5 SECONDS, CPU UTILIZATION IS  99.31%

 Total timing statistics in pairs (CPU,wall) for each rank, sec

    Rank   total     SCF    corr     DFT    CPHF     EFP    solv     ESP    geom
 -------------------------------------------------------------------------------
       1      17.4      3.2      1.6      0.0    0.0  11.3    0.0     0.4    0.0
       1      17.5      3.1      1.6      0.0    0.0  11.4    0.0     0.4    0.0
averaged      17.4      3.2      1.6      0.0    0.0  11.3    0.0     0.4    0.0
averaged      17.5      3.1      1.6      0.0    0.0  11.4    0.0     0.4    0.0

  FMO  timing statistics in pairs (CPU,wall) for each rank, sec

    Rank  FMOini FMOscf1  FMOdm1 FMOsyn1 FMOscf2  FMOes2 FMOsyn2 FMOscf3 FMOsyn3
 -------------------------------------------------------------------------------
       1    0.1       6.5    0.0    0.0      10.8       0.0    0.0    0.0    0.0
       1    0.1       6.5    0.0    0.0      10.9       0.0    0.0    0.0    0.0
averaged    0.1       6.5    0.0    0.0      10.8       0.0    0.0    0.0    0.0
averaged    0.1       6.5    0.0    0.0      10.9       0.0    0.0    0.0    0.0
               580000  WORDS OF DYNAMIC MEMORY USED
 EXECUTION OF GAMESS TERMINATED NORMALLY Tue Aug  8 21:45:14 2017
 DDI: 849920 bytes (0.8 MB / 0 MWords) used by master data server.

 ----------------------------------------
 CPU timing information for all processes
 ========================================
 0: 17.231 + 0.178 = 17.410
 ----------------------------------------
 ddikick.x: exited gracefully.
unset echo
----- accounting info -----
Files used on the master node compute-1-7.local were:
-rw-rw-r-- 1 sarom sarom 5.6K Aug  8 21:44 /scratch/fmo-h2o4-efp20-ddi.F05
-rw-rw-r-- 1 sarom sarom 528K Aug  8 21:45 /scratch/fmo-h2o4-efp20-ddi.F08
-rw-rw-r-- 1 sarom sarom  96K Aug  8 21:45 /scratch/fmo-h2o4-efp20-ddi.F10
-rw-rw-r-- 1 sarom sarom 825K Aug  8 21:45 /scratch/fmo-h2o4-efp20-ddi.F25
-rw-rw-r-- 1 sarom sarom 144K Aug  8 21:45 /scratch/fmo-h2o4-efp20-ddi.F40
rm: cannot remove `/scratch/tmp': Is a directory
ls: No match.
ls: No match.
ls: No match.
Tue Aug  8 21:45:17 CDT 2017
0.256u 0.175s 0:21.25 1.9%	0+0k 120+360io 1pf+0w
/opt/gridengine/default/spool/compute-1-7/active_jobs/34871.1/pe_hostfile compute-1-7.local
