-catch_rsh /opt/gridengine/default/spool/compute-0-1/active_jobs/35824.1/pe_hostfile
compute-0-1
The primary node assigned by SGE to this run is compute-0-1
Warning: no access to tty (Bad file descriptor).
Thus no job control in this shell.
source /home/sarom/dir.git.branch.saromleang-travis-ci/install.info
setenv GMS_PATH /home/sarom/dir.git.branch.saromleang-travis-ci
setenv GMS_BUILD_DIR /home/sarom/dir.git.branch.saromleang-travis-ci
setenv GMS_TARGET linux64
setenv GMS_FORTRAN gfortran
setenv GMS_GFORTRAN_VERNO 4.4
setenv GMS_MATHLIB mkl-so
setenv GMS_MATHLIB none
setenv GMS_MATHLIB_PATH /share/apps/intel/compilers_and_libraries_2017.1.132/linux/mkl/lib/intel64
setenv GMS_MKL_VERNO 12
setenv GMS_DDI_COMM sockets
setenv GMS_LIBCCHEM false
setenv GMS_EIGEN_PATH
setenv GMS_PHI false
setenv GMS_SHMTYPE sysv
setenv GMS_OPENMP false
unset echo
tip5p-6h2o
/home/sarom/dir.git.branch.saromleang-travis-ci/tests/solvent/efp1/parallel
----- GAMESS execution script 'rungms' -----
This job is running on host compute-0-1.local
under operating system Linux at Wed Aug 9 20:21:41 CDT 2017
Available scratch disk space (Kbyte units) at beginning of the job is
Filesystem           1K-blocks      Used Available Use% Mounted on
/dev/sda1             16126920   3965560  11342160  26% /
GAMESS temporary binary files will be written to /scratch
GAMESS supplementary output files will be written to /home/sarom/restart
Copying input file tip5p-6h2o.inp to your run's scratch directory...
cp /home/sarom/dir.git.branch.saromleang-travis-ci/tests/solvent/efp1/parallel/tip5p-6h2o.inp /scratch/tip5p-6h2o.F05
unset echo
The generated host list is
compute-0-1.local
/home/sarom/dir.git.branch.saromleang-travis-ci/ddikick.x /home/sarom/dir.git.branch.saromleang-travis-ci/gamess.00.x tip5p-6h2o -ddi 1 1 compute-0-1.local -scr /scratch

 Distributed Data Interface kickoff program.
 Initiating 1 compute processes on 1 nodes to run the following command:
 /home/sarom/dir.git.branch.saromleang-travis-ci/gamess.00.x tip5p-6h2o 

          ******************************************************
          *         GAMESS VERSION = 20 APR 2017 (R1)          *
          *             FROM IOWA STATE UNIVERSITY             *
          * M.W.SCHMIDT, K.K.BALDRIDGE, J.A.BOATZ, S.T.ELBERT, *
          *   M.S.GORDON, J.H.JENSEN, S.KOSEKI, N.MATSUNAGA,   *
          *          K.A.NGUYEN, S.J.SU, T.L.WINDUS,           *
          *       TOGETHER WITH M.DUPUIS, J.A.MONTGOMERY       *
          *         J.COMPUT.CHEM.  14, 1347-1363(1993)        *
          **************** 64 BIT LINUX VERSION ****************

  SINCE 1993, STUDENTS AND POSTDOCS WORKING AT IOWA STATE UNIVERSITY
  AND ALSO IN THEIR VARIOUS JOBS AFTER LEAVING ISU HAVE MADE IMPORTANT
  CONTRIBUTIONS TO THE CODE:
     IVANA ADAMOVIC, CHRISTINE AIKENS, YURI ALEXEEV, POOJA ARORA,
     ANDREY ASADCHEV, ROB BELL, PRADIPTA BANDYOPADHYAY, JONATHAN BENTZ,
     BRETT BODE, KURT BRORSEN, CALEB CARLIN, GALINA CHABAN, WEI CHEN,
     CHEOL HO CHOI, PAUL DAY, ALBERT DEFUSCO, NUWAN DESILVA, TIM DUDLEY,
     DMITRI FEDOROV, GRAHAM FLETCHER, MARK FREITAG, KURT GLAESEMANN,
     DAN KEMP, GRANT MERRILL, NORIYUKI MINEZAWA, JONATHAN MULLIN,
     TAKESHI NAGATA, SEAN NEDD, HEATHER NETZLOFF, BOSILJKA NJEGIC, RYAN OLSON,
     MIKE PAK, SPENCER PRUITT, LUKE ROSKOP, JIM SHOEMAKER, LYUDMILA SLIPCHENKO,
     TONY SMITH, SAROM SOK LEANG, JIE SONG, TETSUYA TAKETSUGU, SIMON WEBB,
     PENG XU, SOOHAENG YOO, FEDERICO ZAHARIEV

  ADDITIONAL CODE HAS BEEN PROVIDED BY COLLABORATORS IN OTHER GROUPS:
     IOWA STATE UNIVERSITY:
          JOE IVANIC, AARON WEST, LAIMUTIS BYTAUTAS, KLAUS RUEDENBERG
     UNIVERSITY OF TOKYO: KIMIHIKO HIRAO, TAKAHITO NAKAJIMA,
          TAKAO TSUNEDA, MUNEAKI KAMIYA, SUSUMU YANAGISAWA,
          KIYOSHI YAGI, MAHITO CHIBA, SEIKEN TOKURA, NAOAKI KAWAKAMI
     UNIVERSITY OF AARHUS: FRANK JENSEN
     UNIVERSITY OF IOWA: VISVALDAS KAIRYS, HUI LI
     NATIONAL INST. OF STANDARDS AND TECHNOLOGY: WALT STEVENS, DAVID GARMER
     UNIVERSITY OF PISA: BENEDETTA MENNUCCI, JACOPO TOMASI
     UNIVERSITY OF MEMPHIS: HENRY KURTZ, PRAKASHAN KORAMBATH
     UNIVERSITY OF ALBERTA: TOBY ZENG, MARIUSZ KLOBUKOWSKI
     UNIVERSITY OF NEW ENGLAND: MARK SPACKMAN
     MIE UNIVERSITY: HIROAKI UMEDA
     NAT. INST. OF ADVANCED INDUSTRIAL SCIENCE AND TECHNOLOGY: KAZUO KITAURA
     MICHIGAN STATE UNIVERSITY:
          KAROL KOWALSKI, MARTA WLOCH, JEFFREY GOUR, JESSE LUTZ,
          WEI LI, PIOTR PIECUCH
     UNIVERSITY OF SILESIA: MONIKA MUSIAL, STANISLAW KUCHARSKI
     FACULTES UNIVERSITAIRES NOTRE-DAME DE LA PAIX:
          OLIVIER QUINET, BENOIT CHAMPAGNE
     UNIVERSITY OF CALIFORNIA - SANTA BARBARA: BERNARD KIRTMAN
     INSTITUTE FOR MOLECULAR SCIENCE:
          KAZUYA ISHIMURA, MICHIO KATOUDA, AND SHIGERU NAGASE
     UNIVERSITY OF NOTRE DAME: ANNA POMOGAEVA, DAN CHIPMAN
     KYUSHU UNIVERSITY:
          HARUYUKI NAKANO,
          FENG LONG GU, JACEK KORCHOWIEC, MARCIN MAKOWSKI, AND YURIKO AOKI,
          HIROTOSHI MORI AND EISAKU MIYOSHI
     PENNSYLVANIA STATE UNIVERSITY:
          TZVETELIN IORDANOV, CHET SWALINA, JONATHAN SKONE,
          SHARON HAMMES-SCHIFFER
     WASEDA UNIVERSITY:
          MASATO KOBAYASHI, TOMOKO AKAMA, TSUGUKI TOUMA,
          TAKESHI YOSHIKAWA, YASUHIRO IKABATA, JUNJI SEINO,
          YUYA NAKAJIMA, HIROMI NAKAI
     NANJING UNIVERSITY: SHUHUA LI
     UNIVERSITY OF NEBRASKA:
          PEIFENG SU, DEJUN SI, NANDUN THELLAMUREGE, YALI WANG, HUI LI
     UNIVERSITY OF ZURICH: ROBERTO PEVERATI, KIM BALDRIDGE
     N. COPERNICUS UNIVERSITY AND JACKSON STATE UNIVERSITY:
          MARIA BARYSZ
     UNIVERSITY OF COPENHAGEN: Jimmy Kromann, CASPER STEINMANN
     TOKYO INSTITUTE OF TECHNOLOGY: HIROYA NAKATA
     NAGOYA UNIVERSITY: YOSHIO NISHIMOTO, STEPHAN IRLE
     MOSCOW STATE UNIVERSITY: VLADIMIR MIRONOV

 EXECUTION OF GAMESS BEGUN Wed Aug  9 20:21:41 2017

            ECHO OF THE FIRST FEW INPUT CARDS -
 INPUT CARD>! MP2/a5Z-h//MP2/aTZ (with counterpoise BSSE correction and deformation E)      
 INPUT CARD>! interaction energy for water hexamer prism is -45.05 kcal/mol.                
 INPUT CARD>!  Yiming Chen and Hui Li, JPC A                                                
 INPUT CARD>!  http://pubs.acs.org/doi/abs/10.1021/jp104822e                                
 INPUT CARD>! It is remarkable that TIP5P can give -45.81 kcal/mol.                         
 INPUT CARD>!                                                                               
 INPUT CARD>!  The TIP5P geometry optimization proceeds as                                  
 INPUT CARD>!        NSERCH:   0  E=       -0.0694157761  R.M.S.=  0.0034039                
 INPUT CARD>!        NSERCH:   1  E=       -0.0715737355  R.M.S.=  0.0021664                
 INPUT CARD>!        NSERCH:   2  E=       -0.0719009385  R.M.S.=  0.0018668                
 INPUT CARD>!        NSERCH:   3  E=       -0.0719139878  R.M.S.=  0.0020147                
 INPUT CARD>!        NSERCH:   4  E=       -0.0726748880  R.M.S.=  0.0009471                
 INPUT CARD>!        NSERCH:   5  E=       -0.0727283170  R.M.S.=  0.0009687                
 INPUT CARD>!               ...snipped...                                                   
 INPUT CARD>!        NSERCH:  27  E=       -0.0729994598  R.M.S.=  0.0000081                
 INPUT CARD>!        NSERCH:  28  E=       -0.0729995086  R.M.S.=  0.0000058                
 INPUT CARD>!        NSERCH:  29  E=       -0.0729995617  R.M.S.=  0.0000058                
 INPUT CARD>!        NSERCH:  30  E=       -0.0729996110  R.M.S.=  0.0000046                
 INPUT CARD>!        NSERCH:  31  E=       -0.0729996321  R.M.S.=  0.0000021                
 INPUT CARD>!                                                                               
 INPUT CARD>! This run takes 0 seconds on 2.66 GHz Cloverton (26 OCt 2015)                  
 INPUT CARD>!                                                                               
 INPUT CARD> $contrl runtyp=optimize coord=fragonly $end                                    
 INPUT CARD> $system mwords=1 $END                                                          
 INPUT CARD> $statpt opttol=1d-5 $end                                                       
 INPUT CARD> $efrag                                                                         
 INPUT CARD>                                                                                
 INPUT CARD>FRAGNAME=TIP5P                                                                  
 INPUT CARD> O1                 -2.1675526522  -2.0544029015  -0.4337647119                 
 INPUT CARD> H2                 -1.3531471666  -2.5389321875  -0.6352882840                 
 INPUT CARD> H3                 -1.8715507614  -1.1308550588  -0.5712015155                 
 INPUT CARD>FRAGNAME=TIP5P                                                                  
 INPUT CARD> O1                 -0.6716977019   0.2944490104  -0.4731366656                 
 INPUT CARD> H2                  0.0613027114  -0.3301277055  -0.5823914443                 
 INPUT CARD> H3                 -0.6662754913   0.4977657773   0.4757800816                 
 INPUT CARD>FRAGNAME=TIP5P                                                                  
 INPUT CARD> O1                  0.7338021938  -2.2712610461  -0.4178562959                 
 INPUT CARD> H2                  1.5224027002  -2.7112002511  -0.7469640553                 
 INPUT CARD> H3                  0.7912691510  -2.3178568450   0.5623860615                 
 INPUT CARD>FRAGNAME=TIP5P                                                                  
 INPUT CARD> O1                  0.5477615506  -2.2081713860   2.3095474506                 
 INPUT CARD> H2                  0.5487271572  -1.2696791005   2.5435981222                 
 INPUT CARD> H3                 -0.3848259533  -2.4450162628   2.4407198618                 
 INPUT CARD>FRAGNAME=TIP5P                                                                  
 INPUT CARD> O1                 -2.3039695896  -2.0206189589   2.2137143494                 
 INPUT CARD> H2                 -2.3596274689  -2.0978839796   1.2226652906                 
 INPUT CARD> H3                 -3.1107672987  -2.4106894763   2.5610245710                 
 INPUT CARD>FRAGNAME=TIP5P                                                                  
 INPUT CARD> O1                 -0.8889898251   0.3442982323   2.4253171742                 
 INPUT CARD> H2                 -1.1868458820   1.0730525498   2.9769993607                 
    1000000 WORDS OF MEMORY AVAILABLE

     $CONTRL OPTIONS
     ---------------
 SCFTYP=RHF          RUNTYP=OPTIMIZE     EXETYP=RUN     
 MPLEVL=       0     CITYP =NONE         CCTYP =NONE         VBTYP =NONE    
 DFTTYP=NONE         TDDFT =NONE    
 MULT  =       1     ICHARG=       0     NZVAR =       0     COORD =FRAGONLY
 PP    =NONE         RELWFN=NONE         LOCAL =NONE         NUMGRD=       F
 ISPHER=      -1     NOSYM =       0     MAXIT =      30     UNITS =ANGS    
 PLTORB=       F     MOLPLT=       F     AIMPAC=       F     FRIEND=        
 NPRINT=       7     IREST =       0     GEOM  =INPUT   
 NORMF =       0     NORMP =       0     ITOL  =      20     ICUT  =       9
 INTTYP=BEST         GRDTYP=BEST         QMTTOL= 1.0E-06

     $SYSTEM OPTIONS
     ---------------
  REPLICATED MEMORY=     1000000 WORDS (ON EVERY NODE).
 DISTRIBUTED MEMDDI=           0 MILLION WORDS IN AGGREGATE,
 MEMDDI DISTRIBUTED OVER   1 PROCESSORS IS           0 WORDS/PROCESSOR.
 TOTAL MEMORY REQUESTED ON EACH PROCESSOR=     1000000 WORDS.
 TIMLIM=      525600.00 MINUTES, OR     365.0 DAYS.
 PARALL= F  BALTYP=  DLB     KDIAG=    0  COREFL= F
 MXSEQ2=     300 MXSEQ3=     150  mem10=         0

 READING $EFRAG GROUP
 COORD=CART      POSITION=OPTIMIZE  POLMETHD=FRGSCF   NBUFFMO=0
 READING COORDINATES OF FRAGMENT   1 NAMED   TIP5P 
 READING COORDINATES OF FRAGMENT   2 NAMED   TIP5P 
 READING COORDINATES OF FRAGMENT   3 NAMED   TIP5P 
 READING COORDINATES OF FRAGMENT   4 NAMED   TIP5P 
 READING COORDINATES OF FRAGMENT   5 NAMED   TIP5P 
 READING COORDINATES OF FRAGMENT   6 NAMED   TIP5P 
 FINISHED READING $EFRAG GROUP,   6 FRAGMENTS WILL BE USED.



     SUMMARY OF THE EFFECTIVE FRAGMENT POTENTIAL MODEL CHOSEN
     --------------------------------------------------------
 TOTAL NUMBER OF MULTIPOLE POINTS   =        30  (EFP1/EFP2 ELECTROSTATICS)
 TOTAL NUMBER OF POLARIZABLE POINTS =         0  (EFP1/EFP2 INDUCTION)
 TOTAL NUMBER OF L-J POINTS         =         6  (REPULSION AND DISPERSION)

 OPTIONS FOR EFP SCREENING:
     ELECTROSTATIC EFP-EFP SCREENING CHOICE IS NO ELECTROSTATIC SCREENING
     POLARIZATION EFP-EFP SCREENING IS OFF

     $EWALD OPTIONS
     -----------

     IFEWLD   =        F         TINFOIL        =        T
     BETA    =    0.200         ELECTRIC CONST =     1.00
     EPSILON =     1.00         CUT_OFF        = 0.10E+04
     CUTLIST =  1000.00         LEVEL          =    1
     KMAX    =       10         EWLDPL         =        F

            MULTIPOLE COORDINATES, ELECTRONIC AND NUCLEAR CHARGES

                  X              Y              Z           ELEC.   NUC.
 O1        -4.0960805766  -3.8822585522  -0.8196964486   -8.00000    8.0
 H2        -2.5755596670  -4.7868901193  -1.1959473588   -0.75900    1.0
 H3        -3.6562185408  -2.1422893872  -1.0453855058   -0.75900    1.0
 L4        -4.4794775963  -4.1098287194   0.4257109077   -0.24100    0.0
 L5        -5.0651493183  -4.2309867572  -1.6498261685   -0.24100    0.0
 O1        -1.2693246032   0.5564279470  -0.8940986527   -8.00000    8.0
 H2         0.0987109119  -0.6092509718  -1.0980063378   -0.75900    1.0
 H3        -1.2733472116   0.9464434260   0.8721908482   -0.75900    1.0
 L4        -2.4147568198   0.0003692234  -1.2527135882   -0.24100    0.0
 L5        -1.0649231982   1.6476159152  -1.6133689932   -0.24100    0.0
 O1         1.3866850755  -4.2920610237  -0.7896339015   -8.00000    8.0
 H2         2.8708442619  -5.1200338785  -1.4090201439   -0.75900    1.0
 H3         1.5267310695  -4.3970956836   1.0107165355   -0.75900    1.0
 L4         0.2959692365  -4.9108728219  -1.2106230416   -0.24100    0.0
 L5         1.3568637759  -3.0295684990  -1.1833904938   -0.24100    0.0
 O1         1.0351192372  -4.1728388535   4.3644118373   -8.00000    8.0
 H2         1.0369250285  -2.4177543231   4.8021125189   -0.75900    1.0
 H3        -0.6830666647  -4.6934775462   4.5850459560   -0.75900    1.0
 L4         1.8369197252  -4.8552233000   5.1652166721   -0.24100    0.0
 L5         1.4174472577  -4.3420970585   3.1094226406   -0.24100    0.0
 O1        -4.3538712084  -3.8184161579   4.1833135355   -8.00000    8.0
 H2        -4.4549910578  -3.9587921003   2.3827646671   -0.75900    1.0
 H3        -5.8890123203  -4.5636499686   4.7832095183   -0.75900    1.0
 L4        -4.2756819040  -2.5497664129   4.5496947522   -0.24100    0.0
 L5        -3.3032061060  -4.4760848332   4.6452612544   -0.24100    0.0
 O1        -1.6799471753   0.6506293171   4.5831848926   -8.00000    8.0
 H2        -2.2403943093   2.0218563215   5.6212322753   -0.75900    1.0
 H3        -2.9831130286  -0.5946833209   4.7343869057   -0.75900    1.0
 L4        -0.5256304456   0.1748421657   5.0202208326   -0.24100    0.0
 L5        -1.5485596177   1.0395483034   3.3256872700   -0.24100    0.0

   SCREENING FOR POLARIZATION WITH EXPONENTIAL FORMULA  OFF

   SCREENING FOR POLARIZATION WITH TANG-TOENNIS FORMULA  OFF

                    ------------------------------
                     LENNARD-JONES 12-6 POTENTIAL 
                    ------------------------------
                 X           Y           Z          SIGMA      EPSILON

 O1          -4.09608    -3.88226    -0.81970     3.1200000   0.1600000
 O1          -1.26932     0.55643    -0.89410     3.1200000   0.1600000
 O1           1.38669    -4.29206    -0.78963     3.1200000   0.1600000
 O1           1.03512    -4.17284     4.36441     3.1200000   0.1600000
 O1          -4.35387    -3.81842     4.18331     3.1200000   0.1600000
 O1          -1.67995     0.65063     4.58318     3.1200000   0.1600000

                    --------------                     ------------------
                      REP POINTS                         REP PARAMETERS  
                    --------------                     ------------------

                X         Y         Z               COEF       N          ZETA

  O1        -4.09608  -3.88226  -0.81970        30.00000       0       1.40000

  H2        -2.57556  -4.78689  -1.19595        -0.00042       0       0.10000

  H3        -3.65622  -2.14229  -1.04539        -0.00042       0       0.10000

  L4        -4.47948  -4.10983   0.42571         2.00000       0       1.40000

  L5        -5.06515  -4.23099  -1.64983         2.00000       0       1.40000

  O1        -1.26932   0.55643  -0.89410        30.00000       0       1.40000

  H2         0.09871  -0.60925  -1.09801        -0.00042       0       0.10000

  H3        -1.27335   0.94644   0.87219        -0.00042       0       0.10000

  L4        -2.41476   0.00037  -1.25271         2.00000       0       1.40000

  L5        -1.06492   1.64762  -1.61337         2.00000       0       1.40000

  O1         1.38669  -4.29206  -0.78963        30.00000       0       1.40000

  H2         2.87084  -5.12003  -1.40902        -0.00042       0       0.10000

  H3         1.52673  -4.39710   1.01072        -0.00042       0       0.10000

  L4         0.29597  -4.91087  -1.21062         2.00000       0       1.40000

  L5         1.35686  -3.02957  -1.18339         2.00000       0       1.40000

  O1         1.03512  -4.17284   4.36441        30.00000       0       1.40000

  H2         1.03693  -2.41775   4.80211        -0.00042       0       0.10000

  H3        -0.68307  -4.69348   4.58505        -0.00042       0       0.10000

  L4         1.83692  -4.85522   5.16522         2.00000       0       1.40000

  L5         1.41745  -4.34210   3.10942         2.00000       0       1.40000

  O1        -4.35387  -3.81842   4.18331        30.00000       0       1.40000

  H2        -4.45499  -3.95879   2.38276        -0.00042       0       0.10000

  H3        -5.88901  -4.56365   4.78321        -0.00042       0       0.10000

  L4        -4.27568  -2.54977   4.54969         2.00000       0       1.40000

  L5        -3.30321  -4.47608   4.64526         2.00000       0       1.40000

  O1        -1.67995   0.65063   4.58318        30.00000       0       1.40000

  H2        -2.24039   2.02186   5.62123        -0.00042       0       0.10000

  H3        -2.98311  -0.59468   4.73439        -0.00042       0       0.10000

  L4        -0.52563   0.17484   5.02022         2.00000       0       1.40000

  L5        -1.54856   1.03955   3.32569         2.00000       0       1.40000


          ----------------
          PROPERTIES INPUT
          ----------------

     MOMENTS            FIELD           POTENTIAL          DENSITY
 IEMOM =       1   IEFLD =       0   IEPOT =       0   IEDEN =       0
 WHERE =COMASS     WHERE =NUCLEI     WHERE =NUCLEI     WHERE =NUCLEI  
 OUTPUT=BOTH       OUTPUT=BOTH       OUTPUT=BOTH       OUTPUT=BOTH    
 IEMINT=       0   IEFINT=       0                     IEDINT=       0
                                                       MORB  =       0
          EXTRAPOLATION IN EFFECT
 ORBITAL PRINTING OPTION: NPREO=     1     0     2     1

     -------------------------------
     INTEGRAL TRANSFORMATION OPTIONS
     -------------------------------
     NWORD  =            0
     CUTOFF = 1.0E-09     MPTRAN =       0
     DIRTRF =       F     AOINTS =DUP     

          ----------------------
          INTEGRAL INPUT OPTIONS
          ----------------------
 NOPK  =       1 NORDER=       0 SCHWRZ=       F

 ..... DONE SETTING UP THE RUN .....
 STEP CPU TIME =     0.01 TOTAL CPU TIME =        0.0 (    0.0 MIN)
 TOTAL WALL CLOCK TIME=        0.0 SECONDS, CPU UTILIZATION IS  33.33%


          -----------------------------
          STATIONARY POINT LOCATION RUN
          -----------------------------

 OBTAINING INITIAL HESSIAN, HESS=GUESS   
 DIAGONAL GUESS HESSIAN FOR FRAGMENTS(TRANS)=  0.0300
 DIAGONAL GUESS HESSIAN FOR FRAGMENTS(ROT)  =  0.0100

          PARAMETERS CONTROLLING GEOMETRY SEARCH ARE
          METHOD =QA                  UPHESS =BFGS    
          NNEG   =         0          NFRZ   =         0
          NSTEP  =        50          IFOLOW =         1
          HESS   =GUESS               RESTAR =         F
          IHREP  =         0          HSSEND =         F
          NPRT   =         0          NPUN   =         0
          OPTTOL = 1.000E-05          RMIN   = 1.500E-03
          RMAX   = 1.000E-01          RLIM   = 7.000E-02
          DXMAX  = 3.000E-01          PURIFY =         F
          MOVIE  =         F          TRUPD  =         T
          TRMAX  = 5.000E-01          TRMIN  = 5.000E-02
          ITBMAT =         5          STPT   =         F
          STSTEP = 1.000E-02          PROJCT=          T

 BEGINNING GEOMETRY SEARCH POINT NSERCH=   0 ...

  
 COORDINATES OF FRAGMENT MULTIPOLE CENTERS (ANGS)
 MULTIPOLE NAME        X              Y              Z
 ------------------------------------------------------------
 FRAGNAME=TIP5P 
 O1               -2.1675526522  -2.0544029015  -0.4337647119
 H2               -1.3629275798  -2.5331133458  -0.6328681335
 H3               -1.9347876700  -1.1336508050  -0.5531942263
 FRAGNAME=TIP5P 
 O1               -0.6716977019   0.2944490104  -0.4731366656
 H2                0.0522355688  -0.3224017533  -0.5810399735
 H3               -0.6738263748   0.5008363287   0.4615435539
 FRAGNAME=TIP5P 
 O1                0.7338021938  -2.2712610461  -0.4178562959
 H2                1.5191854695  -2.7094054438  -0.7456214039
 H3                0.8079113477  -2.3268429985   0.5348481960
 FRAGNAME=TIP5P 
 O1                0.5477615506  -2.2081713860   2.3095474506
 H2                0.5487171343  -1.2794205820   2.5411686933
 H3               -0.3614633387  -2.4836815373   2.4263020066
 FRAGNAME=TIP5P 
 O1               -2.3039695896  -2.0206189589   2.2137143494
 H2               -2.3574799134  -2.0949027140   1.2609048521
 H3               -3.1163313404  -2.4149797369   2.5311656554
 FRAGNAME=TIP5P 
 O1               -0.8889898251   0.3442982323   2.4253171742
 H2               -1.1855656978   1.0699203665   2.9746282328
 H3               -1.5785955466  -0.3146928839   2.5053298396

                 --------------------------------------
                 FRAGMENT-FRAGMENT INTERACTION ENERGIES
                 --------------------------------------

                 CHARGE-CHARGE         =  -0.0839364236
                 CHARGE-DIPOLE         =   0.0000000000
                 CHARGE-QUADRUPOLE     =   0.0000000000
                 CHARGE-OCTUPOLE       =   0.0000000000
                 DIPOLE-DIPOLE         =   0.0000000000
                 DIPOLE-QUADRUPOLE     =   0.0000000000
                 QUADRUPOLE-QUADRUPOLE =   0.0000000000
                 OVERLAP PEN. ENERGY   =   0.0000000000
                                         --------------
                 ELECTROSTATIC ENERGY  =  -0.0839364236
                 REPULSION ENERGY      =   0.0145206476
                 POLARIZATION ENERGY   =   0.0000000000
                 --------------------------------------
                 FINAL EFP ENERGY      =  -0.0694157761


          ----------------------------------------
          EFFECTIVE FRAGMENT ELECTROSTATIC MOMENTS
          ----------------------------------------

 FRAGMENT   1  TIP5P 
          X           Y           Z (BOHR)    CHARGE
    -3.986383   -3.835515   -0.853379        0.00 (A.U.)
         DX          DY          DZ         /D/  (DEBYE)
     2.029337    0.864720   -0.623113    2.292208

 FRAGMENT   2  TIP5P 
          X           Y           Z (BOHR)    CHARGE
    -1.192998    0.513024   -0.806672        0.00 (A.U.)
         DX          DY          DZ         /D/  (DEBYE)
     1.411991   -0.802947    1.617337    2.292208

 FRAGMENT   3  TIP5P 
          X           Y           Z (BOHR)    CHARGE
     1.477571   -4.344270   -0.723550        0.00 (A.U.)
         DX          DY          DZ         /D/  (DEBYE)
     1.681335   -0.965825    1.222503    2.292208

 FRAGMENT   4  TIP5P 
          X           Y           Z (BOHR)    CHARGE
     0.939075   -4.103762    4.401251        0.00 (A.U.)
         DX          DY          DZ         /D/  (DEBYE)
    -1.776752    1.277866    0.681491    2.292208

 FRAGMENT   5  TIP5P 
          X           Y           Z (BOHR)    CHARGE
    -4.445432   -3.867973    4.116128        0.00 (A.U.)
         DX          DY          DZ         /D/  (DEBYE)
    -1.693815   -0.916760   -1.242884    2.292208

 FRAGMENT   6  TIP5P 
          X           Y           Z (BOHR)    CHARGE
    -1.784230    0.657675    4.649732        0.00 (A.U.)
         DX          DY          DZ         /D/  (DEBYE)
    -1.929163    0.130343    1.231080    2.292208

          ----------------------------
          SYSTEM ELECTROSTATIC MOMENTS
          ----------------------------

 CENTER              X           Y           Z (BOHR)    CHARGE
               -1.498733   -2.496804    1.797252        0.00 (A.U.)
         DX          DY          DZ         /D/  (DEBYE)
    -0.277067   -0.412603    2.886414    2.928889


                     -----------------------------
                     FRAGMENT GRADIENT INFORMATION
                     -----------------------------


      FRAGMENT NO.    1     E'X               E'Y               E'Z 
      TOTALS          -0.001515113      -0.001550824       0.003253732
      TORQUE           0.008134277      -0.010668342      -0.002915260

      FRAGMENT NO.    2     E'X               E'Y               E'Z 
      TOTALS          -0.002058957       0.001164508      -0.003533645
      TORQUE           0.003090468      -0.005048162      -0.004793395

      FRAGMENT NO.    3     E'X               E'Y               E'Z 
      TOTALS           0.001319334      -0.001113992      -0.004142169
      TORQUE          -0.003375964      -0.003569273       0.000494235

      FRAGMENT NO.    4     E'X               E'Y               E'Z 
      TOTALS           0.001556661      -0.001326982       0.001388052
      TORQUE          -0.002639294      -0.006107049       0.000511966

      FRAGMENT NO.    5     E'X               E'Y               E'Z 
      TOTALS           0.000797679       0.000532260      -0.000002967
      TORQUE           0.001981284      -0.004513418      -0.000142763

      FRAGMENT NO.    6     E'X               E'Y               E'Z 
      TOTALS          -0.000099605       0.002295031       0.003036997
      TORQUE           0.001006360      -0.000741857       0.000889748

      TOTAL FORCE ON ALL FRAGMENTS
      FORCE           -0.000000000      -0.000000000      -0.000000000

          NSERCH=  0     ENERGY=      -0.0694158
  EFP           TOTAL GRADIENT                           TORQUES
    1  -0.0015151 -0.0015508  0.0032537     0.0081343 -0.0106683 -0.0029153
    2  -0.0020590  0.0011645 -0.0035336     0.0030905 -0.0050482 -0.0047934
    3   0.0013193 -0.0011140 -0.0041422    -0.0033760 -0.0035693  0.0004942
    4   0.0015567 -0.0013270  0.0013881    -0.0026393 -0.0061070  0.0005120
    5   0.0007977  0.0005323 -0.0000030     0.0019813 -0.0045134 -0.0001428
    6  -0.0000996  0.0022950  0.0030370     0.0010064 -0.0007419  0.0008897

          MAXIMUM GRADIENT = 0.0106683    RMS GRADIENT = 0.0034039

 NSERCH:   0  E=       -0.0694157761  GRAD. MAX=  0.0106683  R.M.S.=  0.0034039

          FORCE CONSTANT MATRIX NOT UPDATED --- TAKING FIRST STEP
          MIN SEARCH, CORRECT HESSIAN, TRYING PURE NR STEP
               NR STEP HAS LENGTH         =   1.717398
          TRIM/QA LAMBDA FOR NON-TS MODES =  -0.05480837
          TRIM/QA STEP HAS LENGTH         =   0.300000
          RADIUS OF STEP TAKEN=   0.30000  CURRENT TRUST RADIUS=   0.30000

 BEGINNING GEOMETRY SEARCH POINT NSERCH=   1 ...

  
 COORDINATES OF FRAGMENT MULTIPOLE CENTERS (ANGS)
 MULTIPOLE NAME        X              Y              Z
 ------------------------------------------------------------
 FRAGNAME=TIP5P 
 O1               -2.1514393043  -2.0431955906  -0.4441429990
 H2               -1.3637762382  -2.5157590731  -0.7133975597
 H3               -1.9906720451  -1.1377691799  -0.7098200063
 FRAGNAME=TIP5P 
 O1               -0.6613066563   0.2824926776  -0.4481741864
 H2                0.0967456001  -0.2858822117  -0.5843143014
 H3               -0.6099734745   0.5342433110   0.4738962513
 FRAGNAME=TIP5P 
 O1                0.7257191845  -2.2624114277  -0.3865353271
 H2                1.4886517411  -2.6880220966  -0.7777089991
 H3                0.8491706156  -2.3683577057   0.5567369027
 FRAGNAME=TIP5P 
 O1                0.5335084137  -2.2007204409   2.2965391031
 H2                0.5650007567  -1.2823233136   2.5644613268
 H3               -0.3640750156  -2.4749310423   2.4846345644
 FRAGNAME=TIP5P 
 O1               -2.3087319477  -2.0227441438   2.2070155613
 H2               -2.4255217008  -2.1252794392   1.2625188510
 H3               -3.0970461426  -2.4080646809   2.5895285452
 FRAGNAME=TIP5P 
 O1               -0.8903809550   0.3285393983   2.4070110466
 H2               -1.1715912899   1.0662470923   2.9482461848
 H3               -1.5883335460  -0.3194186671   2.5031354204

                 --------------------------------------
                 FRAGMENT-FRAGMENT INTERACTION ENERGIES
                 --------------------------------------

                 CHARGE-CHARGE         =  -0.0881484246
                 CHARGE-DIPOLE         =   0.0000000000
                 CHARGE-QUADRUPOLE     =   0.0000000000
                 CHARGE-OCTUPOLE       =   0.0000000000
                 DIPOLE-DIPOLE         =   0.0000000000
                 DIPOLE-QUADRUPOLE     =   0.0000000000
                 QUADRUPOLE-QUADRUPOLE =   0.0000000000
                 OVERLAP PEN. ENERGY   =   0.0000000000
                                         --------------
                 ELECTROSTATIC ENERGY  =  -0.0881484246
                 REPULSION ENERGY      =   0.0165746891
                 POLARIZATION ENERGY   =   0.0000000000
                 --------------------------------------
                 FINAL EFP ENERGY      =  -0.0715737355


          ----------------------------------------
          EFFECTIVE FRAGMENT ELECTROSTATIC MOMENTS
          ----------------------------------------

 FRAGMENT   1  TIP5P 
          X           Y           Z (BOHR)    CHARGE
    -3.965340   -3.815307   -0.895875        0.00 (A.U.)
         DX          DY          DZ         /D/  (DEBYE)
     1.855315    0.846764   -1.046430    2.292208

 FRAGMENT   2  TIP5P 
          X           Y           Z (BOHR)    CHARGE
    -1.164101    0.500353   -0.763819        0.00 (A.U.)
         DX          DY          DZ         /D/  (DEBYE)
     1.583316   -0.619379    1.537433    2.292208

 FRAGMENT   3  TIP5P 
          X           Y           Z (BOHR)    CHARGE
     1.465140   -4.331547   -0.672065        0.00 (A.U.)
         DX          DY          DZ         /D/  (DEBYE)
     1.733940   -1.039829    1.080012    2.292208

 FRAGMENT   4  TIP5P 
          X           Y           Z (BOHR)    CHARGE
     0.916601   -4.090640    4.388051        0.00 (A.U.)
         DX          DY          DZ         /D/  (DEBYE)
    -1.694243    1.260154    0.892059    2.292208

 FRAGMENT   5  TIP5P 
          X           Y           Z (BOHR)    CHARGE
    -4.458580   -3.874020    4.111228        0.00 (A.U.)
         DX          DY          DZ         /D/  (DEBYE)
    -1.770560   -0.954341   -1.099350    2.292208

 FRAGMENT   6  TIP5P 
          X           Y           Z (BOHR)    CHARGE
    -1.786117    0.630340    4.615988        0.00 (A.U.)
         DX          DY          DZ         /D/  (DEBYE)
    -1.915434    0.175568    1.246799    2.292208

          ----------------------------
          SYSTEM ELECTROSTATIC MOMENTS
          ----------------------------

 CENTER              X           Y           Z (BOHR)    CHARGE
               -1.498733   -2.496804    1.797252        0.00 (A.U.)
         DX          DY          DZ         /D/  (DEBYE)
    -0.207666   -0.331062    2.610524    2.639614


          NSERCH=  1     ENERGY=      -0.0715737
  EFP           TOTAL GRADIENT                           TORQUES
    1   0.0014760  0.0005837 -0.0006719    -0.0023318  0.0032551 -0.0012633
    2   0.0000164  0.0013497 -0.0015044    -0.0006245  0.0018934 -0.0007998
    3   0.0019119 -0.0017286 -0.0005964     0.0017502  0.0052540  0.0010320
    4  -0.0002813  0.0000246  0.0012127     0.0006338  0.0021276  0.0002200
    5  -0.0018797 -0.0009646 -0.0012055    -0.0039850  0.0068286 -0.0006707
    6  -0.0012433  0.0007352  0.0027657    -0.0021464  0.0030511 -0.0013655

          MAXIMUM GRADIENT = 0.0068286    RMS GRADIENT = 0.0021664

 NSERCH:   1  E=       -0.0715737355  GRAD. MAX=  0.0068286  R.M.S.=  0.0021664

          HESSIAN UPDATED USING THE BFGS FORMULA
             ACTUAL ENERGY CHANGE WAS  -0.0021579594
          PREDICTED ENERGY CHANGE WAS  -0.0055184344 RATIO=  0.391
          MIN SEARCH, CORRECT HESSIAN, TRYING PURE NR STEP
               NR STEP HAS LENGTH         =   0.663140
          TRIM/QA LAMBDA FOR NON-TS MODES =  -0.01347774
          TRIM/QA STEP HAS LENGTH         =   0.300000
          RADIUS OF STEP TAKEN=   0.30000  CURRENT TRUST RADIUS=   0.30000

 BEGINNING GEOMETRY SEARCH POINT NSERCH=   2 ...

  
 COORDINATES OF FRAGMENT MULTIPOLE CENTERS (ANGS)
 MULTIPOLE NAME        X              Y              Z
 ------------------------------------------------------------
 FRAGNAME=TIP5P 
 O1               -2.1587276418  -2.0445416131  -0.4458694704
 H2               -1.3482312609  -2.4661477903  -0.7314762227
 H3               -2.0766923890  -1.1391139751  -0.7453663464
 FRAGNAME=TIP5P 
 O1               -0.6558107518   0.2596690405  -0.4218149551
 H2                0.1460077250  -0.2461469247  -0.5539690646
 H3               -0.6177787160   0.5347576525   0.4942129860
 FRAGNAME=TIP5P 
 O1                0.7049859131  -2.2437854154  -0.3726653769
 H2                1.4891561752  -2.7046735260  -0.6708037987
 H3                0.7175017353  -2.3400866957   0.5795934045
 FRAGNAME=TIP5P 
 O1                0.5309187261  -2.1959563487   2.2768298712
 H2                0.5803140171  -1.2814695282   2.5552204773
 H3               -0.3676028417  -2.4591860699   2.4758185019
 FRAGNAME=TIP5P 
 O1               -2.2997383591  -2.0167919492   2.2305427437
 H2               -2.2751426948  -2.0297451401   1.2737488071
 H3               -3.1244369723  -2.4476100588   2.4552543878
 FRAGNAME=TIP5P 
 O1               -0.8719050789   0.3175919558   2.3744766543
 H2               -1.2167483202   1.0185111770   2.9276698877
 H3               -1.5551280282  -0.3527558370   2.3826990197

                 --------------------------------------
                 FRAGMENT-FRAGMENT INTERACTION ENERGIES
                 --------------------------------------

                 CHARGE-CHARGE         =  -0.0904254579
                 CHARGE-DIPOLE         =   0.0000000000
                 CHARGE-QUADRUPOLE     =   0.0000000000
                 CHARGE-OCTUPOLE       =   0.0000000000
                 DIPOLE-DIPOLE         =   0.0000000000
                 DIPOLE-QUADRUPOLE     =   0.0000000000
                 QUADRUPOLE-QUADRUPOLE =   0.0000000000
                 OVERLAP PEN. ENERGY   =   0.0000000000
                                         --------------
                 ELECTROSTATIC ENERGY  =  -0.0904254579
                 REPULSION ENERGY      =   0.0185245194
                 POLARIZATION ENERGY   =   0.0000000000
                 --------------------------------------
                 FINAL EFP ENERGY      =  -0.0719009385


          ----------------------------------------
          EFFECTIVE FRAGMENT ELECTROSTATIC MOMENTS
          ----------------------------------------

 FRAGMENT   1  TIP5P 
          X           Y           Z (BOHR)    CHARGE
    -3.985024   -3.812462   -0.904442        0.00 (A.U.)
         DX          DY          DZ         /D/  (DEBYE)
     1.745966    0.946449   -1.144577    2.292208

 FRAGMENT   2  TIP5P 
          X           Y           Z (BOHR)    CHARGE
    -1.150493    0.466305   -0.714225        0.00 (A.U.)
         DX          DY          DZ         /D/  (DEBYE)
     1.642911   -0.451348    1.533410    2.292208

 FRAGMENT   3  TIP5P 
          X           Y           Z (BOHR)    CHARGE
     1.416475   -4.299059   -0.635066        0.00 (A.U.)
         DX          DY          DZ         /D/  (DEBYE)
     1.558473   -1.089971    1.279587    2.292208

 FRAGMENT   4  TIP5P 
          X           Y           Z (BOHR)    CHARGE
     0.913501   -4.080889    4.353065        0.00 (A.U.)
         DX          DY          DZ         /D/  (DEBYE)
    -1.661057    1.273986    0.933847    2.292208

 FRAGMENT   5  TIP5P 
          X           Y           Z (BOHR)    CHARGE
    -4.430482   -3.858110    4.137701        0.00 (A.U.)
         DX          DY          DZ         /D/  (DEBYE)
    -1.565157   -0.868103   -1.432096    2.292208

 FRAGMENT   6  TIP5P 
          X           Y           Z (BOHR)    CHARGE
    -1.756374    0.603395    4.546477        0.00 (A.U.)
         DX          DY          DZ         /D/  (DEBYE)
    -2.011098    0.059804    1.098238    2.292208

          ----------------------------
          SYSTEM ELECTROSTATIC MOMENTS
          ----------------------------

 CENTER              X           Y           Z (BOHR)    CHARGE
               -1.498733   -2.496804    1.797252        0.00 (A.U.)
         DX          DY          DZ         /D/  (DEBYE)
    -0.289961   -0.129183    2.268410    2.290513


          NSERCH=  2     ENERGY=      -0.0719009
  EFP           TOTAL GRADIENT                           TORQUES
    1  -0.0004948  0.0000543 -0.0028530    -0.0012088  0.0013255  0.0014920
    2   0.0005831 -0.0009850 -0.0000181    -0.0012993 -0.0003658  0.0022912
    3  -0.0007061 -0.0005142 -0.0006317     0.0014527 -0.0014931  0.0003975
    4   0.0004952  0.0007133 -0.0004892     0.0001677 -0.0025393  0.0000895
    5   0.0001631  0.0009666  0.0041052     0.0054030 -0.0050215  0.0003522
    6  -0.0000404 -0.0002350 -0.0001132     0.0028275 -0.0029722  0.0009269

          MAXIMUM GRADIENT = 0.0054030    RMS GRADIENT = 0.0018668

 NSERCH:   2  E=       -0.0719009385  GRAD. MAX=  0.0054030  R.M.S.=  0.0018668

          HESSIAN UPDATED USING THE BFGS FORMULA
             ACTUAL ENERGY CHANGE WAS  -0.0003272030
          PREDICTED ENERGY CHANGE WAS  -0.0021246956 RATIO=  0.154
          MIN SEARCH, CORRECT HESSIAN, TRYING PURE NR STEP
               NR STEP HAS LENGTH         =   0.315573
          TRIM/QA LAMBDA FOR NON-TS MODES =  -0.00075193
          TRIM/QA STEP HAS LENGTH         =   0.300000
          RADIUS OF STEP TAKEN=   0.30000  CURRENT TRUST RADIUS=   0.30000

 BEGINNING GEOMETRY SEARCH POINT NSERCH=   3 ...

  
 COORDINATES OF FRAGMENT MULTIPOLE CENTERS (ANGS)
 MULTIPOLE NAME        X              Y              Z
 ------------------------------------------------------------
 FRAGNAME=TIP5P 
 O1               -2.1630337878  -2.0481551590  -0.4283253095
 H2               -1.3296729369  -2.4512658882  -0.6717155338
 H3               -2.0559056726  -1.1231191215  -0.6498185719
 FRAGNAME=TIP5P 
 O1               -0.6581187673   0.2646057038  -0.4029421238
 H2                0.1228541898  -0.2647594837  -0.5644385871
 H3               -0.6147035807   0.4782405472   0.5291000664
 FRAGNAME=TIP5P 
 O1                0.7030833504  -2.2235681131  -0.3638911816
 H2                1.4781997375  -2.7527665327  -0.5519629449
 H3                0.6379671043  -2.2242694711   0.5910887929
 FRAGNAME=TIP5P 
 O1                0.5227167850  -2.2021487794   2.2653983177
 H2                0.6123762680  -1.2879234271   2.5344346563
 H3               -0.3540894648  -2.4529730237   2.5561307854
 FRAGNAME=TIP5P 
 O1               -2.2881525027  -2.0175513758   2.1934177886
 H2               -2.3095406126  -2.1633579702   1.2476322131
 H3               -3.0953222085  -2.4181171523   2.5162977876
 FRAGNAME=TIP5P 
 O1               -0.8670681999   0.3067747944   2.3525100714
 H2               -1.1857667471   1.0449918607   2.8718309435
 H3               -1.5504810255  -0.3582019103   2.4360580284

                 --------------------------------------
                 FRAGMENT-FRAGMENT INTERACTION ENERGIES
                 --------------------------------------

                 CHARGE-CHARGE         =  -0.0934053809
                 CHARGE-DIPOLE         =   0.0000000000
                 CHARGE-QUADRUPOLE     =   0.0000000000
                 CHARGE-OCTUPOLE       =   0.0000000000
                 DIPOLE-DIPOLE         =   0.0000000000
                 DIPOLE-QUADRUPOLE     =   0.0000000000
                 QUADRUPOLE-QUADRUPOLE =   0.0000000000
                 OVERLAP PEN. ENERGY   =   0.0000000000
                                         --------------
                 ELECTROSTATIC ENERGY  =  -0.0934053809
                 REPULSION ENERGY      =   0.0214913931
                 POLARIZATION ENERGY   =   0.0000000000
                 --------------------------------------
                 FINAL EFP ENERGY      =  -0.0719139878


          ----------------------------------------
          EFFECTIVE FRAGMENT ELECTROSTATIC MOMENTS
          ----------------------------------------

 FRAGMENT   1  TIP5P 
          X           Y           Z (BOHR)    CHARGE
    -3.988090   -3.815261   -0.858576        0.00 (A.U.)
         DX          DY          DZ         /D/  (DEBYE)
     1.839780    1.020988   -0.909403    2.292208

 FRAGMENT   2  TIP5P 
          X           Y           Z (BOHR)    CHARGE
    -1.156490    0.466646   -0.679969        0.00 (A.U.)
         DX          DY          DZ         /D/  (DEBYE)
     1.612664   -0.617630    1.507338    2.292208

 FRAGMENT   3  TIP5P 
          X           Y           Z (BOHR)    CHARGE
     1.403713   -4.257968   -0.606558        0.00 (A.U.)
         DX          DY          DZ         /D/  (DEBYE)
     1.388899   -1.036587    1.500222    2.292208

 FRAGMENT   4  TIP5P 
          X           Y           Z (BOHR)    CHARGE
     0.904555   -4.091307    4.340174        0.00 (A.U.)
         DX          DY          DZ         /D/  (DEBYE)
    -1.539813    1.297742    1.095017    2.292208

 FRAGMENT   5  TIP5P 
          X           Y           Z (BOHR)    CHARGE
    -4.411596   -3.870395    4.079090        0.00 (A.U.)
         DX          DY          DZ         /D/  (DEBYE)
    -1.620821   -1.068811   -1.218525    2.292208

 FRAGMENT   6  TIP5P 
          X           Y           Z (BOHR)    CHARGE
    -1.744489    0.587465    4.509349        0.00 (A.U.)
         DX          DY          DZ         /D/  (DEBYE)
    -1.960325    0.143272    1.179329    2.292208

          ----------------------------
          SYSTEM ELECTROSTATIC MOMENTS
          ----------------------------

 CENTER              X           Y           Z (BOHR)    CHARGE
               -1.498733   -2.496804    1.797252        0.00 (A.U.)
         DX          DY          DZ         /D/  (DEBYE)
    -0.279616   -0.261026    3.153978    3.177089


          NSERCH=  3     ENERGY=      -0.0719140
  EFP           TOTAL GRADIENT                           TORQUES
    1  -0.0012410  0.0009529  0.0019748     0.0001549 -0.0038126  0.0003967
    2   0.0007915 -0.0010529  0.0000361    -0.0001896 -0.0004774 -0.0006883
    3  -0.0004382  0.0017937 -0.0012378    -0.0058038 -0.0051919 -0.0002731
    4  -0.0000307 -0.0010614 -0.0000205    -0.0029772  0.0019623 -0.0007670
    5   0.0012585 -0.0002926 -0.0018576    -0.0051192 -0.0018021  0.0017698
    6  -0.0003401 -0.0003396  0.0011049    -0.0002624  0.0016555  0.0007282

          MAXIMUM GRADIENT = 0.0058038    RMS GRADIENT = 0.0020147

 NSERCH:   3  E=       -0.0719139878  GRAD. MAX=  0.0058038  R.M.S.=  0.0020147

          HESSIAN UPDATED USING THE BFGS FORMULA
             ACTUAL ENERGY CHANGE WAS  -0.0000130493
          PREDICTED ENERGY CHANGE WAS  -0.0012511520 RATIO=  0.010
          MIN SEARCH, CORRECT HESSIAN, TRYING PURE NR STEP
               NR STEP HAS LENGTH         =   0.362865
          TRIM/QA LAMBDA FOR NON-TS MODES =  -0.03018630
          TRIM/QA STEP HAS LENGTH         =   0.150000
          RADIUS OF STEP TAKEN=   0.15000  CURRENT TRUST RADIUS=   0.15000

 BEGINNING GEOMETRY SEARCH POINT NSERCH=   4 ...

  
 COORDINATES OF FRAGMENT MULTIPOLE CENTERS (ANGS)
 MULTIPOLE NAME        X              Y              Z
 ------------------------------------------------------------
 FRAGNAME=TIP5P 
 O1               -2.1559592759  -2.0560898984  -0.4299262801
 H2               -1.3366040290  -2.4679630635  -0.7042342171
 H3               -2.0383154416  -1.1283541902  -0.6341167626
 FRAGNAME=TIP5P 
 O1               -0.6648609821   0.2726881674  -0.4067349071
 H2                0.1116964400  -0.2613742696  -0.5739570728
 H3               -0.6224870649   0.4715412147   0.5286202585
 FRAGNAME=TIP5P 
 O1                0.7048685337  -2.2307852687  -0.3522966086
 H2                1.4635702304  -2.7421268911  -0.6335951148
 H3                0.7098146466  -2.2994329639   0.6024234546
 FRAGNAME=TIP5P 
 O1                0.5244189541  -2.1953073154   2.2682898751
 H2                0.5940200887  -1.2908859386   2.5739122310
 H3               -0.3576337413  -2.4671169695   2.5219233181
 FRAGNAME=TIP5P 
 O1               -2.2923015609  -2.0197861097   2.1960726963
 H2               -2.3510651765  -2.1100088381   1.2449501670
 H3               -3.0989202810  -2.4164824064   2.5250493787
 FRAGNAME=TIP5P 
 O1               -0.8653082795   0.3109253580   2.3477762793
 H2               -1.1829217329   1.0570013797   2.8564211781
 H3               -1.5579421409  -0.3451062290   2.4259316376

                 --------------------------------------
                 FRAGMENT-FRAGMENT INTERACTION ENERGIES
                 --------------------------------------

                 CHARGE-CHARGE         =  -0.0939146981
                 CHARGE-DIPOLE         =   0.0000000000
                 CHARGE-QUADRUPOLE     =   0.0000000000
                 CHARGE-OCTUPOLE       =   0.0000000000
                 DIPOLE-DIPOLE         =   0.0000000000
                 DIPOLE-QUADRUPOLE     =   0.0000000000
                 QUADRUPOLE-QUADRUPOLE =   0.0000000000
                 OVERLAP PEN. ENERGY   =   0.0000000000
                                         --------------
                 ELECTROSTATIC ENERGY  =  -0.0939146981
                 REPULSION ENERGY      =   0.0212398101
                 POLARIZATION ENERGY   =   0.0000000000
                 --------------------------------------
                 FINAL EFP ENERGY      =  -0.0726748880


          ----------------------------------------
          EFFECTIVE FRAGMENT ELECTROSTATIC MOMENTS
          ----------------------------------------

 FRAGMENT   1  TIP5P 
          X           Y           Z (BOHR)    CHARGE
    -3.975090   -3.830897   -0.863041        0.00 (A.U.)
         DX          DY          DZ         /D/  (DEBYE)
     1.832953    1.009128   -0.936036    2.292208

 FRAGMENT   2  TIP5P 
          X           Y           Z (BOHR)    CHARGE
    -1.169808    0.479859   -0.687392        0.00 (A.U.)
         DX          DY          DZ         /D/  (DEBYE)
     1.601989   -0.655735    1.502618    2.292208

 FRAGMENT   3  TIP5P 
          X           Y           Z (BOHR)    CHARGE
     1.412760   -4.276903   -0.594534        0.00 (A.U.)
         DX          DY          DZ         /D/  (DEBYE)
     1.493844   -1.134572    1.317344    2.292208

 FRAGMENT   4  TIP5P 
          X           Y           Z (BOHR)    CHARGE
     0.905096   -4.081634    4.345584        0.00 (A.U.)
         DX          DY          DZ         /D/  (DEBYE)
    -1.589314    1.237512    1.094013    2.292208

 FRAGMENT   5  TIP5P 
          X           Y           Z (BOHR)    CHARGE
    -4.423331   -3.868331    4.084187        0.00 (A.U.)
         DX          DY          DZ         /D/  (DEBYE)
    -1.692857   -0.952509   -1.217039    2.292208

 FRAGMENT   6  TIP5P 
          X           Y           Z (BOHR)    CHARGE
    -1.742023    0.597085    4.498705        0.00 (A.U.)
         DX          DY          DZ         /D/  (DEBYE)
    -1.976241    0.176144    1.147896    2.292208

          ----------------------------
          SYSTEM ELECTROSTATIC MOMENTS
          ----------------------------

 CENTER              X           Y           Z (BOHR)    CHARGE
               -1.498733   -2.496804    1.797252        0.00 (A.U.)
         DX          DY          DZ         /D/  (DEBYE)
    -0.329625   -0.320032    2.908796    2.944854


          NSERCH=  4     ENERGY=      -0.0726749
  EFP           TOTAL GRADIENT                           TORQUES
    1  -0.0002050 -0.0007428  0.0012325     0.0031925 -0.0003372  0.0009192
    2   0.0003228 -0.0000905 -0.0006160     0.0007571 -0.0004637 -0.0004823
    3   0.0005722 -0.0005448  0.0004276     0.0008651 -0.0003008 -0.0002876
    4  -0.0005658  0.0008444 -0.0004492     0.0012682  0.0025894  0.0002235
    5   0.0000669  0.0006160 -0.0012115     0.0004505  0.0018185 -0.0000327
    6  -0.0001911 -0.0000822  0.0006166     0.0002670  0.0004277 -0.0003826

          MAXIMUM GRADIENT = 0.0031925    RMS GRADIENT = 0.0009471

 NSERCH:   4  E=       -0.0726748880  GRAD. MAX=  0.0031925  R.M.S.=  0.0009471

          HESSIAN UPDATED USING THE BFGS FORMULA
             ACTUAL ENERGY CHANGE WAS  -0.0007609003
          PREDICTED ENERGY CHANGE WAS  -0.0011814643 RATIO=  0.644
          MIN SEARCH, CORRECT HESSIAN, TRYING PURE NR STEP
               NR STEP HAS LENGTH         =   0.449226
          TRIM/QA LAMBDA FOR NON-TS MODES =  -0.02030545
          TRIM/QA STEP HAS LENGTH         =   0.150000
          RADIUS OF STEP TAKEN=   0.15000  CURRENT TRUST RADIUS=   0.15000

 BEGINNING GEOMETRY SEARCH POINT NSERCH=   5 ...

  
 COORDINATES OF FRAGMENT MULTIPOLE CENTERS (ANGS)
 MULTIPOLE NAME        X              Y              Z
 ------------------------------------------------------------
 FRAGNAME=TIP5P 
 O1               -2.1516944116  -2.0459397170  -0.4404431123
 H2               -1.3532379129  -2.5081116006  -0.6955739392
 H3               -2.0088868678  -1.1439291912  -0.7271666479
 FRAGNAME=TIP5P 
 O1               -0.6716374265   0.2771824268  -0.4017278836
 H2                0.1075995840  -0.2520848473  -0.5717078913
 H3               -0.6170529640   0.4925349980   0.5293312851
 FRAGNAME=TIP5P 
 O1                0.7002620243  -2.2304733582  -0.3548676895
 H2                1.4532873333  -2.7319142871  -0.6674972596
 H3                0.7440009586  -2.3012167918   0.5987095970
 FRAGNAME=TIP5P 
 O1                0.5325953949  -2.2030370260   2.2770082398
 H2                0.5797612390  -1.2920521476   2.5670242797
 H3               -0.3679074640  -2.4681539030   2.4641846589
 FRAGNAME=TIP5P 
 O1               -2.2968915939  -2.0270244138   2.2103944854
 H2               -2.3267174671  -2.1132598095   1.2575559666
 H3               -3.1165929712  -2.4182142354   2.5125327726
 FRAGNAME=TIP5P 
 O1               -0.8628902781   0.3123169132   2.3454771715
 H2               -1.1904486145   1.0609489625   2.8439578231
 H3               -1.5529181480  -0.3467561891   2.4210519934

                 --------------------------------------
                 FRAGMENT-FRAGMENT INTERACTION ENERGIES
                 --------------------------------------

                 CHARGE-CHARGE         =  -0.0929042048
                 CHARGE-DIPOLE         =   0.0000000000
                 CHARGE-QUADRUPOLE     =   0.0000000000
                 CHARGE-OCTUPOLE       =   0.0000000000
                 DIPOLE-DIPOLE         =   0.0000000000
                 DIPOLE-QUADRUPOLE     =   0.0000000000
                 QUADRUPOLE-QUADRUPOLE =   0.0000000000
                 OVERLAP PEN. ENERGY   =   0.0000000000
                                         --------------
                 ELECTROSTATIC ENERGY  =  -0.0929042048
                 REPULSION ENERGY      =   0.0201758878
                 POLARIZATION ENERGY   =   0.0000000000
                 --------------------------------------
                 FINAL EFP ENERGY      =  -0.0727283170


          ----------------------------------------
          EFFECTIVE FRAGMENT ELECTROSTATIC MOMENTS
          ----------------------------------------

 FRAGMENT   1  TIP5P 
          X           Y           Z (BOHR)    CHARGE
    -3.966580   -3.819755   -0.889615        0.00 (A.U.)
         DX          DY          DZ         /D/  (DEBYE)
     1.841296    0.860410   -1.059973    2.292208

 FRAGMENT   2  TIP5P 
          X           Y           Z (BOHR)    CHARGE
    -1.181039    0.490604   -0.678676        0.00 (A.U.)
         DX          DY          DZ         /D/  (DEBYE)
     1.631117   -0.614078    1.488819    2.292208

 FRAGMENT   3  TIP5P 
          X           Y           Z (BOHR)    CHARGE
     1.407557   -4.275489   -0.602826        0.00 (A.U.)
         DX          DY          DZ         /D/  (DEBYE)
     1.558626   -1.119304    1.253819    2.292208

 FRAGMENT   4  TIP5P 
          X           Y           Z (BOHR)    CHARGE
     0.916224   -4.094839    4.353382        0.00 (A.U.)
         DX          DY          DZ         /D/  (DEBYE)
    -1.669294    1.263444    0.933481    2.292208

 FRAGMENT   5  TIP5P 
          X           Y           Z (BOHR)    CHARGE
    -4.430328   -3.881006    4.108232        0.00 (A.U.)
         DX          DY          DZ         /D/  (DEBYE)
    -1.661841   -0.933937   -1.272897    2.292208

 FRAGMENT   6  TIP5P 
          X           Y           Z (BOHR)    CHARGE
    -1.738230    0.599664    4.493012        0.00 (A.U.)
         DX          DY          DZ         /D/  (DEBYE)
    -1.990597    0.175195    1.122964    2.292208

          ----------------------------
          SYSTEM ELECTROSTATIC MOMENTS
          ----------------------------

 CENTER              X           Y           Z (BOHR)    CHARGE
               -1.498733   -2.496804    1.797252        0.00 (A.U.)
         DX          DY          DZ         /D/  (DEBYE)
    -0.290692   -0.368271    2.466215    2.510446


          NSERCH=  5     ENERGY=      -0.0727283
  EFP           TOTAL GRADIENT                           TORQUES
    1   0.0002737  0.0007114 -0.0014180    -0.0035840  0.0004742 -0.0016460
    2   0.0000056 -0.0001736  0.0004325    -0.0006105  0.0015408 -0.0002329
    3  -0.0001441 -0.0001220  0.0003368     0.0003744  0.0001965 -0.0003094
    4   0.0002971  0.0003281 -0.0009451     0.0002174 -0.0017678  0.0003195
    5  -0.0003723 -0.0009069  0.0012541    -0.0018404 -0.0011976  0.0003150
    6  -0.0000601  0.0001630  0.0003397     0.0000411 -0.0000041  0.0000727

          MAXIMUM GRADIENT = 0.0035840    RMS GRADIENT = 0.0009687

 NSERCH:   5  E=       -0.0727283170  GRAD. MAX=  0.0035840  R.M.S.=  0.0009687

          HESSIAN UPDATED USING THE BFGS FORMULA
             ACTUAL ENERGY CHANGE WAS  -0.0000534290
          PREDICTED ENERGY CHANGE WAS  -0.0006186155 RATIO=  0.086
          MIN SEARCH, CORRECT HESSIAN, TRYING PURE NR STEP
               NR STEP HAS LENGTH         =   0.140617
          TRIM/QA LAMBDA FOR NON-TS MODES =  -0.01647480
          TRIM/QA STEP HAS LENGTH         =   0.075000
          RADIUS OF STEP TAKEN=   0.07500  CURRENT TRUST RADIUS=   0.07500

 BEGINNING GEOMETRY SEARCH POINT NSERCH=   6 ...

  
 COORDINATES OF FRAGMENT MULTIPOLE CENTERS (ANGS)
 MULTIPOLE NAME        X              Y              Z
 ------------------------------------------------------------
 FRAGNAME=TIP5P 
 O1               -2.1520415376  -2.0497248468  -0.4352348382
 H2               -1.3420350264  -2.4817876500  -0.7062303270
 H3               -2.0332993964  -1.1350173588  -0.6910431344
 FRAGNAME=TIP5P 
 O1               -0.6704823592   0.2776531273  -0.4030988280
 H2                0.1188873097  -0.2418421925  -0.5555701615
 H3               -0.6406812353   0.4914053132   0.5294510448
 FRAGNAME=TIP5P 
 O1                0.6988877358  -2.2284967116  -0.3581802638
 H2                1.4559741677  -2.7286624466  -0.6629453227
 H3                0.7461130466  -2.2794616583   0.5964923049
 FRAGNAME=TIP5P 
 O1                0.5305232539  -2.2093867997   2.2845897662
 H2                0.5928378272  -1.2934376955   2.5554799681
 H3               -0.3693279397  -2.4605671760   2.4929251134
 FRAGNAME=TIP5P 
 O1               -2.2941166255  -2.0242131606   2.2036806500
 H2               -2.3391685468  -2.0884318396   1.2497028438
 H3               -3.1115497379  -2.4172604885   2.5095307339
 FRAGNAME=TIP5P 
 O1               -0.8621140731   0.3107394272   2.3414120334
 H2               -1.1897650558   1.0634371421   2.8336704538
 H3               -1.5515836811  -0.3481566997   2.4233566650

                 --------------------------------------
                 FRAGMENT-FRAGMENT INTERACTION ENERGIES
                 --------------------------------------

                 CHARGE-CHARGE         =  -0.0931345411
                 CHARGE-DIPOLE         =   0.0000000000
                 CHARGE-QUADRUPOLE     =   0.0000000000
                 CHARGE-OCTUPOLE       =   0.0000000000
                 DIPOLE-DIPOLE         =   0.0000000000
                 DIPOLE-QUADRUPOLE     =   0.0000000000
                 QUADRUPOLE-QUADRUPOLE =   0.0000000000
                 OVERLAP PEN. ENERGY   =   0.0000000000
                                         --------------
                 ELECTROSTATIC ENERGY  =  -0.0931345411
                 REPULSION ENERGY      =   0.0203014732
                 POLARIZATION ENERGY   =   0.0000000000
                 --------------------------------------
                 FINAL EFP ENERGY      =  -0.0728330679


          ----------------------------------------
          EFFECTIVE FRAGMENT ELECTROSTATIC MOMENTS
          ----------------------------------------

 FRAGMENT   1  TIP5P 
          X           Y           Z (BOHR)    CHARGE
    -3.968559   -3.822381   -0.878181        0.00 (A.U.)
         DX          DY          DZ         /D/  (DEBYE)
     1.816813    0.944147   -1.030531    2.292208

 FRAGMENT   2  TIP5P 
          X           Y           Z (BOHR)    CHARGE
    -1.180405    0.492358   -0.679258        0.00 (A.U.)
         DX          DY          DZ         /D/  (DEBYE)
     1.602458   -0.598093    1.525986    2.292208

 FRAGMENT   3  TIP5P 
          X           Y           Z (BOHR)    CHARGE
     1.405758   -4.269527   -0.608139        0.00 (A.U.)
         DX          DY          DZ         /D/  (DEBYE)
     1.573391   -1.078119    1.271346    2.292208

 FRAGMENT   4  TIP5P 
          X           Y           Z (BOHR)    CHARGE
     0.913979   -4.104840    4.367924        0.00 (A.U.)
         DX          DY          DZ         /D/  (DEBYE)
    -1.638385    1.300417    0.937459    2.292208

 FRAGMENT   5  TIP5P 
          X           Y           Z (BOHR)    CHARGE
    -4.426455   -3.873561    4.095817        0.00 (A.U.)
         DX          DY          DZ         /D/  (DEBYE)
    -1.687189   -0.894501   -1.267864    2.292208

 FRAGMENT   6  TIP5P 
          X           Y           Z (BOHR)    CHARGE
    -1.736714    0.597131    4.485346        0.00 (A.U.)
         DX          DY          DZ         /D/  (DEBYE)
    -1.989686    0.183494    1.123253    2.292208

          ----------------------------
          SYSTEM ELECTROSTATIC MOMENTS
          ----------------------------

 CENTER              X           Y           Z (BOHR)    CHARGE
               -1.498733   -2.496804    1.797252        0.00 (A.U.)
         DX          DY          DZ         /D/  (DEBYE)
    -0.322598   -0.142655    2.559648    2.583838


          NSERCH=  6     ENERGY=      -0.0728331
  EFP           TOTAL GRADIENT                           TORQUES
    1   0.0001762 -0.0002373 -0.0004472     0.0002709  0.0011425  0.0004101
    2   0.0003231 -0.0001847  0.0001501    -0.0006942 -0.0006749  0.0005220
    3   0.0001202  0.0005898 -0.0003460    -0.0023596  0.0009764  0.0004820
    4  -0.0000759 -0.0002679 -0.0001549    -0.0018122  0.0000321 -0.0007890
    5  -0.0005200  0.0000501  0.0004364     0.0014053  0.0005884 -0.0004908
    6  -0.0000236  0.0000500  0.0003615     0.0000023 -0.0006404 -0.0002854

          MAXIMUM GRADIENT = 0.0023596    RMS GRADIENT = 0.0007091

 NSERCH:   6  E=       -0.0728330679  GRAD. MAX=  0.0023596  R.M.S.=  0.0007091

          HESSIAN UPDATED USING THE BFGS FORMULA
             ACTUAL ENERGY CHANGE WAS  -0.0001047508
          PREDICTED ENERGY CHANGE WAS  -0.0002385306 RATIO=  0.439
          MIN SEARCH, CORRECT HESSIAN, TRYING PURE NR STEP
               NR STEP HAS LENGTH         =   0.222160
          TRIM/QA LAMBDA FOR NON-TS MODES =  -0.02659910
          TRIM/QA STEP HAS LENGTH         =   0.075000
          RADIUS OF STEP TAKEN=   0.07500  CURRENT TRUST RADIUS=   0.07500

 BEGINNING GEOMETRY SEARCH POINT NSERCH=   7 ...

  
 COORDINATES OF FRAGMENT MULTIPOLE CENTERS (ANGS)
 MULTIPOLE NAME        X              Y              Z
 ------------------------------------------------------------
 FRAGNAME=TIP5P 
 O1               -2.1551892289  -2.0511234041  -0.4284700399
 H2               -1.3362560677  -2.4742636419  -0.6864006232
 H3               -2.0351946644  -1.1315366413  -0.6655119334
 FRAGNAME=TIP5P 
 O1               -0.6722532616   0.2794564484  -0.4049235761
 H2                0.1134462471  -0.2426281761  -0.5671927843
 H3               -0.6394377716   0.4779600632   0.5308898816
 FRAGNAME=TIP5P 
 O1                0.6987534943  -2.2293763092  -0.3567928458
 H2                1.4592372316  -2.7232979393  -0.6632782086
 H3                0.7247093708  -2.3156633606   0.5961542704
 FRAGNAME=TIP5P 
 O1                0.5301215176  -2.2078330431   2.2873753365
 H2                0.5859978178  -1.2993454494   2.5836108850
 H3               -0.3640891165  -2.4750228143   2.5000354811
 FRAGNAME=TIP5P 
 O1               -2.2891519794  -2.0203181321   2.1960500108
 H2               -2.3303458347  -2.1007506761   1.2431276419
 H3               -3.1046333032  -2.4144993694   2.5056283234
 FRAGNAME=TIP5P 
 O1               -0.8618318213   0.3101407461   2.3360529395
 H2               -1.1872579736   1.0622063791   2.8307472615
 H3               -1.5464782716  -0.3523798221   2.4285359312

                 --------------------------------------
                 FRAGMENT-FRAGMENT INTERACTION ENERGIES
                 --------------------------------------

                 CHARGE-CHARGE         =  -0.0936955140
                 CHARGE-DIPOLE         =   0.0000000000
                 CHARGE-QUADRUPOLE     =   0.0000000000
                 CHARGE-OCTUPOLE       =   0.0000000000
                 DIPOLE-DIPOLE         =   0.0000000000
                 DIPOLE-QUADRUPOLE     =   0.0000000000
                 QUADRUPOLE-QUADRUPOLE =   0.0000000000
                 OVERLAP PEN. ENERGY   =   0.0000000000
                                         --------------
                 ELECTROSTATIC ENERGY  =  -0.0936955140
                 REPULSION ENERGY      =   0.0208076366
                 POLARIZATION ENERGY   =   0.0000000000
                 --------------------------------------
                 FINAL EFP ENERGY      =  -0.0728878774


          ----------------------------------------
          EFFECTIVE FRAGMENT ELECTROSTATIC MOMENTS
          ----------------------------------------

 FRAGMENT   1  TIP5P 
          X           Y           Z (BOHR)    CHARGE
    -3.973431   -3.823565   -0.862031        0.00 (A.U.)
         DX          DY          DZ         /D/  (DEBYE)
     1.836726    0.971146   -0.968263    2.292208

 FRAGMENT   2  TIP5P 
          X           Y           Z (BOHR)    CHARGE
    -1.183821    0.493879   -0.683397        0.00 (A.U.)
         DX          DY          DZ         /D/  (DEBYE)
     1.601175   -0.632988    1.513203    2.292208

 FRAGMENT   3  TIP5P 
          X           Y           Z (BOHR)    CHARGE
     1.403614   -4.274264   -0.605881        0.00 (A.U.)
         DX          DY          DZ         /D/  (DEBYE)
     1.538429   -1.135001    1.264605    2.292208

 FRAGMENT   4  TIP5P 
          X           Y           Z (BOHR)    CHARGE
     0.913135   -4.104386    4.376325        0.00 (A.U.)
         DX          DY          DZ         /D/  (DEBYE)
    -1.639945    1.254504    0.995499    2.292208

 FRAGMENT   5  TIP5P 
          X           Y           Z (BOHR)    CHARGE
    -4.416458   -3.868035    4.081903        0.00 (A.U.)
         DX          DY          DZ         /D/  (DEBYE)
    -1.675824   -0.928437   -1.258506    2.292208

 FRAGMENT   6  TIP5P 
          X           Y           Z (BOHR)    CHARGE
    -1.735435    0.595550    4.476591        0.00 (A.U.)
         DX          DY          DZ         /D/  (DEBYE)
    -1.975899    0.175168    1.148633    2.292208

          ----------------------------
          SYSTEM ELECTROSTATIC MOMENTS
          ----------------------------

 CENTER              X           Y           Z (BOHR)    CHARGE
               -1.498733   -2.496804    1.797252        0.00 (A.U.)
         DX          DY          DZ         /D/  (DEBYE)
    -0.315338   -0.295609    2.695172    2.729611


          NSERCH=  7     ENERGY=      -0.0728879
  EFP           TOTAL GRADIENT                           TORQUES
    1  -0.0004453 -0.0003703  0.0008712     0.0010904 -0.0009131  0.0001961
    2   0.0002451  0.0000136 -0.0002240     0.0002476 -0.0004395  0.0000317
    3   0.0001127 -0.0005129 -0.0005289     0.0011423 -0.0008089 -0.0001492
    4  -0.0000591  0.0006853  0.0001648     0.0008512 -0.0000723  0.0005661
    5   0.0001397  0.0003118 -0.0006702     0.0001487 -0.0001069  0.0001518
    6   0.0000069 -0.0001275  0.0003871    -0.0001233  0.0003502  0.0000463

          MAXIMUM GRADIENT = 0.0011423    RMS GRADIENT = 0.0004870

 NSERCH:   7  E=       -0.0728878774  GRAD. MAX=  0.0011423  R.M.S.=  0.0004870

          HESSIAN UPDATED USING THE BFGS FORMULA
             ACTUAL ENERGY CHANGE WAS  -0.0000548095
          PREDICTED ENERGY CHANGE WAS  -0.0002135465 RATIO=  0.257
          MIN SEARCH, CORRECT HESSIAN, TRYING PURE NR STEP
               NR STEP HAS LENGTH         =   0.057616
          RADIUS OF STEP TAKEN=   0.05762  CURRENT TRUST RADIUS=   0.07500

 BEGINNING GEOMETRY SEARCH POINT NSERCH=   8 ...

  
 COORDINATES OF FRAGMENT MULTIPOLE CENTERS (ANGS)
 MULTIPOLE NAME        X              Y              Z
 ------------------------------------------------------------
 FRAGNAME=TIP5P 
 O1               -2.1508832248  -2.0477512172  -0.4342937532
 H2               -1.3365763903  -2.4791299539  -0.6932225731
 H3               -2.0281052656  -1.1324293738  -0.6859658907
 FRAGNAME=TIP5P 
 O1               -0.6774459778   0.2816404022  -0.4026485906
 H2                0.0966523084  -0.2507486657  -0.5858454595
 H3               -0.6255174898   0.4658867743   0.5352128467
 FRAGNAME=TIP5P 
 O1                0.6971058626  -2.2270779956  -0.3488176392
 H2                1.4519441861  -2.7253808857  -0.6620918070
 H3                0.7389712594  -2.3020301145   0.6045221940
 FRAGNAME=TIP5P 
 O1                0.5301779544  -2.2134771926   2.2861046710
 H2                0.6023252572  -1.3041718939   2.5762529254
 H3               -0.3656258465  -2.4662683888   2.5093971486
 FRAGNAME=TIP5P 
 O1               -2.2884932970  -2.0228415007   2.2015414564
 H2               -2.3222182326  -2.1066532695   1.2486167032
 H3               -3.1071396883  -2.4144339753   2.5060094989
 FRAGNAME=TIP5P 
 O1               -0.8614501230   0.3120446498   2.3305271317
 H2               -1.1981581728   1.0558742309   2.8300995615
 H3               -1.5440396821  -0.3549837066   2.4038212967

                 --------------------------------------
                 FRAGMENT-FRAGMENT INTERACTION ENERGIES
                 --------------------------------------

                 CHARGE-CHARGE         =  -0.0937908576
                 CHARGE-DIPOLE         =   0.0000000000
                 CHARGE-QUADRUPOLE     =   0.0000000000
                 CHARGE-OCTUPOLE       =   0.0000000000
                 DIPOLE-DIPOLE         =   0.0000000000
                 DIPOLE-QUADRUPOLE     =   0.0000000000
                 QUADRUPOLE-QUADRUPOLE =   0.0000000000
                 OVERLAP PEN. ENERGY   =   0.0000000000
                                         --------------
                 ELECTROSTATIC ENERGY  =  -0.0937908576
                 REPULSION ENERGY      =   0.0208897757
                 POLARIZATION ENERGY   =   0.0000000000
                 --------------------------------------
                 FINAL EFP ENERGY      =  -0.0729010819


          ----------------------------------------
          EFFECTIVE FRAGMENT ELECTROSTATIC MOMENTS
          ----------------------------------------

 FRAGMENT   1  TIP5P 
          X           Y           Z (BOHR)    CHARGE
    -3.965489   -3.818514   -0.874689        0.00 (A.U.)
         DX          DY          DZ         /D/  (DEBYE)
     1.833121    0.946687   -0.998835    2.292208

 FRAGMENT   2  TIP5P 
          X           Y           Z (BOHR)    CHARGE
    -1.192840    0.495409   -0.681094        0.00 (A.U.)
         DX          DY          DZ         /D/  (DEBYE)
     1.615869   -0.681035    1.476271    2.292208

 FRAGMENT   3  TIP5P 
          X           Y           Z (BOHR)    CHARGE
     1.401586   -4.269186   -0.591486        0.00 (A.U.)
         DX          DY          DZ         /D/  (DEBYE)
     1.558508   -1.121399    1.252093    2.292208

 FRAGMENT   4  TIP5P 
          X           Y           Z (BOHR)    CHARGE
     0.914794   -4.113443    4.374405        0.00 (A.U.)
         DX          DY          DZ         /D/  (DEBYE)
    -1.611233    1.284270    1.004390    2.292208

 FRAGMENT   5  TIP5P 
          X           Y           Z (BOHR)    CHARGE
    -4.414759   -3.872887    4.091740        0.00 (A.U.)
         DX          DY          DZ         /D/  (DEBYE)
    -1.667404   -0.929983   -1.268508    2.292208

 FRAGMENT   6  TIP5P 
          X           Y           Z (BOHR)    CHARGE
    -1.735690    0.597800    4.464635        0.00 (A.U.)
         DX          DY          DZ         /D/  (DEBYE)
    -1.993945    0.150238    1.120639    2.292208

          ----------------------------
          SYSTEM ELECTROSTATIC MOMENTS
          ----------------------------

 CENTER              X           Y           Z (BOHR)    CHARGE
               -1.498733   -2.496804    1.797252        0.00 (A.U.)
         DX          DY          DZ         /D/  (DEBYE)
    -0.265084   -0.351222    2.586050    2.623220


          NSERCH=  8     ENERGY=      -0.0729011
  EFP           TOTAL GRADIENT                           TORQUES
    1   0.0000182  0.0001402 -0.0001753    -0.0002040 -0.0002316 -0.0004742
    2  -0.0001543 -0.0004024  0.0001791     0.0011438  0.0007872 -0.0007107
    3   0.0005103 -0.0002061  0.0001720     0.0000634  0.0008421  0.0000235
    4  -0.0003813  0.0003057 -0.0003797    -0.0002063  0.0007822 -0.0001788
    5   0.0000082 -0.0001482  0.0002294    -0.0001063 -0.0006385  0.0002035
    6  -0.0000011  0.0003108 -0.0000255     0.0010194 -0.0002826  0.0003187

          MAXIMUM GRADIENT = 0.0011438    RMS GRADIENT = 0.0004407

 NSERCH:   8  E=       -0.0729010819  GRAD. MAX=  0.0011438  R.M.S.=  0.0004407

          HESSIAN UPDATED USING THE BFGS FORMULA
             ACTUAL ENERGY CHANGE WAS  -0.0000132045
          PREDICTED ENERGY CHANGE WAS  -0.0000632935 RATIO=  0.209
          MIN SEARCH, CORRECT HESSIAN, TRYING PURE NR STEP
               NR STEP HAS LENGTH         =   0.094808
          TRIM/QA LAMBDA FOR NON-TS MODES =  -0.01182855
          TRIM/QA STEP HAS LENGTH         =   0.057616
          RADIUS OF STEP TAKEN=   0.05762  CURRENT TRUST RADIUS=   0.05762

 BEGINNING GEOMETRY SEARCH POINT NSERCH=   9 ...

  
 COORDINATES OF FRAGMENT MULTIPOLE CENTERS (ANGS)
 MULTIPOLE NAME        X              Y              Z
 ------------------------------------------------------------
 FRAGNAME=TIP5P 
 O1               -2.1482218976  -2.0464092212  -0.4372009509
 H2               -1.3343516497  -2.4739250444  -0.7037957923
 H3               -2.0354039844  -1.1321536981  -0.6972707991
 FRAGNAME=TIP5P 
 O1               -0.6786015069   0.2836161034  -0.4036766975
 H2                0.1046167775  -0.2431439380  -0.5628003811
 H3               -0.6405973954   0.4943764553   0.5292558460
 FRAGNAME=TIP5P 
 O1                0.6927218054  -2.2239619576  -0.3476146968
 H2                1.4509753145  -2.7250556772  -0.6479213221
 H3                0.7219043862  -2.2932707775   0.6066242845
 FRAGNAME=TIP5P 
 O1                0.5345041189  -2.2194026380   2.2882809021
 H2                0.6012677765  -1.3109511124   2.5823655985
 H3               -0.3662382551  -2.4717696039   2.4912623279
 FRAGNAME=TIP5P 
 O1               -2.2880011863  -2.0241597513   2.2038878538
 H2               -2.3344382538  -2.1067868824   1.2513944286
 H3               -3.1053962438  -2.4103863665   2.5184060419
 FRAGNAME=TIP5P 
 O1               -0.8608739586   0.3092944610   2.3281572307
 H2               -1.1915601882   1.0661140215   2.8119941241
 H3               -1.5481996410  -0.3510144560   2.4164913098

                 --------------------------------------
                 FRAGMENT-FRAGMENT INTERACTION ENERGIES
                 --------------------------------------

                 CHARGE-CHARGE         =  -0.0937282262
                 CHARGE-DIPOLE         =   0.0000000000
                 CHARGE-QUADRUPOLE     =   0.0000000000
                 CHARGE-OCTUPOLE       =   0.0000000000
                 DIPOLE-DIPOLE         =   0.0000000000
                 DIPOLE-QUADRUPOLE     =   0.0000000000
                 QUADRUPOLE-QUADRUPOLE =   0.0000000000
                 OVERLAP PEN. ENERGY   =   0.0000000000
                                         --------------
                 ELECTROSTATIC ENERGY  =  -0.0937282262
                 REPULSION ENERGY      =   0.0208098088
                 POLARIZATION ENERGY   =   0.0000000000
                 --------------------------------------
                 FINAL EFP ENERGY      =  -0.0729184174


          ----------------------------------------
          EFFECTIVE FRAGMENT ELECTROSTATIC MOMENTS
          ----------------------------------------

 FRAGMENT   1  TIP5P 
          X           Y           Z (BOHR)    CHARGE
    -3.961559   -3.815683   -0.881882        0.00 (A.U.)
         DX          DY          DZ         /D/  (DEBYE)
     1.812783    0.952158   -1.030259    2.292208

 FRAGMENT   2  TIP5P 
          X           Y           Z (BOHR)    CHARGE
    -1.195531    0.502542   -0.681013        0.00 (A.U.)
         DX          DY          DZ         /D/  (DEBYE)
     1.606471   -0.618157    1.513721    2.292208

 FRAGMENT   3  TIP5P 
          X           Y           Z (BOHR)    CHARGE
     1.392321   -4.262995   -0.587747        0.00 (A.U.)
         DX          DY          DZ         /D/  (DEBYE)
     1.540378   -1.115819    1.279219    2.292208

 FRAGMENT   4  TIP5P 
          X           Y           Z (BOHR)    CHARGE
     0.921878   -4.124686    4.376786        0.00 (A.U.)
         DX          DY          DZ         /D/  (DEBYE)
    -1.631425    1.283429    0.972358    2.292208

 FRAGMENT   5  TIP5P 
          X           Y           Z (BOHR)    CHARGE
    -4.415041   -3.874686    4.097282        0.00 (A.U.)
         DX          DY          DZ         /D/  (DEBYE)
    -1.689824   -0.917169   -1.248004    2.292208

 FRAGMENT   6  TIP5P 
          X           Y           Z (BOHR)    CHARGE
    -1.734465    0.594687    4.460083        0.00 (A.U.)
         DX          DY          DZ         /D/  (DEBYE)
    -1.991430    0.188794    1.119278    2.292208

          ----------------------------
          SYSTEM ELECTROSTATIC MOMENTS
          ----------------------------

 CENTER              X           Y           Z (BOHR)    CHARGE
               -1.498733   -2.496804    1.797252        0.00 (A.U.)
         DX          DY          DZ         /D/  (DEBYE)
    -0.353046   -0.226764    2.606314    2.639874


          NSERCH=  9     ENERGY=      -0.0729184
  EFP           TOTAL GRADIENT                           TORQUES
    1   0.0004559  0.0002844 -0.0005312    -0.0007502  0.0009641 -0.0000455
    2  -0.0000152 -0.0001179  0.0004035    -0.0008753  0.0001262  0.0000848
    3  -0.0002672  0.0000487 -0.0000147    -0.0005377 -0.0004866 -0.0000058
    4   0.0003270  0.0001038 -0.0003294    -0.0002992 -0.0006652  0.0000053
    5  -0.0004021 -0.0001849  0.0003991    -0.0003848  0.0005190 -0.0001767
    6  -0.0000984 -0.0001340  0.0000727    -0.0004005 -0.0001581 -0.0005459

          MAXIMUM GRADIENT = 0.0009641    RMS GRADIENT = 0.0003983

 NSERCH:   9  E=       -0.0729184174  GRAD. MAX=  0.0009641  R.M.S.=  0.0003983

          HESSIAN UPDATED USING THE BFGS FORMULA
             ACTUAL ENERGY CHANGE WAS  -0.0000173354
          PREDICTED ENERGY CHANGE WAS  -0.0000852369 RATIO=  0.203
          MIN SEARCH, CORRECT HESSIAN, TRYING PURE NR STEP
               NR STEP HAS LENGTH         =   0.056070
          RADIUS OF STEP TAKEN=   0.05607  CURRENT TRUST RADIUS=   0.05762

 BEGINNING GEOMETRY SEARCH POINT NSERCH=  10 ...

  
 COORDINATES OF FRAGMENT MULTIPOLE CENTERS (ANGS)
 MULTIPOLE NAME        X              Y              Z
 ------------------------------------------------------------
 FRAGNAME=TIP5P 
 O1               -2.1529946081  -2.0488001512  -0.4341028364
 H2               -1.3308947637  -2.4719524118  -0.6817343755
 H3               -2.0374773939  -1.1330827738  -0.6877656580
 FRAGNAME=TIP5P 
 O1               -0.6760303378   0.2852958685  -0.4078813859
 H2                0.1185954284  -0.2261364788  -0.5603091229
 H3               -0.6534733151   0.4909453803   0.5266916867
 FRAGNAME=TIP5P 
 O1                0.6917112213  -2.2222011349  -0.3471801363
 H2                1.4441196633  -2.7198077077  -0.6673310446
 H3                0.7408321555  -2.2993319499   0.6056395425
 FRAGNAME=TIP5P 
 O1                0.5321534812  -2.2232835571   2.2925924479
 H2                0.6050221905  -1.3164452136   2.5901856924
 H3               -0.3670003368  -2.4739042024   2.5045808267
 FRAGNAME=TIP5P 
 O1               -2.2858009282  -2.0220290194   2.2001217132
 H2               -2.3228178710  -2.0988447517   1.2467296332
 H3               -3.1049007458  -2.4128589951   2.5043498975
 FRAGNAME=TIP5P 
 O1               -0.8599574997   0.3100315415   2.3266777934
 H2               -1.1968076690   1.0646531741   2.8096948989
 H3               -1.5337981811  -0.3617812439   2.4307627898

                 --------------------------------------
                 FRAGMENT-FRAGMENT INTERACTION ENERGIES
                 --------------------------------------

                 CHARGE-CHARGE         =  -0.0937083870
                 CHARGE-DIPOLE         =   0.0000000000
                 CHARGE-QUADRUPOLE     =   0.0000000000
                 CHARGE-OCTUPOLE       =   0.0000000000
                 DIPOLE-DIPOLE         =   0.0000000000
                 DIPOLE-QUADRUPOLE     =   0.0000000000
                 QUADRUPOLE-QUADRUPOLE =   0.0000000000
                 OVERLAP PEN. ENERGY   =   0.0000000000
                                         --------------
                 ELECTROSTATIC ENERGY  =  -0.0937083870
                 REPULSION ENERGY      =   0.0207818694
                 POLARIZATION ENERGY   =   0.0000000000
[...]
    4  -0.0000058  0.0000009  0.0000000     0.0000017  0.0000104  0.0000015
    5   0.0000011  0.0000019  0.0000085    -0.0000001 -0.0000004  0.0000083
    6  -0.0000086  0.0000054  0.0000018     0.0000018 -0.0000034 -0.0000005

          MAXIMUM GRADIENT = 0.0000138    RMS GRADIENT = 0.0000058

 NSERCH:  28  E=       -0.0729995086  GRAD. MAX=  0.0000138  R.M.S.=  0.0000058

          HESSIAN UPDATED USING THE BFGS FORMULA
             ACTUAL ENERGY CHANGE WAS  -0.0000000488
          PREDICTED ENERGY CHANGE WAS  -0.0000000389 RATIO=  1.253
          MIN SEARCH, CORRECT HESSIAN, TRYING PURE NR STEP
               NR STEP HAS LENGTH         =   0.003272
          RADIUS OF STEP TAKEN=   0.00327  CURRENT TRUST RADIUS=   0.05000

 BEGINNING GEOMETRY SEARCH POINT NSERCH=  29 ...

  
 COORDINATES OF FRAGMENT MULTIPOLE CENTERS (ANGS)
 MULTIPOLE NAME        X              Y              Z
 ------------------------------------------------------------
 FRAGNAME=TIP5P 
 O1               -2.1534622395  -2.0542680935  -0.4331088497
 H2               -1.3122139590  -2.4406715624  -0.6764626229
 H3               -2.0871355095  -1.1405966931  -0.7106565143
 FRAGNAME=TIP5P 
 O1               -0.6772271218   0.3041995340  -0.4274433365
 H2                0.0854844349  -0.2539158978  -0.5791193569
 H3               -0.6487203658   0.5002303267   0.5090323237
 FRAGNAME=TIP5P 
 O1                0.6719465079  -2.1930421281  -0.3257623617
 H2                1.4248767405  -2.6828888017  -0.6564792653
 H3                0.7184949914  -2.2944022325   0.6249146271
 FRAGNAME=TIP5P 
 O1                0.5295298528  -2.2781987184   2.3141370599
 H2                0.6687188713  -1.3982524246   2.6642060619
 H3               -0.3904687366  -2.4671951784   2.4988268073
 FRAGNAME=TIP5P 
 O1               -2.2522893169  -2.0256513834   2.2026519883
 H2               -2.3138813004  -2.1054519747   1.2507771739
 H3               -3.0542141114  -2.4330540250   2.5300158236
 FRAGNAME=TIP5P 
 O1               -0.8673725481   0.3288635772   2.3000756935
 H2               -1.2436716677   1.0777398195   2.7624724014
 H3               -1.5183068963  -0.3659428598   2.3988474436

                 --------------------------------------
                 FRAGMENT-FRAGMENT INTERACTION ENERGIES
                 --------------------------------------

                 CHARGE-CHARGE         =  -0.0939374090
                 CHARGE-DIPOLE         =   0.0000000000
                 CHARGE-QUADRUPOLE     =   0.0000000000
                 CHARGE-OCTUPOLE       =   0.0000000000
                 DIPOLE-DIPOLE         =   0.0000000000
                 DIPOLE-QUADRUPOLE     =   0.0000000000
                 QUADRUPOLE-QUADRUPOLE =   0.0000000000
                 OVERLAP PEN. ENERGY   =   0.0000000000
                                         --------------
                 ELECTROSTATIC ENERGY  =  -0.0939374090
                 REPULSION ENERGY      =   0.0209378473
                 POLARIZATION ENERGY   =   0.0000000000
                 --------------------------------------
                 FINAL EFP ENERGY      =  -0.0729995617


          ----------------------------------------
          EFFECTIVE FRAGMENT ELECTROSTATIC MOMENTS
          ----------------------------------------

 FRAGMENT   1  TIP5P 
          X           Y           Z (BOHR)    CHARGE
    -3.973483   -3.826248   -0.873539        0.00 (A.U.)
         DX          DY          DZ         /D/  (DEBYE)
     1.775394    1.031439   -1.018985    2.292208

 FRAGMENT   2  TIP5P 
          X           Y           Z (BOHR)    CHARGE
    -1.196107    0.536565   -0.724763        0.00 (A.U.)
         DX          DY          DZ         /D/  (DEBYE)
     1.547777   -0.708308    1.535221    2.292208

 FRAGMENT   3  TIP5P 
          X           Y           Z (BOHR)    CHARGE
     1.354335   -4.206765   -0.550044        0.00 (A.U.)
         DX          DY          DZ         /D/  (DEBYE)
     1.563936   -1.156516    1.212763    2.292208

 FRAGMENT   4  TIP5P 
          X           Y           Z (BOHR)    CHARGE
     0.918100   -4.232107    4.429633        0.00 (A.U.)
         DX          DY          DZ         /D/  (DEBYE)
    -1.527416    1.351633    1.046092    2.292208

 FRAGMENT   5  TIP5P 
          X           Y           Z (BOHR)    CHARGE
    -4.347522   -3.879445    4.096370        0.00 (A.U.)
         DX          DY          DZ         /D/  (DEBYE)
    -1.689207   -0.953064   -1.221665    2.292208

 FRAGMENT   6  TIP5P 
          X           Y           Z (BOHR)    CHARGE
    -1.747720    0.627180    4.405853        0.00 (A.U.)
         DX          DY          DZ         /D/  (DEBYE)
    -2.009469    0.105771    1.097755    2.292208

          ----------------------------
          SYSTEM ELECTROSTATIC MOMENTS
          ----------------------------

 CENTER              X           Y           Z (BOHR)    CHARGE
               -1.498733   -2.496804    1.797252        0.00 (A.U.)
         DX          DY          DZ         /D/  (DEBYE)
    -0.338985   -0.329046    2.651181    2.692943


          NSERCH= 29     ENERGY=      -0.0729996
  EFP           TOTAL GRADIENT                           TORQUES
    1   0.0000073  0.0000007  0.0000042     0.0000028  0.0000017  0.0000113
    2  -0.0000002  0.0000045  0.0000025     0.0000003 -0.0000076 -0.0000022
    3  -0.0000015 -0.0000101 -0.0000121    -0.0000077 -0.0000017 -0.0000000
    4  -0.0000059  0.0000066  0.0000040     0.0000033  0.0000058 -0.0000119
    5   0.0000017 -0.0000082 -0.0000012     0.0000038 -0.0000034 -0.0000119
    6  -0.0000016  0.0000065  0.0000026    -0.0000021  0.0000046  0.0000014

          MAXIMUM GRADIENT = 0.0000121    RMS GRADIENT = 0.0000058

 NSERCH:  29  E=       -0.0729995617  GRAD. MAX=  0.0000121  R.M.S.=  0.0000058

          HESSIAN UPDATED USING THE BFGS FORMULA
             ACTUAL ENERGY CHANGE WAS  -0.0000000531
          PREDICTED ENERGY CHANGE WAS  -0.0000000427 RATIO=  1.242
          MIN SEARCH, CORRECT HESSIAN, TRYING PURE NR STEP
               NR STEP HAS LENGTH         =   0.004703
          RADIUS OF STEP TAKEN=   0.00470  CURRENT TRUST RADIUS=   0.05000

 BEGINNING GEOMETRY SEARCH POINT NSERCH=  30 ...

  
 COORDINATES OF FRAGMENT MULTIPOLE CENTERS (ANGS)
 MULTIPOLE NAME        X              Y              Z
 ------------------------------------------------------------
 FRAGNAME=TIP5P 
 O1               -2.1544669679  -2.0538655334  -0.4333888518
 H2               -1.3141647788  -2.4416661313  -0.6777866757
 H3               -2.0867000940  -1.1401308131  -0.7103796109
 FRAGNAME=TIP5P 
 O1               -0.6772451521   0.3034164457  -0.4276703822
 H2                0.0851218404  -0.2552585196  -0.5790183947
 H3               -0.6486336160   0.4999558775   0.5086954656
 FRAGNAME=TIP5P 
 O1                0.6723558034  -2.1924256664  -0.3253479145
 H2                1.4266103667  -2.6804044388  -0.6558084123
 H3                0.7184163695  -2.2942822239   0.6252997778
 FRAGNAME=TIP5P 
 O1                0.5297605081  -2.2783396952   2.3144729123
 H2                0.6687286918  -1.3983932157   2.6646291722
 H3               -0.3902168559  -2.4675454530   2.4990540597
 FRAGNAME=TIP5P 
 O1               -2.2520983920  -2.0256053108   2.2025167232
 H2               -2.3138373267  -2.1053172823   1.2506440034
 H3               -3.0540789805  -2.4328370903   2.5299564620
 FRAGNAME=TIP5P 
 O1               -0.8672197079   0.3287268151   2.2999653046
 H2               -1.2435325596   1.0775239696   2.7624789024
 H3               -1.5181309261  -0.3661139046   2.3986482788

                 --------------------------------------
                 FRAGMENT-FRAGMENT INTERACTION ENERGIES
                 --------------------------------------

                 CHARGE-CHARGE         =  -0.0939375609
                 CHARGE-DIPOLE         =   0.0000000000
                 CHARGE-QUADRUPOLE     =   0.0000000000
                 CHARGE-OCTUPOLE       =   0.0000000000
                 DIPOLE-DIPOLE         =   0.0000000000
                 DIPOLE-QUADRUPOLE     =   0.0000000000
                 QUADRUPOLE-QUADRUPOLE =   0.0000000000
                 OVERLAP PEN. ENERGY   =   0.0000000000
                                         --------------
                 ELECTROSTATIC ENERGY  =  -0.0939375609
                 REPULSION ENERGY      =   0.0209379499
                 POLARIZATION ENERGY   =   0.0000000000
                 --------------------------------------
                 FINAL EFP ENERGY      =  -0.0729996110


          ----------------------------------------
          EFFECTIVE FRAGMENT ELECTROSTATIC MOMENTS
          ----------------------------------------

 FRAGMENT   1  TIP5P 
          X           Y           Z (BOHR)    CHARGE
    -3.975329   -3.825629   -0.874120        0.00 (A.U.)
         DX          DY          DZ         /D/  (DEBYE)
     1.776360    1.028830   -1.019938    2.292208

 FRAGMENT   2  TIP5P 
          X           Y           Z (BOHR)    CHARGE
    -1.196166    0.535080   -0.725169        0.00 (A.U.)
         DX          DY          DZ         /D/  (DEBYE)
     1.547308   -0.708408    1.535648    2.292208

 FRAGMENT   3  TIP5P 
          X           Y           Z (BOHR)    CHARGE
     1.355197   -4.205455   -0.549237        0.00 (A.U.)
         DX          DY          DZ         /D/  (DEBYE)
     1.565572   -1.153833    1.213207    2.292208

 FRAGMENT   4  TIP5P 
          X           Y           Z (BOHR)    CHARGE
     0.918515   -4.232396    4.430265        0.00 (A.U.)
         DX          DY          DZ         /D/  (DEBYE)
    -1.527806    1.351224    1.046051    2.292208

 FRAGMENT   5  TIP5P 
          X           Y           Z (BOHR)    CHARGE
    -4.347182   -3.879330    4.096123        0.00 (A.U.)
         DX          DY          DZ         /D/  (DEBYE)
    -1.689604   -0.952557   -1.221513    2.292208

 FRAGMENT   6  TIP5P 
          X           Y           Z (BOHR)    CHARGE
    -1.747431    0.626909    4.405648        0.00 (A.U.)
         DX          DY          DZ         /D/  (DEBYE)
    -2.009451    0.105549    1.097810    2.292208

          ----------------------------
          SYSTEM ELECTROSTATIC MOMENTS
          ----------------------------

 CENTER              X           Y           Z (BOHR)    CHARGE
               -1.498733   -2.496804    1.797252        0.00 (A.U.)
         DX          DY          DZ         /D/  (DEBYE)
    -0.337620   -0.329195    2.651265    2.692873


          NSERCH= 30     ENERGY=      -0.0729996
  EFP           TOTAL GRADIENT                           TORQUES
    1   0.0000035  0.0000038 -0.0000050     0.0000019  0.0000043  0.0000059
    2  -0.0000023 -0.0000010  0.0000006     0.0000056 -0.0000049 -0.0000030
    3  -0.0000030 -0.0000078 -0.0000055    -0.0000033 -0.0000063 -0.0000023
    4   0.0000000  0.0000051  0.0000047     0.0000045  0.0000017 -0.0000075
    5   0.0000053 -0.0000040  0.0000038     0.0000056 -0.0000091 -0.0000083
    6  -0.0000035  0.0000039  0.0000013     0.0000022  0.0000051 -0.0000004

          MAXIMUM GRADIENT = 0.0000091    RMS GRADIENT = 0.0000046

 NSERCH:  30  E=       -0.0729996110  GRAD. MAX=  0.0000091  R.M.S.=  0.0000046

          HESSIAN UPDATED USING THE BFGS FORMULA
             ACTUAL ENERGY CHANGE WAS  -0.0000000493
          PREDICTED ENERGY CHANGE WAS  -0.0000000360 RATIO=  1.368
          MIN SEARCH, CORRECT HESSIAN, TRYING PURE NR STEP
               NR STEP HAS LENGTH         =   0.004077
          RADIUS OF STEP TAKEN=   0.00408  CURRENT TRUST RADIUS=   0.05000

 BEGINNING GEOMETRY SEARCH POINT NSERCH=  31 ...

  
 COORDINATES OF FRAGMENT MULTIPOLE CENTERS (ANGS)
 MULTIPOLE NAME        X              Y              Z
 ------------------------------------------------------------
 FRAGNAME=TIP5P 
 O1               -2.1553270590  -2.0536160458  -0.4334791139
 H2               -1.3157790988  -2.4426018449  -0.6785844785
 H3               -2.0862865536  -1.1398362350  -0.7100062104
 FRAGNAME=TIP5P 
 O1               -0.6771316302   0.3027371002  -0.4278151727
 H2                0.0848749735  -0.2565041759  -0.5788863480
 H3               -0.6482889314   0.4998733798   0.5084181076
 FRAGNAME=TIP5P 
 O1                0.6727304020  -2.1918560430  -0.3251081525
 H2                1.4281721917  -2.6780171360  -0.6555358498
 H3                0.7185872802  -2.2942041262   0.6254965948
 FRAGNAME=TIP5P 
 O1                0.5298552449  -2.2784594411   2.3146554329
 H2                0.6685479821  -1.3984742671   2.6648236600
 H3               -0.3901162984  -2.4678743995   2.4990509379
 FRAGNAME=TIP5P 
 O1               -2.2520174711  -2.0255576891   2.2023595240
 H2               -2.3141187007  -2.1052740825   1.2505107424
 H3               -3.0538685208  -2.4327971339   2.5301068317
 FRAGNAME=TIP5P 
 O1               -0.8670594694   0.3286608671   2.2999554647
 H2               -1.2436588322   1.0774716320   2.7622137556
 H3               -1.5179108357  -0.3662577105   2.3984848436

                 --------------------------------------
                 FRAGMENT-FRAGMENT INTERACTION ENERGIES
                 --------------------------------------

                 CHARGE-CHARGE         =  -0.0939395921
                 CHARGE-DIPOLE         =   0.0000000000
                 CHARGE-QUADRUPOLE     =   0.0000000000
                 CHARGE-OCTUPOLE       =   0.0000000000
                 DIPOLE-DIPOLE         =   0.0000000000
                 DIPOLE-QUADRUPOLE     =   0.0000000000
                 QUADRUPOLE-QUADRUPOLE =   0.0000000000
                 OVERLAP PEN. ENERGY   =   0.0000000000
                                         --------------
                 ELECTROSTATIC ENERGY  =  -0.0939395921
                 REPULSION ENERGY      =   0.0209399600
                 POLARIZATION ENERGY   =   0.0000000000
                 --------------------------------------
                 FINAL EFP ENERGY      =  -0.0729996321


          ----------------------------------------
          EFFECTIVE FRAGMENT ELECTROSTATIC MOMENTS
          ----------------------------------------

 FRAGMENT   1  TIP5P 
          X           Y           Z (BOHR)    CHARGE
    -3.976900   -3.825278   -0.874316        0.00 (A.U.)
         DX          DY          DZ         /D/  (DEBYE)
     1.777376    1.026599   -1.020415    2.292208

 FRAGMENT   2  TIP5P 
          X           Y           Z (BOHR)    CHARGE
    -1.195965    0.533800   -0.725427        0.00 (A.U.)
         DX          DY          DZ         /D/  (DEBYE)
     1.547055   -0.708348    1.535930    2.292208

 FRAGMENT   3  TIP5P 
          X           Y           Z (BOHR)    CHARGE
     1.356009   -4.204239   -0.548785        0.00 (A.U.)
         DX          DY          DZ         /D/  (DEBYE)
     1.567496   -1.151239    1.213187    2.292208

 FRAGMENT   4  TIP5P 
          X           Y           Z (BOHR)    CHARGE
     0.918665   -4.232640    4.430592        0.00 (A.U.)
         DX          DY          DZ         /D/  (DEBYE)
    -1.528334    1.350890    1.045711    2.292208

 FRAGMENT   5  TIP5P 
          X           Y           Z (BOHR)    CHARGE
    -4.347054   -3.879242    4.095861        0.00 (A.U.)
         DX          DY          DZ         /D/  (DEBYE)
    -1.690059   -0.952581   -1.220864    2.292208

 FRAGMENT   6  TIP5P 
          X           Y           Z (BOHR)    CHARGE
    -1.747152    0.626778    4.405586        0.00 (A.U.)
         DX          DY          DZ         /D/  (DEBYE)
    -2.009894    0.105424    1.097010    2.292208

          ----------------------------
          SYSTEM ELECTROSTATIC MOMENTS
          ----------------------------

 CENTER              X           Y           Z (BOHR)    CHARGE
               -1.498733   -2.496804    1.797252        0.00 (A.U.)
         DX          DY          DZ         /D/  (DEBYE)
    -0.336359   -0.329254    2.650559    2.692027


          NSERCH= 31     ENERGY=      -0.0729996
  EFP           TOTAL GRADIENT                           TORQUES
    1  -0.0000009  0.0000043 -0.0000006    -0.0000002  0.0000012  0.0000001
    2  -0.0000011  0.0000004 -0.0000006     0.0000007  0.0000000 -0.0000005
    3  -0.0000014 -0.0000051 -0.0000006    -0.0000009  0.0000011  0.0000005
    4   0.0000025  0.0000020  0.0000042     0.0000007  0.0000018 -0.0000017
    5   0.0000031 -0.0000028 -0.0000045    -0.0000015  0.0000013 -0.0000021
    6  -0.0000022  0.0000013  0.0000022    -0.0000029  0.0000002  0.0000011

          MAXIMUM GRADIENT = 0.0000051    RMS GRADIENT = 0.0000021

 NSERCH:  31  E=       -0.0729996321  GRAD. MAX=  0.0000051  R.M.S.=  0.0000021


      ***** EQUILIBRIUM GEOMETRY LOCATED *****
  
 COORDINATES OF FRAGMENT MULTIPOLE CENTERS (ANGS)
 MULTIPOLE NAME        X              Y              Z
 ------------------------------------------------------------
 FRAGNAME=TIP5P 
 O1               -2.1553270590  -2.0536160458  -0.4334791139
 H2               -1.3157790988  -2.4426018449  -0.6785844785
 H3               -2.0862865536  -1.1398362350  -0.7100062104
 FRAGNAME=TIP5P 
 O1               -0.6771316302   0.3027371002  -0.4278151727
 H2                0.0848749735  -0.2565041759  -0.5788863480
 H3               -0.6482889314   0.4998733798   0.5084181076
 FRAGNAME=TIP5P 
 O1                0.6727304020  -2.1918560430  -0.3251081525
 H2                1.4281721917  -2.6780171360  -0.6555358498
 H3                0.7185872802  -2.2942041262   0.6254965948
 FRAGNAME=TIP5P 
 O1                0.5298552449  -2.2784594411   2.3146554329
 H2                0.6685479821  -1.3984742671   2.6648236600
 H3               -0.3901162984  -2.4678743995   2.4990509379
 FRAGNAME=TIP5P 
 O1               -2.2520174711  -2.0255576891   2.2023595240
 H2               -2.3141187007  -2.1052740825   1.2505107424
 H3               -3.0538685208  -2.4327971339   2.5301068317
 FRAGNAME=TIP5P 
 O1               -0.8670594694   0.3286608671   2.2999554647
 H2               -1.2436588322   1.0774716320   2.7622137556
 H3               -1.5179108357  -0.3662577105   2.3984848436

     EFFECTIVE FRAGMENT CALCULATION'S TOTAL ENERGY=  -0.0729996321
  $VIB   
          IVIB=   0 IATOM=   0 ICOORD=   0 E=       -0.0729996321
-8.782774098E-07 4.275019602E-06-6.076124715E-07
-2.215702071E-07 1.218123530E-06 5.636630848E-08
-1.120056795E-06 4.381975079E-07-6.341453162E-07
 6.671064894E-07 1.660988469E-08-4.973107370E-07
-1.384717740E-06-5.142835508E-06-5.871831243E-07
-9.335512474E-07 1.080646226E-06 5.230704913E-07
 2.452611833E-06 2.007463421E-06 4.153557073E-06
 6.558200178E-07 1.841696925E-06-1.698276674E-06
 3.094258277E-06-2.833394797E-06-4.519524502E-06
-1.476407537E-06 1.294997657E-06-2.116375269E-06
-2.163818166E-06 1.255549775E-06 2.194908341E-06
-2.886167346E-06 2.064272649E-07 1.106998229E-06
  0.000000000E+00 0.000000000E+00 0.000000000E+00
 ......END OF GEOMETRY SEARCH......
 STEP CPU TIME =     0.04 TOTAL CPU TIME =        0.0 (    0.0 MIN)
 TOTAL WALL CLOCK TIME=        0.1 SECONDS, CPU UTILIZATION IS  83.33%
                 6048  WORDS OF DYNAMIC MEMORY USED
 EXECUTION OF GAMESS TERMINATED NORMALLY Wed Aug  9 20:21:41 2017
 DDI: 263640 bytes (0.3 MB / 0 MWords) used by master data server.

 ----------------------------------------
 CPU timing information for all processes
 ========================================
 0: 0.34 + 0.22 = 0.57
 ----------------------------------------
 ddikick.x: exited gracefully.
unset echo
----- accounting info -----
Files used on the master node compute-0-1.local were:
-rw-rw-r-- 1 sarom sarom 2.5K Aug  9 20:21 /scratch/tip5p-6h2o.F05
-rw-rw-r-- 1 sarom sarom    0 Aug  9 20:21 /scratch/tip5p-6h2o.F08
-rw-rw-r-- 1 sarom sarom 320K Aug  9 20:21 /scratch/tip5p-6h2o.F10
rm: No match.
ls: No match.
ls: No match.
ls: No match.
Wed Aug  9 20:21:44 CDT 2017
0.257u 0.155s 0:03.53 11.3%	0+0k 8+360io 0pf+0w
/opt/gridengine/default/spool/compute-0-1/active_jobs/35824.1/pe_hostfile compute-0-1.local
