-catch_rsh /opt/gridengine/default/spool/compute-1-0/active_jobs/35826.1/pe_hostfile
compute-1-0
The primary node assigned by SGE to this run is compute-1-0
Warning: no access to tty (Bad file descriptor).
Thus no job control in this shell.
source /home/sarom/dir.git.branch.saromleang-travis-ci/install.info
setenv GMS_PATH /home/sarom/dir.git.branch.saromleang-travis-ci
setenv GMS_BUILD_DIR /home/sarom/dir.git.branch.saromleang-travis-ci
setenv GMS_TARGET linux64
setenv GMS_FORTRAN gfortran
setenv GMS_GFORTRAN_VERNO 4.4
setenv GMS_MATHLIB mkl-so
setenv GMS_MATHLIB none
setenv GMS_MATHLIB_PATH /share/apps/intel/compilers_and_libraries_2017.1.132/linux/mkl/lib/intel64
setenv GMS_MKL_VERNO 12
setenv GMS_DDI_COMM sockets
setenv GMS_LIBCCHEM false
setenv GMS_EIGEN_PATH
setenv GMS_PHI false
setenv GMS_SHMTYPE sysv
setenv GMS_OPENMP false
unset echo
wat2-af
/home/sarom/dir.git.branch.saromleang-travis-ci/tests/solvent/efp1/parallel
----- GAMESS execution script 'rungms' -----
This job is running on host compute-1-0.local
under operating system Linux at Wed Aug 9 20:22:11 CDT 2017
Available scratch disk space (Kbyte units) at beginning of the job is
Filesystem           1K-blocks      Used Available Use% Mounted on
/dev/sda1             16126920   9111844   6195876  60% /
GAMESS temporary binary files will be written to /scratch
GAMESS supplementary output files will be written to /home/sarom/restart
Copying input file wat2-af.inp to your run's scratch directory...
cp /home/sarom/dir.git.branch.saromleang-travis-ci/tests/solvent/efp1/parallel/wat2-af.inp /scratch/wat2-af.F05
unset echo
The generated host list is
compute-1-0.local
/home/sarom/dir.git.branch.saromleang-travis-ci/ddikick.x /home/sarom/dir.git.branch.saromleang-travis-ci/gamess.00.x wat2-af -ddi 1 1 compute-1-0.local -scr /scratch

 Distributed Data Interface kickoff program.
 Initiating 1 compute processes on 1 nodes to run the following command:
 /home/sarom/dir.git.branch.saromleang-travis-ci/gamess.00.x wat2-af 

          ******************************************************
          *         GAMESS VERSION = 20 APR 2017 (R1)          *
          *             FROM IOWA STATE UNIVERSITY             *
          * M.W.SCHMIDT, K.K.BALDRIDGE, J.A.BOATZ, S.T.ELBERT, *
          *   M.S.GORDON, J.H.JENSEN, S.KOSEKI, N.MATSUNAGA,   *
          *          K.A.NGUYEN, S.J.SU, T.L.WINDUS,           *
          *       TOGETHER WITH M.DUPUIS, J.A.MONTGOMERY       *
          *         J.COMPUT.CHEM.  14, 1347-1363(1993)        *
          **************** 64 BIT LINUX VERSION ****************

  SINCE 1993, STUDENTS AND POSTDOCS WORKING AT IOWA STATE UNIVERSITY
  AND ALSO IN THEIR VARIOUS JOBS AFTER LEAVING ISU HAVE MADE IMPORTANT
  CONTRIBUTIONS TO THE CODE:
     IVANA ADAMOVIC, CHRISTINE AIKENS, YURI ALEXEEV, POOJA ARORA,
     ANDREY ASADCHEV, ROB BELL, PRADIPTA BANDYOPADHYAY, JONATHAN BENTZ,
     BRETT BODE, KURT BRORSEN, CALEB CARLIN, GALINA CHABAN, WEI CHEN,
     CHEOL HO CHOI, PAUL DAY, ALBERT DEFUSCO, NUWAN DESILVA, TIM DUDLEY,
     DMITRI FEDOROV, GRAHAM FLETCHER, MARK FREITAG, KURT GLAESEMANN,
     DAN KEMP, GRANT MERRILL, NORIYUKI MINEZAWA, JONATHAN MULLIN,
     TAKESHI NAGATA, SEAN NEDD, HEATHER NETZLOFF, BOSILJKA NJEGIC, RYAN OLSON,
     MIKE PAK, SPENCER PRUITT, LUKE ROSKOP, JIM SHOEMAKER, LYUDMILA SLIPCHENKO,
     TONY SMITH, SAROM SOK LEANG, JIE SONG, TETSUYA TAKETSUGU, SIMON WEBB,
     PENG XU, SOOHAENG YOO, FEDERICO ZAHARIEV

  ADDITIONAL CODE HAS BEEN PROVIDED BY COLLABORATORS IN OTHER GROUPS:
     IOWA STATE UNIVERSITY:
          JOE IVANIC, AARON WEST, LAIMUTIS BYTAUTAS, KLAUS RUEDENBERG
     UNIVERSITY OF TOKYO: KIMIHIKO HIRAO, TAKAHITO NAKAJIMA,
          TAKAO TSUNEDA, MUNEAKI KAMIYA, SUSUMU YANAGISAWA,
          KIYOSHI YAGI, MAHITO CHIBA, SEIKEN TOKURA, NAOAKI KAWAKAMI
     UNIVERSITY OF AARHUS: FRANK JENSEN
     UNIVERSITY OF IOWA: VISVALDAS KAIRYS, HUI LI
     NATIONAL INST. OF STANDARDS AND TECHNOLOGY: WALT STEVENS, DAVID GARMER
     UNIVERSITY OF PISA: BENEDETTA MENNUCCI, JACOPO TOMASI
     UNIVERSITY OF MEMPHIS: HENRY KURTZ, PRAKASHAN KORAMBATH
     UNIVERSITY OF ALBERTA: TOBY ZENG, MARIUSZ KLOBUKOWSKI
     UNIVERSITY OF NEW ENGLAND: MARK SPACKMAN
     MIE UNIVERSITY: HIROAKI UMEDA
     NAT. INST. OF ADVANCED INDUSTRIAL SCIENCE AND TECHNOLOGY: KAZUO KITAURA
     MICHIGAN STATE UNIVERSITY:
          KAROL KOWALSKI, MARTA WLOCH, JEFFREY GOUR, JESSE LUTZ,
          WEI LI, PIOTR PIECUCH
     UNIVERSITY OF SILESIA: MONIKA MUSIAL, STANISLAW KUCHARSKI
     FACULTES UNIVERSITAIRES NOTRE-DAME DE LA PAIX:
          OLIVIER QUINET, BENOIT CHAMPAGNE
     UNIVERSITY OF CALIFORNIA - SANTA BARBARA: BERNARD KIRTMAN
     INSTITUTE FOR MOLECULAR SCIENCE:
          KAZUYA ISHIMURA, MICHIO KATOUDA, AND SHIGERU NAGASE
     UNIVERSITY OF NOTRE DAME: ANNA POMOGAEVA, DAN CHIPMAN
     KYUSHU UNIVERSITY:
          HARUYUKI NAKANO,
          FENG LONG GU, JACEK KORCHOWIEC, MARCIN MAKOWSKI, AND YURIKO AOKI,
          HIROTOSHI MORI AND EISAKU MIYOSHI
     PENNSYLVANIA STATE UNIVERSITY:
          TZVETELIN IORDANOV, CHET SWALINA, JONATHAN SKONE,
          SHARON HAMMES-SCHIFFER
     WASEDA UNIVERSITY:
          MASATO KOBAYASHI, TOMOKO AKAMA, TSUGUKI TOUMA,
          TAKESHI YOSHIKAWA, YASUHIRO IKABATA, JUNJI SEINO,
          YUYA NAKAJIMA, HIROMI NAKAI
     NANJING UNIVERSITY: SHUHUA LI
     UNIVERSITY OF NEBRASKA:
          PEIFENG SU, DEJUN SI, NANDUN THELLAMUREGE, YALI WANG, HUI LI
     UNIVERSITY OF ZURICH: ROBERTO PEVERATI, KIM BALDRIDGE
     N. COPERNICUS UNIVERSITY AND JACKSON STATE UNIVERSITY:
          MARIA BARYSZ
     UNIVERSITY OF COPENHAGEN: Jimmy Kromann, CASPER STEINMANN
     TOKYO INSTITUTE OF TECHNOLOGY: HIROYA NAKATA
     NAGOYA UNIVERSITY: YOSHIO NISHIMOTO, STEPHAN IRLE
     MOSCOW STATE UNIVERSITY: VLADIMIR MIRONOV

 EXECUTION OF GAMESS BEGUN Wed Aug  9 20:22:11 2017

            ECHO OF THE FIRST FEW INPUT CARDS -
 INPUT CARD>!   optimization of water dimer...af= ab initio acceptor/fragment donor         
 INPUT CARD>!   parameters from Ivana, for DFT usage.                                       
 INPUT CARD>!                                                                               
 INPUT CARD>!      nserch=0:  FINAL E= -76.4153146204, R.M.S.=  0.0115000                   
 INPUT CARD>!      nserch=13: FINAL E= -76.4169418899, R.M.S.=  0.0000014                   
 INPUT CARD>!                                                                               
 INPUT CARD>!   This run takes 55 seconds on 2.66 GHz Cloverton (26 Oct 2015)               
 INPUT CARD>!                                                                               
 INPUT CARD> $contrl scftyp=rhf dfttyp=b3lyp runtyp=optimize units=bohr $end                
 INPUT CARD> $system mwords=3 $end                                                          
 INPUT CARD> $statpt opttol=1d-5 nstep=25 $end                                              
 INPUT CARD> $data                                                                          
 INPUT CARD>this is the ab initio water...in donor position                                 
 INPUT CARD>C1                                                                              
 INPUT CARD>O      8.0           -.1191510        .0000000        .0000000                  
 INPUT CARD>S   8                                                                           
 INPUT CARD>  1        11720.00000         0.7100000000E-03                                 
 INPUT CARD>  2        1759.000000         0.5470000000E-02                                 
 INPUT CARD>  3        400.8000000         0.2783700000E-01                                 
 INPUT CARD>  4        113.7000000         0.1048000000                                     
 INPUT CARD>  5        37.03000000         0.2830620000                                     
 INPUT CARD>  6        13.27000000         0.4487190000                                     
 INPUT CARD>  7        5.025000000         0.2709520000                                     
 INPUT CARD>  8        1.013000000         0.1545800000E-01                                 
 INPUT CARD> S   8                                                                          
 INPUT CARD>  1        11720.00000        -0.1600000000E-03                                 
 INPUT CARD>  2        1759.000000        -0.1263000000E-02                                 
 INPUT CARD>  3        400.8000000        -0.6267000000E-02                                 
 INPUT CARD>  4        113.7000000        -0.2571600000E-01                                 
 INPUT CARD>  5        37.03000000        -0.7092400000E-01                                 
 INPUT CARD>  6        13.27000000        -0.1654110000                                     
 INPUT CARD>  7        5.025000000        -0.1169550000                                     
 INPUT CARD>  8        1.013000000         0.5573680000                                     
 INPUT CARD> S   1                                                                          
 INPUT CARD>  1       0.3023000000          1.000000000                                     
 INPUT CARD> P   3                                                                          
 INPUT CARD>  1        17.70000000         0.4301800000E-01                                 
 INPUT CARD>  2        3.854000000         0.2289130000                                     
 INPUT CARD>  3        1.046000000         0.5087280000                                     
 INPUT CARD> P   1                                                                          
 INPUT CARD>  1       0.2753000000          1.000000000                                     
 INPUT CARD> D   1                                                                          
 INPUT CARD>  1        1.185000000          1.000000000                                     
 INPUT CARD> S   1                                                                          
 INPUT CARD>  1       0.789600000E-01      1.00000000                                       
 INPUT CARD> P   1                                                                          
 INPUT CARD>  1       0.685600000E-01      1.00000000                                       
 INPUT CARD> D   1                                                                          
 INPUT CARD>  1       0.332000000          1.00000000                                       
 INPUT CARD>                                                                                
    3000000 WORDS OF MEMORY AVAILABLE


     RUN TITLE
     ---------
 this is the ab initio water...in donor position                                 

 THE POINT GROUP OF THE MOLECULE IS C1      
 THE ORDER OF THE PRINCIPAL AXIS IS     0
 *** WARNING! ATOM   1 SHELL    1 TYPE S HAS NORMALIZATION   0.99950133
 *** WARNING! ATOM   1 SHELL    2 TYPE S HAS NORMALIZATION   1.96527132
 *** WARNING! ATOM   1 SHELL    4 TYPE P HAS NORMALIZATION   1.45704510
 *** WARNING! ATOM   2 SHELL   10 TYPE S HAS NORMALIZATION   1.70173870
 *** WARNING! ATOM   3 SHELL   15 TYPE S HAS NORMALIZATION   1.70173870

 ATOM      ATOMIC                      COORDINATES (BOHR)
           CHARGE         X                   Y                   Z
 O           8.0    -0.1191510000        0.0000000000        0.0000000000
 H           1.0     0.9455100000       -1.4310420000        0.0000000000
 H           1.0     0.9455100000        1.4310420000        0.0000000000

          INTERNUCLEAR DISTANCES (ANGS.)
          ------------------------------

                1 O          2 H          3 H     

   1 O       0.0000000    0.9438636 *  0.9438636 *
   2 H       0.9438636 *  0.0000000    1.5145497 *
   3 H       0.9438636 *  1.5145497 *  0.0000000  

  * ... LESS THAN  3.000


     ATOMIC BASIS SET
     ----------------
 THE CONTRACTED PRIMITIVE FUNCTIONS HAVE BEEN UNNORMALIZED
 THE CONTRACTED BASIS FUNCTIONS ARE NOW NORMALIZED TO UNITY

  SHELL TYPE  PRIMITIVE        EXPONENT          CONTRACTION COEFFICIENT(S)

 O         

      1   S       1         11720.0000000    0.000709645947
      1   S       2          1759.0000000    0.005467272292
      1   S       3           400.8000000    0.027823118610
      1   S       4           113.7000000    0.104747739711
      1   S       5            37.0300000    0.282920846357
      1   S       6            13.2700000    0.448495238698
      1   S       7             5.0250000    0.270816885213
      1   S       8             1.0130000    0.015450291607

      2   S       9         11720.0000000   -0.000314443412
      2   S      10          1759.0000000   -0.002482137681
      2   S      11           400.8000000   -0.012316355382
      2   S      12           113.7000000   -0.050538917344
      2   S      13            37.0300000   -0.139384903316
      2   S      14            13.2700000   -0.325077494818
      2   S      15             5.0250000   -0.229848307588
      2   S      16             1.0130000    1.095379346788

      3   S      17             0.3023000    1.000000000000

      4   P      18            17.7000000    0.062679166282
      4   P      19             3.8540000    0.333536565879
      4   P      20             1.0460000    0.741239641640

      5   P      21             0.2753000    1.000000000000

      6   D      22             1.1850000    1.000000000000

      7   S      23             0.0789600    1.000000000000

      8   P      24             0.0685600    1.000000000000

      9   D      25             0.3320000    1.000000000000

 H         

     10   S      26            13.0100000    0.033498726390
     10   S      27             1.9620000    0.234800801174
     10   S      28             0.4446000    0.813682957883

     11   S      29             0.1220000    1.000000000000

     12   P      30             0.7270000    1.000000000000

     13   S      31             0.0297400    1.000000000000

     14   P      32             0.1410000    1.000000000000

 H         

     15   S      33            13.0100000    0.033498726390
     15   S      34             1.9620000    0.234800801174
     15   S      35             0.4446000    0.813682957883

     16   S      36             0.1220000    1.000000000000

     17   P      37             0.7270000    1.000000000000

     18   S      38             0.0297400    1.000000000000

     19   P      39             0.1410000    1.000000000000

 TOTAL NUMBER OF BASIS SET SHELLS             =   19
 NUMBER OF CARTESIAN GAUSSIAN BASIS FUNCTIONS =   43
 NUMBER OF ELECTRONS                          =   10
 CHARGE OF MOLECULE                           =    0
 SPIN MULTIPLICITY                            =    1
 NUMBER OF OCCUPIED ORBITALS (ALPHA)          =    5
 NUMBER OF OCCUPIED ORBITALS (BETA )          =    5
 TOTAL NUMBER OF ATOMS                        =    3
 THE NUCLEAR REPULSION ENERGY IS        9.3197980295

     LEBEDEV GRID-BASED DFT OPTIONS
     ------------------------------
     DFTTYP=B3LYP   
     NRAD  =      96     NLEB  =     302
     NRAD0 =      24     NLEB0 =     110
     SWOFF =    5.00E-03 (PURE SCF -> DFT)
     SWITCH=    3.00E-04 (COARSE -> TIGHT GRID)
     THRESH=    0.00E+00 GTHRE=    1.00E+00

 GRIMME'S EMPIRICAL DISPERSION CORRECTION= F

     $CONTRL OPTIONS
     ---------------
 SCFTYP=RHF          RUNTYP=OPTIMIZE     EXETYP=RUN     
 MPLEVL=       0     CITYP =NONE         CCTYP =NONE         VBTYP =NONE    
 DFTTYP=B3LYP        TDDFT =NONE    
 MULT  =       1     ICHARG=       0     NZVAR =       0     COORD =UNIQUE  
 PP    =NONE         RELWFN=NONE         LOCAL =NONE         NUMGRD=       F
 ISPHER=      -1     NOSYM =       0     MAXIT =      30     UNITS =BOHR    
 PLTORB=       F     MOLPLT=       F     AIMPAC=       F     FRIEND=        
 NPRINT=       7     IREST =       0     GEOM  =INPUT   
 NORMF =       0     NORMP =       0     ITOL  =      20     ICUT  =       9
 INTTYP=BEST         GRDTYP=BEST         QMTTOL= 1.0E-06

     $SYSTEM OPTIONS
     ---------------
  REPLICATED MEMORY=     3000000 WORDS (ON EVERY NODE).
 DISTRIBUTED MEMDDI=           0 MILLION WORDS IN AGGREGATE,
 MEMDDI DISTRIBUTED OVER   1 PROCESSORS IS           0 WORDS/PROCESSOR.
 TOTAL MEMORY REQUESTED ON EACH PROCESSOR=     3000000 WORDS.
 TIMLIM=      525600.00 MINUTES, OR     365.0 DAYS.
 PARALL= F  BALTYP=  DLB     KDIAG=    0  COREFL= F
 MXSEQ2=     300 MXSEQ3=     150  mem10=         0

 READING $EFRAG GROUP
 COORD=CART      POSITION=OPTIMIZE  POLMETHD=FRGSCF   NBUFFMO=0
 READING COORDINATES OF FRAGMENT   1 NAMED   WATER 
 FINISHED READING $EFRAG GROUP,   1 FRAGMENTS WILL BE USED.

 READING POTENTIAL PARAMETERS FOR FRAGMENT    1 FROM GROUP $WATER 


     SUMMARY OF THE EFFECTIVE FRAGMENT POTENTIAL MODEL CHOSEN
     --------------------------------------------------------
 TOTAL NUMBER OF MULTIPOLE POINTS   =         5  (EFP1/EFP2 ELECTROSTATICS)
 TOTAL NUMBER OF POLARIZABLE POINTS =         5  (EFP1/EFP2 INDUCTION)
 TOTAL NUMBER OF L-J POINTS         =         0  (REPULSION AND DISPERSION)
 TOTAL NUMBER OF REPULSIVE POINTS   =         3  (EFP1 REPULSION/ETC.)

 THIS IS A -EFP1- TYPE RUN, WITH PAULI REPULSION, CHARGE TRANSFER, AND
 HIGHER ORDER EFFECTS COLLECTED IN A FITTED REPULSIVE POTENTIAL.

 OPTIONS FOR EFP SCREENING:
     ELECTROSTATIC AB INITIO-EFP GAUSSIAN SCREENING IS ON
     ELECTROSTATIC EFP-EFP SCREENING CHOICE IS NO ELECTROSTATIC SCREENING
     POLARIZATION EFP-EFP SCREENING IS OFF

     $EWALD OPTIONS
     -----------

     IFEWLD   =        F         TINFOIL        =        T
     BETA    =    0.200         ELECTRIC CONST =     1.00
     EPSILON =     1.00         CUT_OFF        = 0.10E+04
     CUTLIST =  1000.00         LEVEL          =    1
     KMAX    =       10         EWLDPL         =        F

            MULTIPOLE COORDINATES, ELECTRONIC AND NUCLEAR CHARGES

                  X              Y              Z           ELEC.   NUC.
 O1        -2.7894534000   0.0000000000  -5.0199236000   -7.39824    8.0
 H2        -1.8683651882   0.0000000000  -3.4925137805   -0.75903    1.0
 H3        -4.5171505728   0.0000000000  -4.5767004847   -0.75903    1.0
 BO21      -2.3289092941   0.0000000000  -4.2562186902   -0.54185    0.0
 BO31      -3.6533019864   0.0000000000  -4.7983120424   -0.54185    0.0

   CHARGE SCREENING PARAMETERS (COEF AND ZETA)
   ICHGP=   1 AI-FRAGMENT SCREENING= 1   FRAGMENT-FRAGMENT SCREENING= 0

             GAUSSIAN DAMPING    EXPONENTIAL DAMPING
 O1         0.04734   0.27401      0.00000   0.00000
 H2         0.46793   1.12655      0.00000   0.00000
 H3         0.46793   1.12655      0.00000   0.00000
 BO21       0.01995   0.10159      0.00000   0.00000
 BO31       0.01995   0.10159      0.00000   0.00000

   SCREENING FOR POLARIZATION WITH EXPONENTIAL FORMULA  OFF

   SCREENING FOR POLARIZATION WITH TANG-TOENNIS FORMULA  OFF

                  DIPOLE MOMENTS AND THE SECOND MOMENT TENSOR

                  X        Y        Z           XX/XY    YY/XZ    ZZ/YZ
 O1           -0.35148  0.00000  0.85870     -2.96990 -4.14442 -3.29104
                                              0.00000  0.15790  0.00000
 H2            0.08897  0.00000  0.08767     -0.52808 -0.53009 -0.52540
                                              0.00000 -0.00203  0.00000
 H3           -0.12491  0.00000  0.00012     -0.52879 -0.53009 -0.52468
                                              0.00000 -0.00130  0.00000
 BO21         -0.08465  0.00000 -0.16706     -0.12182 -0.29045 -0.08783
                                              0.00000  0.11864  0.00000
 BO31          0.17749  0.00000 -0.05976      0.01351 -0.29045 -0.22317
                                              0.00000 -0.01898  0.00000

                  THE THIRD MOMENT TENSOR

               XXX/XYY  YYY/YYZ  ZZZ/XZZ  XXY/YZZ  XXZ/XYZ
 O1           -1.02012  0.00000  2.29575  0.00000  0.80439
              -0.28918  0.70649 -0.24881  0.00000  0.00000
 H2            0.25458  0.00000  0.18736  0.00000  0.06238
               0.08492  0.06356  0.08296  0.00000  0.00000
 H3           -0.31081  0.00000 -0.04296  0.00000 -0.01565
              -0.10511 -0.01422 -0.10497  0.00000  0.00000
 BO21         -0.30172  0.00000 -0.63856  0.00000 -0.22792
              -0.08367 -0.18698 -0.14421  0.00000  0.00000
 BO31          0.72486  0.00000 -0.21293  0.00000 -0.09221
               0.19076 -0.07466  0.20063  0.00000  0.00000

                  POLARIZABLE POINTS AND THE POLARIZABILITY TENSOR

              X       Y       Z       XX/YZ    YY/YX    ZZ/ZX    XY/ZY     XZ
 CT1      -2.7896  0.0000 -5.0195   0.00433  0.00576  0.00395  0.00000  0.00018
                                    0.00000  0.00000  0.00018 -0.00000
 CT2      -3.7165 -0.0000 -4.7381   2.78139  1.18854  1.43297  0.00006 -0.91047
                                   -0.00021  0.00069 -0.26160 -0.00002
 CT3      -2.3261 -0.0000 -4.1689   1.53288  1.18854  2.68192  0.00003  1.00856
                                   -0.00005  0.00030  0.35966  0.00003
 CT4      -2.6916 -0.4943 -5.2590   2.69852  3.21995  2.54521 -0.27028  0.07564
                                    0.10124 -0.04066  0.07544  0.66041
 CT5      -2.6916  0.4943 -5.2590   2.69862  3.22021  2.54521  0.27020  0.07545
                                   -0.10046  0.04189  0.07540 -0.66044

                    --------------                     ------------------
                      REP POINTS                         REP PARAMETERS  
                    --------------                     ------------------

                X         Y         Z               COEF       N          ZETA

  O1        -2.78945   0.00000  -5.01992        -0.11674       0       0.23037
                                                 1.31901       0       0.37696
  H2        -1.86837   0.00000  -3.49251         0.00010       0       0.09000
                                                 0.14666       0       0.65735
  H3        -4.51715   0.00000  -4.57670         0.00010       0       0.09000
                                                 0.14666       0       0.65735

          ----------------
          PROPERTIES INPUT
          ----------------

     MOMENTS            FIELD           POTENTIAL          DENSITY
 IEMOM =       1   IEFLD =       0   IEPOT =       0   IEDEN =       0
 WHERE =COMASS     WHERE =NUCLEI     WHERE =NUCLEI     WHERE =NUCLEI  
 OUTPUT=BOTH       OUTPUT=BOTH       OUTPUT=BOTH       OUTPUT=BOTH    
 IEMINT=       0   IEFINT=       0                     IEDINT=       0
                                                       MORB  =       0
          EXTRAPOLATION IN EFFECT
          DIIS IN EFFECT
 ORBITAL PRINTING OPTION: NPREO=     1    43     2     1

     -------------------------------
     INTEGRAL TRANSFORMATION OPTIONS
     -------------------------------
     NWORD  =            0
     CUTOFF = 1.0E-09     MPTRAN =       0
     DIRTRF =       F     AOINTS =DUP     

          ----------------------
          INTEGRAL INPUT OPTIONS
          ----------------------
 NOPK  =       1 NORDER=       0 SCHWRZ=       F

     ------------------------------------------
     THE POINT GROUP IS C1 , NAXIS= 0, ORDER= 1
     ------------------------------------------

     DIMENSIONS OF THE SYMMETRY SUBSPACES ARE
 A   =   43

 ..... DONE SETTING UP THE RUN .....
 STEP CPU TIME =     0.02 TOTAL CPU TIME =        0.0 (    0.0 MIN)
 TOTAL WALL CLOCK TIME=        0.0 SECONDS, CPU UTILIZATION IS  50.00%


          -----------------------------
          STATIONARY POINT LOCATION RUN
          -----------------------------

 OBTAINING INITIAL HESSIAN, HESS=GUESS   
 CARTESIAN COORDINATE OPTIMIZATION USING BADGER'S RULE FORCE CONSTANT GUESS
 DIAGONAL GUESS HESSIAN FOR FRAGMENTS(TRANS)=  0.0300
 DIAGONAL GUESS HESSIAN FOR FRAGMENTS(ROT)  =  0.0100

          PARAMETERS CONTROLLING GEOMETRY SEARCH ARE
          METHOD =QA                  UPHESS =BFGS    
          NNEG   =         0          NFRZ   =         0
          NSTEP  =        25          IFOLOW =         1
          HESS   =GUESS               RESTAR =         F
          IHREP  =         0          HSSEND =         F
          NPRT   =         0          NPUN   =         0
          OPTTOL = 1.000E-05          RMIN   = 1.500E-03
          RMAX   = 1.000E-01          RLIM   = 7.000E-02
          DXMAX  = 3.000E-01          PURIFY =         F
          MOVIE  =         F          TRUPD  =         T
          TRMAX  = 5.000E-01          TRMIN  = 5.000E-02
          ITBMAT =         5          STPT   =         F
          STSTEP = 1.000E-02          PROJCT=          T

 BEGINNING GEOMETRY SEARCH POINT NSERCH=   0 ...

 COORDINATES OF ALL ATOMS ARE (ANGS)
   ATOM   CHARGE       X              Y              Z
 ------------------------------------------------------------
 O           8.0  -0.0630519984   0.0000000000   0.0000000000
 H           1.0   0.5003423809  -0.7572748691   0.0000000000
 H           1.0   0.5003423809   0.7572748691   0.0000000000
 COORDINATES OF FRAGMENT MULTIPOLE CENTERS (ANGS)
 MULTIPOLE NAME        X              Y              Z
 ------------------------------------------------------------
 FRAGNAME=WATER 
 O1               -1.4761152771   0.0000000000  -2.6564293620
 H2               -0.9886963509   0.0000000000  -1.8481588353
 H3               -2.3903733145   0.0000000000  -2.4218857731

          ********************
          1 ELECTRON INTEGRALS
          ********************
 TIME TO DO ORDINARY INTEGRALS=      0.00
 TIME TO DO FRAGMENT INTEGRALS=      0.02
 ...... END OF ONE-ELECTRON INTEGRALS ......
 STEP CPU TIME =     0.02 TOTAL CPU TIME =        0.0 (    0.0 MIN)
 TOTAL WALL CLOCK TIME=        0.0 SECONDS, CPU UTILIZATION IS  80.00%

          -------------
          GUESS OPTIONS
          -------------
          GUESS =HUCKEL            NORB  =       0          NORDER=       0
          MIX   =       F          PRTMO =       F          PUNMO =       F
          TOLZ  = 1.0E-08          TOLE  = 1.0E-05
          SYMDEN=       F          PURIFY=       F

 INITIAL GUESS ORBITALS GENERATED BY HUCKEL   ROUTINE.
 HUCKEL GUESS REQUIRES     15976 WORDS.

 SYMMETRIES FOR INITIAL GUESS ORBITALS FOLLOW.   BOTH SET(S).
     5 ORBITALS ARE OCCUPIED (    1 CORE ORBITALS).
     2=A        3=A        4=A        5=A        6=A        7=A        8=A   
     9=A       10=A       11=A       12=A       13=A       14=A       15=A   
 ...... END OF INITIAL ORBITAL SELECTION ......
 STEP CPU TIME =     0.00 TOTAL CPU TIME =        0.0 (    0.0 MIN)
 TOTAL WALL CLOCK TIME=        0.0 SECONDS, CPU UTILIZATION IS  80.00%

                    ----------------------
                    AO INTEGRAL TECHNOLOGY
                    ----------------------
     S,P,L SHELL ROTATED AXIS INTEGRALS, REPROGRAMMED BY
        KAZUYA ISHIMURA (IMS) AND JOSE SIERRA (SYNSTAR).
     S,P,D,L SHELL ROTATED AXIS INTEGRALS PROGRAMMED BY
        KAZUYA ISHIMURA (INSTITUTE FOR MOLECULAR SCIENCE).
     S,P,D,F,G SHELL TO TOTAL QUARTET ANGULAR MOMENTUM SUM 5,
        ERIC PROGRAM BY GRAHAM FLETCHER (ELORET AND NASA ADVANCED
        SUPERCOMPUTING DIVISION, AMES RESEARCH CENTER).
     S,P,D,F,G,L SHELL GENERAL RYS QUADRATURE PROGRAMMED BY
        MICHEL DUPUIS (PACIFIC NORTHWEST NATIONAL LABORATORY).

          --------------------
          2 ELECTRON INTEGRALS
          --------------------

 THE -PK- OPTION IS OFF, THE INTEGRALS ARE NOT IN SUPERMATRIX FORM.
 STORING   15000 INTEGRALS/RECORD ON DISK, USING 12 BYTES/INTEGRAL.
 TWO ELECTRON INTEGRAL EVALUATION REQUIRES   90586 WORDS OF MEMORY.
 II,JST,KST,LST =  1  1  1  1 NREC =         1 INTLOC =    1
 II,JST,KST,LST =  2  1  1  1 NREC =         1 INTLOC =    2
 II,JST,KST,LST =  3  1  1  1 NREC =         1 INTLOC =    7
 II,JST,KST,LST =  4  1  1  1 NREC =         1 INTLOC =   22
 II,JST,KST,LST =  5  1  1  1 NREC =         1 INTLOC =   67
 II,JST,KST,LST =  6  1  1  1 NREC =         1 INTLOC =  214
 II,JST,KST,LST =  7  1  1  1 NREC =         1 INTLOC = 1189
 II,JST,KST,LST =  8  1  1  1 NREC =         1 INTLOC = 1589
 II,JST,KST,LST =  9  1  1  1 NREC =         1 INTLOC = 2864
 II,JST,KST,LST = 10  1  1  1 NREC =         1 INTLOC = 7967
 II,JST,KST,LST = 11  1  1  1 NREC =         1 INTLOC =12848
 II,JST,KST,LST = 12  1  1  1 NREC =         2 INTLOC = 3377
 II,JST,KST,LST = 13  1  1  1 NREC =         3 INTLOC = 7504
 II,JST,KST,LST = 14  1  1  1 NREC =         4 INTLOC =  829
 II,JST,KST,LST = 15  1  1  1 NREC =         5 INTLOC =13738
 II,JST,KST,LST = 16  1  1  1 NREC =         6 INTLOC =10582
 II,JST,KST,LST = 17  1  1  1 NREC =         7 INTLOC = 8568
 II,JST,KST,LST = 18  1  1  1 NREC =        10 INTLOC = 5557
 II,JST,KST,LST = 19  1  1  1 NREC =        11 INTLOC = 8171
 TOTAL NUMBER OF NONZERO TWO-ELECTRON INTEGRALS =              214113
         15 INTEGRAL RECORDS WERE STORED ON DISK FILE  8.
  ...... END OF TWO-ELECTRON INTEGRALS .....
 STEP CPU TIME =     0.04 TOTAL CPU TIME =        0.1 (    0.0 MIN)
 TOTAL WALL CLOCK TIME=        0.1 SECONDS, CPU UTILIZATION IS  80.00%

 EFP ADDITIVE CONTRIBUTIONS TO THE "NUCLEAR ENERGY":
   -- NUCLEAR CHARGE - NUCLEAR CHARGE   =        9.3197980295
   -- NUCLEAR CHARGE - EFP CHARGE       =        0.0167954676
   -- NUCLEAR CHARGE - EFP DIPOLE       =        0.1610753616
   -- NUCLEAR CHARGE - EFP QUADRUPOLE   =        0.0510846086
   -- NUCLEAR CHARGE - EFP OCTUPOLE     =       -0.0008446482
 THE TOTAL NUCLEAR CHARGE/EFP ENERGY    =        9.5479088191

          --------------------------
             R-B3LYP SCF CALCULATION
          --------------------------

     NUCLEAR ENERGY =         9.5479088191
     MAXIT =   30     NPUNCH=    2
     EXTRAP=T  DAMP=F  SHIFT=F  RSTRCT=F  DIIS=T  DEM=F  SOSCF=F
         DENSITY MATRIX CONVERGENCE THRESHOLD=  1.00E-05
     COARSE -> FINE DFT GRID SWITCH THRESHOLD=  3.00E-04 (SWITCH IN $DFT)
                   HF -> DFT SWITCH THRESHOLD=  5.00E-03 (SWOFF IN $DFT)
     MEMORY REQUIRED FOR RHF ITERS=    181689 WORDS.

 DFT CODE IS SWITCHING FROM THE FINE GRID NRAD= 96,  NLEB=  302
                      TO THE COARSE GRID NRAD0= 24, NLEB0=  110

     EXCHANGE FUNCTIONAL   =B88&HFX   
     CORRELATION FUNCTIONAL=LYP88&VWN5
     DFT THRESHOLD         =.460E-07
     GRID CHANGE THRESHOLD =.300E-03
 FOR AN EULER-MACLAURIN QUADRATURE USING  96 RADIAL POINTS:
 SMALLEST GAUSSIAN PRIMITIVE EXPONENT=        0.0297400000 OF TYPE -S-
 ON ATOM NUMBER   2 HAS RADIAL NORMALIZATION=  1.000000
  LARGEST GAUSSIAN PRIMITIVE EXPONENT=    11720.0000000000 OF TYPE -S-
 ON ATOM NUMBER   1 HAS RADIAL NORMALIZATION=  1.000000
 DFT IS SWITCHED OFF, PERFORMING PURE SCF UNTIL SWOFF THRESHOLD IS REACHED.

 ITER EX DEM     TOTAL ENERGY        E CHANGE  DENSITY CHANGE    DIIS ERROR
   1  0  0      -75.7649397392   -75.7649397392   0.257750057   0.533414218
          * * *   INITIATING DIIS PROCEDURE   * * *
   2  1  0      -76.0332815948    -0.2683418557   0.059909367   0.078258620
   3  2  0      -76.0482832639    -0.0150016690   0.023729665   0.030620623
   4  3  0      -76.0500695771    -0.0017863132   0.012085945   0.014208017
   5  4  0      -76.0502892012    -0.0002196241   0.003694488   0.003608383
 CONVERGED TO SWOFF, SO DFT CALCULATION IS NOW SWITCHED ON.
          * * *   INITIATING DIIS PROCEDURE   * * *
   6  5  0      -76.4088728297    -0.3585836284   0.074907891   0.076171658
   7  6  0      -76.4145352670    -0.0056624373   0.009396525   0.005604232
   8  7  0      -76.4145018579     0.0000334090   0.005387513   0.007693975
   9  8  0      -76.4145790104    -0.0000771525   0.000833947   0.001564876
  10  9  0      -76.4145819808    -0.0000029704   0.000043099   0.000093741
 DFT CODE IS SWITCHING BACK TO THE FINE GRID
          * * *   INITIATING DIIS PROCEDURE   * * *
  11 10  0      -76.4153136329    -0.0007316521   0.000782563   0.000621027
  12 11  0      -76.4153145510    -0.0000009182   0.000298764   0.000199233
  13 12  0      -76.4153145187     0.0000000323   0.000174972   0.000273886
  14 13  0      -76.4153146192    -0.0000001005   0.000013338   0.000025890
  15 14  0      -76.4153146204    -0.0000000012   0.000001548   0.000002371
  16 15  0      -76.4153146204    -0.0000000000   0.000000106   0.000000148

          -----------------
          DENSITY CONVERGED
          -----------------
     TIME TO FORM FOCK OPERATORS=       2.1 SECONDS (       0.1 SEC/ITER)
     TIME TO SOLVE SCF EQUATIONS=       0.0 SECONDS (       0.0 SEC/ITER)

 FINAL R-B3LYP ENERGY IS      -76.4153146204 AFTER  16 ITERATIONS
 DFT EXCHANGE + CORRELATION ENERGY =        -7.5161561543
 TOTAL ELECTRON NUMBER             =         9.9999997992

          INDUCED DIPOLE     ATOMIC UNITS          DEBYE
                X(IND)            0.02756          0.07005
                Y(IND)            0.00001          0.00002
                Z(IND)            0.07785          0.19789

          ------------
          EIGENVECTORS
          ------------

                      1          2          3          4          5
                  -19.1770    -1.0492    -0.5685    -0.4181    -0.3460
                     A          A          A          A          A   
    1  O  1  S    1.004333  -0.025771   0.000001   0.001841  -0.001016
    2  O  1  S    0.013232   0.418479   0.000001  -0.163272   0.010051
    3  O  1  S   -0.001293   0.369249   0.000011  -0.345691   0.026619
    4  O  1  X    0.001176   0.112351  -0.000000   0.558458  -0.025013
    5  O  1  Y    0.000000   0.000000   0.518758   0.000000   0.000000
    6  O  1  Z   -0.000046  -0.002498  -0.000000   0.025452   0.631232
    7  O  1  X   -0.000354  -0.038066   0.000007   0.296182  -0.011757
    8  O  1  Y   -0.000000  -0.000005   0.132935  -0.000002   0.000000
    9  O  1  Z    0.000024  -0.003826   0.000000   0.020471   0.420991
   10  O  1 XX   -0.005169  -0.004833   0.000000   0.019701  -0.001093
   11  O  1 YY   -0.005113  -0.001508   0.000000  -0.000152  -0.000157
   12  O  1 ZZ   -0.005342  -0.016588   0.000000  -0.004957  -0.000455
   13  O  1 XY    0.000000  -0.000000   0.026539  -0.000000   0.000000
   14  O  1 XZ    0.000000  -0.000009  -0.000000   0.000350   0.014638
   15  O  1 YZ   -0.000000   0.000000  -0.000333   0.000000   0.000000
   16  O  1  S   -0.000229  -0.021979   0.000040  -0.141715  -0.020954
   17  O  1  X    0.000076  -0.003025   0.000008   0.042956  -0.008285
   18  O  1  Y   -0.000000  -0.000005   0.007516  -0.000003   0.000000
   19  O  1  Z    0.000000  -0.000527   0.000000   0.004475   0.086090
   20  O  1 XX    0.000993  -0.049488   0.000004   0.010102  -0.000262
   21  O  1 YY    0.001107  -0.067535   0.000006  -0.023976   0.002267
   22  O  1 ZZ    0.001178  -0.021365   0.000003   0.000177  -0.009144
   23  O  1 XY    0.000000  -0.000001  -0.047617  -0.000001   0.000000
   24  O  1 XZ    0.000003   0.000776   0.000000  -0.003979   0.013481
   25  O  1 YZ   -0.000000  -0.000000  -0.002140  -0.000000  -0.000000
   26  H  2  S   -0.000020   0.227369  -0.369513   0.205526  -0.008870
   27  H  2  S   -0.000653   0.057292  -0.141846   0.089670   0.005357
   28  H  2  X    0.000088  -0.020206   0.030564   0.006434  -0.000618
   29  H  2  Y   -0.000116   0.037002  -0.021207   0.024377  -0.001081
   30  H  2  Z    0.000001   0.000032  -0.000277   0.001119   0.027244
   31  H  2  S    0.000091   0.002239  -0.003259   0.009942   0.003176
   32  H  2  X    0.000305  -0.015794   0.014187   0.014131  -0.000176
   33  H  2  Y   -0.000186   0.020823  -0.024023   0.009530  -0.000433
   34  H  2  Z   -0.000007   0.000215   0.000105   0.000754   0.028051
   35  H  3  S   -0.000020   0.227373   0.369508   0.205529  -0.008870
   36  H  3  S   -0.000653   0.057316   0.141794   0.089676   0.005356
   37  H  3  X    0.000088  -0.020207  -0.030563   0.006434  -0.000618
   38  H  3  Y    0.000116  -0.037002  -0.021206  -0.024377   0.001081
   39  H  3  Z    0.000001   0.000032   0.000277   0.001119   0.027244
   40  H  3  S    0.000091   0.002247   0.003251   0.009946   0.003175
   41  H  3  X    0.000305  -0.015799  -0.014178   0.014130  -0.000176
   42  H  3  Y    0.000186  -0.020830  -0.024012  -0.009530   0.000433
   43  H  3  Z   -0.000007   0.000215  -0.000105   0.000754   0.028052

                      6          7          8          9         10
                   -0.0268     0.0213     0.0936     0.1188     0.1274
                     A          A          A          A          A   
    1  O  1  S    0.000721  -0.000000   0.018749  -0.024748  -0.015904
    2  O  1  S   -0.121965   0.000000  -0.005057  -0.157005  -0.129668
    3  O  1  S   -0.298547  -0.000028   0.290578  -0.272551   0.010825
    4  O  1  X   -0.139692   0.000002  -0.230646   0.030607  -0.064769
    5  O  1  Y    0.000000   0.160950   0.000009  -0.000001   0.000011
    6  O  1  Z   -0.001418  -0.000000   0.065755   0.163675  -0.185169
    7  O  1  X   -0.126470  -0.000017  -0.019219   0.081036   0.089948
    8  O  1  Y    0.000009   0.172406  -0.000034   0.000007  -0.000011
    9  O  1  Z   -0.001652  -0.000000   0.062414   0.181225  -0.221441
   10  O  1 XX    0.000321  -0.000000  -0.005075   0.005115   0.002301
   11  O  1 YY    0.007108  -0.000000   0.006527   0.004175   0.002912
   12  O  1 ZZ    0.005533   0.000000   0.007967  -0.007241  -0.003662
   13  O  1 XY    0.000000   0.001206  -0.000001   0.000000  -0.000000
   14  O  1 XZ   -0.001465   0.000000   0.004709   0.005902  -0.007711
   15  O  1 YZ    0.000000  -0.000379  -0.000000  -0.000000  -0.000000
   16  O  1  S   -0.337002  -0.000127   3.451967   0.805773   2.184796
   17  O  1  X    0.008872  -0.000033   1.524041  -0.770523  -0.110081
   18  O  1  Y    0.000017   0.498238  -0.000104   0.000023  -0.000085
   19  O  1  Z    0.068904  -0.000000  -0.384399  -0.759041   0.864886
   20  O  1 XX    0.016728  -0.000009   0.134492  -0.065347   0.004850
   21  O  1 YY    0.021556  -0.000013   0.150922  -0.036671   0.060375
   22  O  1 ZZ    0.014562  -0.000003   0.073001  -0.034704  -0.003331
   23  O  1 XY   -0.000000   0.007941  -0.000002   0.000002  -0.000001
   24  O  1 XZ    0.008109  -0.000000  -0.013521  -0.006247   0.014629
   25  O  1 YZ   -0.000000   0.001150   0.000000   0.000000  -0.000000
   26  H  2  S    0.054389   0.014008   0.006429   0.084045   0.064528
   27  H  2  S    0.218677   0.435056  -1.447676   0.324861  -0.405499
   28  H  2  X    0.010035   0.009566   0.020189   0.000707   0.011279
   29  H  2  Y   -0.017962  -0.007404  -0.028240  -0.010671  -0.023170
   30  H  2  Z    0.000849   0.000045  -0.001862  -0.004110   0.004673
   31  H  2  S    0.510890   2.406557  -0.730644  -0.395810  -0.653787
   32  H  2  X    0.031214  -0.027982   0.238001   0.141788   0.286685
   33  H  2  Y   -0.045717  -0.013176  -0.344019  -0.160782  -0.299365
   34  H  2  Z   -0.026289   0.002988   0.067885   0.056949  -0.049114
   35  H  3  S    0.054389  -0.013991   0.006428   0.084042   0.064522
   36  H  3  S    0.218586  -0.434916  -1.447235   0.324793  -0.405270
   37  H  3  X    0.010036  -0.009569   0.020183   0.000708   0.011275
   38  H  3  Y    0.017963  -0.007408   0.028234   0.010672   0.023166
   39  H  3  Z    0.000849  -0.000045  -0.001862  -0.004110   0.004673
   40  H  3  S    0.510847  -2.406530  -0.730451  -0.395850  -0.653568
   41  H  3  X    0.031227   0.027960   0.237929   0.141798   0.286631
   42  H  3  Y    0.045756  -0.013205   0.343823   0.160803   0.299258
   43  H  3  Z   -0.026289  -0.002987   0.067883   0.056948  -0.049114

                     11         12         13         14         15
                    0.1465     0.1732     0.2091     0.2652     0.2815
                     A          A          A          A          A   
    1  O  1  S    0.000002   0.000001  -0.009632  -0.000000  -0.040742
    2  O  1  S    0.000007   0.000001  -0.017660  -0.000000  -0.082297
    3  O  1  S    0.000060  -0.000026   0.152428   0.000005  -0.148002
    4  O  1  X    0.000016  -0.000008   0.107290   0.000002   0.202309
    5  O  1  Y    0.329807   0.079477  -0.000012  -0.003938  -0.000009
    6  O  1  Z    0.000006  -0.000002   0.014276  -0.000000  -0.006046
    7  O  1  X    0.000048  -0.000029   0.224983   0.000010   0.601135
    8  O  1  Y    0.037762   0.299970  -0.000060  -0.015065  -0.000068
    9  O  1  Z    0.000008  -0.000002   0.010849  -0.000001  -0.036311
   10  O  1 XX    0.000001  -0.000001   0.021941  -0.000000  -0.018123
   11  O  1 YY   -0.000000   0.000001  -0.031486   0.000000   0.020370
   12  O  1 ZZ   -0.000000  -0.000000   0.011015  -0.000000   0.001431
   13  O  1 XY   -0.006629  -0.021423  -0.000002  -0.000337  -0.000002
   14  O  1 XZ    0.000000   0.000000  -0.001797   0.000000  -0.000188
   15  O  1 YZ   -0.000349   0.000263  -0.000000  -0.035398   0.000000
   16  O  1  S    0.000198  -0.000218   4.695318   0.000045   3.763182
   17  O  1  X    0.000030  -0.000036   0.659837   0.000022   1.858540
   18  O  1  Y   -1.736930   2.418668   0.000085  -0.046738  -0.000004
   19  O  1  Z   -0.000020  -0.000000   0.035066   0.000000  -0.017338
   20  O  1 XX    0.000014  -0.000004  -0.054110   0.000002  -0.067855
   21  O  1 YY    0.000022  -0.000012   0.074995  -0.000000  -0.212608
   22  O  1 ZZ    0.000007   0.000001  -0.006854   0.000000  -0.105328
   23  O  1 XY   -0.049562   0.049057  -0.000001  -0.001718  -0.000003
   24  O  1 XZ    0.000001  -0.000001   0.011922  -0.000000   0.003247
   25  O  1 YZ   -0.000040  -0.004980   0.000000   0.075994  -0.000001
   26  H  2  S    0.073648   0.195595  -0.156290   0.001549  -0.064178
   27  H  2  S   -1.002844   2.049968  -2.330896  -0.086280  -1.780031
   28  H  2  X    0.028076   0.001318   0.028132   0.000222  -0.008657
   29  H  2  Y   -0.031991   0.023470   0.005952  -0.000665  -0.044970
   30  H  2  Z   -0.000071  -0.000951   0.001116   0.017028   0.001772
   31  H  2  S   -2.757708   1.425768  -0.369264  -0.031391  -0.296549
   32  H  2  X    0.540195   0.123584   0.427210   0.019202  -0.843418
   33  H  2  Y   -0.529612   0.032845   0.293181  -0.021533  -0.250585
   34  H  2  Z   -0.000778   0.000451  -0.031964   1.099540   0.045635
   35  H  3  S   -0.073694  -0.195566  -0.156290  -0.001552  -0.064171
   36  H  3  S    1.002522  -2.049722  -2.330435   0.086229  -1.779384
   37  H  3  X   -0.028071  -0.001322   0.028126  -0.000222  -0.008664
   38  H  3  Y   -0.031986   0.023468  -0.005954  -0.000663   0.044965
   39  H  3  Z    0.000071   0.000951   0.001116  -0.017028   0.001773
   40  H  3  S    2.757742  -1.425747  -0.369496   0.031385  -0.296598
   41  H  3  X   -0.540170  -0.123606   0.427159  -0.019219  -0.843489
   42  H  3  Y   -0.529601   0.032845  -0.293456  -0.021516   0.250253
   43  H  3  Z    0.000772  -0.000445  -0.031972  -1.099539   0.045663

                     16         17         18         19         20
                    0.3244     0.4316     0.4646     0.5159     0.6186
                     A          A          A          A          A   
    1  O  1  S   -0.001684   0.000031   0.106846  -0.000021  -0.000002
    2  O  1  S   -0.000207   0.000086   0.339917  -0.000100   0.000009
    3  O  1  S    0.094810   0.000696   2.748594  -0.000718   0.000002
    4  O  1  X   -0.003754   0.000043   0.224215  -0.000099   0.000018
    5  O  1  Y   -0.000002   0.131643  -0.000134  -0.344630  -0.201429
    6  O  1  Z    0.150607  -0.000001  -0.000703  -0.000001   0.000001
    7  O  1  X    0.057564   0.000187   0.694224  -0.000131  -0.000024
    8  O  1  Y   -0.000014   0.237507  -0.000569  -1.441174   0.701328
    9  O  1  Z    0.579148  -0.000002  -0.003070  -0.000001  -0.000000
   10  O  1 XX   -0.001124   0.000003   0.005515   0.000001  -0.000001
   11  O  1 YY    0.001286  -0.000001  -0.012696   0.000010  -0.000003
   12  O  1 ZZ   -0.001399  -0.000002  -0.008920   0.000002   0.000000
   13  O  1 XY   -0.000000   0.017665  -0.000011  -0.010252   0.065585
   14  O  1 XZ   -0.018970   0.000000  -0.000131   0.000000  -0.000000
   15  O  1 YZ    0.000000  -0.000171   0.000000   0.001259  -0.000390
   16  O  1  S    0.432994   0.001654   7.071046  -0.002073  -0.000017
   17  O  1  X    0.140381   0.000191   0.894179  -0.000275  -0.000021
   18  O  1  Y   -0.000004   2.364067  -0.001295  -2.142181   1.916840
   19  O  1  Z    1.349666  -0.000016  -0.039405  -0.000001   0.000003
   20  O  1 XX    0.007996   0.000162   0.553555  -0.000087  -0.000027
   21  O  1 YY    0.019317   0.000173   0.545959  -0.000029  -0.000061
   22  O  1 ZZ    0.000297   0.000148   0.559140  -0.000154   0.000015
   23  O  1 XY   -0.000001  -0.051272   0.000013   0.023333   0.655848
   24  O  1 XZ    0.000825   0.000001   0.006618  -0.000001  -0.000001
   25  O  1 YZ   -0.000000  -0.001306  -0.000002  -0.008243   0.010863
   26  H  2  S   -0.004192   0.000923  -0.210544  -0.208437  -0.436352
   27  H  2  S   -0.228001  -0.621826  -4.501242  -7.552035   4.696687
   28  H  2  X    0.001827   0.007733  -0.012995   0.010203  -0.139483
   29  H  2  Y   -0.007382   0.003973   0.022394   0.002814   0.112131
   30  H  2  Z   -0.014072   0.000086  -0.000212  -0.001502   0.001909
   31  H  2  S   -0.063304   1.079238  -0.661653  -1.500878   0.551510
   32  H  2  X    0.003618  -1.184088   1.424950   1.497415  -0.248541
   33  H  2  Y   -0.069569  -1.999506  -1.690299  -3.209493   1.058989
   34  H  2  Z   -1.187041   0.004287   0.018692  -0.013126   0.010381
   35  H  3  S   -0.004190  -0.001019  -0.210453   0.208551   0.436329
   36  H  3  S   -0.227858   0.619595  -4.496227   7.554376  -4.696546
   37  H  3  X    0.001825  -0.007732  -0.013015  -0.010170   0.139470
   38  H  3  Y    0.007382   0.003976  -0.022407   0.002864   0.112112
   39  H  3  Z   -0.014072  -0.000086  -0.000211   0.001502  -0.001909
   40  H  3  S   -0.063307  -1.079520  -0.660224   1.501339  -0.551545
   41  H  3  X    0.003602   1.184812   1.423388  -1.498182   0.248558
   42  H  3  Y    0.069497  -1.998673   1.689051  -3.210457   1.059032
   43  H  3  Z   -1.187041  -0.004270   0.018706   0.013130  -0.010384

                     21         22         23         24         25
                    0.7038     0.8767     0.8887     0.9343     1.0060
                     A          A          A          A          A   
    1  O  1  S    0.071803   0.016917  -0.080283   0.000000  -0.267326
    2  O  1  S   -0.000996   0.011444  -0.047299   0.000000  -0.156430
    3  O  1  S    0.925114   0.053305   0.722207   0.000001  -1.052730
    4  O  1  X   -0.054631   0.000614  -0.209895  -0.000001  -0.029513
    5  O  1  Y    0.000017   0.000000   0.000000   0.007171  -0.000007
    6  O  1  Z   -0.004826   0.273937  -0.002479  -0.000000  -0.020151
    7  O  1  X    0.338600  -0.001000   0.182646   0.000003  -0.254744
    8  O  1  Y    0.000088   0.000001   0.000003  -0.036729  -0.000002
    9  O  1  Z    0.006415  -0.078244  -0.008901   0.000000   0.057361
   10  O  1 XX    0.023324   0.003224  -0.005663   0.000000  -0.047263
   11  O  1 YY    0.060315   0.004680   0.020779   0.000000  -0.062587
   12  O  1 ZZ   -0.012288  -0.000480  -0.034795   0.000000  -0.019315
   13  O  1 XY    0.000002  -0.000000  -0.000000  -0.001394   0.000002
   14  O  1 XZ   -0.000440  -0.006719   0.000485   0.000000   0.001079
   15  O  1 YZ   -0.000000   0.000000  -0.000000   0.000359   0.000000
   16  O  1  S    5.654230  -0.004696   1.354252  -0.000006  -2.002397
   17  O  1  X    1.449795  -0.009761  -0.490167  -0.000001  -0.376147
   18  O  1  Y    0.000178   0.000000  -0.000004  -0.025894   0.000007
   19  O  1  Z   -0.017797   0.837431  -0.035113   0.000000   0.054760
   20  O  1 XX    0.530474   0.041225  -1.319814   0.000003  -1.182761
   21  O  1 YY    0.994953   0.052468   0.296208   0.000001  -0.835481
   22  O  1 ZZ   -0.147995   0.146222   0.205031   0.000003  -2.102000
   23  O  1 XY    0.000040   0.000001   0.000003  -0.001375  -0.000019
   24  O  1 XZ    0.015065   1.074147  -0.026294   0.000000   0.090754
   25  O  1 YZ    0.000003  -0.000001   0.000000   1.232406   0.000002
   26  H  2  S    0.529723   0.027944   0.130352   0.000222  -0.383385
   27  H  2  S   -4.214187  -0.105991  -0.660948  -0.114493   2.904581
   28  H  2  X    0.065436   0.002244   0.014700   0.004031  -0.033685
   29  H  2  Y   -0.146086  -0.005651  -0.111063  -0.002533   0.092454
   30  H  2  Z   -0.001674   0.013340   0.002454  -0.037482  -0.001969
   31  H  2  S   -0.216141   0.004124  -0.109629  -0.010748   0.000129
   32  H  2  X    0.477510   0.059383   0.607034   0.019467  -0.892160
   33  H  2  Y   -0.376963  -0.052753   0.113480  -0.040081   1.014295
   34  H  2  Z    0.003597  -0.601103   0.025140   0.801073  -0.061531
   35  H  3  S    0.529731   0.027943   0.130346  -0.000225  -0.383355
   36  H  3  S   -4.215509  -0.105997  -0.660960   0.114495   2.904629
   37  H  3  X    0.065442   0.002244   0.014700  -0.004031  -0.033679
   38  H  3  Y    0.146088   0.005651   0.111063  -0.002532  -0.092450
   39  H  3  Z   -0.001674   0.013340   0.002454   0.037482  -0.001968
   40  H  3  S   -0.216374   0.004124  -0.109625   0.010750   0.000136
   41  H  3  X    0.477652   0.059383   0.607033  -0.019467  -0.892148
   42  H  3  Y    0.377525   0.052756  -0.113467  -0.040079  -1.014350
   43  H  3  Z    0.003594  -0.601103   0.025139  -0.801074  -0.061533

                     26         27         28         29         30
                    1.0729     1.1782     1.2097     1.7268     1.7291
                     A          A          A          A          A   
    1  O  1  S   -0.154048   0.010384   0.000003   0.070273   0.000031
    2  O  1  S   -0.159072   0.005651   0.000002  -0.043972  -0.000018
    3  O  1  S    1.083902   0.025082   0.000038   2.409770   0.001047
    4  O  1  X   -0.667684   0.007404  -0.000011  -0.646052  -0.000282
    5  O  1  Y    0.000010   0.000004   0.597736   0.000095  -0.244041
    6  O  1  Z   -0.009267  -0.943053   0.000007   0.001281   0.000000
    7  O  1  X    1.384544  -0.000855   0.000062   2.138573   0.000937
    8  O  1  Y   -0.000016  -0.000014  -2.119410  -0.000257   0.650419
    9  O  1  Z    0.014482   1.670781  -0.000012  -0.006882  -0.000003
   10  O  1 XX    0.011909   0.000855  -0.000001  -0.039514  -0.000017
   11  O  1 YY    0.058729   0.000535  -0.000004  -0.115588  -0.000051
   12  O  1 ZZ   -0.061696   0.003284   0.000003   0.046220   0.000020
   13  O  1 XY   -0.000002  -0.000001  -0.090515   0.000033  -0.063016
   14  O  1 XZ    0.000630   0.007777  -0.000000   0.000625   0.000000
   15  O  1 YZ   -0.000000  -0.000000  -0.000583   0.000001  -0.003821
   16  O  1  S    3.186635   0.035364  -0.000099   4.881114   0.002119
   17  O  1  X    0.765499   0.003422  -0.000035   0.688436   0.000299
   18  O  1  Y   -0.000008  -0.000008  -1.310605  -0.000353   1.040735
   19  O  1  Z   -0.004355   0.216626  -0.000002  -0.007257  -0.000003
   20  O  1 XX    0.069370   0.037811   0.000026   1.123773   0.000493
   21  O  1 YY   -1.178585   0.040466   0.000087   2.412791   0.001054
   22  O  1 ZZ   -0.351749   0.083146  -0.000001   0.696184   0.000301
   23  O  1 XY    0.000017   0.000006   0.785020  -0.000351   0.658964
   24  O  1 XZ    0.008173   0.487591  -0.000003  -0.001618  -0.000001
   25  O  1 YZ   -0.000001  -0.000001  -0.007181  -0.000012   0.047478
   26  H  2  S    0.263418   0.006079   0.329287  -1.175831   0.419551
   27  H  2  S   -1.684569  -0.078515  -5.028531  -3.998278   0.623654
   28  H  2  X    0.169860  -0.000931   0.256517   0.053771   0.680196
   29  H  2  Y   -0.252572  -0.001374  -0.257404   0.340517   0.496601
   30  H  2  Z    0.001451  -0.013553   0.003326   0.004275   0.050227
   31  H  2  S   -0.208928   0.000958  -0.380476  -0.313951   0.482673
   32  H  2  X   -0.363111   0.033755   1.225595   0.992873  -0.603094
   33  H  2  Y   -0.402402  -0.030282  -1.386809  -1.190237  -0.460047
   34  H  2  Z   -0.004208  -0.675347  -0.006749   0.003878  -0.003679
   35  H  3  S    0.263397   0.006075  -0.329442  -1.175339  -0.420585
   36  H  3  S   -1.684549  -0.078455   5.028601  -3.998417  -0.627128
   37  H  3  X    0.169852  -0.000935  -0.256511   0.054370  -0.680152
   38  H  3  Y    0.252565   0.001370  -0.257416  -0.340937   0.496305
   39  H  3  Z    0.001451  -0.013553  -0.003326   0.004300  -0.050223
   40  H  3  S   -0.208936   0.000961   0.380497  -0.313669  -0.482945
   41  H  3  X   -0.363133   0.033740  -1.225578   0.992472   0.603955
   42  H  3  Y    0.402424   0.030267  -1.386807   1.190896  -0.459013
   43  H  3  Z   -0.004206  -0.675347   0.006759   0.003877   0.003682

                     31         32         33         34         35
                    1.7487     1.8309     2.1485     2.1512     2.3906
                     A          A          A          A          A   
    1  O  1  S    0.000001  -0.000585  -0.000017   0.000002   0.000001
    2  O  1  S   -0.000001  -0.000109  -0.049677   0.000023  -0.000002
    3  O  1  S    0.000024  -0.008030  -0.152636   0.000067  -0.000061
    4  O  1  X   -0.000007   0.004879  -0.253950   0.000101  -0.000019
    5  O  1  Y   -0.011730  -0.000000  -0.000397  -0.934170   0.130530
    6  O  1  Z    0.000000  -0.030682   0.000401  -0.000000  -0.000000
    7  O  1  X    0.000022  -0.011392   1.127017  -0.000469  -0.000037
    8  O  1  Y    0.037706   0.000001   0.000964   2.162700   3.719304
    9  O  1  Z   -0.000001  -0.781819  -0.002064   0.000001   0.000001
   10  O  1 XX   -0.000000   0.000827  -0.114016   0.000049   0.000002
   11  O  1 YY   -0.000001   0.000187   0.076573  -0.000034   0.000001
   12  O  1 ZZ    0.000000  -0.000661  -0.018140   0.000008  -0.000006
   13  O  1 XY   -0.003034  -0.000000  -0.000021  -0.042970  -0.390884
   14  O  1 XZ   -0.000000   0.061007   0.000019   0.000000   0.000000
   15  O  1 YZ    0.071704  -0.000000   0.000000   0.000322  -0.000676
   16  O  1  S    0.000050  -0.022577   0.272674  -0.000092  -0.000021
   17  O  1  X    0.000007  -0.002004   0.049466  -0.000018  -0.000007
   18  O  1  Y    0.057097  -0.000001   0.000240   0.539171   1.207103
   19  O  1  Z   -0.000000   0.187147   0.000825  -0.000000   0.000000
   20  O  1 XX    0.000011  -0.004785   1.500214  -0.000633  -0.000021
   21  O  1 YY    0.000024  -0.007113  -0.984716   0.000444   0.000028
   22  O  1 ZZ    0.000007  -0.008059   0.131738  -0.000051   0.000018
   23  O  1 XY    0.040890   0.000001   0.000343   0.759802   1.903639
   24  O  1 XZ   -0.000001  -0.682246   0.000177   0.000000   0.000000
   25  O  1 YZ   -0.912329   0.000001   0.000001   0.002693   0.002587
   26  H  2  S    0.025821   0.002735  -0.075486   0.781505   2.163715
   27  H  2  S    0.045685   0.019008  -0.210944   2.917459   4.384123
   28  H  2  X    0.035529   0.001517  -1.109445   0.232162  -0.603904
   29  H  2  Y    0.025363  -0.001411  -0.458396  -0.684017   0.426118
   30  H  2  Z   -0.959818   0.996218   0.001435   0.001034   0.000654
   31  H  2  S    0.027133   0.000829  -0.034247   0.402673   0.399685
   32  H  2  X   -0.032334  -0.004929  -0.023845  -0.611791  -0.559739
   33  H  2  Y   -0.017786   0.005808  -0.229574   1.299311   1.253428
   34  H  2  Z    0.071965  -0.094914  -0.000447   0.000570   0.000671
   35  H  3  S   -0.025845   0.002733  -0.076200  -0.781456  -2.163664
   36  H  3  S   -0.045767   0.019013  -0.213532  -2.917319  -4.384091
   37  H  3  X   -0.035528   0.001517  -1.109628  -0.231216   0.603907
   38  H  3  Y    0.025355   0.001410   0.457820  -0.684424   0.426036
   39  H  3  Z    0.959819   0.996217   0.001435  -0.001036  -0.000654
   40  H  3  S   -0.027139   0.000830  -0.034598  -0.402647  -0.399686
   41  H  3  X    0.032355  -0.004930  -0.023311   0.611823   0.559751
   42  H  3  Y   -0.017761  -0.005809   0.230716   1.299127   1.253431
   43  H  3  Z   -0.071964  -0.094915  -0.000448  -0.000570  -0.000672

                     36         37         38         39         40
                    2.5214     3.2640     3.2814     3.2973     3.5444
                     A          A          A          A          A   
    1  O  1  S    0.044323  -0.010171  -0.096463  -0.000000  -0.556174
    2  O  1  S    0.186165  -0.020621  -0.185828  -0.000000  -1.127608
    3  O  1  S    3.274168   0.016952   0.712778   0.000001  -0.983104
    4  O  1  X    0.403698   0.000600   0.043317  -0.000000  -0.219812
    5  O  1  Y   -0.000004   0.000000  -0.000000   0.001642   0.000004
    6  O  1  Z    0.001956   0.050801  -0.001684  -0.000000   0.000972
    7  O  1  X    2.124478  -0.008623   0.134557   0.000000  -1.323830
    8  O  1  Y    0.000141  -0.000000   0.000001   0.006506  -0.000007
    9  O  1  Z   -0.002679  -0.169055   0.004103   0.000000  -0.000249
   10  O  1 XX   -0.036625   0.023417   1.198177   0.000000   0.010135
   11  O  1 YY   -0.227315  -0.017196  -0.624559  -0.000000  -0.964996
   12  O  1 ZZ    0.335734  -0.003752  -0.572482   0.000000   1.048917
   13  O  1 XY   -0.000013   0.000000  -0.000000   0.002246   0.000009
   14  O  1 XZ    0.001215   1.193263  -0.022766  -0.000000  -0.008786
   15  O  1 YZ   -0.000000   0.000000  -0.000000   1.208354  -0.000000
   16  O  1  S    3.585782  -0.000834   0.271530   0.000001  -1.629386
   17  O  1  X    0.752518  -0.007465  -0.255244   0.000000  -0.318006
   18  O  1  Y    0.000082  -0.000000   0.000002   0.001975  -0.000019
   19  O  1  Z   -0.006226  -0.329900   0.005005   0.000000   0.002748
   20  O  1 XX    0.893185  -0.024084  -0.605747  -0.000000  -1.041626
   21  O  1 YY    0.924523  -0.004264   0.367495   0.000000  -0.746308
   22  O  1 ZZ   -0.449226  -0.006146   0.255525  -0.000000  -1.090985
   23  O  1 XY    0.000046  -0.000000  -0.000001   0.001576   0.000000
   24  O  1 XZ   -0.000196  -0.675567   0.013034   0.000000   0.005093
   25  O  1 YZ   -0.000000  -0.000000   0.000000  -0.703656   0.000000
   26  H  2  S   -1.608855   0.005589  -0.166347   0.003969   1.066867
   27  H  2  S   -2.799633   0.007505  -0.237993   0.009700   1.781707
   28  H  2  X    0.348880  -0.004775  -0.115082  -0.001283  -0.401286
   29  H  2  Y   -1.076116   0.000856  -0.160625   0.001665   0.559826
   30  H  2  Z   -0.000833  -0.115699   0.001661   0.142230   0.001276
   31  H  2  S   -0.152769  -0.000175  -0.020134   0.000831   0.051208
   32  H  2  X    0.289613   0.003939   0.330226  -0.001845  -0.320986
   33  H  2  Y   -0.426658   0.004950   0.020385   0.003269   0.570924
   34  H  2  Z    0.003563   0.316462  -0.005351  -0.342453  -0.002527
   35  H  3  S   -1.608960   0.005590  -0.166345  -0.003969   1.066852
   36  H  3  S   -2.800228   0.007508  -0.238011  -0.009701   1.781837
   37  H  3  X    0.348916  -0.004775  -0.115082   0.001283  -0.401284
   38  H  3  Y    1.076137  -0.000856   0.160625   0.001665  -0.559820
   39  H  3  Z   -0.000833  -0.115699   0.001661  -0.142230   0.001276
   40  H  3  S   -0.152865  -0.000174  -0.020138  -0.000831   0.051240
   41  H  3  X    0.289702   0.003939   0.330228   0.001846  -0.321004
   42  H  3  Y    0.426870  -0.004951  -0.020378   0.003269  -0.570978
   43  H  3  Z    0.003564   0.316462  -0.005351   0.342452  -0.002528

                     41         42         43
                    3.8904     4.2130     9.0014
                     A          A          A   
    1  O  1  S   -0.000012  -1.926922  -2.464537
    2  O  1  S   -0.000023  -3.763550  -2.857910
    3  O  1  S   -0.000004   5.165883  10.572181
    4  O  1  X    0.000001   0.373158   0.146906
    5  O  1  Y   -0.343868   0.000001   0.000000
    6  O  1  Z    0.000000   0.000082  -0.000008
    7  O  1  X   -0.000023   0.093034  -0.589938
    8  O  1  Y   -2.596799   0.000018  -0.000001
    9  O  1  Z   -0.000000   0.000413   0.000068
   10  O  1 XX    0.000001   0.276141  -2.268574
   11  O  1 YY   -0.000002   0.791065  -2.167608
   12  O  1 ZZ    0.000006  -0.004452  -2.270410
   13  O  1 XY   -1.332378   0.000005  -0.000000
   14  O  1 XZ    0.000000  -0.002638  -0.000124
   15  O  1 YZ    0.002250  -0.000000  -0.000000
   16  O  1  S   -0.000051  -0.875790  -1.404360
   17  O  1  X   -0.000010  -0.261284  -0.432587
   18  O  1  Y   -0.653771   0.000009  -0.000001
   19  O  1  Z   -0.000000  -0.000923  -0.000848
   20  O  1 XX   -0.000022  -2.208106  -3.749768
   21  O  1 YY   -0.000030  -2.545255  -3.965136
   22  O  1 ZZ   -0.000018  -2.424439  -3.776058
   23  O  1 XY   -0.312891   0.000004   0.000001
   24  O  1 XZ   -0.000000   0.001951   0.000122
   25  O  1 YZ   -0.002401   0.000000   0.000000
   26  H  2  S   -1.615827  -0.649901   0.026396
   27  H  2  S   -2.695153   1.828955   2.496651
   28  H  2  X    0.547585   0.343511   0.051863
   29  H  2  Y   -0.703687  -0.495886  -0.063389
   30  H  2  Z   -0.000249   0.000022  -0.000040
   31  H  2  S   -0.191061  -0.024869  -0.024431
   32  H  2  X    0.628283  -0.624855  -0.658724
   33  H  2  Y   -0.734835   0.557890   0.698067
   34  H  2  Z   -0.000770  -0.000155   0.000274
   35  H  3  S    1.615855  -0.649921   0.026395
   36  H  3  S    2.695247   1.828902   2.496666
   37  H  3  X   -0.547592   0.343516   0.051862
   38  H  3  Y   -0.703692   0.495892   0.063389
   39  H  3  Z    0.000249   0.000022  -0.000040
   40  H  3  S    0.191066  -0.024880  -0.024429
   41  H  3  X   -0.628301  -0.624845  -0.658726
   42  H  3  Y   -0.734859  -0.557875  -0.698074
   43  H  3  Z    0.000770  -0.000155   0.000274
 ...... END OF RHF CALCULATION ......
 STEP CPU TIME =     2.09 TOTAL CPU TIME =        2.2 (    0.0 MIN)
 TOTAL WALL CLOCK TIME=        2.2 SECONDS, CPU UTILIZATION IS  99.09%

     ---------------------------------------------------------------------
     PROPERTIES FOR THE B3LYP    DFT FUNCTIONAL (RHF  TYPE) DENSITY MATRIX
     ---------------------------------------------------------------------

          -----------------
          ENERGY COMPONENTS
          -----------------

         WAVEFUNCTION NORMALIZATION =       1.0000000000

                ONE ELECTRON ENERGY =    -123.4787515273
                TWO ELECTRON ENERGY =      37.4870949335
           NUCLEAR REPULSION ENERGY =       9.3197980295
          EFFECTIVE FRAGMENT ENERGY =       0.2565439439
                                      ------------------
                       TOTAL ENERGY =     -76.4153146204

 ELECTRON-ELECTRON POTENTIAL ENERGY =      37.4870949335
  NUCLEUS-ELECTRON POTENTIAL ENERGY =    -199.1879654551
   NUCLEUS-NUCLEUS POTENTIAL ENERGY =       9.3197980295
 ELECTRON-FRAGMENT MULTIPOLE ENERGY =      -0.2395650374
 ELECTRON-FRAGMENT REMAINDER ENERGY =       0.0042095465
            FRAGMENT-NUCLEAR ENERGY =       0.2281107896
    TOTAL FRAGMENT INDUCTION ENERGY =      -0.0004035978
 ELECTRON-FRAGMENT EXCHANGE REPULSION =      0.0000000000
                                      ------------------
             TOTAL POTENTIAL ENERGY =    -152.3887207912
                                      ------------------
            SOLUTE POTENTIAL ENERGY =    -152.3810724921
              SOLUTE KINETIC ENERGY =      75.9734061708
                 VIRIAL RATIO (V/T) =       2.0057159495

          ---------------------------------------
          MULLIKEN AND LOWDIN POPULATION ANALYSES
          ---------------------------------------

     ATOMIC MULLIKEN POPULATION IN EACH MOLECULAR ORBITAL

                      1          2          3          4          5

                  2.000000   2.000000   2.000000   2.000000   2.000000

    1             2.000368   1.220956   1.052193   1.705865   1.901470
    2            -0.000184   0.389499   0.473917   0.147067   0.049265
    3            -0.000184   0.389545   0.473890   0.147068   0.049265

               ----- POPULATIONS IN EACH AO -----
                             MULLIKEN      LOWDIN
              1  O  1  S      2.00864     1.86835
              2  O  1  S      0.79380     0.58809
              3  O  1  S      0.82865     0.35166
              4  O  1  X      0.95478     0.87750
              5  O  1  Y      0.83353     0.73822
              6  O  1  Z      1.10670     1.03586
              7  O  1  X      0.47556     0.54448
              8  O  1  Y      0.22703     0.47234
              9  O  1  Z      0.71275     0.59056
             10  O  1 XX     -0.01354     0.15293
             11  O  1 YY     -0.00278     0.16685
             12  O  1 ZZ     -0.01948     0.14649
             13  O  1 XY      0.00828     0.01044
             14  O  1 XZ      0.00102     0.00052
             15  O  1 YZ      0.00000     0.00000
             16  O  1  S      0.00242     0.06283
             17  O  1  X      0.03831     0.06864
             18  O  1  Y      0.00659     0.05079
             19  O  1  Z      0.07952     0.07598
             20  O  1 XX     -0.05017     0.04012
             21  O  1 YY     -0.06999     0.05246
             22  O  1 ZZ     -0.01894     0.03226
             23  O  1 XY     -0.02324     0.02976
             24  O  1 XZ      0.00141     0.00009
             25  O  1 YZ      0.00001     0.00001
             26  H  2  S      0.76212     0.47670
             27  H  2  S      0.15953     0.10396
             28  H  2  X      0.02501     0.05434
             29  H  2  Y      0.03563     0.05574
             30  H  2  Z      0.02006     0.05454
             31  H  2  S      0.00177     0.01068
             32  H  2  X      0.02332     0.09384
             33  H  2  Y      0.00298     0.07772
             34  H  2  Z      0.02915     0.09386
             35  H  3  S      0.76212     0.47670
             36  H  3  S      0.15953     0.10396
             37  H  3  X      0.02501     0.05434
             38  H  3  Y      0.03563     0.05574
             39  H  3  Z      0.02006     0.05454
             40  H  3  S      0.00178     0.01068
             41  H  3  X      0.02332     0.09384
             42  H  3  Y      0.00299     0.07772
             43  H  3  Z      0.02915     0.09386

          ----- MULLIKEN ATOMIC OVERLAP POPULATIONS -----
          (OFF-DIAGONAL ELEMENTS NEED TO BE MULTIPLIED BY 2)

             1           2           3

    1    7.2389795
    2    0.3208959   0.7827055
    3    0.3209773  -0.0440377   0.7826439

          TOTAL MULLIKEN AND LOWDIN ATOMIC POPULATIONS
       ATOM         MULL.POP.    CHARGE          LOW.POP.     CHARGE
    1 O             7.880853    0.119147         7.957235    0.042765
    2 H             1.059564   -0.059564         1.021382   -0.021382
    3 H             1.059584   -0.059584         1.021383   -0.021383

          -------------------------------
          BOND ORDER AND VALENCE ANALYSIS     BOND ORDER THRESHOLD=0.050
          -------------------------------

                   BOND                       BOND                       BOND
  ATOM PAIR DIST  ORDER      ATOM PAIR DIST  ORDER      ATOM PAIR DIST  ORDER
    1   2  0.944  1.148        1   3  0.944  1.148

                       TOTAL       BONDED        FREE
      ATOM            VALENCE     VALENCE     VALENCE
    1 O                 2.297       2.297      -0.000
    2 H                 1.175       1.175       0.000
    3 H                 1.175       1.175      -0.000

          ----------------------------
          SOLUTE ELECTROSTATIC MOMENTS
          ----------------------------

 POINT   1           X           Y           Z (BOHR)    CHARGE
                 0.000000    0.000000    0.000000       -0.00 (A.U.)
         DX          DY          DZ         /D/  (DEBYE)
     1.939820    0.000001    0.148129    1.945468

          ----------------------------------------
          EFFECTIVE FRAGMENT ELECTROSTATIC MOMENTS
          ----------------------------------------

 FRAGMENT   1  WATER 
          X           Y           Z (BOHR)    CHARGE
    -2.834589    0.000000   -4.909652       -0.00 (A.U.)
         DX          DY          DZ         /D/  (DEBYE)
    -0.617268    0.000019    1.877078    1.975966


          ----------------------------
          SYSTEM ELECTROSTATIC MOMENTS
          ----------------------------

 POINT   1           X           Y           Z (BOHR)    CHARGE
                 0.000000    0.000000    0.000000       -0.00 (A.U.)
         DX          DY          DZ         /D/  (DEBYE)
     1.322552    0.000020    2.025206    2.418802
 ...... END OF PROPERTY EVALUATION ......
 STEP CPU TIME =     0.01 TOTAL CPU TIME =        2.2 (    0.0 MIN)
 TOTAL WALL CLOCK TIME=        2.2 SECONDS, CPU UTILIZATION IS  99.54%

 BEGINNING ONE ELECTRON GRADIENT...
 TIME TO DO ORDINARY GRADIENT INTEGRALS=      0.00
 READY TO DO 1E- PART OF GRAD WRT FRAGMENT

                     -----------------------------
                     FRAGMENT GRADIENT INFORMATION
                     -----------------------------


      FRAGMENT NO.    1     E'X               E'Y               E'Z 
      TOTALS          -0.000476159       0.000000005      -0.002367803
      TORQUE          -0.000000013       0.002729180      -0.000000000

      TOTAL FORCE ON ALL FRAGMENTS
      FORCE           -0.000476159       0.000000005      -0.002367803
 TIME TO DO FRAGMENT GRADIENT INTEGRALS=      0.12
 ..... END OF 1-ELECTRON GRADIENT ......
 STEP CPU TIME =     0.12 TOTAL CPU TIME =        2.3 (    0.0 MIN)
 TOTAL WALL CLOCK TIME=        2.3 SECONDS, CPU UTILIZATION IS  99.14%

          ----------------------
          GRADIENT OF THE ENERGY
          ----------------------
 MEMORY FOR GRID POINT CONTRIBUTIONS TO THE DFT GRADIENT=    143259 WORDS.
 STEP CPU TIME =     0.41 TOTAL CPU TIME =        2.7 (    0.0 MIN)
 TOTAL WALL CLOCK TIME=        2.7 SECONDS, CPU UTILIZATION IS  99.27%

 THE MINIMUM MEMORY REQUIRED FOR THIS RUN IS      81642 WORDS.
 USING    1057162 WORDS FOR 2E- DERIVATIVE INTEGRAL CONTRIBUTIONS.
 THE COARSE/FINE SCHWARZ SCREENINGS SKIPPED            0/           0 BLOCKS.
 THE NUMBER OF GRADIENT INTEGRAL BLOCKS COMPUTED WAS     16870
 ...... END OF 2-ELECTRON GRADIENT ......
 STEP CPU TIME =     0.07 TOTAL CPU TIME =        2.8 (    0.0 MIN)
 TOTAL WALL CLOCK TIME=        2.8 SECONDS, CPU UTILIZATION IS  99.29%

          NSERCH=  0     ENERGY=     -76.4153146

                                 -----------------------
                                 GRADIENT (HARTREE/BOHR)
                                 -----------------------
        ATOM     ZNUC       DE/DX         DE/DY         DE/DZ
 --------------------------------------------------------------
    1  O            8.0     0.0303101    -0.0000001     0.0036468
    2  H            1.0    -0.0149168     0.0172137    -0.0006395
    3  H            1.0    -0.0149170    -0.0172137    -0.0006396
  EFP           TOTAL GRADIENT                           TORQUES
    1  -0.0004763  0.0000001 -0.0023677    -0.0000001  0.0027292 -0.0000001

          MAXIMUM GRADIENT = 0.0303101    RMS GRADIENT = 0.0115000

 NSERCH:   0  E=      -76.4153146204  GRAD. MAX=  0.0303101  R.M.S.=  0.0115000

          FORCE CONSTANT MATRIX NOT UPDATED --- TAKING FIRST STEP
          MIN SEARCH, CORRECT HESSIAN, TRYING PURE NR STEP
               NR STEP HAS LENGTH         =   5.424634
          TRIM/QA LAMBDA FOR NON-TS MODES =  -0.01352484
          TRIM/QA STEP HAS LENGTH         =   0.300000
          RADIUS OF STEP TAKEN=   0.30000  CURRENT TRUST RADIUS=   0.30000

 BEGINNING GEOMETRY SEARCH POINT NSERCH=   1 ...

 COORDINATES OF ALL ATOMS ARE (ANGS)
   ATOM   CHARGE       X              Y              Z
 ------------------------------------------------------------
 O           8.0  -0.1077952369   0.0000015997  -0.1189442856
 H           1.0   0.5253235813  -0.7484649521   0.0389844306
 H           1.0   0.5253278923   0.7484649019   0.0389890099
 COORDINATES OF FRAGMENT MULTIPOLE CENTERS (ANGS)
 MULTIPOLE NAME        X              Y              Z
 ------------------------------------------------------------
 FRAGNAME=WATER 
 O1               -1.4755308621  -0.0000013337  -2.6127283665
 H2               -1.0727973838  -0.0000012938  -1.7590983532
 H3               -2.4088946078  -0.0000052287  -2.4723340210

          INTERNUCLEAR DISTANCES (ANGS.)
          ------------------------------

                1 O          2 H          3 H     

   1 O       0.0000000    0.9929668 *  0.9929678 *
   2 H       0.9929668 *  0.0000000    1.4969299 *
   3 H       0.9929678 *  1.4969299 *  0.0000000  

  * ... LESS THAN  3.000

 ...... END OF ONE-ELECTRON INTEGRALS ......
 STEP CPU TIME =     0.01 TOTAL CPU TIME =        2.8 (    0.0 MIN)
 TOTAL WALL CLOCK TIME=        2.8 SECONDS, CPU UTILIZATION IS  99.29%
 TOTAL NUMBER OF NONZERO TWO-ELECTRON INTEGRALS =              398174
         27 INTEGRAL RECORDS WERE STORED ON DISK FILE  8.
  ...... END OF TWO-ELECTRON INTEGRALS .....
 STEP CPU TIME =     0.04 TOTAL CPU TIME =        2.8 (    0.0 MIN)
 TOTAL WALL CLOCK TIME=        2.8 SECONDS, CPU UTILIZATION IS  99.30%

 EFP ADDITIVE CONTRIBUTIONS TO THE "NUCLEAR ENERGY":
   -- NUCLEAR CHARGE - NUCLEAR CHARGE   =        8.8803105614
   -- NUCLEAR CHARGE - EFP CHARGE       =        0.0259194436
   -- NUCLEAR CHARGE - EFP DIPOLE       =        0.1604290817
   -- NUCLEAR CHARGE - EFP QUADRUPOLE   =        0.0669944835
   -- NUCLEAR CHARGE - EFP OCTUPOLE     =       -0.0011846744
 THE TOTAL NUCLEAR CHARGE/EFP ENERGY    =        9.1324688957

          --------------------------
             R-B3LYP SCF CALCULATION
          --------------------------
         DENSITY MATRIX CONVERGENCE THRESHOLD=  5.00E-05
     COARSE -> FINE DFT GRID SWITCH THRESHOLD=  1.50E-03 (SWITCH IN $DFT)
                   HF -> DFT SWITCH THRESHOLD=  5.00E-03 (SWOFF IN $DFT)

 DFT CODE IS SWITCHING FROM THE FINE GRID NRAD= 96,  NLEB=  302
                      TO THE COARSE GRID NRAD0= 24, NLEB0=  110

 ITER EX DEM     TOTAL ENERGY        E CHANGE  DENSITY CHANGE    DIIS ERROR
          * * *   INITIATING DIIS PROCEDURE   * * *
   1  0  0      -76.4026240602   -76.4026240602   0.088158871   0.042153550
   2  1  0      -76.4149558650    -0.0123318048   0.010794103   0.006863924
   3  2  0      -76.4150334261    -0.0000775611   0.008378631   0.009835178
   4  3  0      -76.4151605624    -0.0001271363   0.002235060   0.004227246
   5  4  0      -76.4151857884    -0.0000252260   0.000068094   0.000110929
 DFT CODE IS SWITCHING BACK TO THE FINE GRID
          * * *   INITIATING DIIS PROCEDURE   * * *
   6  5  0      -76.4145925850     0.0005932034   0.002758449   0.001380357
   7  6  0      -76.4145942710    -0.0000016860   0.000541023   0.000415500
   8  7  0      -76.4145941181     0.0000001529   0.000291407   0.000527986
   9  8  0      -76.4145945006    -0.0000003825   0.000007433   0.000013673
  10  9  0      -76.4145945010    -0.0000000004   0.000000804   0.000001926

          -----------------
          DENSITY CONVERGED
          -----------------
     TIME TO FORM FOCK OPERATORS=       1.8 SECONDS (       0.2 SEC/ITER)
     TIME TO SOLVE SCF EQUATIONS=       0.0 SECONDS (       0.0 SEC/ITER)

 FINAL R-B3LYP ENERGY IS      -76.4145945010 AFTER  10 ITERATIONS
 DFT EXCHANGE + CORRELATION ENERGY =        -7.4821108267
 TOTAL ELECTRON NUMBER             =        10.0000023894

          INDUCED DIPOLE     ATOMIC UNITS          DEBYE
                X(IND)            0.04267          0.10845
                Y(IND)            0.00001          0.00004
                Z(IND)            0.09432          0.23975
 ...... END OF RHF CALCULATION ......
 STEP CPU TIME =     1.78 TOTAL CPU TIME =        4.6 (    0.1 MIN)
 TOTAL WALL CLOCK TIME=        4.6 SECONDS, CPU UTILIZATION IS  99.35%
 READY TO DO 1E- PART OF GRAD WRT FRAGMENT
 ..... END OF 1-ELECTRON GRADIENT ......
 STEP CPU TIME =     0.12 TOTAL CPU TIME =        4.7 (    0.1 MIN)
 TOTAL WALL CLOCK TIME=        4.8 SECONDS, CPU UTILIZATION IS  99.37%
 MEMORY FOR GRID POINT CONTRIBUTIONS TO THE DFT GRADIENT=    143259 WORDS.
 STEP CPU TIME =     0.41 TOTAL CPU TIME =        5.1 (    0.1 MIN)
 TOTAL WALL CLOCK TIME=        5.2 SECONDS, CPU UTILIZATION IS  99.42%
 ...... END OF 2-ELECTRON GRADIENT ......
 STEP CPU TIME =     0.07 TOTAL CPU TIME =        5.2 (    0.1 MIN)
 TOTAL WALL CLOCK TIME=        5.2 SECONDS, CPU UTILIZATION IS  99.43%

          NSERCH=  1     ENERGY=     -76.4145945

                                 -----------------------
                                 GRADIENT (HARTREE/BOHR)
                                 -----------------------
        ATOM     ZNUC       DE/DX         DE/DY         DE/DZ
 --------------------------------------------------------------
    1  O            8.0    -0.0410696    -0.0000006    -0.0117367
    2  H            1.0     0.0206069    -0.0099842     0.0056066
    3  H            1.0     0.0206074     0.0099847     0.0056067
  EFP           TOTAL GRADIENT                           TORQUES
    1  -0.0001446  0.0000000  0.0005233     0.0000000 -0.0009327 -0.0000001

          MAXIMUM GRADIENT = 0.0410696    RMS GRADIENT = 0.0139933

 NSERCH:   1  E=      -76.4145945010  GRAD. MAX=  0.0410696  R.M.S.=  0.0139933

          HESSIAN UPDATED USING THE BFGS FORMULA
             ACTUAL ENERGY CHANGE WAS   0.0007201194
          PREDICTED ENERGY CHANGE WAS  -0.0029929149 RATIO= -0.241
          MIN SEARCH, CORRECT HESSIAN, TRYING PURE NR STEP
               NR STEP HAS LENGTH         =   2.590832
          TRIM/QA LAMBDA FOR NON-TS MODES =  -0.04049536
          TRIM/QA STEP HAS LENGTH         =   0.150000
          RADIUS OF STEP TAKEN=   0.15000  CURRENT TRUST RADIUS=   0.15000

 BEGINNING GEOMETRY SEARCH POINT NSERCH=   2 ...

 COORDINATES OF ALL ATOMS ARE (ANGS)
   ATOM   CHARGE       X              Y              Z
 ------------------------------------------------------------
 O           8.0  -0.0748597706   0.0000019925  -0.0693479853
 H           1.0   0.5051633005  -0.7671805981   0.0150750076
 H           1.0   0.5051681883   0.7671803024   0.0150800019
 COORDINATES OF FRAGMENT MULTIPOLE CENTERS (ANGS)
 MULTIPOLE NAME        X              Y              Z
 ------------------------------------------------------------
 FRAGNAME=WATER 
 O1               -1.4674696455  -0.0000014419  -2.6141396767
 H2               -1.0751851850  -0.0000009535  -1.7556576699
 H3               -2.4024774538  -0.0000064861  -2.4851480006

          INTERNUCLEAR DISTANCES (ANGS.)
          ------------------------------

                1 O          2 H          3 H     

   1 O       0.0000000    0.9654652 *  0.9654652 *
   2 H       0.9654652 *  0.0000000    1.5343609 *
   3 H       0.9654652 *  1.5343609 *  0.0000000  

  * ... LESS THAN  3.000

 ...... END OF ONE-ELECTRON INTEGRALS ......
 STEP CPU TIME =     0.01 TOTAL CPU TIME =        5.2 (    0.1 MIN)
 TOTAL WALL CLOCK TIME=        5.3 SECONDS, CPU UTILIZATION IS  99.24%
 TOTAL NUMBER OF NONZERO TWO-ELECTRON INTEGRALS =              398108
         27 INTEGRAL RECORDS WERE STORED ON DISK FILE  8.
  ...... END OF TWO-ELECTRON INTEGRALS .....
 STEP CPU TIME =     0.04 TOTAL CPU TIME =        5.3 (    0.1 MIN)
 TOTAL WALL CLOCK TIME=        5.3 SECONDS, CPU UTILIZATION IS  99.43%

 EFP ADDITIVE CONTRIBUTIONS TO THE "NUCLEAR ENERGY":
   -- NUCLEAR CHARGE - NUCLEAR CHARGE   =        9.1145799003
   -- NUCLEAR CHARGE - EFP CHARGE       =        0.0239518605
   -- NUCLEAR CHARGE - EFP DIPOLE       =        0.1521791161
   -- NUCLEAR CHARGE - EFP QUADRUPOLE   =        0.0640385046
   -- NUCLEAR CHARGE - EFP OCTUPOLE     =       -0.0010409828
 THE TOTAL NUCLEAR CHARGE/EFP ENERGY    =        9.3537083988

          --------------------------
             R-B3LYP SCF CALCULATION
          --------------------------
         DENSITY MATRIX CONVERGENCE THRESHOLD=  5.00E-05
     COARSE -> FINE DFT GRID SWITCH THRESHOLD=  1.50E-03 (SWITCH IN $DFT)
                   HF -> DFT SWITCH THRESHOLD=  5.00E-03 (SWOFF IN $DFT)

 DFT CODE IS SWITCHING FROM THE FINE GRID NRAD= 96,  NLEB=  302
                      TO THE COARSE GRID NRAD0= 24, NLEB0=  110

 ITER EX DEM     TOTAL ENERGY        E CHANGE  DENSITY CHANGE    DIIS ERROR
          * * *   INITIATING DIIS PROCEDURE   * * *
   1  0  0      -76.4137890819   -76.4137890819   0.042178145   0.025490831
[...]
    3  H            1.0    -0.0000027    -0.0000011    -0.0000001
  EFP           TOTAL GRADIENT                           TORQUES
    1   0.0000002 -0.0000000  0.0000002    -0.0000001  0.0000003 -0.0000000

          MAXIMUM GRADIENT = 0.0000040    RMS GRADIENT = 0.0000014

 NSERCH:  13  E=      -76.4169418899  GRAD. MAX=  0.0000040  R.M.S.=  0.0000014


      ***** EQUILIBRIUM GEOMETRY LOCATED *****
 COORDINATES OF ALL ATOMS ARE (ANGS)
   ATOM   CHARGE       X              Y              Z
 ------------------------------------------------------------
 O           8.0  -0.0930136471   0.0000403644  -0.0481057357
 H           1.0   0.4948397296  -0.7655910405  -0.0198243469
 H           1.0   0.4949334495   0.7655908333  -0.0196611331
 COORDINATES OF FRAGMENT MULTIPOLE CENTERS (ANGS)
 MULTIPOLE NAME        X              Y              Z
 ------------------------------------------------------------
 FRAGNAME=WATER 
 O1               -1.4265598745  -0.0000439649  -2.5644754239
 H2               -1.0691167968   0.0000734939  -1.6909120968
 H3               -2.3659987262  -0.0000933782  -2.4731896326

          INTERNUCLEAR DISTANCES (ANGS.)
          ------------------------------

                1 O          2 H          3 H     

   1 O       0.0000000    0.9656930 *  0.9656906 *
   2 H       0.9656930 *  0.0000000    1.5311819 *
   3 H       0.9656906 *  1.5311819 *  0.0000000  

  * ... LESS THAN  3.000


          NUCLEAR ENERGY    =        9.4013058978
          ELECTRONIC ENERGY =      -85.8182477877
          TOTAL ENERGY      =      -76.4169418899

          ------------------
          MOLECULAR ORBITALS
          ------------------

                      1          2          3          4          5
                  -19.1813    -1.0417    -0.5572    -0.4221    -0.3455
                     A          A          A          A          A   
    1  O  1  S    1.004324  -0.025022  -0.000001   0.001231   0.001784
    2  O  1  S    0.013174   0.420663   0.000000  -0.163757  -0.010814
    3  O  1  S   -0.001492   0.389260  -0.000007  -0.340074  -0.031129
    4  O  1  X    0.001137   0.109886  -0.000033   0.551682   0.061688
    5  O  1  Y   -0.000000  -0.000007  -0.517451  -0.000042   0.000064
    6  O  1  Z    0.000005   0.002417  -0.000056   0.058239  -0.629792
    7  O  1  X   -0.000403  -0.035078  -0.000016   0.293607   0.032565
    8  O  1  Y    0.000000  -0.000002  -0.147645  -0.000025   0.000043
    9  O  1  Z    0.000006  -0.005908  -0.000017   0.039803  -0.422198
   10  O  1 XX   -0.005148  -0.004762  -0.000003   0.019182   0.002465
   11  O  1 YY   -0.005116  -0.002252   0.000003  -0.000108   0.000218
   12  O  1 ZZ   -0.005302  -0.016376  -0.000000  -0.004600  -0.000507
   13  O  1 XY    0.000000   0.000000  -0.025467  -0.000002   0.000001
   14  O  1 XZ    0.000010   0.000669  -0.000003   0.001872  -0.014387
   15  O  1 YZ    0.000000   0.000002  -0.000840   0.000000   0.000001
   16  O  1  S   -0.000428  -0.012473  -0.000034  -0.142905   0.007091
   17  O  1  X    0.000050  -0.002511  -0.000008   0.041526   0.009022
   18  O  1  Y   -0.000000  -0.000004  -0.009850  -0.000008   0.000011
   19  O  1  Z    0.000002  -0.000333  -0.000001   0.005847  -0.081832
   20  O  1 XX    0.000977  -0.049639   0.000001   0.006422   0.003696
   21  O  1 YY    0.001105  -0.064614  -0.000010  -0.023775  -0.001357
   22  O  1 ZZ    0.001179  -0.021811  -0.000001  -0.002508   0.010422
   23  O  1 XY    0.000000  -0.000002   0.045658  -0.000003   0.000001
   24  O  1 XZ   -0.000008  -0.000036   0.000005  -0.005498  -0.011773
   25  O  1 YZ   -0.000000  -0.000005   0.004564  -0.000003   0.000000
   26  H  2  S    0.000031   0.218114   0.361869   0.208780   0.012044
   27  H  2  S   -0.000507   0.051231   0.133914   0.094232   0.000002
   28  H  2  X    0.000074  -0.020133  -0.031356   0.005217   0.001609
   29  H  2  Y   -0.000076   0.036059   0.021107   0.025027   0.001822
   30  H  2  Z    0.000004  -0.001006  -0.001115   0.001831  -0.026602
   31  H  2  S    0.000103   0.001485   0.002444   0.010308  -0.002814
   32  H  2  X    0.000277  -0.014796  -0.013180   0.012108   0.003223
   33  H  2  Y   -0.000153   0.019045   0.019326   0.010570  -0.000388
   34  H  2  Z    0.000007  -0.000510  -0.000222   0.002175  -0.028225
   35  H  3  S    0.000031   0.218119  -0.361866   0.208781   0.012045
   36  H  3  S   -0.000507   0.051253  -0.133870   0.094239  -0.000001
   37  H  3  X    0.000074  -0.020138   0.031358   0.005214   0.001609
   38  H  3  Y    0.000076  -0.036057   0.021102  -0.025029  -0.001816
   39  H  3  Z    0.000004  -0.001014   0.001120   0.001826  -0.026603
   40  H  3  S    0.000103   0.001492  -0.002438   0.010313  -0.002815
   41  H  3  X    0.000277  -0.014802   0.013174   0.012105   0.003224
   42  H  3  Y    0.000153  -0.019049   0.019314  -0.010571   0.000392
   43  H  3  Z    0.000007  -0.000515   0.000226   0.002173  -0.028226

                      6          7          8          9         10
                   -0.0279     0.0211     0.0940     0.1200     0.1337
                     A          A          A          A          A   
    1  O  1  S   -0.002149   0.000000  -0.016935   0.029203  -0.005898
    2  O  1  S    0.121944  -0.000004   0.013532   0.201062  -0.031046
    3  O  1  S    0.305002  -0.000034  -0.272772   0.288142   0.170696
    4  O  1  X    0.151352   0.000003   0.244459   0.009785  -0.042060
    5  O  1  Y   -0.000006   0.171142  -0.000014   0.000010   0.000044
    6  O  1  Z    0.013540   0.000013  -0.046907  -0.039734  -0.251094
    7  O  1  X    0.140842  -0.000012   0.028395  -0.089672   0.089095
    8  O  1  Y   -0.000017   0.178220   0.000044  -0.000005  -0.000033
    9  O  1  Z    0.015492   0.000013  -0.053852  -0.043130  -0.299065
   10  O  1 XX   -0.000627  -0.000000   0.004954  -0.005077   0.001201
   11  O  1 YY   -0.007849   0.000000  -0.006321  -0.005778  -0.002202
   12  O  1 ZZ   -0.005625   0.000000  -0.007700   0.007760  -0.000403
   13  O  1 XY   -0.000001   0.000241   0.000000   0.000001   0.000002
   14  O  1 XZ    0.002176  -0.000000  -0.003864  -0.000540  -0.008090
   15  O  1 YZ   -0.000000  -0.000544   0.000000  -0.000001   0.000001
   16  O  1  S    0.365299  -0.000080  -3.363684  -1.419466   1.724874
   17  O  1  X    0.011344   0.000017  -1.486503   0.805450   0.306030
   18  O  1  Y   -0.000026   0.497952   0.000197  -0.000221  -0.000677
   19  O  1  Z   -0.091791   0.000086   0.288735   0.190937   1.109414
   20  O  1 XX   -0.020828  -0.000005  -0.131472   0.057966   0.019511
   21  O  1 YY   -0.025639  -0.000009  -0.152927   0.015450   0.061927
   22  O  1 ZZ   -0.019938   0.000000  -0.067289   0.037396   0.000415
   23  O  1 XY   -0.000001   0.008538   0.000002  -0.000009  -0.000014
   24  O  1 XZ   -0.010211   0.000002   0.009833  -0.007163   0.010161
   25  O  1 YZ   -0.000001   0.002012  -0.000011  -0.000004   0.000003
   26  H  2  S   -0.063622   0.022369  -0.020262  -0.119079   0.000277
   27  H  2  S   -0.242063   0.428259   1.363114  -0.270996  -0.673646
   28  H  2  X   -0.009990   0.010418  -0.021847  -0.003978   0.011523
   29  H  2  Y    0.017584  -0.007798   0.029015   0.017868  -0.015444
   30  H  2  Z   -0.001288   0.000452   0.001060   0.001059   0.007686
   31  H  2  S   -0.501270   2.355871   0.753796   0.631285  -0.362719
   32  H  2  X   -0.038028  -0.022774  -0.266786  -0.233548   0.180538
   33  H  2  Y    0.049191  -0.021550   0.353412   0.259375  -0.143029
   34  H  2  Z    0.027025   0.006192  -0.081997  -0.016535  -0.022262
   35  H  3  S   -0.063620  -0.022348  -0.020266  -0.119065   0.000313
   36  H  3  S   -0.241953  -0.428146   1.362650  -0.270764  -0.672739
   37  H  3  X   -0.009994  -0.010421  -0.021845  -0.003982   0.011519
   38  H  3  Y   -0.017585  -0.007799  -0.029006  -0.017872   0.015425
   39  H  3  Z   -0.001292  -0.000453   0.001055   0.001055   0.007689
   40  H  3  S   -0.501342  -2.355842   0.753551   0.631561  -0.361709
   41  H  3  X   -0.038055   0.022764  -0.266763  -0.233617   0.180432
   42  H  3  Y   -0.049224  -0.021565  -0.353196  -0.259372   0.142877
   43  H  3  Z    0.027023  -0.006213  -0.082068  -0.016582  -0.022195

                     11         12         13         14         15
                    0.1423     0.1710     0.2121     0.2665     0.2779
                     A          A          A          A          A   
    1  O  1  S    0.000001   0.000001   0.007750   0.000004  -0.040685
    2  O  1  S    0.000000  -0.000002   0.021433   0.000007  -0.085618
    3  O  1  S    0.000026  -0.000035  -0.104348  -0.000003  -0.149687
    4  O  1  X    0.000032   0.000010  -0.101146  -0.000015   0.200673
    5  O  1  Y    0.345748  -0.018311   0.000021   0.005808  -0.000021
    6  O  1  Z    0.000054   0.000040  -0.041732   0.000008   0.013373
    7  O  1  X    0.000041  -0.000015  -0.198970  -0.000054   0.581976
    8  O  1  Y    0.101433  -0.279678   0.000082   0.002304  -0.000110
    9  O  1  Z    0.000033   0.000027  -0.052902   0.000011   0.009563
   10  O  1 XX   -0.000000   0.000002  -0.022070   0.000002  -0.018440
   11  O  1 YY    0.000001  -0.000001   0.031549  -0.000008   0.017684
   12  O  1 ZZ   -0.000000  -0.000000  -0.011091   0.000006   0.002642
   13  O  1 XY   -0.009976   0.020225   0.000004  -0.001511   0.000001
   14  O  1 XZ   -0.000001   0.000002   0.001837   0.000002  -0.001763
   15  O  1 YZ   -0.000989   0.000216   0.000006   0.034500   0.000005
   16  O  1  S    0.000107  -0.000288  -4.442816  -0.000332   3.980534
   17  O  1  X   -0.000090  -0.000271  -0.597534  -0.000168   1.887316
   18  O  1  Y   -1.262410  -2.633781   0.000060   0.007059  -0.000148
   19  O  1  Z   -0.000205  -0.000405  -0.018191  -0.000006   0.069357
   20  O  1 XX    0.000006  -0.000001   0.048261   0.000005  -0.066865
   21  O  1 YY    0.000021   0.000007  -0.071479   0.000030  -0.198544
   22  O  1 ZZ    0.000005   0.000004   0.000149  -0.000002  -0.100982
   23  O  1 XY   -0.046888  -0.054973  -0.000005   0.004564  -0.000013
   24  O  1 XZ   -0.000005  -0.000002  -0.016274  -0.000003   0.007457
   25  O  1 YZ   -0.002899   0.003822  -0.000011  -0.069110  -0.000017
   26  H  2  S    0.121185  -0.183024   0.147438  -0.002721  -0.073562
   27  H  2  S   -0.579951  -2.149379   2.182593   0.003073  -1.876905
   28  H  2  X    0.028194   0.004671  -0.025944   0.001546  -0.007329
   29  H  2  Y   -0.027278  -0.028251  -0.007996  -0.000241  -0.041249
   30  H  2  Z    0.001180   0.001021  -0.000955  -0.015596   0.000477
   31  H  2  S   -2.454401  -1.802711   0.350536   0.002401  -0.319056
   32  H  2  X    0.528930  -0.003722  -0.461851   0.040335  -0.775578
   33  H  2  Y   -0.500035  -0.147966  -0.296420  -0.012583  -0.261343
   34  H  2  Z    0.030345   0.011944   0.036235  -1.086311  -0.013121
   35  H  3  S   -0.121210   0.183018   0.147418   0.002733  -0.073551
   36  H  3  S    0.579801   2.149648   2.181992  -0.002754  -1.876229
   37  H  3  X   -0.028194  -0.004676  -0.025936  -0.001545  -0.007332
   38  H  3  Y   -0.027269  -0.028253   0.008004  -0.000253   0.041245
   39  H  3  Z   -0.001186  -0.001029  -0.000952   0.015595   0.000489
   40  H  3  S    2.454413   1.802820   0.350588  -0.002341  -0.319071
   41  H  3  X   -0.528970   0.003655  -0.461784  -0.040197  -0.775630
   42  H  3  Y   -0.499943  -0.147973   0.296773  -0.012877   0.261093
   43  H  3  Z   -0.030450  -0.012036   0.036340   1.086274  -0.012880

     ---------------------------------------------------------------------
     PROPERTIES FOR THE B3LYP    DFT FUNCTIONAL (RHF  TYPE) DENSITY MATRIX
     ---------------------------------------------------------------------

          -----------------
          ENERGY COMPONENTS
          -----------------

         WAVEFUNCTION NORMALIZATION =       1.0000000000

                ONE ELECTRON ENERGY =    -123.1640536758
                TWO ELECTRON ENERGY =      37.3458058881
           NUCLEAR REPULSION ENERGY =       9.1132384317
          EFFECTIVE FRAGMENT ENERGY =       0.2880674660
                                      ------------------
                       TOTAL ENERGY =     -76.4169418899

 ELECTRON-ELECTRON POTENTIAL ENERGY =      37.3458058881
  NUCLEUS-ELECTRON POTENTIAL ENERGY =    -198.7677509048
   NUCLEUS-NUCLEUS POTENTIAL ENERGY =       9.1132384317
 ELECTRON-FRAGMENT MULTIPOLE ENERGY =      -0.2643082427
 ELECTRON-FRAGMENT REMAINDER ENERGY =       0.0076541595
            FRAGMENT-NUCLEAR ENERGY =       0.2486198153
    TOTAL FRAGMENT INDUCTION ENERGY =      -0.0006210407
 ELECTRON-FRAGMENT EXCHANGE REPULSION =      0.0000000000
                                      ------------------
             TOTAL POTENTIAL ENERGY =    -152.3173618936
                                      ------------------
            SOLUTE POTENTIAL ENERGY =    -152.3087065850
              SOLUTE KINETIC ENERGY =      75.9004200037
                 VIRIAL RATIO (V/T) =       2.0066912222

          ---------------------------------------
          MULLIKEN AND LOWDIN POPULATION ANALYSES
          ---------------------------------------

     ATOMIC MULLIKEN POPULATION IN EACH MOLECULAR ORBITAL

                      1          2          3          4          5

                  2.000000   2.000000   2.000000   2.000000   2.000000

    1             2.000276   1.275616   1.072392   1.686607   1.903656
    2            -0.000138   0.362169   0.463815   0.156697   0.048171
    3            -0.000138   0.362215   0.463793   0.156696   0.048173

               ----- POPULATIONS IN EACH AO -----
                             MULLIKEN      LOWDIN
              1  O  1  S      2.00862     1.87067
              2  O  1  S      0.79787     0.59288
              3  O  1  S      0.86086     0.35740
              4  O  1  X      0.94167     0.86483
              5  O  1  Y      0.82590     0.73189
              6  O  1  Z      1.10879     1.04156
              7  O  1  X      0.47697     0.55120
              8  O  1  Y      0.25273     0.48019
              9  O  1  Z      0.71687     0.60032
             10  O  1 XX     -0.01325     0.15503
             11  O  1 YY     -0.00383     0.16682
             12  O  1 ZZ     -0.01943     0.14915
             13  O  1 XY      0.00777     0.00945
             14  O  1 XZ      0.00097     0.00051
             15  O  1 YZ      0.00001     0.00001
             16  O  1  S      0.01215     0.06371
             17  O  1  X      0.03784     0.07102
             18  O  1  Y      0.00877     0.05354
             19  O  1  Z      0.07525     0.07503
             20  O  1 XX     -0.05036     0.04132
             21  O  1 YY     -0.06713     0.05187
             22  O  1 ZZ     -0.01880     0.03314
             23  O  1 XY     -0.02270     0.03031
             24  O  1 XZ      0.00110     0.00012
             25  O  1 YZ     -0.00009     0.00003
             26  H  2  S      0.74291     0.47153
             27  H  2  S      0.15280     0.10627
             28  H  2  X      0.02494     0.05120
             29  H  2  Y      0.03474     0.05303
             30  H  2  Z      0.01888     0.04993
             31  H  2  S      0.00136     0.01085
             32  H  2  X      0.02124     0.09209
             33  H  2  Y      0.00488     0.07810
             34  H  2  Z      0.02896     0.09097
             35  H  3  S      0.74291     0.47153
             36  H  3  S      0.15280     0.10627
             37  H  3  X      0.02495     0.05120
             38  H  3  Y      0.03474     0.05303
             39  H  3  Z      0.01888     0.04993
             40  H  3  S      0.00137     0.01085
             41  H  3  X      0.02124     0.09210
             42  H  3  Y      0.00489     0.07810
             43  H  3  Z      0.02896     0.09098

          ----- MULLIKEN ATOMIC OVERLAP POPULATIONS -----
          (OFF-DIAGONAL ELEMENTS NEED TO BE MULTIPLIED BY 2)

             1           2           3

    1    7.3117304
    2    0.3133747   0.7476456
    3    0.3134418  -0.0303061   0.7476031

          TOTAL MULLIKEN AND LOWDIN ATOMIC POPULATIONS
       ATOM         MULL.POP.    CHARGE          LOW.POP.     CHARGE
    1 O             7.938547    0.061453         7.992042    0.007958
    2 H             1.030714   -0.030714         1.003978   -0.003978
    3 H             1.030739   -0.030739         1.003981   -0.003981

          -------------------------------
          BOND ORDER AND VALENCE ANALYSIS     BOND ORDER THRESHOLD=0.050
          -------------------------------

                   BOND                       BOND                       BOND
  ATOM PAIR DIST  ORDER      ATOM PAIR DIST  ORDER      ATOM PAIR DIST  ORDER
    1   2  0.966  1.136        1   3  0.966  1.136

                       TOTAL       BONDED        FREE
      ATOM            VALENCE     VALENCE     VALENCE
    1 O                 2.272       2.272      -0.000
    2 H                 1.166       1.166      -0.000
    3 H                 1.166       1.166      -0.000

          ----------------------------
          SOLUTE ELECTROSTATIC MOMENTS
          ----------------------------

 POINT   1           X           Y           Z (BOHR)    CHARGE
                -0.051436    0.000068   -0.084908        0.00 (A.U.)
         DX          DY          DZ         /D/  (DEBYE)
     2.024111   -0.000153    0.233872    2.037578

          ----------------------------------------
          EFFECTIVE FRAGMENT ELECTROSTATIC MOMENTS
          ----------------------------------------

 FRAGMENT   1  WATER 
          X           Y           Z (BOHR)    CHARGE
    -2.757350   -0.000076   -4.744129       -0.00 (A.U.)
         DX          DY          DZ         /D/  (DEBYE)
    -0.851278    0.000179    1.799087    1.990324


          ----------------------------
          SYSTEM ELECTROSTATIC MOMENTS
          ----------------------------

 POINT   1           X           Y           Z (BOHR)    CHARGE
                -0.051436    0.000068   -0.084908       -0.00 (A.U.)
         DX          DY          DZ         /D/  (DEBYE)
     1.172833    0.000026    2.032959    2.347011
 ...... END OF PROPERTY EVALUATION ......
 STEP CPU TIME =     0.00 TOTAL CPU TIME =       36.8 (    0.6 MIN)
 TOTAL WALL CLOCK TIME=       37.0 SECONDS, CPU UTILIZATION IS  99.43%
  $VIB   
          IVIB=   0 IATOM=   0 ICOORD=   0 E=      -76.4169418899
  3.977590765E-06 1.561433586E-06-3.470051562E-08-1.466307508E-06-4.750436707E-07
 -7.784644143E-08-2.669818630E-06-1.080612863E-06-7.514496280E-08
 1.585353738E-07-5.777052467E-09 1.876919199E-07
-6.048353375E-08 3.050648500E-07-2.746807097E-08
  1.172832843E+00 2.598370331E-05 2.032959269E+00
 ......END OF GEOMETRY SEARCH......
 STEP CPU TIME =     0.00 TOTAL CPU TIME =       36.8 (    0.6 MIN)
 TOTAL WALL CLOCK TIME=       37.0 SECONDS, CPU UTILIZATION IS  99.43%
              1057297  WORDS OF DYNAMIC MEMORY USED
 EXECUTION OF GAMESS TERMINATED NORMALLY Wed Aug  9 20:22:48 2017
 DDI: 263640 bytes (0.3 MB / 0 MWords) used by master data server.

 ----------------------------------------
 CPU timing information for all processes
 ========================================
 0: 36.707 + 0.117 = 36.825
 ----------------------------------------
 ddikick.x: exited gracefully.
unset echo
----- accounting info -----
Files used on the master node compute-1-0.local were:
-rw-rw-r-- 1 sarom sarom 9.3K Aug  9 20:22 /scratch/wat2-af.F05
-rw-rw-r-- 1 sarom sarom 4.7M Aug  9 20:22 /scratch/wat2-af.F08
-rw-rw-r-- 1 sarom sarom 1.9M Aug  9 20:22 /scratch/wat2-af.F10
-rw-rw-r-- 1 sarom sarom 1.1M Aug  9 20:22 /scratch/wat2-af.F22
-rw-rw-r-- 1 sarom sarom 111K Aug  9 20:22 /scratch/wat2-af.F25
rm: cannot remove `/scratch/tmp': Is a directory
ls: No match.
ls: No match.
ls: No match.
Wed Aug  9 20:22:51 CDT 2017
0.253u 0.163s 0:40.50 1.0%	0+0k 0+376io 0pf+0w
/opt/gridengine/default/spool/compute-1-0/active_jobs/35826.1/pe_hostfile compute-1-0.local
