-catch_rsh /opt/gridengine/default/spool/compute-1-2/active_jobs/35828.1/pe_hostfile
compute-1-2
The primary node assigned by SGE to this run is compute-1-2
Warning: no access to tty (Bad file descriptor).
Thus no job control in this shell.
source /home/sarom/dir.git.branch.saromleang-travis-ci/install.info
setenv GMS_PATH /home/sarom/dir.git.branch.saromleang-travis-ci
setenv GMS_BUILD_DIR /home/sarom/dir.git.branch.saromleang-travis-ci
setenv GMS_TARGET linux64
setenv GMS_FORTRAN gfortran
setenv GMS_GFORTRAN_VERNO 4.4
setenv GMS_MATHLIB mkl-so
setenv GMS_MATHLIB none
setenv GMS_MATHLIB_PATH /share/apps/intel/compilers_and_libraries_2017.1.132/linux/mkl/lib/intel64
setenv GMS_MKL_VERNO 12
setenv GMS_DDI_COMM sockets
setenv GMS_LIBCCHEM false
setenv GMS_EIGEN_PATH
setenv GMS_PHI false
setenv GMS_SHMTYPE sysv
setenv GMS_OPENMP false
unset echo
wat3-aff
/home/sarom/dir.git.branch.saromleang-travis-ci/tests/solvent/efp1/parallel
----- GAMESS execution script 'rungms' -----
This job is running on host compute-1-2.local
under operating system Linux at Wed Aug 9 20:22:41 CDT 2017
Available scratch disk space (Kbyte units) at beginning of the job is
Filesystem           1K-blocks      Used Available Use% Mounted on
/dev/sda1             16126920   9109424   6198296  60% /
GAMESS temporary binary files will be written to /scratch
GAMESS supplementary output files will be written to /home/sarom/restart
Copying input file wat3-aff.inp to your run's scratch directory...
cp /home/sarom/dir.git.branch.saromleang-travis-ci/tests/solvent/efp1/parallel/wat3-aff.inp /scratch/wat3-aff.F05
unset echo
The generated host list is
compute-1-2.local
/home/sarom/dir.git.branch.saromleang-travis-ci/ddikick.x /home/sarom/dir.git.branch.saromleang-travis-ci/gamess.00.x wat3-aff -ddi 1 1 compute-1-2.local -scr /scratch

 Distributed Data Interface kickoff program.
 Initiating 1 compute processes on 1 nodes to run the following command:
 /home/sarom/dir.git.branch.saromleang-travis-ci/gamess.00.x wat3-aff 

          ******************************************************
          *         GAMESS VERSION = 20 APR 2017 (R1)          *
          *             FROM IOWA STATE UNIVERSITY             *
          * M.W.SCHMIDT, K.K.BALDRIDGE, J.A.BOATZ, S.T.ELBERT, *
          *   M.S.GORDON, J.H.JENSEN, S.KOSEKI, N.MATSUNAGA,   *
          *          K.A.NGUYEN, S.J.SU, T.L.WINDUS,           *
          *       TOGETHER WITH M.DUPUIS, J.A.MONTGOMERY       *
          *         J.COMPUT.CHEM.  14, 1347-1363(1993)        *
          **************** 64 BIT LINUX VERSION ****************

  SINCE 1993, STUDENTS AND POSTDOCS WORKING AT IOWA STATE UNIVERSITY
  AND ALSO IN THEIR VARIOUS JOBS AFTER LEAVING ISU HAVE MADE IMPORTANT
  CONTRIBUTIONS TO THE CODE:
     IVANA ADAMOVIC, CHRISTINE AIKENS, YURI ALEXEEV, POOJA ARORA,
     ANDREY ASADCHEV, ROB BELL, PRADIPTA BANDYOPADHYAY, JONATHAN BENTZ,
     BRETT BODE, KURT BRORSEN, CALEB CARLIN, GALINA CHABAN, WEI CHEN,
     CHEOL HO CHOI, PAUL DAY, ALBERT DEFUSCO, NUWAN DESILVA, TIM DUDLEY,
     DMITRI FEDOROV, GRAHAM FLETCHER, MARK FREITAG, KURT GLAESEMANN,
     DAN KEMP, GRANT MERRILL, NORIYUKI MINEZAWA, JONATHAN MULLIN,
     TAKESHI NAGATA, SEAN NEDD, HEATHER NETZLOFF, BOSILJKA NJEGIC, RYAN OLSON,
     MIKE PAK, SPENCER PRUITT, LUKE ROSKOP, JIM SHOEMAKER, LYUDMILA SLIPCHENKO,
     TONY SMITH, SAROM SOK LEANG, JIE SONG, TETSUYA TAKETSUGU, SIMON WEBB,
     PENG XU, SOOHAENG YOO, FEDERICO ZAHARIEV

  ADDITIONAL CODE HAS BEEN PROVIDED BY COLLABORATORS IN OTHER GROUPS:
     IOWA STATE UNIVERSITY:
          JOE IVANIC, AARON WEST, LAIMUTIS BYTAUTAS, KLAUS RUEDENBERG
     UNIVERSITY OF TOKYO: KIMIHIKO HIRAO, TAKAHITO NAKAJIMA,
          TAKAO TSUNEDA, MUNEAKI KAMIYA, SUSUMU YANAGISAWA,
          KIYOSHI YAGI, MAHITO CHIBA, SEIKEN TOKURA, NAOAKI KAWAKAMI
     UNIVERSITY OF AARHUS: FRANK JENSEN
     UNIVERSITY OF IOWA: VISVALDAS KAIRYS, HUI LI
     NATIONAL INST. OF STANDARDS AND TECHNOLOGY: WALT STEVENS, DAVID GARMER
     UNIVERSITY OF PISA: BENEDETTA MENNUCCI, JACOPO TOMASI
     UNIVERSITY OF MEMPHIS: HENRY KURTZ, PRAKASHAN KORAMBATH
     UNIVERSITY OF ALBERTA: TOBY ZENG, MARIUSZ KLOBUKOWSKI
     UNIVERSITY OF NEW ENGLAND: MARK SPACKMAN
     MIE UNIVERSITY: HIROAKI UMEDA
     NAT. INST. OF ADVANCED INDUSTRIAL SCIENCE AND TECHNOLOGY: KAZUO KITAURA
     MICHIGAN STATE UNIVERSITY:
          KAROL KOWALSKI, MARTA WLOCH, JEFFREY GOUR, JESSE LUTZ,
          WEI LI, PIOTR PIECUCH
     UNIVERSITY OF SILESIA: MONIKA MUSIAL, STANISLAW KUCHARSKI
     FACULTES UNIVERSITAIRES NOTRE-DAME DE LA PAIX:
          OLIVIER QUINET, BENOIT CHAMPAGNE
     UNIVERSITY OF CALIFORNIA - SANTA BARBARA: BERNARD KIRTMAN
     INSTITUTE FOR MOLECULAR SCIENCE:
          KAZUYA ISHIMURA, MICHIO KATOUDA, AND SHIGERU NAGASE
     UNIVERSITY OF NOTRE DAME: ANNA POMOGAEVA, DAN CHIPMAN
     KYUSHU UNIVERSITY:
          HARUYUKI NAKANO,
          FENG LONG GU, JACEK KORCHOWIEC, MARCIN MAKOWSKI, AND YURIKO AOKI,
          HIROTOSHI MORI AND EISAKU MIYOSHI
     PENNSYLVANIA STATE UNIVERSITY:
          TZVETELIN IORDANOV, CHET SWALINA, JONATHAN SKONE,
          SHARON HAMMES-SCHIFFER
     WASEDA UNIVERSITY:
          MASATO KOBAYASHI, TOMOKO AKAMA, TSUGUKI TOUMA,
          TAKESHI YOSHIKAWA, YASUHIRO IKABATA, JUNJI SEINO,
          YUYA NAKAJIMA, HIROMI NAKAI
     NANJING UNIVERSITY: SHUHUA LI
     UNIVERSITY OF NEBRASKA:
          PEIFENG SU, DEJUN SI, NANDUN THELLAMUREGE, YALI WANG, HUI LI
     UNIVERSITY OF ZURICH: ROBERTO PEVERATI, KIM BALDRIDGE
     N. COPERNICUS UNIVERSITY AND JACKSON STATE UNIVERSITY:
          MARIA BARYSZ
     UNIVERSITY OF COPENHAGEN: Jimmy Kromann, CASPER STEINMANN
     TOKYO INSTITUTE OF TECHNOLOGY: HIROYA NAKATA
     NAGOYA UNIVERSITY: YOSHIO NISHIMOTO, STEPHAN IRLE
     MOSCOW STATE UNIVERSITY: VLADIMIR MIRONOV

 EXECUTION OF GAMESS BEGUN Wed Aug  9 20:22:41 2017

            ECHO OF THE FIRST FEW INPUT CARDS -
 INPUT CARD>!   one DFT water, plus two fragments, with Ivana's parameterization            
 INPUT CARD>!                                                                               
 INPUT CARD>!   nserch= 0: FINAL E= -76.4303202191, R.M.S.=  0.0097278                      
 INPUT CARD>!   nserch=17: FINAL E= -76.4325420604  R.M.S.=  0.0000023                      
 INPUT CARD>!                                                                               
 INPUT CARD>!   This run takes 75 seconds on 2.66 GHz Cloverton (26 Oct 2015)               
 INPUT CARD>!                                                                               
 INPUT CARD> $contrl scftyp=rhf dfttyp=b3lyp runtyp=optimize $end                           
 INPUT CARD> $system mwords=3 $end                                                          
 INPUT CARD> $statpt opttol=1d-5 nstep=25 $end                                              
 INPUT CARD> $data                                                                          
 INPUT CARD>one water cut out of Grant's udu geometry for minimum of H2O trimer             
 INPUT CARD>C1                                                                              
 INPUT CARD>O     8.0    -1.19698     1.25895     0.98805                                   
 INPUT CARD>S   8                                                                           
 INPUT CARD>  1        11720.00000         0.7100000000E-03                                 
 INPUT CARD>  2        1759.000000         0.5470000000E-02                                 
 INPUT CARD>  3        400.8000000         0.2783700000E-01                                 
 INPUT CARD>  4        113.7000000         0.1048000000                                     
 INPUT CARD>  5        37.03000000         0.2830620000                                     
 INPUT CARD>  6        13.27000000         0.4487190000                                     
 INPUT CARD>  7        5.025000000         0.2709520000                                     
 INPUT CARD>  8        1.013000000         0.1545800000E-01                                 
 INPUT CARD> S   8                                                                          
 INPUT CARD>  1        11720.00000        -0.1600000000E-03                                 
 INPUT CARD>  2        1759.000000        -0.1263000000E-02                                 
 INPUT CARD>  3        400.8000000        -0.6267000000E-02                                 
 INPUT CARD>  4        113.7000000        -0.2571600000E-01                                 
 INPUT CARD>  5        37.03000000        -0.7092400000E-01                                 
 INPUT CARD>  6        13.27000000        -0.1654110000                                     
 INPUT CARD>  7        5.025000000        -0.1169550000                                     
 INPUT CARD>  8        1.013000000         0.5573680000                                     
 INPUT CARD> S   1                                                                          
 INPUT CARD>  1       0.3023000000          1.000000000                                     
 INPUT CARD> P   3                                                                          
 INPUT CARD>  1        17.70000000         0.4301800000E-01                                 
 INPUT CARD>  2        3.854000000         0.2289130000                                     
 INPUT CARD>  3        1.046000000         0.5087280000                                     
 INPUT CARD> P   1                                                                          
 INPUT CARD>  1       0.2753000000          1.000000000                                     
 INPUT CARD> D   1                                                                          
 INPUT CARD>  1        1.185000000          1.000000000                                     
 INPUT CARD> S   1                                                                          
 INPUT CARD>  1       0.789600000E-01      1.00000000                                       
 INPUT CARD> P   1                                                                          
 INPUT CARD>  1       0.685600000E-01      1.00000000                                       
 INPUT CARD> D   1                                                                          
 INPUT CARD>  1       0.332000000          1.00000000                                       
 INPUT CARD>                                                                                
 INPUT CARD>H     1.0    -2.03582     1.04477     0.61209                                   
    3000000 WORDS OF MEMORY AVAILABLE


     RUN TITLE
     ---------
 one water cut out of Grant's udu geometry for minimum of H2O trimer             

 THE POINT GROUP OF THE MOLECULE IS C1      
 THE ORDER OF THE PRINCIPAL AXIS IS     0
 *** WARNING! ATOM   1 SHELL    1 TYPE S HAS NORMALIZATION   0.99950133
 *** WARNING! ATOM   1 SHELL    2 TYPE S HAS NORMALIZATION   1.96527132
 *** WARNING! ATOM   1 SHELL    4 TYPE P HAS NORMALIZATION   1.45704510
 *** WARNING! ATOM   2 SHELL   10 TYPE S HAS NORMALIZATION   1.70173870
 *** WARNING! ATOM   3 SHELL   15 TYPE S HAS NORMALIZATION   1.70173870

 ATOM      ATOMIC                      COORDINATES (BOHR)
           CHARGE         X                   Y                   Z
 O           8.0    -2.2619642128        2.3790705322        1.8671437622
 H           1.0    -3.8471419603        1.9743290202        1.1566823798
 H           1.0    -1.0235511840        1.6994683753        0.7781513672

          INTERNUCLEAR DISTANCES (ANGS.)
          ------------------------------

                1 O          2 H          3 H     

   1 O       0.0000000    0.9438599 *  0.9438704 *
   2 H       0.9438599 *  0.0000000    1.5145473 *
   3 H       0.9438704 *  1.5145473 *  0.0000000  

  * ... LESS THAN  3.000


     ATOMIC BASIS SET
     ----------------
 THE CONTRACTED PRIMITIVE FUNCTIONS HAVE BEEN UNNORMALIZED
 THE CONTRACTED BASIS FUNCTIONS ARE NOW NORMALIZED TO UNITY

  SHELL TYPE  PRIMITIVE        EXPONENT          CONTRACTION COEFFICIENT(S)

 O         

      1   S       1         11720.0000000    0.000709645947
      1   S       2          1759.0000000    0.005467272292
      1   S       3           400.8000000    0.027823118610
      1   S       4           113.7000000    0.104747739711
      1   S       5            37.0300000    0.282920846357
      1   S       6            13.2700000    0.448495238698
      1   S       7             5.0250000    0.270816885213
      1   S       8             1.0130000    0.015450291607

      2   S       9         11720.0000000   -0.000314443412
      2   S      10          1759.0000000   -0.002482137681
      2   S      11           400.8000000   -0.012316355382
      2   S      12           113.7000000   -0.050538917344
      2   S      13            37.0300000   -0.139384903316
      2   S      14            13.2700000   -0.325077494818
      2   S      15             5.0250000   -0.229848307588
      2   S      16             1.0130000    1.095379346788

      3   S      17             0.3023000    1.000000000000

      4   P      18            17.7000000    0.062679166282
      4   P      19             3.8540000    0.333536565879
      4   P      20             1.0460000    0.741239641640

      5   P      21             0.2753000    1.000000000000

      6   D      22             1.1850000    1.000000000000

      7   S      23             0.0789600    1.000000000000

      8   P      24             0.0685600    1.000000000000

      9   D      25             0.3320000    1.000000000000

 H         

     10   S      26            13.0100000    0.033498726390
     10   S      27             1.9620000    0.234800801174
     10   S      28             0.4446000    0.813682957883

     11   S      29             0.1220000    1.000000000000

     12   P      30             0.7270000    1.000000000000

     13   S      31             0.0297400    1.000000000000

     14   P      32             0.1410000    1.000000000000

 H         

     15   S      33            13.0100000    0.033498726390
     15   S      34             1.9620000    0.234800801174
     15   S      35             0.4446000    0.813682957883

     16   S      36             0.1220000    1.000000000000

     17   P      37             0.7270000    1.000000000000

     18   S      38             0.0297400    1.000000000000

     19   P      39             0.1410000    1.000000000000

 TOTAL NUMBER OF BASIS SET SHELLS             =   19
 NUMBER OF CARTESIAN GAUSSIAN BASIS FUNCTIONS =   43
 NUMBER OF ELECTRONS                          =   10
 CHARGE OF MOLECULE                           =    0
 SPIN MULTIPLICITY                            =    1
 NUMBER OF OCCUPIED ORBITALS (ALPHA)          =    5
 NUMBER OF OCCUPIED ORBITALS (BETA )          =    5
 TOTAL NUMBER OF ATOMS                        =    3
 THE NUCLEAR REPULSION ENERGY IS        9.3197834854

     LEBEDEV GRID-BASED DFT OPTIONS
     ------------------------------
     DFTTYP=B3LYP   
     NRAD  =      96     NLEB  =     302
     NRAD0 =      24     NLEB0 =     110
     SWOFF =    5.00E-03 (PURE SCF -> DFT)
     SWITCH=    3.00E-04 (COARSE -> TIGHT GRID)
     THRESH=    0.00E+00 GTHRE=    1.00E+00

 GRIMME'S EMPIRICAL DISPERSION CORRECTION= F

     $CONTRL OPTIONS
     ---------------
 SCFTYP=RHF          RUNTYP=OPTIMIZE     EXETYP=RUN     
 MPLEVL=       0     CITYP =NONE         CCTYP =NONE         VBTYP =NONE    
 DFTTYP=B3LYP        TDDFT =NONE    
 MULT  =       1     ICHARG=       0     NZVAR =       0     COORD =UNIQUE  
 PP    =NONE         RELWFN=NONE         LOCAL =NONE         NUMGRD=       F
 ISPHER=      -1     NOSYM =       0     MAXIT =      30     UNITS =ANGS    
 PLTORB=       F     MOLPLT=       F     AIMPAC=       F     FRIEND=        
 NPRINT=       7     IREST =       0     GEOM  =INPUT   
 NORMF =       0     NORMP =       0     ITOL  =      20     ICUT  =       9
 INTTYP=BEST         GRDTYP=BEST         QMTTOL= 1.0E-06

     $SYSTEM OPTIONS
     ---------------
  REPLICATED MEMORY=     3000000 WORDS (ON EVERY NODE).
 DISTRIBUTED MEMDDI=           0 MILLION WORDS IN AGGREGATE,
 MEMDDI DISTRIBUTED OVER   1 PROCESSORS IS           0 WORDS/PROCESSOR.
 TOTAL MEMORY REQUESTED ON EACH PROCESSOR=     3000000 WORDS.
 TIMLIM=      525600.00 MINUTES, OR     365.0 DAYS.
 PARALL= F  BALTYP=  DLB     KDIAG=    0  COREFL= F
 MXSEQ2=     300 MXSEQ3=     150  mem10=         0

 READING $EFRAG GROUP
 COORD=CART      POSITION=OPTIMIZE  POLMETHD=FRGSCF   NBUFFMO=0
 READING COORDINATES OF FRAGMENT   1 NAMED   WATER 
 READING COORDINATES OF FRAGMENT   2 NAMED   WATER 
 FINISHED READING $EFRAG GROUP,   2 FRAGMENTS WILL BE USED.

 READING POTENTIAL PARAMETERS FOR FRAGMENT    1 FROM GROUP $WATER 
 READING POTENTIAL PARAMETERS FOR FRAGMENT    2 FROM GROUP $WATER 


     SUMMARY OF THE EFFECTIVE FRAGMENT POTENTIAL MODEL CHOSEN
     --------------------------------------------------------
 TOTAL NUMBER OF MULTIPOLE POINTS   =        10  (EFP1/EFP2 ELECTROSTATICS)
 TOTAL NUMBER OF POLARIZABLE POINTS =        10  (EFP1/EFP2 INDUCTION)
 TOTAL NUMBER OF L-J POINTS         =         0  (REPULSION AND DISPERSION)
 TOTAL NUMBER OF REPULSIVE POINTS   =         6  (EFP1 REPULSION/ETC.)

 THIS IS A -EFP1- TYPE RUN, WITH PAULI REPULSION, CHARGE TRANSFER, AND
 HIGHER ORDER EFFECTS COLLECTED IN A FITTED REPULSIVE POTENTIAL.

 OPTIONS FOR EFP SCREENING:
     ELECTROSTATIC AB INITIO-EFP GAUSSIAN SCREENING IS ON
     ELECTROSTATIC EFP-EFP SCREENING CHOICE IS EXPONENTIAL, FOR CHARGE/CHARGE
     POLARIZATION EFP-EFP SCREENING IS OFF

     $EWALD OPTIONS
     -----------

     IFEWLD   =        F         TINFOIL        =        T
     BETA    =    0.200         ELECTRIC CONST =     1.00
     EPSILON =     1.00         CUT_OFF        = 0.10E+04
     CUTLIST =  1000.00         LEVEL          =    1
     KMAX    =       10         EWLDPL         =        F
 READING INTER-FRAGMENT REPULSION $FRGRPL...

            MULTIPOLE COORDINATES, ELECTRONIC AND NUCLEAR CHARGES

                  X              Y              Z           ELEC.   NUC.
 O1         2.1467476193   0.0561248618   0.6514830343   -7.39824    8.0
 H2         2.4417344810   0.0325221334   2.4104059755   -0.75903    1.0
 H3         3.6747101064   0.5609481645  -0.1178467531   -0.75903    1.0
 BO21       2.2942410502   0.0443234976   1.5309445049   -0.54185    0.0
 BO31       2.9107288629   0.3085365132   0.2668181406   -0.54185    0.0
 O1         0.6205104253   0.2179987899   5.5265225484   -7.39824    8.0
 H2         1.0197167341   0.9514045576   7.1026362986   -0.75903    1.0
 H3        -0.7655374012   1.1306167572   4.8727763292   -0.75903    1.0
 BO21       0.8201135797   0.5847016738   6.3145794235   -0.54185    0.0
 BO31      -0.0725134879   0.6743077736   5.1996494388   -0.54185    0.0

   CHARGE SCREENING PARAMETERS (COEF AND ZETA)
   ICHGP=   5 AI-FRAGMENT SCREENING= 1   FRAGMENT-FRAGMENT SCREENING= 2

             GAUSSIAN DAMPING    EXPONENTIAL DAMPING
 O1         0.04734   0.27401      1.00000   1.93636
 H2         0.46793   1.12655      1.00000   9.99982
 H3         0.46793   1.12655      1.00000   9.99982
 BO21       0.01995   0.10159      1.00000   1.53706
 BO31       0.01995   0.10159      1.00000   1.53706
 O1         0.04734   0.27401      1.00000   1.93636
 H2         0.46793   1.12655      1.00000   9.99982
 H3         0.46793   1.12655      1.00000   9.99982
 BO21       0.01995   0.10159      1.00000   1.53706
 BO31       0.01995   0.10159      1.00000   1.53706

   SCREENING FOR POLARIZATION WITH EXPONENTIAL FORMULA  OFF

   SCREENING FOR POLARIZATION WITH TANG-TOENNIS FORMULA  OFF

                  DIPOLE MOMENTS AND THE SECOND MOMENT TENSOR

                  X        Y        Z           XX/XY    YY/XZ    ZZ/YZ
 O1            0.79435  0.20969  0.43121     -3.33635 -4.06189 -3.00711
                                              0.25117 -0.15774 -0.11926
 H2           -0.00917 -0.01061  0.12412     -0.52533 -0.52972 -0.52851
                                              0.00132  0.00163  0.00039
 H3            0.09039  0.03205 -0.08003     -0.52608 -0.52980 -0.52767
                                              0.00106  0.00219  0.00050
 BO21         -0.04390 -0.00155 -0.18206     -0.23004 -0.28391  0.01384
                                              0.01793  0.00156 -0.01885
 BO31         -0.16592 -0.05384  0.06815     -0.08766 -0.26780 -0.14464
                                              0.06723 -0.10577 -0.04082
 O1           -0.43001  0.71725  0.40192     -3.49288 -3.66823 -3.24425
                                             -0.33097  0.44385  0.20366
 H2            0.05009  0.02943  0.11057     -0.52818 -0.52661 -0.52876
                                             -0.00235 -0.00063  0.00158
 H3           -0.09406  0.04390 -0.06948     -0.52877 -0.52671 -0.52808
                                             -0.00183 -0.00072  0.00216
 BO21         -0.03155 -0.08586 -0.16342     -0.22177 -0.23033 -0.04800
                                             -0.00173  0.09298  0.08134
 BO31          0.14513 -0.10360  0.05726     -0.11017 -0.21165 -0.17828
                                             -0.10040  0.11052 -0.02967

                  THE THIRD MOMENT TENSOR

               XXX/XYY  YYY/YYZ  ZZZ/XZZ  XXY/YZZ  XXZ/XYZ
 O1            2.12413  0.52271  1.24074  0.22345  0.32114
               0.66968  0.34969  0.72755  0.18341 -0.01474
 H2           -0.06447 -0.03881  0.30439 -0.01300  0.10310
              -0.02144  0.10310 -0.02243 -0.01293  0.00007
 H3            0.19783  0.07482 -0.23503  0.02389 -0.07667
               0.06669 -0.07813  0.06626  0.02475  0.00054
 BO21         -0.16001 -0.01329 -0.74487 -0.00077 -0.20289
              -0.05592 -0.19758 -0.06394  0.00323 -0.00143
 BO31         -0.63537 -0.18113  0.23558 -0.08679  0.11865
              -0.19422  0.07138 -0.21639 -0.07124  0.01793
 O1           -1.15642  1.83994  1.12119  0.66469  0.30256
              -0.40394  0.35797 -0.34589  0.67495  0.03371
 H2            0.15523  0.04212  0.27110  0.01396  0.09147
               0.05155  0.09078  0.05091  0.01243 -0.00049
 H3           -0.22677  0.08037 -0.20545  0.02539 -0.06738
              -0.07533 -0.06798 -0.07602  0.02658 -0.00080
 BO21         -0.09366 -0.30343 -0.64068 -0.09918 -0.19332
              -0.03605 -0.19419 -0.06606 -0.14030 -0.01153
 BO31          0.54557 -0.36805  0.18954 -0.15938  0.09685
               0.18241  0.07095  0.18552 -0.12683 -0.02268

                  POLARIZABLE POINTS AND THE POLARIZABILITY TENSOR

              X       Y       Z       XX/YZ    YY/YX    ZZ/ZX    XY/ZY     XZ
 CT1       2.1471  0.0562  0.6517   0.00413  0.00562  0.00429 -0.00047 -0.00023
                                    0.00002 -0.00047 -0.00023  0.00002
 CT2       2.9943  0.3331  0.2723   2.65083  1.34012  1.41195  0.45062 -0.22323
                                   -0.08109  0.49062 -0.84390 -0.26605
 CT3       2.3471  0.0557  1.5995   1.33720  1.19137  2.87478  0.03508  0.14634
                                   -0.06351 -0.00406  0.76698  0.12183
 CT4       1.7845  0.4705  0.5614   2.81255  2.98948  2.66165 -0.75287 -0.11660
                                   -0.05304 -0.21860 -0.00496 -0.31280
 CT5       2.0666 -0.4750  0.5014   2.41073  3.34531  2.70800  0.40161 -0.07131
                                    0.06345 -0.13221 -0.18310  0.32470
 CT1       0.6203  0.2183  5.5267   0.00483  0.00463  0.00458  0.00073 -0.00028
                                   -0.00056  0.00073 -0.00028 -0.00056
 CT2      -0.1317  0.7382  5.2064   2.27072  1.78560  1.34658 -0.94521  0.18621
                                   -0.07183 -0.65062  0.59546 -0.48020
 CT3       0.8054  0.6441  6.3769   1.24086  1.61335  2.54914  0.25951  0.43413
                                    0.54409 -0.03432  0.02433  0.95251
 CT4       0.4292 -0.2937  5.6386   2.63780  3.19773  2.62814  0.11639  0.08333
                                   -0.43216  0.58754  0.12052 -0.05531
 CT5       1.0513  0.3303  5.1906   3.11780  2.39512  2.95112  0.42780 -0.27590
                                    0.00811 -0.04302 -0.31445 -0.36945

                    --------------                     ------------------
                      REP POINTS                         REP PARAMETERS  
                    --------------                     ------------------

                X         Y         Z               COEF       N          ZETA

  O1         2.14675   0.05612   0.65148        -0.11674       0       0.23037
                                                 1.31901       0       0.37696
  H2         2.44173   0.03252   2.41041         0.00010       0       0.09000
                                                 0.14666       0       0.65735
  H3         3.67471   0.56095  -0.11785         0.00010       0       0.09000
                                                 0.14666       0       0.65735
  O1         0.62051   0.21800   5.52652        -0.11674       0       0.23037
                                                 1.31901       0       0.37696
  H2         1.01972   0.95140   7.10264         0.00010       0       0.09000
                                                 0.14666       0       0.65735
  H3        -0.76554   1.13062   4.87278         0.00010       0       0.09000
                                                 0.14666       0       0.65735

 THERE ARE   1 FRAGMENT TYPES, AND   1 FRAGMENT-FRAGMENT INTERACTIONS.

 REPULSIVE FIT FOR FRAGMENT PAIR WATER -WATER  (COEF,EXPONENT)
 O1      -O1          73.16490700    1.54320600
 O1      -H2           5.71699600    1.82345900
 O1      -H3           5.71699600    1.82345900
 O1      -CENTER     -71.90585500    1.38347000
 H2      -O1           5.71699600    1.82345900
 H2      -H2         -70.63418800    3.85565700
 H2      -H3         -70.63418800    3.85565700
 H2      -CENTER      -0.35818900    1.06991400
 H3      -O1           5.71699600    1.82345900
 H3      -H2         -70.63418800    3.85565700
 H3      -H3         -70.63418800    3.85565700
 H3      -CENTER      -0.35818900    1.06991400
 CENTER  -O1         -71.90585500    1.38347000
 CENTER  -H2          -0.35818900    1.06991400
 CENTER  -H3          -0.35818900    1.06991400
 CENTER  -CENTER     103.69832500    1.34365300

          ----------------
          PROPERTIES INPUT
          ----------------

     MOMENTS            FIELD           POTENTIAL          DENSITY
 IEMOM =       1   IEFLD =       0   IEPOT =       0   IEDEN =       0
 WHERE =COMASS     WHERE =NUCLEI     WHERE =NUCLEI     WHERE =NUCLEI  
 OUTPUT=BOTH       OUTPUT=BOTH       OUTPUT=BOTH       OUTPUT=BOTH    
 IEMINT=       0   IEFINT=       0                     IEDINT=       0
                                                       MORB  =       0
          EXTRAPOLATION IN EFFECT
          DIIS IN EFFECT
 ORBITAL PRINTING OPTION: NPREO=     1    43     2     1

     -------------------------------
     INTEGRAL TRANSFORMATION OPTIONS
     -------------------------------
     NWORD  =            0
     CUTOFF = 1.0E-09     MPTRAN =       0
     DIRTRF =       F     AOINTS =DUP     

          ----------------------
          INTEGRAL INPUT OPTIONS
          ----------------------
 NOPK  =       1 NORDER=       0 SCHWRZ=       F

     ------------------------------------------
     THE POINT GROUP IS C1 , NAXIS= 0, ORDER= 1
     ------------------------------------------

     DIMENSIONS OF THE SYMMETRY SUBSPACES ARE
 A   =   43

 ..... DONE SETTING UP THE RUN .....
 STEP CPU TIME =     0.03 TOTAL CPU TIME =        0.0 (    0.0 MIN)
 TOTAL WALL CLOCK TIME=        0.0 SECONDS, CPU UTILIZATION IS 100.00%


          -----------------------------
          STATIONARY POINT LOCATION RUN
          -----------------------------

 OBTAINING INITIAL HESSIAN, HESS=GUESS   
 CARTESIAN COORDINATE OPTIMIZATION USING BADGER'S RULE FORCE CONSTANT GUESS
 DIAGONAL GUESS HESSIAN FOR FRAGMENTS(TRANS)=  0.0300
 DIAGONAL GUESS HESSIAN FOR FRAGMENTS(ROT)  =  0.0100

          PARAMETERS CONTROLLING GEOMETRY SEARCH ARE
          METHOD =QA                  UPHESS =BFGS    
          NNEG   =         0          NFRZ   =         0
          NSTEP  =        25          IFOLOW =         1
          HESS   =GUESS               RESTAR =         F
          IHREP  =         0          HSSEND =         F
          NPRT   =         0          NPUN   =         0
          OPTTOL = 1.000E-05          RMIN   = 1.500E-03
          RMAX   = 1.000E-01          RLIM   = 7.000E-02
          DXMAX  = 3.000E-01          PURIFY =         F
          MOVIE  =         F          TRUPD  =         T
          TRMAX  = 5.000E-01          TRMIN  = 5.000E-02
          ITBMAT =         5          STPT   =         F
          STSTEP = 1.000E-02          PROJCT=          T

 BEGINNING GEOMETRY SEARCH POINT NSERCH=   0 ...

 COORDINATES OF ALL ATOMS ARE (ANGS)
   ATOM   CHARGE       X              Y              Z
 ------------------------------------------------------------
 O           8.0  -1.1969800000   1.2589500000   0.9880500000
 H           1.0  -2.0358200000   1.0447700000   0.6120900000
 H           1.0  -0.5416400000   0.8993200000   0.4117800000
 COORDINATES OF FRAGMENT MULTIPOLE CENTERS (ANGS)
 MULTIPOLE NAME        X              Y              Z
 ------------------------------------------------------------
 FRAGNAME=WATER 
 O1                1.1360100000   0.0297000000   0.3447500000
 H2                1.2921103360   0.0172099731   1.2755320037
 H3                1.9445729859   0.2968410066  -0.0623618206
 FRAGNAME=WATER 
 O1                0.3283600000   0.1153600000   2.9245100000
 H2                0.5396108963   0.5034616467   3.7585535388
 H3               -0.4051049762   0.5982966655   2.5785623740

          ********************
          1 ELECTRON INTEGRALS
          ********************
 TIME TO DO ORDINARY INTEGRALS=      0.00
 TIME TO DO FRAGMENT INTEGRALS=      0.02
 ...... END OF ONE-ELECTRON INTEGRALS ......
 STEP CPU TIME =     0.02 TOTAL CPU TIME =        0.0 (    0.0 MIN)
 TOTAL WALL CLOCK TIME=        0.1 SECONDS, CPU UTILIZATION IS  83.33%

          -------------
          GUESS OPTIONS
          -------------
          GUESS =HUCKEL            NORB  =       0          NORDER=       0
          MIX   =       F          PRTMO =       F          PUNMO =       F
          TOLZ  = 1.0E-08          TOLE  = 1.0E-05
          SYMDEN=       F          PURIFY=       F

 INITIAL GUESS ORBITALS GENERATED BY HUCKEL   ROUTINE.
 HUCKEL GUESS REQUIRES     15976 WORDS.

 SYMMETRIES FOR INITIAL GUESS ORBITALS FOLLOW.   BOTH SET(S).
     5 ORBITALS ARE OCCUPIED (    1 CORE ORBITALS).
     2=A        3=A        4=A        5=A        6=A        7=A        8=A   
     9=A       10=A       11=A       12=A       13=A       14=A       15=A   
 ...... END OF INITIAL ORBITAL SELECTION ......
 STEP CPU TIME =     0.00 TOTAL CPU TIME =        0.0 (    0.0 MIN)
 TOTAL WALL CLOCK TIME=        0.1 SECONDS, CPU UTILIZATION IS  83.33%

                    ----------------------
                    AO INTEGRAL TECHNOLOGY
                    ----------------------
     S,P,L SHELL ROTATED AXIS INTEGRALS, REPROGRAMMED BY
        KAZUYA ISHIMURA (IMS) AND JOSE SIERRA (SYNSTAR).
     S,P,D,L SHELL ROTATED AXIS INTEGRALS PROGRAMMED BY
        KAZUYA ISHIMURA (INSTITUTE FOR MOLECULAR SCIENCE).
     S,P,D,F,G SHELL TO TOTAL QUARTET ANGULAR MOMENTUM SUM 5,
        ERIC PROGRAM BY GRAHAM FLETCHER (ELORET AND NASA ADVANCED
        SUPERCOMPUTING DIVISION, AMES RESEARCH CENTER).
     S,P,D,F,G,L SHELL GENERAL RYS QUADRATURE PROGRAMMED BY
        MICHEL DUPUIS (PACIFIC NORTHWEST NATIONAL LABORATORY).

          --------------------
          2 ELECTRON INTEGRALS
          --------------------

 THE -PK- OPTION IS OFF, THE INTEGRALS ARE NOT IN SUPERMATRIX FORM.
 STORING   15000 INTEGRALS/RECORD ON DISK, USING 12 BYTES/INTEGRAL.
 TWO ELECTRON INTEGRAL EVALUATION REQUIRES   90586 WORDS OF MEMORY.
 II,JST,KST,LST =  1  1  1  1 NREC =         1 INTLOC =    1
 II,JST,KST,LST =  2  1  1  1 NREC =         1 INTLOC =    2
 II,JST,KST,LST =  3  1  1  1 NREC =         1 INTLOC =    7
 II,JST,KST,LST =  4  1  1  1 NREC =         1 INTLOC =   22
 II,JST,KST,LST =  5  1  1  1 NREC =         1 INTLOC =   67
 II,JST,KST,LST =  6  1  1  1 NREC =         1 INTLOC =  214
 II,JST,KST,LST =  7  1  1  1 NREC =         1 INTLOC = 1189
 II,JST,KST,LST =  8  1  1  1 NREC =         1 INTLOC = 1589
 II,JST,KST,LST =  9  1  1  1 NREC =         1 INTLOC = 2864
 II,JST,KST,LST = 10  1  1  1 NREC =         1 INTLOC = 7967
 II,JST,KST,LST = 11  1  1  1 NREC =         2 INTLOC = 1768
 II,JST,KST,LST = 12  1  1  1 NREC =         2 INTLOC =11623
 II,JST,KST,LST = 13  1  1  1 NREC =         5 INTLOC = 3250
 II,JST,KST,LST = 14  1  1  1 NREC =         6 INTLOC = 3074
 II,JST,KST,LST = 15  1  1  1 NREC =         9 INTLOC =11471
 II,JST,KST,LST = 16  1  1  1 NREC =        11 INTLOC = 2926
 II,JST,KST,LST = 17  1  1  1 NREC =        12 INTLOC =11272
 II,JST,KST,LST = 18  1  1  1 NREC =        18 INTLOC = 3664
 II,JST,KST,LST = 19  1  1  1 NREC =        20 INTLOC = 5600
 TOTAL NUMBER OF NONZERO TWO-ELECTRON INTEGRALS =              401263
         27 INTEGRAL RECORDS WERE STORED ON DISK FILE  8.
  ...... END OF TWO-ELECTRON INTEGRALS .....
 STEP CPU TIME =     0.05 TOTAL CPU TIME =        0.1 (    0.0 MIN)
 TOTAL WALL CLOCK TIME=        0.1 SECONDS, CPU UTILIZATION IS  90.91%

 EFP ADDITIVE CONTRIBUTIONS TO THE "NUCLEAR ENERGY":
   -- NUCLEAR CHARGE - NUCLEAR CHARGE   =        9.3197834854
   -- NUCLEAR CHARGE - EFP CHARGE       =        0.0428227251
   -- NUCLEAR CHARGE - EFP DIPOLE       =       -0.0848428022
   -- NUCLEAR CHARGE - EFP QUADRUPOLE   =        0.0500888629
   -- NUCLEAR CHARGE - EFP OCTUPOLE     =        0.0008292967
   -- EFP CHARGE     - EFP CHARGE       =       -0.0040693878
   -- EFP CHARGE     - EFP DIPOLE       =       -0.0009776880
   -- EFP CHARGE     - EFP QUADRUPOLE   =        0.0000519353
   -- EFP CHARGE     - EFP OCTUPOLE     =        0.0000231538
   -- EFP DIPOLE     - EFP DIPOLE       =       -0.0028950815
   -- EFP DIPOLE     - EFP QUADRUPOLE   =       -0.0058860704
   -- EFP QUADRUPOLE - EFP QUADRUPOLE   =        0.0000266826
   -- EFP-EFP EXCHANGE REPULSION ENERGY =        0.0097290359
   -- EFP-EFP DISPERSION ENERGY (C6)    =        0.0000000000
   -- EFP-EFP DISPERSION ENERGY (C8)    =        0.0000000000
   -- TOTAL INTERFRAGMENT INTERACTION   =       -0.0039974202
 THE TOTAL NUCLEAR CHARGE/EFP ENERGY    =        9.3246841478

          --------------------------
             R-B3LYP SCF CALCULATION
          --------------------------

     NUCLEAR ENERGY =         9.3246841478
     MAXIT =   30     NPUNCH=    2
     EXTRAP=T  DAMP=F  SHIFT=F  RSTRCT=F  DIIS=T  DEM=F  SOSCF=F
         DENSITY MATRIX CONVERGENCE THRESHOLD=  1.00E-05
     COARSE -> FINE DFT GRID SWITCH THRESHOLD=  3.00E-04 (SWITCH IN $DFT)
                   HF -> DFT SWITCH THRESHOLD=  5.00E-03 (SWOFF IN $DFT)
     MEMORY REQUIRED FOR RHF ITERS=    181734 WORDS.

 DFT CODE IS SWITCHING FROM THE FINE GRID NRAD= 96,  NLEB=  302
                      TO THE COARSE GRID NRAD0= 24, NLEB0=  110

     EXCHANGE FUNCTIONAL   =B88&HFX   
     CORRELATION FUNCTIONAL=LYP88&VWN5
     DFT THRESHOLD         =.460E-07
     GRID CHANGE THRESHOLD =.300E-03
 FOR AN EULER-MACLAURIN QUADRATURE USING  96 RADIAL POINTS:
 SMALLEST GAUSSIAN PRIMITIVE EXPONENT=        0.0297400000 OF TYPE -S-
 ON ATOM NUMBER   2 HAS RADIAL NORMALIZATION=  1.000000
  LARGEST GAUSSIAN PRIMITIVE EXPONENT=    11720.0000000000 OF TYPE -S-
 ON ATOM NUMBER   1 HAS RADIAL NORMALIZATION=  1.000000
 DFT IS SWITCHED OFF, PERFORMING PURE SCF UNTIL SWOFF THRESHOLD IS REACHED.

 ITER EX DEM     TOTAL ENERGY        E CHANGE  DENSITY CHANGE    DIIS ERROR
          * * *   INITIATING DIIS PROCEDURE   * * *
   1  0  0      -75.7737504300   -75.7737504300   0.234330048   0.470726681
   2  1  0      -76.0482694769    -0.2745190469   0.062856981   0.077286239
   3  2  0      -76.0645587416    -0.0162892647   0.024876396   0.030528515
   4  3  0      -76.0662655671    -0.0017068255   0.012685383   0.015982148
   5  4  0      -76.0665716071    -0.0003060400   0.003563103   0.002972572
 CONVERGED TO SWOFF, SO DFT CALCULATION IS NOW SWITCHED ON.
          * * *   INITIATING DIIS PROCEDURE   * * *
   6  5  0      -76.4242256741    -0.3576540670   0.080200037   0.067312067
   7  6  0      -76.4297418384    -0.0055161643   0.009103255   0.005506572
   8  7  0      -76.4297034706     0.0000383677   0.005389267   0.007780052
   9  8  0      -76.4297882531    -0.0000847824   0.000730758   0.001378612
  10  9  0      -76.4297906051    -0.0000023521   0.000041765   0.000066940
 DFT CODE IS SWITCHING BACK TO THE FINE GRID
          * * *   INITIATING DIIS PROCEDURE   * * *
  11 10  0      -76.4303192474    -0.0005286423   0.001286350   0.000981299
  12 11  0      -76.4303201569    -0.0000009095   0.000274011   0.000165614
  13 12  0      -76.4303201292     0.0000000276   0.000160566   0.000246498
  14 13  0      -76.4303202180    -0.0000000888   0.000011981   0.000024099
  15 14  0      -76.4303202191    -0.0000000010   0.000001205   0.000001969
  16 15  0      -76.4303202191    -0.0000000000   0.000000097   0.000000135

          -----------------
          DENSITY CONVERGED
          -----------------
     TIME TO FORM FOCK OPERATORS=       2.1 SECONDS (       0.1 SEC/ITER)
     TIME TO SOLVE SCF EQUATIONS=       0.0 SECONDS (       0.0 SEC/ITER)

 FINAL R-B3LYP ENERGY IS      -76.4303202191 AFTER  16 ITERATIONS
 DFT EXCHANGE + CORRELATION ENERGY =        -7.5200966207
 TOTAL ELECTRON NUMBER             =         9.9999979257

          INDUCED DIPOLE     ATOMIC UNITS          DEBYE
                X(IND)           -0.04636         -0.11784
                Y(IND)           -0.02023         -0.05143
                Z(IND)            0.23970          0.60925

          ------------
          EIGENVECTORS
          ------------

                      1          2          3          4          5
                  -19.1415    -1.0146    -0.5302    -0.3899    -0.3145
                     A          A          A          A          A   
    1  O  1  S    1.004367  -0.025942  -0.000117  -0.000014  -0.001929
    2  O  1  S    0.013295   0.419415   0.013730   0.156979   0.011486
    3  O  1  S   -0.001398   0.372083   0.019679   0.339998   0.029810
    4  O  1  X   -0.000233  -0.021048   0.518169   0.069848   0.012439
    5  O  1  Y   -0.000588  -0.057353  -0.045931   0.253207   0.558004
    6  O  1  Z   -0.000886  -0.089767  -0.060643   0.494298  -0.290950
    7  O  1  X    0.000081   0.007748   0.138478   0.042669   0.004497
    8  O  1  Y    0.000178   0.016465  -0.013626   0.128048   0.375026
    9  O  1  Z    0.000251   0.037808  -0.008688   0.268731  -0.205180
   10  O  1 XX   -0.005116  -0.001524  -0.008207   0.000283  -0.000078
   11  O  1 YY   -0.005288  -0.013304   0.002139  -0.000450  -0.011396
   12  O  1 ZZ   -0.005212  -0.008050   0.004438  -0.012197   0.009208
   13  O  1 XY   -0.000005  -0.000311  -0.012697  -0.001640  -0.002487
   14  O  1 XZ    0.000002   0.000142  -0.020550  -0.003135   0.001300
   15  O  1 YZ    0.000083   0.005656   0.003341  -0.011379  -0.006830
   16  O  1  S   -0.000133  -0.016666   0.020437   0.167488  -0.019605
   17  O  1  X    0.000001   0.002930   0.016193  -0.000201   0.006840
   18  O  1  Y   -0.000048  -0.000007  -0.004846   0.021110   0.086155
   19  O  1  Z   -0.000079   0.002469  -0.004165   0.048326  -0.047037
   20  O  1 XX    0.001158  -0.065388   0.016986   0.026745  -0.001184
   21  O  1 YY    0.001182  -0.028950  -0.002978  -0.000555  -0.017936
   22  O  1 ZZ    0.001102  -0.040393  -0.011458   0.008491   0.003192
   23  O  1 XY   -0.000012   0.001369   0.020484  -0.004079  -0.000208
   24  O  1 XZ   -0.000021   0.003598   0.042345  -0.001882  -0.002958
   25  O  1 YZ   -0.000093  -0.015239  -0.008132  -0.005738  -0.000782
   26  H  2  S   -0.000009   0.230028  -0.375755  -0.195010  -0.013821
   27  H  2  S   -0.000675   0.054561  -0.179015  -0.092768   0.007572
   28  H  2  X   -0.000120   0.039932  -0.024590  -0.022860  -0.001471
   29  H  2  Y   -0.000032   0.006632  -0.014071   0.004470   0.024385
   30  H  2  Z   -0.000056   0.012392  -0.023270   0.011835  -0.013881
   31  H  2  S    0.000094   0.002398  -0.003206  -0.014021   0.001841
   32  H  2  X   -0.000240   0.020802  -0.038675  -0.005100   0.000576
   33  H  2  Y   -0.000144   0.006331  -0.005371   0.005050   0.029597
   34  H  2  Z   -0.000232   0.011243  -0.006712   0.009791  -0.011639
   35  H  3  S    0.000006   0.219101   0.355936  -0.209416  -0.013612
   36  H  3  S   -0.000797   0.049826   0.128629  -0.103118   0.015583
   37  H  3  X    0.000068  -0.035512  -0.022858   0.029078   0.002967
   38  H  3  Y   -0.000039   0.015034   0.021070  -0.003732   0.021326
   39  H  3  Z   -0.000065   0.021630   0.028744   0.000347  -0.012429
   40  H  3  S    0.000075   0.002407   0.002781  -0.010713   0.005357
   41  H  3  X    0.000176  -0.023788  -0.056366   0.032971   0.001271
   42  H  3  Y   -0.000200   0.012473   0.021121  -0.009713   0.009154
   43  H  3  Z   -0.000312   0.013629   0.013189  -0.005070  -0.000650

                      6          7          8          9         10
                   -0.0028     0.0551     0.1097     0.1316     0.1434
                     A          A          A          A          A   
    1  O  1  S    0.000069  -0.005630   0.017838  -0.007633  -0.018486
    2  O  1  S   -0.103707  -0.042907   0.006431  -0.108989  -0.148170
    3  O  1  S   -0.310992  -0.232756   0.249202  -0.094826   0.004634
    4  O  1  X    0.092262  -0.077344   0.078969   0.082283   0.081265
    5  O  1  Y    0.035384  -0.014210   0.112655   0.163724  -0.116691
    6  O  1  Z    0.069237   0.033697   0.197628  -0.089936   0.086446
    7  O  1  X    0.067530  -0.186641   0.042739  -0.053495   0.046344
    8  O  1  Y    0.038119   0.013802   0.002866   0.117928  -0.213747
    9  O  1  Z    0.099272   0.111199   0.039959  -0.144360  -0.050513
   10  O  1 XX    0.003978  -0.001282   0.007091   0.001579   0.001453
   11  O  1 YY    0.004833   0.003937   0.003943  -0.006902   0.004610
   12  O  1 ZZ    0.002473   0.001830  -0.001733   0.010737  -0.005097
   13  O  1 XY    0.000481   0.003798   0.000699   0.000967   0.000613
   14  O  1 XZ   -0.001892   0.000283   0.000171  -0.001706   0.003263
   15  O  1 YZ   -0.001036   0.000691  -0.010140  -0.000671   0.008095
   16  O  1  S   -0.691092  -0.635770   3.051606   1.779785   2.650346
   17  O  1  X    0.059823  -0.845301  -0.138546  -0.921816   0.135982
   18  O  1  Y    0.095518   0.317675  -0.908289  -0.697555   0.767821
   19  O  1  Z    0.085546   0.173879  -1.446665   0.798109  -0.233648
   20  O  1 XX    0.010128  -0.013481   0.126402   0.048022   0.058357
   21  O  1 YY   -0.000691  -0.041989   0.081393   0.021823  -0.019967
   22  O  1 ZZ    0.002198  -0.044441   0.105779  -0.015389   0.019048
   23  O  1 XY   -0.007196  -0.007892  -0.010407  -0.000158  -0.001151
   24  O  1 XZ    0.004272   0.015089  -0.009190   0.026199  -0.010515
   25  O  1 YZ   -0.004036  -0.008399   0.047155  -0.001000  -0.012356
   26  H  2  S    0.042487   0.000840   0.018884   0.042320   0.090359
   27  H  2  S    0.283020  -0.679333  -1.301061  -0.992069  -0.450628
   28  H  2  X   -0.018956  -0.000092  -0.029319  -0.028503  -0.026060
   29  H  2  Y   -0.004735   0.000183  -0.008501  -0.009966  -0.003063
   30  H  2  Z   -0.009070  -0.002460  -0.015143  -0.005124  -0.013118
   31  H  2  S    1.314173  -2.485051  -0.793521  -1.637635  -0.820658
   32  H  2  X   -0.051805  -0.135382  -0.414286  -0.395168  -0.503512
   33  H  2  Y   -0.034611  -0.118048  -0.062333  -0.099423  -0.189930
   34  H  2  Z   -0.004328  -0.056649  -0.131253  -0.330672  -0.251739
   35  H  3  S    0.046326   0.031008  -0.033308   0.060805   0.027079
   36  H  3  S    0.325988   1.204703  -1.531240   0.311073  -0.692799
   37  H  3  X    0.005613   0.003191   0.027640  -0.003651   0.014700
   38  H  3  Y   -0.000893  -0.002557  -0.012325  -0.002958   0.000531
   39  H  3  Z   -0.004121  -0.008051  -0.021593   0.003114  -0.008952
   40  H  3  S   -0.146973   3.123887  -0.254297   0.731670  -0.574564
   41  H  3  X   -0.118513  -0.406397   0.141747   0.035488   0.134027
   42  H  3  Y    0.053539   0.194838   0.014385   0.171989  -0.306472
   43  H  3  Z    0.027539   0.229837  -0.070735  -0.195263  -0.184570

                     11         12         13         14         15
                    0.1907     0.2129     0.2756     0.3102     0.3211
                     A          A          A          A          A   
    1  O  1  S    0.001714   0.016685   0.011952  -0.019718  -0.024530
    2  O  1  S    0.062130   0.036278   0.084322  -0.008960  -0.070903
    3  O  1  S    0.073877  -0.051958   0.470554   0.183957  -0.241019
    4  O  1  X    0.250766   0.149195   0.117230   0.049131  -0.033404
    5  O  1  Y   -0.053937   0.034000  -0.066754  -0.044308  -0.103685
    6  O  1  Z   -0.006323  -0.027273  -0.132645  -0.188240  -0.110624
    7  O  1  X   -0.029536   0.325872   0.093050   0.037772   0.008893
    8  O  1  Y    0.032839   0.121043  -0.099718  -0.025935  -0.401553
    9  O  1  Z    0.075872   0.057185  -0.208403  -0.548711  -0.251833
   10  O  1 XX    0.009526   0.012215  -0.023450   0.006438   0.020373
   11  O  1 YY   -0.006368  -0.004510   0.012806   0.003435  -0.005320
   12  O  1 ZZ   -0.011403  -0.004366   0.009733  -0.010190  -0.005650
   13  O  1 XY   -0.007098   0.009124  -0.001643   0.018620  -0.019076
   14  O  1 XZ   -0.000478   0.013316   0.020503  -0.011732   0.000979
   15  O  1 YZ   -0.001917  -0.000670   0.004950  -0.001036  -0.009244
   16  O  1  S   -2.476310  -2.464889   3.465990   3.363009   2.154527
   17  O  1  X   -2.028466   1.922948  -0.628581  -0.171154   0.407601
   18  O  1  Y    0.493357   0.113596  -0.164155  -0.106152  -1.156841
   19  O  1  Z    0.370467   0.411774  -0.378785  -1.380883  -0.866487
   20  O  1 XX   -0.062315   0.004079   0.085460  -0.091547  -0.147317
   21  O  1 YY   -0.003864   0.042150   0.046461  -0.036464  -0.061163
   22  O  1 ZZ   -0.005903   0.036772   0.053768  -0.011288  -0.054391
   23  O  1 XY    0.056239  -0.013643   0.027159  -0.018968   0.034208
   24  O  1 XZ    0.043928  -0.007417  -0.008049   0.039770   0.013605
   25  O  1 YZ   -0.001977  -0.012462  -0.034492  -0.004957   0.010356
   26  H  2  S    0.021530   0.249946  -0.087135  -0.056287   0.010517
   27  H  2  S   -0.237695   2.775935  -1.332258  -1.319636  -0.753448
   28  H  2  X   -0.029047   0.026682  -0.001022  -0.025882  -0.023480
   29  H  2  Y    0.001385  -0.001715  -0.006871  -0.011993   0.021338
   30  H  2  Z   -0.002784   0.001905  -0.020386   0.010122   0.007220
   31  H  2  S   -1.968635   0.990012  -0.759233  -0.329112   0.184356
   32  H  2  X   -0.411543  -0.150107   0.540237  -0.022747  -0.207337
   33  H  2  Y    0.050180  -0.155865  -0.155437  -0.840322   1.281186
   34  H  2  Z   -0.105409  -0.085603  -0.929573   0.911569   0.290823
   35  H  3  S    0.012873  -0.140991  -0.264778  -0.141593  -0.028480
   36  H  3  S    2.296807  -0.515605  -2.756327  -2.203922  -1.249348
   37  H  3  X   -0.033523   0.011137  -0.021320   0.024349   0.046722
   38  H  3  Y    0.021797   0.004434  -0.008791   0.000352  -0.006402
   39  H  3  Z    0.039520   0.013251   0.000801   0.000026  -0.003620
   40  H  3  S    2.512529  -0.451749   0.378303  -0.159690  -0.452714
   41  H  3  X   -0.118005  -0.060455   0.356292   0.389493   0.100934
   42  H  3  Y    0.188551   0.080056  -0.472834   0.272305   0.224891
   43  H  3  Z    0.671302   0.194319   0.097519   0.207165   0.523452

                     16         17         18         19         20
                    0.3747     0.5016     0.5144     0.6313     0.6676
                     A          A          A          A          A   
    1  O  1  S    0.012463  -0.093232  -0.012944  -0.041158   0.045191
    2  O  1  S    0.061523  -0.296693  -0.003663  -0.098644   0.063132
    3  O  1  S    0.325898  -2.383183  -0.233176  -1.080397   1.071578
    4  O  1  X    0.041116   0.146719   0.308568  -0.027073   0.235780
    5  O  1  Y   -0.168141   0.069423  -0.039477   0.022736  -0.011778
    6  O  1  Z    0.028965   0.144228  -0.038271   0.048357  -0.036246
    7  O  1  X   -0.037363   0.615410   0.818759  -1.176453  -0.075235
    8  O  1  Y   -0.438689   0.244736  -0.058003   0.248186  -0.143653
    9  O  1  Z    0.180133   0.433795  -0.009664   0.375413  -0.252393
   10  O  1 XX   -0.003459   0.010702  -0.014666   0.003940   0.037033
   11  O  1 YY   -0.012391   0.003315   0.004056  -0.000117  -0.008308
   12  O  1 ZZ    0.012486  -0.001757   0.005905  -0.010806  -0.004119
   13  O  1 XY    0.016717  -0.000361  -0.005017   0.020928   0.021195
   14  O  1 XZ    0.000890   0.000106  -0.011643   0.032816   0.036680
   15  O  1 YZ   -0.007530  -0.006535   0.000762  -0.010858   0.001896
   16  O  1  S    0.792276  -6.026202  -0.761080  -3.135061   3.870622
   17  O  1  X   -0.468582   0.269329   2.755015  -1.916978  -1.015761
   18  O  1  Y   -0.797744   0.379552  -0.239521   0.468788  -0.293793
   19  O  1  Z    0.492304   0.627257  -0.139932   0.689396  -0.568424
   20  O  1 XX    0.035104  -0.469432  -0.124424  -0.282847   0.672491
   21  O  1 YY    0.044046  -0.479123  -0.083781  -0.179674   0.093479
   22  O  1 ZZ    0.067464  -0.487928  -0.056628  -0.235794   0.091785
   23  O  1 XY    0.007929   0.023215   0.042008   0.234019   0.178233
   24  O  1 XZ    0.027774   0.004588   0.066972   0.365013   0.389692
   25  O  1 YZ   -0.025493  -0.013131  -0.024749  -0.135823   0.088831
   26  H  2  S   -0.010693   0.278311   0.059093   0.083988   0.590798
   27  H  2  S   -0.427470   7.074999   3.151019  -5.542267  -3.312282
   28  H  2  X   -0.001631  -0.024539   0.006066  -0.062252  -0.166267
   29  H  2  Y   -0.004101  -0.003632  -0.002931  -0.038987  -0.051791
   30  H  2  Z   -0.005358  -0.006280  -0.003503  -0.057504  -0.089434
   31  H  2  S   -0.307407   0.846477   1.488965  -0.816358  -0.210246
   32  H  2  X    0.137654   3.516983   0.194802  -2.446247   0.056911
   33  H  2  Y    0.134980   0.434465   0.887790   0.056320  -0.152858
   34  H  2  Z   -0.588621   0.837319   1.412724   0.093314  -0.226683
   35  H  3  S   -0.108649   0.071290  -0.173939  -0.198611  -0.204164
   36  H  3  S   -0.673812   0.679824  -2.135924   9.725155  -2.074945
   37  H  3  X   -0.019854   0.003229  -0.013499  -0.083007   0.004398
   38  H  3  Y    0.016517  -0.004616   0.007098   0.063602   0.030783
   39  H  3  Z    0.010783  -0.011484   0.017849   0.099276   0.055311
   40  H  3  S    0.202013   0.246112  -1.333807   1.291484  -0.273627
   41  H  3  X    0.458819   0.586048  -0.823645  -3.467398   1.133011
   42  H  3  Y    1.232216   0.497431  -0.630241   1.093867  -0.563768
   43  H  3  Z   -0.773920   0.748133  -1.314285   1.652416  -0.815618

                     21         22         23         24         25
                    0.7806     0.8926     0.9148     0.9737     1.0417
                     A          A          A          A          A   
    1  O  1  S   -0.058154   0.034580  -0.087960   0.008824  -0.270195
    2  O  1  S    0.047287   0.034168  -0.071065   0.018963  -0.164286
    3  O  1  S   -0.152537  -0.026592   0.707194  -0.006938  -1.073975
    4  O  1  X    0.060532  -0.002503   0.040714   0.005502  -0.035688
    5  O  1  Y   -0.021532   0.222107   0.154524   0.049132   0.020647
    6  O  1  Z   -0.059476  -0.196529   0.195184  -0.074023   0.054582
    7  O  1  X    0.291001   0.075165  -0.148563   0.043423   0.123651
    8  O  1  Y    0.035641  -0.061238  -0.114734  -0.058476   0.132896
    9  O  1  Z    0.099597   0.088225  -0.179060   0.059074   0.134365
   10  O  1 XX   -0.048862  -0.000889   0.025582  -0.005542  -0.061977
   11  O  1 YY   -0.004905   0.012346  -0.028599   0.002528  -0.027814
   12  O  1 ZZ   -0.013718  -0.003565  -0.013007   0.001033  -0.036844
   13  O  1 XY    0.009086   0.002457  -0.003705   0.002459  -0.001245
   14  O  1 XZ    0.014143  -0.000579  -0.003296   0.002571  -0.001166
   15  O  1 YZ   -0.015584   0.002216   0.018455  -0.003103  -0.013217
   16  O  1  S   -3.459209  -0.396148   1.718845  -0.177625  -2.007753
   17  O  1  X    0.134193  -0.027649   0.035438   0.015109   0.090233
   18  O  1  Y    0.573460   0.709506   0.263816   0.061820   0.215067
   19  O  1  Z    0.997700  -0.412528   0.240943  -0.021288   0.255239
   20  O  1 XX   -0.667564  -0.003202   0.275324   0.005771  -0.882812
   21  O  1 YY    0.094236  -0.585488  -0.377405  -0.195597  -1.928791
   22  O  1 ZZ   -0.485075   0.983742  -0.738671   0.249901  -1.327471
   23  O  1 XY    0.041259  -0.223667  -0.123895   1.044386  -0.040615
   24  O  1 XZ    0.163909   0.202529  -0.307454  -0.586295   0.013397
   25  O  1 YZ   -0.376992  -0.449087  -0.764680  -0.080313   0.455750
   26  H  2  S   -0.331507   0.000059   0.157555  -0.022483  -0.398593
   27  H  2  S    4.232582   0.435711  -1.437659   0.325246   2.976689
   28  H  2  X    0.114429   0.026353  -0.141333   0.021052   0.108478
   29  H  2  Y    0.008573   0.012675   0.001907  -0.028346   0.013892
   30  H  2  Z    0.006488  -0.004993  -0.004695   0.014353   0.018063
   31  H  2  S    0.248119   0.037840  -0.159620   0.033570   0.003250
   32  H  2  X    1.087939   0.112411  -0.255970   0.102513   1.137518
   33  H  2  Y    0.077010  -0.549822  -0.332038   0.690765   0.345086
   34  H  2  Z    0.128130   0.362976  -0.495557  -0.369093   0.719303
   35  H  3  S   -0.611212  -0.032119   0.198367  -0.073097  -0.374860
   36  H  3  S    1.388936  -0.195031  -0.395077  -0.050094   2.839402
   37  H  3  X   -0.084950  -0.011955   0.097755  -0.007122  -0.066716
   38  H  3  Y    0.041508   0.012500  -0.017914   0.029056   0.008511
   39  H  3  Z    0.072353   0.001147  -0.041716  -0.004503   0.024227
   40  H  3  S   -0.158981   0.004617  -0.071369  -0.036821   0.008093
   41  H  3  X    1.077081   0.334641  -0.553049   0.184589  -0.878183
   42  H  3  Y   -0.180838  -0.500602  -0.308428  -0.766512   0.524064
   43  H  3  Z   -0.310792   0.179438  -0.286621   0.382555   0.956275

                     26         27         28         29         30
                    1.1068     1.2169     1.2478     1.7661     1.7761
                     A          A          A          A          A   
    1  O  1  S   -0.139360   0.012011  -0.010661   0.068262  -0.020864
    2  O  1  S   -0.150332   0.011128  -0.000805  -0.041124   0.004523
    3  O  1  S    1.097720   0.067430  -0.069101   2.347739  -0.697416
    4  O  1  X    0.092779  -0.074071   0.586348   0.066980  -0.298625
    5  O  1  Y    0.342513  -0.793251  -0.141422   0.311863  -0.058808
    6  O  1  Z    0.562450   0.482102  -0.034107   0.511270  -0.107811
    7  O  1  X   -0.179550   0.263486  -2.059381  -0.205711   0.794286
    8  O  1  Y   -0.718201   1.390065   0.351618  -1.063731   0.239055
    9  O  1  Z   -1.184874  -0.903975   0.173371  -1.729627   0.462976
   10  O  1 XX    0.056246  -0.002740   0.020212  -0.105612   0.053342
   11  O  1 YY   -0.039568  -0.003868  -0.008657   0.021968  -0.014718
   12  O  1 ZZ   -0.002844   0.011053  -0.016598  -0.017888  -0.009661
   13  O  1 XY   -0.006404  -0.003940   0.044471   0.009086   0.026912
   14  O  1 XZ   -0.006866  -0.006866   0.076487   0.027373   0.047461
   15  O  1 YZ    0.038391  -0.004365  -0.015583  -0.045589   0.003002
   16  O  1  S    3.171323   0.090597  -0.195705   4.681465  -1.326450
   17  O  1  X   -0.061126   0.149280  -1.287022   0.173583   1.032158
   18  O  1  Y   -0.405529   0.179575   0.166950  -0.367847  -0.000908
   19  O  1  Z   -0.668014  -0.149413   0.170558  -0.598247   0.029970
   20  O  1 XX   -1.112271   0.056059  -0.288417   2.267685  -0.787539
   21  O  1 YY   -0.171224  -0.311317  -0.075431   0.794427  -0.162361
   22  O  1 ZZ    0.038733   0.433267   0.152803   1.025685  -0.212594
   23  O  1 XY    0.143262   0.024226  -0.374461  -0.124201  -0.295316
   24  O  1 XZ    0.183321   0.078077  -0.634566  -0.360171  -0.484201
   25  O  1 YZ    0.198692  -0.266410   0.121668   0.240371   0.008538
   26  H  2  S    0.262988  -0.025384   0.299154  -1.050212   0.771633
   27  H  2  S   -1.526334   0.519706  -4.762408  -3.723968   1.730583
   28  H  2  X   -0.268934   0.032526  -0.279800   0.438550   0.285058
   29  H  2  Y   -0.061129   0.001660  -0.104293  -0.060691  -0.368365
   30  H  2  Z   -0.114736   0.022985  -0.197053  -0.331288  -0.624153
   31  H  2  S   -0.169845   0.049319  -0.370645  -0.177662   0.552883
   32  H  2  X   -0.304179   0.149631  -1.487389  -1.411032   0.042416
   33  H  2  Y    0.235725  -0.499500  -0.514223  -0.289370   0.447860
   34  H  2  Z    0.355876   0.396216  -0.752688  -0.502209   0.739901
   35  H  3  S    0.267134   0.021412  -0.406184  -1.234299  -0.061719
   36  H  3  S   -1.964978  -0.730665   5.219550  -3.984326   0.435530
   37  H  3  X    0.221357   0.027676  -0.196900  -0.147885   0.619504
   38  H  3  Y   -0.104681  -0.030322   0.145032  -0.019354   0.311152
   39  H  3  Z   -0.172906  -0.019278   0.258020   0.158599   0.464526
   40  H  3  S   -0.237585  -0.062847   0.373686  -0.416872  -0.377541
   41  H  3  X    0.591243   0.233285  -1.167344   0.792542  -0.831554
   42  H  3  Y    0.094751  -0.768078   0.705827  -0.655059  -0.089345
   43  H  3  Z    0.210982   0.181277   1.340587  -1.082740  -0.185279

                     31         32         33         34         35
                    1.7863     1.8781     2.1901     2.2064     2.4279
                     A          A          A          A          A   
    1  O  1  S   -0.009183   0.001163   0.000578  -0.004687  -0.008095
    2  O  1  S    0.000767   0.000739  -0.048847  -0.000225  -0.024271
    3  O  1  S   -0.283150   0.058702  -0.198342  -0.302966  -0.309183
    4  O  1  X   -0.021372   0.019950   0.186425   0.884344   0.154064
    5  O  1  Y   -0.036913  -0.026028   0.116246  -0.103231   0.004426
    6  O  1  Z   -0.058859   0.015034   0.197409  -0.148921   0.008265
    7  O  1  X    0.040899  -0.036346  -0.457115  -2.165422   3.622374
    8  O  1  Y    0.001953  -0.680205  -0.523279   0.425829  -0.234120
    9  O  1  Z    0.292132   0.366369  -0.877895   0.636180  -0.289052
   10  O  1 XX    0.011176  -0.003500   0.075935  -0.011569   0.123191
   11  O  1 YY    0.000234  -0.048394  -0.043810   0.000693  -0.049123
   12  O  1 ZZ    0.000567   0.051024  -0.087988   0.017313  -0.081308
   13  O  1 XY   -0.064534   0.005713  -0.020679  -0.024500   0.186145
   14  O  1 XZ    0.035617  -0.003906  -0.031420  -0.036735   0.320211
   15  O  1 YZ    0.005580  -0.030605  -0.045681   0.025216  -0.041611
   16  O  1  S   -0.565049   0.097964   0.209879  -0.456529  -0.355856
   17  O  1  X   -0.010240  -0.021479  -0.054510  -0.544125   1.178471
   18  O  1  Y    0.075780   0.142626  -0.013136   0.091061  -0.078955
   19  O  1  Z    0.053274  -0.101806  -0.026969   0.144400  -0.091335
   20  O  1 XX   -0.247871   0.045610  -0.895911   0.218386  -0.599713
   21  O  1 YY   -0.123639   0.536510   0.463086  -0.188017   0.147666
   22  O  1 ZZ   -0.110763  -0.511309   1.051956  -0.412436   0.286578
   23  O  1 XY    0.792806  -0.035854   0.289342   0.360168  -0.908536
   24  O  1 XZ   -0.420592   0.040260   0.444462   0.598128  -1.526466
   25  O  1 YZ   -0.033499   0.327260   0.631391  -0.280214   0.200796
   26  H  2  S    0.128981  -0.034815  -0.139356  -0.678331   2.283473
   27  H  2  S    0.470171  -0.109286  -0.534668  -2.696349   4.539948
   28  H  2  X   -0.035418   0.012361  -0.118684   0.784092   0.641341
   29  H  2  Y    0.974077   0.697278   0.601711  -0.058747   0.262634
   30  H  2  Z   -0.552576  -0.403207   0.988212  -0.069499   0.453752
   31  H  2  S    0.025973  -0.019161  -0.078292  -0.377901   0.399815
   32  H  2  X    0.171566  -0.028413  -0.409152  -1.306620   1.328842
   33  H  2  Y   -0.038517  -0.080242   0.014226  -0.165139   0.170967
   34  H  2  Z    0.114578   0.014369   0.014243  -0.308557   0.313832
   35  H  3  S    0.163429  -0.031724   0.035101   1.028930  -1.960100
   36  H  3  S    0.449885  -0.047052   0.207959   3.434646  -3.984784
   37  H  3  X    0.005415   0.013893   0.736548   0.472429   0.230601
   38  H  3  Y   -0.652345   0.973158   0.491649  -0.244472  -0.340797
   39  H  3  Z    0.385634  -0.618304   0.833203  -0.361520  -0.540974
   40  H  3  S    0.045308   0.007620   0.015128   0.434213  -0.365605
   41  H  3  X   -0.092514   0.011937   0.059198  -1.355114   1.048185
   42  H  3  Y    0.117754  -0.081195   0.047271   0.496825  -0.362005
   43  H  3  Z    0.085157   0.048570   0.085726   0.771072  -0.581859

                     36         37         38         39         40
                    2.5768     3.2922     3.3128     3.3313     3.5806
                     A          A          A          A          A   
    1  O  1  S    0.038332  -0.022243  -0.103879  -0.003273  -0.561777
    2  O  1  S    0.175682  -0.044466  -0.199692  -0.005673  -1.139909
    3  O  1  S    3.193889   0.058200   0.746504   0.022178  -0.992521
    4  O  1  X   -0.011947  -0.000483  -0.008979   0.002127   0.039383
    5  O  1  Y   -0.208489   0.043293  -0.027875   0.003834   0.113389
    6  O  1  Z   -0.351961  -0.030514  -0.038796  -0.005671   0.187251
    7  O  1  X   -0.148282  -0.007300  -0.036415   0.011908   0.251979
    8  O  1  Y   -1.071375  -0.139452  -0.062258  -0.018405   0.676694
    9  O  1  Z   -1.768220   0.095929  -0.127081   0.001634   1.122046
   10  O  1 XX   -0.211098  -0.052927  -0.573077   0.014074  -0.941334
   11  O  1 YY    0.234472  -0.878087  -0.047969  -0.251731   0.773166
   12  O  1 ZZ    0.045974   0.935724   0.623740   0.237228   0.266071
   13  O  1 XY    0.043456  -0.250097   0.175304   1.002141   0.108206
   14  O  1 XZ    0.064702   0.165873   0.296978  -0.602871   0.112862
   15  O  1 YZ   -0.207936  -0.484362   0.913719  -0.107838  -0.534352
   16  O  1  S    3.457412   0.001033   0.286486   0.004517  -1.652220
   17  O  1  X   -0.032265   0.001886   0.041159   0.003603   0.057299
   18  O  1  Y   -0.388203  -0.268340   0.145903  -0.023073   0.166911
   19  O  1  Z   -0.627914   0.186997   0.199912   0.018951   0.269798
   20  O  1 XX    0.835555   0.004624   0.332078  -0.010754  -0.765193
   21  O  1 YY   -0.104194   0.475314  -0.013853   0.141149  -1.086511
   22  O  1 ZZ    0.532406  -0.545274  -0.323366  -0.136446  -1.050907
   23  O  1 XY   -0.079140   0.144252  -0.091925  -0.586866  -0.034682
   24  O  1 XZ   -0.095277  -0.090148  -0.152898   0.345056  -0.042586
   25  O  1 YZ    0.698267   0.274494  -0.441100   0.066070   0.023617
   26  H  2  S   -1.434486  -0.003231  -0.182575   0.001509   1.097987
   27  H  2  S   -2.513045  -0.000257  -0.268389   0.005356   1.825164
   28  H  2  X   -1.020171  -0.006919  -0.147965  -0.000286   0.633578
   29  H  2  Y   -0.054836  -0.103688   0.077197   0.114229   0.154322
   30  H  2  Z   -0.111106   0.076825   0.113486  -0.064329   0.269903
   31  H  2  S   -0.131172  -0.000568  -0.021620   0.000304   0.053951
   32  H  2  X   -0.427859   0.005529  -0.046188  -0.001479   0.627018
   33  H  2  Y   -0.085648   0.284223  -0.182542  -0.270431   0.110674
   34  H  2  Z   -0.159219  -0.192716  -0.270286   0.158399   0.206334
   35  H  3  S   -1.689152   0.006628  -0.166488  -0.014743   1.047933
   36  H  3  S   -2.883584   0.019145  -0.221610  -0.015175   1.780753
   37  H  3  X    1.075526   0.007385   0.189104   0.008664  -0.486061
   38  H  3  Y   -0.322163  -0.084055   0.052237  -0.136753   0.258898
   39  H  3  Z   -0.482611   0.064756   0.074254   0.079148   0.408407
   40  H  3  S   -0.157464  -0.001169  -0.020550  -0.000327   0.050327
   41  H  3  X    0.338907  -0.018309  -0.089383  -0.000617  -0.510773
   42  H  3  Y   -0.171463   0.238944  -0.184186   0.317145   0.213178
   43  H  3  Z   -0.292640  -0.157482  -0.257236  -0.197819   0.346814

                     41         42         43
                    3.9284     4.2431     9.0324
                     A          A          A   
    1  O  1  S   -0.018492  -1.926575  -2.463421
    2  O  1  S   -0.039529  -3.761423  -2.855692
    3  O  1  S   -0.038436   5.169591  10.565590
    4  O  1  X   -0.342239  -0.056505  -0.024000
    5  O  1  Y    0.037051  -0.191450  -0.074614
    6  O  1  Z    0.052667  -0.317423  -0.123664
    7  O  1  X   -2.565717  -0.011800   0.091769
    8  O  1  Y    0.272651  -0.047524   0.301763
    9  O  1  Z    0.379857  -0.081495   0.500182
   10  O  1 XX    0.361773   0.779287  -2.170368
   11  O  1 YY   -0.094509   0.076472  -2.268817
   12  O  1 ZZ   -0.255461   0.202319  -2.268174
   13  O  1 XY    0.650318  -0.063215  -0.010676
   14  O  1 XZ    1.080120  -0.082655  -0.014391
   15  O  1 YZ   -0.209168   0.152890   0.001915
   16  O  1  S   -0.067764  -0.877165  -1.405469
   17  O  1  X   -0.648496   0.046593   0.071409
   18  O  1  Y    0.070249   0.130927   0.219078
   19  O  1  Z    0.096377   0.220037   0.366216
   20  O  1 XX    0.053990  -2.542791  -3.959349
   21  O  1 YY   -0.057248  -2.373383  -3.770383
   22  O  1 ZZ   -0.090345  -2.267903  -3.759456
   23  O  1 XY    0.153714   0.034017   0.023664
   24  O  1 XZ    0.260919   0.054417   0.033354
   25  O  1 YZ   -0.049508   0.106076   0.010101
   26  H  2  S   -1.590820  -0.646212   0.025843
   27  H  2  S   -2.636225   1.833856   2.493983
   28  H  2  X   -0.768359  -0.542618  -0.071040
   29  H  2  Y   -0.209057  -0.126991  -0.020591
   30  H  2  Z   -0.364901  -0.223081  -0.035355
   31  H  2  S   -0.189638  -0.022562  -0.023360
   32  H  2  X   -0.808244   0.651349   0.794442
   33  H  2  Y   -0.245830   0.266252   0.268855
   34  H  2  Z   -0.425708   0.456512   0.463402
   35  H  3  S    1.652973  -0.656673   0.030210
   36  H  3  S    2.776138   1.829604   2.501875
   37  H  3  X   -0.629836   0.439535   0.052044
   38  H  3  Y    0.358272  -0.225987  -0.031421
   39  H  3  Z    0.570131  -0.362191  -0.050955
   40  H  3  S    0.193666  -0.027145  -0.025381
   41  H  3  X   -0.633829  -0.449429  -0.582761
   42  H  3  Y    0.398411   0.372956   0.403635
   43  H  3  Z    0.646589   0.606688   0.651074
 ...... END OF RHF CALCULATION ......
 STEP CPU TIME =     2.15 TOTAL CPU TIME =        2.3 (    0.0 MIN)
 TOTAL WALL CLOCK TIME=        2.3 SECONDS, CPU UTILIZATION IS  99.56%

     ---------------------------------------------------------------------
     PROPERTIES FOR THE B3LYP    DFT FUNCTIONAL (RHF  TYPE) DENSITY MATRIX
     ---------------------------------------------------------------------

          -----------------
          ENERGY COMPONENTS
          -----------------

         WAVEFUNCTION NORMALIZATION =       1.0000000000

                ONE ELECTRON ENERGY =    -123.2742401155
                TWO ELECTRON ENERGY =      37.5514201654
           NUCLEAR REPULSION ENERGY =       9.3197834854
          EFFECTIVE FRAGMENT ENERGY =      -0.0272837543
                                      ------------------
                       TOTAL ENERGY =     -76.4303202191

 ELECTRON-ELECTRON POTENTIAL ENERGY =      37.5514201654
  NUCLEUS-ELECTRON POTENTIAL ENERGY =    -199.2471029850
   NUCLEUS-NUCLEUS POTENTIAL ENERGY =       9.3197834854
 ELECTRON-FRAGMENT MULTIPOLE ENERGY =      -0.0421732333
 ELECTRON-FRAGMENT REMAINDER ENERGY =       0.0177609060
        STATIC INTERFRAGMENT ENERGY =      -0.0039974202
            FRAGMENT-NUCLEAR ENERGY =       0.0088980826
    TOTAL FRAGMENT INDUCTION ENERGY =      -0.0075058129
 ELECTRON-FRAGMENT EXCHANGE REPULSION =      0.0000000000
                                      ------------------
             TOTAL POTENTIAL ENERGY =    -152.4029168120
                                      ------------------
            SOLUTE POTENTIAL ENERGY =    -152.3758993342
              SOLUTE KINETIC ENERGY =      75.9725965929
                 VIRIAL RATIO (V/T) =       2.0056692303

          ---------------------------------------
          MULLIKEN AND LOWDIN POPULATION ANALYSES
          ---------------------------------------

     ATOMIC MULLIKEN POPULATION IN EACH MOLECULAR ORBITAL

                      1          2          3          4          5

                  2.000000   2.000000   2.000000   2.000000   2.000000

    1             2.000388   1.237936   1.085396   1.726171   1.918986
    2            -0.000185   0.389650   0.495542   0.132983   0.054050
    3            -0.000203   0.372415   0.419062   0.140846   0.026964

               ----- POPULATIONS IN EACH AO -----
                             MULLIKEN      LOWDIN
              1  O  1  S      2.00871     1.86836
              2  O  1  S      0.79065     0.58427
              3  O  1  S      0.82931     0.35160
              4  O  1  X      0.84689     0.75181
              5  O  1  Y      1.07118     0.99915
              6  O  1  Z      0.98929     0.91348
              7  O  1  X      0.24285     0.47911
              8  O  1  Y      0.65652     0.58067
              9  O  1  Z      0.54593     0.56562
             10  O  1 XX     -0.00251     0.16610
             11  O  1 YY     -0.01797     0.14618
             12  O  1 ZZ     -0.01470     0.15173
             13  O  1 XY      0.00193     0.00244
             14  O  1 XZ      0.00504     0.00632
             15  O  1 YZ      0.00184     0.00175
             16  O  1  S      0.01655     0.06469
             17  O  1  X      0.01388     0.05058
             18  O  1  Y      0.07924     0.07593
             19  O  1  Z      0.05925     0.07609
             20  O  1 XX     -0.06886     0.05351
             21  O  1 YY     -0.02615     0.03301
             22  O  1 ZZ     -0.03868     0.04064
             23  O  1 XY     -0.00457     0.00636
             24  O  1 XZ     -0.01590     0.01699
             25  O  1 YZ     -0.00083     0.00245
             26  H  2  S      0.76745     0.48177
             27  H  2  S      0.17646     0.10686
             28  H  2  X      0.03957     0.06049
             29  H  2  Y      0.02085     0.05387
             30  H  2  Z      0.02183     0.05060
             31  H  2  S      0.00165     0.01100
             32  H  2  X     -0.00574     0.08392
             33  H  2  Y      0.03127     0.09535
             34  H  2  Z      0.01871     0.09203
             35  H  3  S      0.72872     0.45586
             36  H  3  S      0.14100     0.09538
             37  H  3  X      0.03536     0.05559
             38  H  3  Y      0.02259     0.05517
             39  H  3  Z      0.02618     0.05778
             40  H  3  S      0.00165     0.01065
             41  H  3  X     -0.01038     0.06688
             42  H  3  Y      0.00956     0.08653
             43  H  3  Z      0.00442     0.09142

          ----- MULLIKEN ATOMIC OVERLAP POPULATIONS -----
          (OFF-DIAGONAL ELEMENTS NEED TO BE MULTIPLIED BY 2)

             1           2           3

    1    7.4001347
    2    0.2899457   0.8536203
    3    0.2787963  -0.0715268   0.7518143

          TOTAL MULLIKEN AND LOWDIN ATOMIC POPULATIONS
       ATOM         MULL.POP.    CHARGE          LOW.POP.     CHARGE
    1 O             7.968877    0.031123         7.988851    0.011149
    2 H             1.072039   -0.072039         1.035889   -0.035889
    3 H             0.959084    0.040916         0.975259    0.024741

          -------------------------------
          BOND ORDER AND VALENCE ANALYSIS     BOND ORDER THRESHOLD=0.050
          -------------------------------

                   BOND                       BOND                       BOND
  ATOM PAIR DIST  ORDER      ATOM PAIR DIST  ORDER      ATOM PAIR DIST  ORDER
    1   2  0.944  1.147        1   3  0.944  1.053

                       TOTAL       BONDED        FREE
      ATOM            VALENCE     VALENCE     VALENCE
    1 O                 2.200       2.200      -0.000
    2 H                 1.147       1.147       0.000
    3 H                 1.053       1.053      -0.000

          ----------------------------
          SOLUTE ELECTROSTATIC MOMENTS
          ----------------------------

 POINT   1           X           Y           Z (BOHR)    CHARGE
                -2.281368    2.318393    1.766451        0.00 (A.U.)
         DX          DY          DZ         /D/  (DEBYE)
     0.028213   -1.090361   -2.002988    2.280711

          ----------------------------------------
          EFFECTIVE FRAGMENT ELECTROSTATIC MOMENTS
          ----------------------------------------

 FRAGMENT   1  WATER 
          X           Y           Z (BOHR)    CHARGE
     2.248755    0.083053    0.706858       -0.00 (A.U.)
         DX          DY          DZ         /D/  (DEBYE)
     1.994636    0.155796    1.287415    2.379135

 FRAGMENT   2  WATER 
          X           Y           Z (BOHR)    CHARGE
     0.565289    0.310106    5.578136       -0.00 (A.U.)
         DX          DY          DZ         /D/  (DEBYE)
    -1.400020    1.605415    0.951031    2.332782


          ----------------------------
          SYSTEM ELECTROSTATIC MOMENTS
          ----------------------------

 POINT   1           X           Y           Z (BOHR)    CHARGE
                -2.281368    2.318393    1.766451       -0.00 (A.U.)
         DX          DY          DZ         /D/  (DEBYE)
     0.622829    0.670851    0.235458    0.945197
 ...... END OF PROPERTY EVALUATION ......
 STEP CPU TIME =     0.00 TOTAL CPU TIME =        2.3 (    0.0 MIN)
 TOTAL WALL CLOCK TIME=        2.3 SECONDS, CPU UTILIZATION IS  99.56%

 BEGINNING ONE ELECTRON GRADIENT...
 TIME TO DO ORDINARY GRADIENT INTEGRALS=      0.00
 READY TO DO 1E- PART OF GRAD WRT FRAGMENT

                     -----------------------------
                     FRAGMENT GRADIENT INFORMATION
                     -----------------------------


      FRAGMENT NO.    1     E'X               E'Y               E'Z 
      TOTALS          -0.004388675       0.003328770       0.000205964
      TORQUE           0.000102290       0.000383070      -0.003779637

      FRAGMENT NO.    2     E'X               E'Y               E'Z 
      TOTALS          -0.000824940       0.000893689      -0.000333342
      TORQUE           0.001027968      -0.000791988      -0.000678827

      TOTAL FORCE ON ALL FRAGMENTS
      FORCE           -0.005213615       0.004222459      -0.000127378
 TIME TO DO FRAGMENT GRADIENT INTEGRALS=      0.24
 ..... END OF 1-ELECTRON GRADIENT ......
 STEP CPU TIME =     0.24 TOTAL CPU TIME =        2.5 (    0.0 MIN)
 TOTAL WALL CLOCK TIME=        2.5 SECONDS, CPU UTILIZATION IS  99.60%

          ----------------------
          GRADIENT OF THE ENERGY
          ----------------------
 MEMORY FOR GRID POINT CONTRIBUTIONS TO THE DFT GRADIENT=    143259 WORDS.
 STEP CPU TIME =     0.41 TOTAL CPU TIME =        2.9 (    0.0 MIN)
 TOTAL WALL CLOCK TIME=        2.9 SECONDS, CPU UTILIZATION IS  99.66%

 THE MINIMUM MEMORY REQUIRED FOR THIS RUN IS      81642 WORDS.
 USING    1057162 WORDS FOR 2E- DERIVATIVE INTEGRAL CONTRIBUTIONS.
 THE COARSE/FINE SCHWARZ SCREENINGS SKIPPED            0/           0 BLOCKS.
 THE NUMBER OF GRADIENT INTEGRAL BLOCKS COMPUTED WAS     16870
 ...... END OF 2-ELECTRON GRADIENT ......
 STEP CPU TIME =     0.07 TOTAL CPU TIME =        3.0 (    0.0 MIN)
 TOTAL WALL CLOCK TIME=        3.0 SECONDS, CPU UTILIZATION IS  99.66%

          NSERCH=  0     ENERGY=     -76.4303202

                                 -----------------------
                                 GRADIENT (HARTREE/BOHR)
                                 -----------------------
        ATOM     ZNUC       DE/DX         DE/DY         DE/DZ
 --------------------------------------------------------------
    1  O            8.0     0.0047164    -0.0170908    -0.0239222
    2  H            1.0     0.0180702     0.0044626     0.0077327
    3  H            1.0    -0.0175732     0.0084075     0.0163190
  EFP           TOTAL GRADIENT                           TORQUES
    1  -0.0043901  0.0033268  0.0002044     0.0001020  0.0003837 -0.0037802
    2  -0.0008233  0.0008939 -0.0003339     0.0010277 -0.0007914 -0.0006793

          MAXIMUM GRADIENT = 0.0239222    RMS GRADIENT = 0.0097278

 NSERCH:   0  E=      -76.4303202191  GRAD. MAX=  0.0239222  R.M.S.=  0.0097278

          FORCE CONSTANT MATRIX NOT UPDATED --- TAKING FIRST STEP
          MIN SEARCH, CORRECT HESSIAN, TRYING PURE NR STEP
               NR STEP HAS LENGTH         =   2.299517
          TRIM/QA LAMBDA FOR NON-TS MODES =  -0.01409194
          TRIM/QA STEP HAS LENGTH         =   0.300000
          RADIUS OF STEP TAKEN=   0.30000  CURRENT TRUST RADIUS=   0.30000

 BEGINNING GEOMETRY SEARCH POINT NSERCH=   1 ...

 COORDINATES OF ALL ATOMS ARE (ANGS)
   ATOM   CHARGE       X              Y              Z
 ------------------------------------------------------------
 O           8.0  -1.2345090662   1.3366090753   0.9997883016
 H           1.0  -2.0611099704   1.0154660405   0.5927776076
 H           1.0  -0.5553187640   0.9310654898   0.4166401651
 COORDINATES OF FRAGMENT MULTIPOLE CENTERS (ANGS)
 MULTIPOLE NAME        X              Y              Z
 ------------------------------------------------------------
 FRAGNAME=WATER 
 O1                1.1975365288  -0.0363992760   0.3422946832
 H2                1.3395712110  -0.0210321543   1.2752836728
 H3                1.9650645918   0.3427400950  -0.0552382889
 FRAGNAME=WATER 
 O1                0.3464724982   0.0929227631   2.9302027106
 H2                0.5765956387   0.5208087553   3.7394216994
 H3               -0.4069001279   0.5469753211   2.5879390476

          INTERNUCLEAR DISTANCES (ANGS.)
          ------------------------------

                1 O          2 H          3 H     

   1 O       0.0000000    0.9757354 *  0.9827649 *
   2 H       0.9757354 *  0.0000000    1.5184054 *
   3 H       0.9827649 *  1.5184054 *  0.0000000  

  * ... LESS THAN  3.000

 ...... END OF ONE-ELECTRON INTEGRALS ......
 STEP CPU TIME =     0.03 TOTAL CPU TIME =        3.0 (    0.1 MIN)
 TOTAL WALL CLOCK TIME=        3.0 SECONDS, CPU UTILIZATION IS  99.67%
 TOTAL NUMBER OF NONZERO TWO-ELECTRON INTEGRALS =              401269
         27 INTEGRAL RECORDS WERE STORED ON DISK FILE  8.
  ...... END OF TWO-ELECTRON INTEGRALS .....
 STEP CPU TIME =     0.03 TOTAL CPU TIME =        3.0 (    0.1 MIN)
 TOTAL WALL CLOCK TIME=        3.0 SECONDS, CPU UTILIZATION IS  99.67%

 EFP ADDITIVE CONTRIBUTIONS TO THE "NUCLEAR ENERGY":
   -- NUCLEAR CHARGE - NUCLEAR CHARGE   =        8.9948641707
   -- NUCLEAR CHARGE - EFP CHARGE       =        0.0299473430
   -- NUCLEAR CHARGE - EFP DIPOLE       =       -0.0271815749
   -- NUCLEAR CHARGE - EFP QUADRUPOLE   =        0.0227202391
   -- NUCLEAR CHARGE - EFP OCTUPOLE     =        0.0009034543
   -- EFP CHARGE     - EFP CHARGE       =       -0.0037601507
   -- EFP CHARGE     - EFP DIPOLE       =       -0.0010299477
   -- EFP CHARGE     - EFP QUADRUPOLE   =        0.0000769277
   -- EFP CHARGE     - EFP OCTUPOLE     =        0.0000256833
   -- EFP DIPOLE     - EFP DIPOLE       =       -0.0024316153
   -- EFP DIPOLE     - EFP QUADRUPOLE   =       -0.0059184051
   -- EFP QUADRUPOLE - EFP QUADRUPOLE   =       -0.0000990022
   -- EFP-EFP EXCHANGE REPULSION ENERGY =        0.0090690418
   -- EFP-EFP DISPERSION ENERGY (C6)    =        0.0000000000
   -- EFP-EFP DISPERSION ENERGY (C8)    =        0.0000000000
   -- TOTAL INTERFRAGMENT INTERACTION   =       -0.0040674684
 THE TOTAL NUCLEAR CHARGE/EFP ENERGY    =        9.0171861638

          --------------------------
             R-B3LYP SCF CALCULATION
          --------------------------
         DENSITY MATRIX CONVERGENCE THRESHOLD=  5.00E-05
     COARSE -> FINE DFT GRID SWITCH THRESHOLD=  1.50E-03 (SWITCH IN $DFT)
[...]
 O           8.0  -1.2277848989   1.3065230269   0.9933143729
 H           1.0  -2.0715914191   1.0542507228   0.6027970418
 H           1.0  -0.5483830585   0.9137521105   0.4225492623
 COORDINATES OF FRAGMENT MULTIPOLE CENTERS (ANGS)
 MULTIPOLE NAME        X              Y              Z
 ------------------------------------------------------------
 FRAGNAME=WATER 
 O1                1.2019492145  -0.0360405243   0.3475836229
 H2                1.2805434922  -0.0030959916   1.2875921609
 H3                1.9440847484   0.4298695701  -0.0031885073
 FRAGNAME=WATER 
 O1                0.3419298838   0.0939566990   2.9130212749
 H2                0.6120252199   0.5448421185   3.6970042478
 H3               -0.4170608170   0.5497250795   2.5857801503

          INTERNUCLEAR DISTANCES (ANGS.)
          ------------------------------

                1 O          2 H          3 H     

   1 O       0.0000000    0.9634078 *  0.9703755 *
   2 H       0.9634078 *  0.0000000    1.5402574 *
   3 H       0.9703755 *  1.5402574 *  0.0000000  

  * ... LESS THAN  3.000


          NUCLEAR ENERGY    =        9.1162856811
          ELECTRONIC ENERGY =      -85.5488277416
          TOTAL ENERGY      =      -76.4325420604

          ------------------
          MOLECULAR ORBITALS
          ------------------

                      1          2          3          4          5
                  -19.1507    -1.0108    -0.5255    -0.3933    -0.3181
                     A          A          A          A          A   
    1  O  1  S   -1.004349   0.025220   0.000058   0.000456  -0.001807
    2  O  1  S   -0.013215  -0.421328  -0.013160  -0.157798   0.011410
    3  O  1  S    0.001580  -0.392442  -0.020082  -0.337957   0.029043
    4  O  1  X    0.000205   0.019371  -0.516676  -0.059486   0.009815
    5  O  1  Y    0.000629   0.060886   0.041173  -0.278610   0.541815
    6  O  1  Z    0.000850   0.085557   0.049652  -0.478816  -0.320217
    7  O  1  X   -0.000067  -0.007489  -0.149789  -0.036811   0.003096
    8  O  1  Y   -0.000228  -0.014940   0.013614  -0.142082   0.364958
    9  O  1  Z   -0.000296  -0.032045   0.008098  -0.259975  -0.223795
   10  O  1 XX    0.005111   0.002178   0.007242  -0.000109  -0.000116
   11  O  1 YY    0.005245   0.012790  -0.002103   0.001883  -0.011735
   12  O  1 ZZ    0.005191   0.008564  -0.003676   0.011332   0.009552
   13  O  1 XY   -0.000000   0.000088   0.013278   0.001616  -0.002245
   14  O  1 XZ   -0.000007  -0.000286   0.019405   0.002643   0.001327
   15  O  1 YZ   -0.000076  -0.005815  -0.002870   0.011850  -0.005607
   16  O  1  S    0.000367   0.006866  -0.016735  -0.165804  -0.025908
   17  O  1  X    0.000005  -0.002308  -0.015846  -0.001090   0.006620
   18  O  1  Y    0.000033   0.000395   0.004246  -0.021633   0.085988
   19  O  1  Z    0.000049  -0.001748   0.002989  -0.045673  -0.051373
   20  O  1 XX   -0.001143   0.063432  -0.014740  -0.027001  -0.000922
   21  O  1 YY   -0.001156   0.030774   0.003492   0.001291  -0.018876
   22  O  1 ZZ   -0.001087   0.039634   0.009681  -0.006222   0.004859
   23  O  1 XY    0.000012  -0.000575  -0.021059   0.003751   0.000468
   24  O  1 XZ    0.000019  -0.002389  -0.039221   0.002056  -0.002601
   25  O  1 YZ    0.000105   0.015186   0.006993   0.005879   0.000635
   26  H  2  S   -0.000031  -0.221668   0.369121   0.197756  -0.013368
   27  H  2  S    0.000545  -0.050263   0.168178   0.094788   0.012153
   28  H  2  X    0.000085  -0.038718   0.024645   0.023453  -0.001402
   29  H  2  Y    0.000033  -0.007784   0.015792  -0.004234   0.022963
   30  H  2  Z    0.000051  -0.012582   0.023348  -0.009947  -0.014595
   31  H  2  S   -0.000104  -0.001514   0.003178   0.012959   0.001715
   32  H  2  X    0.000203  -0.019848   0.032744   0.005690   0.001498
   33  H  2  Y    0.000148  -0.006914   0.006306  -0.006042   0.027538
   34  H  2  Z    0.000211  -0.010752   0.007298  -0.008892  -0.012214
   35  H  3  S   -0.000053  -0.208169  -0.348489   0.213854  -0.012155
   36  H  3  S    0.000580  -0.043467  -0.127524   0.107998   0.014423
   37  H  3  X   -0.000038   0.034053   0.021724  -0.028531   0.002465
   38  H  3  Y    0.000031  -0.015153  -0.022034   0.003711   0.020232
   39  H  3  Z    0.000048  -0.020184  -0.028317   0.000490  -0.013019
   40  H  3  S   -0.000095  -0.001643  -0.002750   0.010818   0.006265
   41  H  3  X   -0.000138   0.021034   0.048955  -0.031793   0.002351
   42  H  3  Y    0.000184  -0.012154  -0.021117   0.009169   0.010317
   43  H  3  Z    0.000259  -0.012367  -0.012997   0.004062  -0.002861

                      6          7          8          9         10
                   -0.0068     0.0558     0.1060     0.1258     0.1406
                     A          A          A          A          A   
    1  O  1  S   -0.000810   0.007918  -0.016658   0.009789  -0.021091
    2  O  1  S   -0.110524   0.052727   0.000997   0.112628  -0.150664
    3  O  1  S   -0.317661   0.236972  -0.226347   0.118048  -0.048601
    4  O  1  X    0.091234   0.092468  -0.080517  -0.068167   0.089066
    5  O  1  Y    0.048444   0.012456  -0.123202  -0.167355  -0.110040
    6  O  1  Z    0.078161  -0.040491  -0.201046   0.095298   0.090393
    7  O  1  X    0.065173   0.190341  -0.032133   0.047752   0.060536
    8  O  1  Y    0.047233  -0.010043  -0.006486  -0.117970  -0.206223
    9  O  1  Z    0.102873  -0.110382  -0.046501   0.155577  -0.028053
   10  O  1 XX    0.004837   0.001209  -0.007332  -0.001491   0.002260
   11  O  1 YY    0.004451  -0.003746  -0.003476   0.007168   0.003958
   12  O  1 ZZ    0.002825  -0.001765   0.001221  -0.011227  -0.006164
   13  O  1 XY    0.000561  -0.003758  -0.000852  -0.000891   0.000619
   14  O  1 XZ   -0.001771   0.000478  -0.000312   0.001660   0.003545
   15  O  1 YZ   -0.001094  -0.000977   0.010005  -0.000696   0.007279
   16  O  1  S   -0.621127   0.511563  -3.047828  -1.714937   2.175757
   17  O  1  X    0.068895   0.739046   0.187583   0.782021   0.174681
   18  O  1  Y    0.091408  -0.323712   0.930230   0.688697   0.800077
   19  O  1  Z    0.088074  -0.139884   1.394716  -0.826237  -0.153682
   20  O  1 XX    0.010085   0.017905  -0.127804  -0.039827   0.038457
   21  O  1 YY   -0.001025   0.046018  -0.079835  -0.013622  -0.032452
   22  O  1 ZZ    0.000489   0.047433  -0.100468   0.026587   0.004792
   23  O  1 XY   -0.007778   0.008583   0.008917  -0.000250   0.001130
   24  O  1 XZ    0.003983  -0.015244   0.006077  -0.023728  -0.009120
   25  O  1 YZ   -0.004017   0.008496  -0.047648   0.003823  -0.009399
   26  H  2  S    0.053476  -0.003680  -0.030602  -0.051640   0.111748
   27  H  2  S    0.285695   0.591561   1.331916   0.856110  -0.159400
   28  H  2  X   -0.019831  -0.000611   0.031480   0.026057  -0.023947
   29  H  2  Y   -0.005537  -0.000951   0.010238   0.010696  -0.003146
   30  H  2  Z   -0.009400   0.001654   0.016345   0.004632  -0.012142
   31  H  2  S    1.264446   2.370459   0.904068   1.495067  -0.726876
   32  H  2  X   -0.059599   0.119679   0.437614   0.354232  -0.464217
   33  H  2  Y   -0.036255   0.121793   0.095045   0.099601  -0.181655
   34  H  2  Z   -0.008920   0.044319   0.152303   0.313517  -0.223422
   35  H  3  S    0.052626  -0.039672   0.019969  -0.063958   0.035280
   36  H  3  S    0.310072  -1.082856   1.422925  -0.263082  -0.473141
   37  H  3  X    0.007534  -0.006193  -0.027386   0.000937   0.013403
   38  H  3  Y   -0.001690   0.003930   0.013105   0.004430   0.002212
   39  H  3  Z   -0.004598   0.009218   0.020965  -0.002027  -0.006056
   40  H  3  S   -0.140158  -2.935832   0.202163  -0.592242  -0.599534
   41  H  3  X   -0.110804   0.381508  -0.146543  -0.027245   0.136398
   42  H  3  Y    0.056277  -0.192562   0.003817  -0.151176  -0.285025
   43  H  3  Z    0.017863  -0.187594   0.073700   0.206963  -0.137866

                     11         12         13         14         15
                    0.1841     0.2013     0.2585     0.3002     0.3114
                     A          A          A          A          A   
    1  O  1  S   -0.005704   0.016932  -0.006140  -0.025771  -0.021415
    2  O  1  S   -0.070402   0.043689  -0.065391  -0.032980  -0.064654
    3  O  1  S   -0.095060  -0.008366  -0.460958   0.083294  -0.247092
    4  O  1  X   -0.278164   0.140029  -0.114710   0.032807  -0.039030
    5  O  1  Y    0.049710   0.029960   0.083099  -0.067060  -0.097079
    6  O  1  Z    0.025531  -0.040290   0.139231  -0.183980  -0.074715
    7  O  1  X   -0.007972   0.332533  -0.093999   0.031337  -0.008722
    8  O  1  Y   -0.048493   0.105997   0.147496  -0.122749  -0.379043
    9  O  1  Z   -0.057515   0.025631   0.259310  -0.529925  -0.137294
   10  O  1 XX   -0.008268   0.009430   0.025681   0.009968   0.018205
   11  O  1 YY    0.005547  -0.003379  -0.013497   0.001217  -0.007054
   12  O  1 ZZ    0.009896  -0.002808  -0.009762  -0.012017  -0.003457
   13  O  1 XY    0.005430   0.010919  -0.000616   0.015317  -0.020374
   14  O  1 XZ   -0.001141   0.014230  -0.016972  -0.013204   0.005287
   15  O  1 YZ    0.001873  -0.000503  -0.005165  -0.004564  -0.009505
   16  O  1  S    2.369601  -1.989822  -4.127602   3.412773   1.645534
   17  O  1  X    1.959387   2.025330   0.550392  -0.055283   0.322381
   18  O  1  Y   -0.467254   0.053259   0.259221  -0.384458  -1.124190
   19  O  1  Z   -0.379883   0.326307   0.560234  -1.430009  -0.595103
   20  O  1 XX    0.046527   0.010399  -0.083269  -0.118202  -0.128130
   21  O  1 YY   -0.005840   0.042956  -0.032692  -0.053422  -0.052102
   22  O  1 ZZ   -0.005172   0.039142  -0.046102  -0.026353  -0.054698
   23  O  1 XY   -0.058292  -0.018126  -0.022376  -0.013645   0.032373
   24  O  1 XZ   -0.048112  -0.011233   0.003613   0.040825   0.003379
   25  O  1 YZ    0.006555  -0.013350   0.033524   0.002054   0.009939
   26  H  2  S   -0.037924   0.239038   0.105991  -0.051080   0.012000
   27  H  2  S    0.176810   2.646528   1.715938  -1.365643  -0.632349
   28  H  2  X    0.027101   0.028737   0.004969  -0.027821  -0.018497
   29  H  2  Y    0.001294  -0.001677   0.010544  -0.007112   0.021183
   30  H  2  Z    0.004906   0.001903   0.021055   0.011039   0.003673
   31  H  2  S    2.006356   1.085943   0.746376  -0.235940   0.146404
   32  H  2  X    0.396228  -0.047077  -0.444778  -0.118079  -0.200329
   33  H  2  Y    0.013470  -0.144573   0.234206  -0.548225   1.353804
   34  H  2  Z    0.144275  -0.068974   0.773131   1.015254   0.019473
   35  H  3  S    0.028472  -0.177230   0.278964  -0.125371  -0.011459
   36  H  3  S   -2.057551  -0.930149   2.924721  -2.081292  -0.872580
   37  H  3  X    0.037673   0.011444   0.019177   0.028161   0.038074
   38  H  3  Y   -0.024126   0.003438   0.008910   0.002108  -0.005324
   39  H  3  Z   -0.039663   0.010700   0.003403  -0.000169  -0.001058
   40  H  3  S   -2.594789  -0.596489  -0.221226  -0.280348  -0.334138
   41  H  3  X    0.157132  -0.015912  -0.279269   0.371999   0.076876
   42  H  3  Y   -0.222171   0.059563   0.450869   0.383652   0.184888
   43  H  3  Z   -0.648915   0.127763   0.002824   0.201051   0.501749

     ---------------------------------------------------------------------
     PROPERTIES FOR THE B3LYP    DFT FUNCTIONAL (RHF  TYPE) DENSITY MATRIX
     ---------------------------------------------------------------------

          -----------------
          ENERGY COMPONENTS
          -----------------

         WAVEFUNCTION NORMALIZATION =       1.0000000000

                ONE ELECTRON ENERGY =    -122.9237572862
                TWO ELECTRON ENERGY =      37.3749295446
           NUCLEAR REPULSION ENERGY =       9.1004356251
          EFFECTIVE FRAGMENT ENERGY =       0.0158500560
                                      ------------------
                       TOTAL ENERGY =     -76.4325420604

 ELECTRON-ELECTRON POTENTIAL ENERGY =      37.3749295446
  NUCLEUS-ELECTRON POTENTIAL ENERGY =    -198.7680972830
   NUCLEUS-NUCLEUS POTENTIAL ENERGY =       9.1004356251
 ELECTRON-FRAGMENT MULTIPOLE ENERGY =      -0.0702028051
 ELECTRON-FRAGMENT REMAINDER ENERGY =       0.0130873203
        STATIC INTERFRAGMENT ENERGY =      -0.0034952313
            FRAGMENT-NUCLEAR ENERGY =       0.0401787643
    TOTAL FRAGMENT INDUCTION ENERGY =      -0.0069327911
 ELECTRON-FRAGMENT EXCHANGE REPULSION =      0.0000000000
                                      ------------------
             TOTAL POTENTIAL ENERGY =    -152.3200968562
                                      ------------------
            SOLUTE POTENTIAL ENERGY =    -152.2927321133
              SOLUTE KINETIC ENERGY =      75.8875547958
                 VIRIAL RATIO (V/T) =       2.0068209145

          ---------------------------------------
          MULLIKEN AND LOWDIN POPULATION ANALYSES
          ---------------------------------------

     ATOMIC MULLIKEN POPULATION IN EACH MOLECULAR ORBITAL

                      1          2          3          4          5

                  2.000000   2.000000   2.000000   2.000000   2.000000

    1             2.000289   1.292576   1.093828   1.705327   1.921905
    2            -0.000145   0.367058   0.487078   0.140703   0.050566
    3            -0.000144   0.340366   0.419094   0.153971   0.027529

               ----- POPULATIONS IN EACH AO -----
                             MULLIKEN      LOWDIN
              1  O  1  S      2.00867     1.87079
              2  O  1  S      0.79466     0.58991
              3  O  1  S      0.86374     0.35734
              4  O  1  X      0.83531     0.74106
              5  O  1  Y      1.06074     0.99077
              6  O  1  Z      0.98778     0.91362
              7  O  1  X      0.26107     0.48639
              8  O  1  Y      0.64805     0.58608
              9  O  1  Z      0.55753     0.57349
             10  O  1 XX     -0.00355     0.16665
             11  O  1 YY     -0.01790     0.14901
             12  O  1 ZZ     -0.01517     0.15322
             13  O  1 XY      0.00215     0.00265
             14  O  1 XZ      0.00458     0.00552
             15  O  1 YZ      0.00186     0.00177
             16  O  1  S      0.02521     0.06537
             17  O  1  X      0.01405     0.05364
             18  O  1  Y      0.07857     0.07772
             19  O  1  Z      0.06060     0.07888
             20  O  1 XX     -0.06685     0.05318
             21  O  1 YY     -0.02815     0.03384
             22  O  1 ZZ     -0.03807     0.04007
             23  O  1 XY     -0.00534     0.00810
             24  O  1 XZ     -0.01486     0.01718
             25  O  1 YZ     -0.00076     0.00285
             26  H  2  S      0.74955     0.47656
             27  H  2  S      0.16941     0.10902
             28  H  2  X      0.03845     0.05796
             29  H  2  Y      0.01998     0.04985
             30  H  2  Z      0.02108     0.04772
             31  H  2  S      0.00130     0.01113
             32  H  2  X     -0.00257     0.08364
             33  H  2  Y      0.02954     0.09340
             34  H  2  Z      0.01852     0.09110
             35  H  3  S      0.71032     0.45193
             36  H  3  S      0.13969     0.09926
             37  H  3  X      0.03371     0.05193
             38  H  3  Y      0.02185     0.05063
             39  H  3  Z      0.02471     0.05303
             40  H  3  S      0.00135     0.01081
             41  H  3  X     -0.00762     0.06770
             42  H  3  Y      0.01075     0.08539
             43  H  3  Z      0.00605     0.08983

          ----- MULLIKEN ATOMIC OVERLAP POPULATIONS -----
          (OFF-DIAGONAL ELEMENTS NEED TO BE MULTIPLIED BY 2)

             1           2           3

    1    7.4517101
    2    0.2914547   0.8116640
    3    0.2707595  -0.0578595   0.7279163

          TOTAL MULLIKEN AND LOWDIN ATOMIC POPULATIONS
       ATOM         MULL.POP.    CHARGE          LOW.POP.     CHARGE
    1 O             8.013924   -0.013924         8.019103   -0.019103
    2 H             1.045259   -0.045259         1.020387   -0.020387
    3 H             0.940816    0.059184         0.960510    0.039490

          -------------------------------
          BOND ORDER AND VALENCE ANALYSIS     BOND ORDER THRESHOLD=0.050
          -------------------------------

                   BOND                       BOND                       BOND
  ATOM PAIR DIST  ORDER      ATOM PAIR DIST  ORDER      ATOM PAIR DIST  ORDER
    1   2  0.963  1.138        1   3  0.970  1.049

                       TOTAL       BONDED        FREE
      ATOM            VALENCE     VALENCE     VALENCE
    1 O                 2.187       2.187      -0.000
    2 H                 1.144       1.144      -0.000
    3 H                 1.054       1.054      -0.000

          ----------------------------
          SOLUTE ELECTROSTATIC MOMENTS
          ----------------------------

 POINT   1           X           Y           Z (BOHR)    CHARGE
                -2.337562    2.400761    1.775442        0.00 (A.U.)
         DX          DY          DZ         /D/  (DEBYE)
     0.016293   -1.169393   -1.953890    2.277154

          ----------------------------------------
          EFFECTIVE FRAGMENT ELECTROSTATIC MOMENTS
          ----------------------------------------

 FRAGMENT   1  WATER 
          X           Y           Z (BOHR)    CHARGE
     2.358142   -0.015356    0.719146       -0.00 (A.U.)
         DX          DY          DZ         /D/  (DEBYE)
     1.690958    0.592758    1.409425    2.279733

 FRAGMENT   2  WATER 
          X           Y           Z (BOHR)    CHARGE
     0.594456    0.273426    5.553110       -0.00 (A.U.)
         DX          DY          DZ         /D/  (DEBYE)
    -1.340509    1.648000    0.959462    2.330973


          ----------------------------
          SYSTEM ELECTROSTATIC MOMENTS
          ----------------------------

 POINT   1           X           Y           Z (BOHR)    CHARGE
                -2.337562    2.400761    1.775442       -0.00 (A.U.)
         DX          DY          DZ         /D/  (DEBYE)
     0.366742    1.071365    0.414998    1.206046
 ...... END OF PROPERTY EVALUATION ......
 STEP CPU TIME =     0.00 TOTAL CPU TIME =       49.4 (    0.8 MIN)
 TOTAL WALL CLOCK TIME=       49.5 SECONDS, CPU UTILIZATION IS  99.90%
  $VIB   
          IVIB=   0 IATOM=   0 ICOORD=   0 E=      -76.4325420604
  2.696957221E-06 9.230417041E-07 1.192809023E-06 3.778229195E-06 7.488723354E-08
 -2.844937443E-06-8.087331438E-06-6.570772816E-07-4.372137123E-07
 5.308063953E-07 8.579494102E-07 1.367596729E-06
-6.614923341E-07 3.010715099E-06 8.844459159E-07
 1.081338627E-06-1.198801066E-06 7.217454034E-07
-7.839150149E-07 1.709982134E-07 6.753438202E-08
  3.667422014E-01 1.071365410E+00 4.149975330E-01
 ......END OF GEOMETRY SEARCH......
 STEP CPU TIME =     0.01 TOTAL CPU TIME =       49.4 (    0.8 MIN)
 TOTAL WALL CLOCK TIME=       49.5 SECONDS, CPU UTILIZATION IS  99.92%
              1057360  WORDS OF DYNAMIC MEMORY USED
 EXECUTION OF GAMESS TERMINATED NORMALLY Wed Aug  9 20:23:31 2017
 DDI: 263640 bytes (0.3 MB / 0 MWords) used by master data server.

 ----------------------------------------
 CPU timing information for all processes
 ========================================
 0: 49.261 + 0.162 = 49.424
 ----------------------------------------
 ddikick.x: exited gracefully.
unset echo
----- accounting info -----
Files used on the master node compute-1-2.local were:
-rw-rw-r-- 1 sarom sarom  11K Aug  9 20:22 /scratch/wat3-aff.F05
-rw-rw-r-- 1 sarom sarom 4.7M Aug  9 20:23 /scratch/wat3-aff.F08
-rw-rw-r-- 1 sarom sarom 1.8M Aug  9 20:23 /scratch/wat3-aff.F10
-rw-rw-r-- 1 sarom sarom 1.1M Aug  9 20:23 /scratch/wat3-aff.F22
-rw-rw-r-- 1 sarom sarom 222K Aug  9 20:23 /scratch/wat3-aff.F25
rm: cannot remove `/scratch/tmp': Is a directory
ls: No match.
ls: No match.
ls: No match.
Wed Aug  9 20:23:34 CDT 2017
0.263u 0.152s 0:52.97 0.7%	0+0k 0+376io 0pf+0w
/opt/gridengine/default/spool/compute-1-2/active_jobs/35828.1/pe_hostfile compute-1-2.local
