-catch_rsh /opt/gridengine/default/spool/compute-0-1/active_jobs/35968.1/pe_hostfile
compute-0-1
The primary node assigned by SGE to this run is compute-0-1
Warning: no access to tty (Bad file descriptor).
Thus no job control in this shell.
source /home/sarom/dir.git.branch.saromleang-travis-ci/install.info
setenv GMS_PATH /home/sarom/dir.git.branch.saromleang-travis-ci
setenv GMS_BUILD_DIR /home/sarom/dir.git.branch.saromleang-travis-ci
setenv GMS_TARGET linux64
setenv GMS_FORTRAN gfortran
setenv GMS_GFORTRAN_VERNO 4.4
setenv GMS_MATHLIB mkl-so
setenv GMS_MATHLIB none
setenv GMS_MATHLIB_PATH /share/apps/intel/compilers_and_libraries_2017.1.132/linux/mkl/lib/intel64
setenv GMS_MKL_VERNO 12
setenv GMS_DDI_COMM sockets
setenv GMS_LIBCCHEM false
setenv GMS_EIGEN_PATH
setenv GMS_PHI false
setenv GMS_SHMTYPE sysv
setenv GMS_OPENMP false
unset echo
ecp-f3ass
/home/sarom/dir.git.branch.saromleang-travis-ci/tests/ecp/parallel
----- GAMESS execution script 'rungms' -----
This job is running on host compute-0-1.local
under operating system Linux at Wed Aug 9 20:48:56 CDT 2017
Available scratch disk space (Kbyte units) at beginning of the job is
Filesystem           1K-blocks      Used Available Use% Mounted on
/dev/sda1             16126920   3965560  11342160  26% /
GAMESS temporary binary files will be written to /scratch
GAMESS supplementary output files will be written to /home/sarom/restart
Copying input file ecp-f3ass.inp to your run's scratch directory...
cp /home/sarom/dir.git.branch.saromleang-travis-ci/tests/ecp/parallel/ecp-f3ass.inp /scratch/ecp-f3ass.F05
unset echo
The generated host list is
compute-0-1.local
/home/sarom/dir.git.branch.saromleang-travis-ci/ddikick.x /home/sarom/dir.git.branch.saromleang-travis-ci/gamess.00.x ecp-f3ass -ddi 1 1 compute-0-1.local -scr /scratch

 Distributed Data Interface kickoff program.
 Initiating 1 compute processes on 1 nodes to run the following command:
 /home/sarom/dir.git.branch.saromleang-travis-ci/gamess.00.x ecp-f3ass 

          ******************************************************
          *         GAMESS VERSION = 20 APR 2017 (R1)          *
          *             FROM IOWA STATE UNIVERSITY             *
          * M.W.SCHMIDT, K.K.BALDRIDGE, J.A.BOATZ, S.T.ELBERT, *
          *   M.S.GORDON, J.H.JENSEN, S.KOSEKI, N.MATSUNAGA,   *
          *          K.A.NGUYEN, S.J.SU, T.L.WINDUS,           *
          *       TOGETHER WITH M.DUPUIS, J.A.MONTGOMERY       *
          *         J.COMPUT.CHEM.  14, 1347-1363(1993)        *
          **************** 64 BIT LINUX VERSION ****************

  SINCE 1993, STUDENTS AND POSTDOCS WORKING AT IOWA STATE UNIVERSITY
  AND ALSO IN THEIR VARIOUS JOBS AFTER LEAVING ISU HAVE MADE IMPORTANT
  CONTRIBUTIONS TO THE CODE:
     IVANA ADAMOVIC, CHRISTINE AIKENS, YURI ALEXEEV, POOJA ARORA,
     ANDREY ASADCHEV, ROB BELL, PRADIPTA BANDYOPADHYAY, JONATHAN BENTZ,
     BRETT BODE, KURT BRORSEN, CALEB CARLIN, GALINA CHABAN, WEI CHEN,
     CHEOL HO CHOI, PAUL DAY, ALBERT DEFUSCO, NUWAN DESILVA, TIM DUDLEY,
     DMITRI FEDOROV, GRAHAM FLETCHER, MARK FREITAG, KURT GLAESEMANN,
     DAN KEMP, GRANT MERRILL, NORIYUKI MINEZAWA, JONATHAN MULLIN,
     TAKESHI NAGATA, SEAN NEDD, HEATHER NETZLOFF, BOSILJKA NJEGIC, RYAN OLSON,
     MIKE PAK, SPENCER PRUITT, LUKE ROSKOP, JIM SHOEMAKER, LYUDMILA SLIPCHENKO,
     TONY SMITH, SAROM SOK LEANG, JIE SONG, TETSUYA TAKETSUGU, SIMON WEBB,
     PENG XU, SOOHAENG YOO, FEDERICO ZAHARIEV

  ADDITIONAL CODE HAS BEEN PROVIDED BY COLLABORATORS IN OTHER GROUPS:
     IOWA STATE UNIVERSITY:
          JOE IVANIC, AARON WEST, LAIMUTIS BYTAUTAS, KLAUS RUEDENBERG
     UNIVERSITY OF TOKYO: KIMIHIKO HIRAO, TAKAHITO NAKAJIMA,
          TAKAO TSUNEDA, MUNEAKI KAMIYA, SUSUMU YANAGISAWA,
          KIYOSHI YAGI, MAHITO CHIBA, SEIKEN TOKURA, NAOAKI KAWAKAMI
     UNIVERSITY OF AARHUS: FRANK JENSEN
     UNIVERSITY OF IOWA: VISVALDAS KAIRYS, HUI LI
     NATIONAL INST. OF STANDARDS AND TECHNOLOGY: WALT STEVENS, DAVID GARMER
     UNIVERSITY OF PISA: BENEDETTA MENNUCCI, JACOPO TOMASI
     UNIVERSITY OF MEMPHIS: HENRY KURTZ, PRAKASHAN KORAMBATH
     UNIVERSITY OF ALBERTA: TOBY ZENG, MARIUSZ KLOBUKOWSKI
     UNIVERSITY OF NEW ENGLAND: MARK SPACKMAN
     MIE UNIVERSITY: HIROAKI UMEDA
     NAT. INST. OF ADVANCED INDUSTRIAL SCIENCE AND TECHNOLOGY: KAZUO KITAURA
     MICHIGAN STATE UNIVERSITY:
          KAROL KOWALSKI, MARTA WLOCH, JEFFREY GOUR, JESSE LUTZ,
          WEI LI, PIOTR PIECUCH
     UNIVERSITY OF SILESIA: MONIKA MUSIAL, STANISLAW KUCHARSKI
     FACULTES UNIVERSITAIRES NOTRE-DAME DE LA PAIX:
          OLIVIER QUINET, BENOIT CHAMPAGNE
     UNIVERSITY OF CALIFORNIA - SANTA BARBARA: BERNARD KIRTMAN
     INSTITUTE FOR MOLECULAR SCIENCE:
          KAZUYA ISHIMURA, MICHIO KATOUDA, AND SHIGERU NAGASE
     UNIVERSITY OF NOTRE DAME: ANNA POMOGAEVA, DAN CHIPMAN
     KYUSHU UNIVERSITY:
          HARUYUKI NAKANO,
          FENG LONG GU, JACEK KORCHOWIEC, MARCIN MAKOWSKI, AND YURIKO AOKI,
          HIROTOSHI MORI AND EISAKU MIYOSHI
     PENNSYLVANIA STATE UNIVERSITY:
          TZVETELIN IORDANOV, CHET SWALINA, JONATHAN SKONE,
          SHARON HAMMES-SCHIFFER
     WASEDA UNIVERSITY:
          MASATO KOBAYASHI, TOMOKO AKAMA, TSUGUKI TOUMA,
          TAKESHI YOSHIKAWA, YASUHIRO IKABATA, JUNJI SEINO,
          YUYA NAKAJIMA, HIROMI NAKAI
     NANJING UNIVERSITY: SHUHUA LI
     UNIVERSITY OF NEBRASKA:
          PEIFENG SU, DEJUN SI, NANDUN THELLAMUREGE, YALI WANG, HUI LI
     UNIVERSITY OF ZURICH: ROBERTO PEVERATI, KIM BALDRIDGE
     N. COPERNICUS UNIVERSITY AND JACKSON STATE UNIVERSITY:
          MARIA BARYSZ
     UNIVERSITY OF COPENHAGEN: Jimmy Kromann, CASPER STEINMANN
     TOKYO INSTITUTE OF TECHNOLOGY: HIROYA NAKATA
     NAGOYA UNIVERSITY: YOSHIO NISHIMOTO, STEPHAN IRLE
     MOSCOW STATE UNIVERSITY: VLADIMIR MIRONOV

 EXECUTION OF GAMESS BEGUN Wed Aug  9 20:48:56 2017

            ECHO OF THE FIRST FEW INPUT CARDS -
 INPUT CARD>!  J.Breidung, W.Thiel, A.Komornicki  Chem.Phys.Lett.  1988, 153, 76.           
 INPUT CARD>!  W.Schneider, W.Thiel, A.Komornicki  J.Phys.Chem.  1990, 94, 2810.            
 INPUT CARD>!                                                                               
 INPUT CARD>!  FINAL E= -314.2474076304 after 11 iters                                      
 INPUT CARD>!  FREQ=220.97(e), 311.73(e), 366.01(a1), 578.06(a1), 839.89(e), 846.87(a1)     
 INPUT CARD>!  INTENS=0.17365,  0.57054,   1.38032,     1.26187,   2.67054,   4.05549       
 INPUT CARD>!  note that 2*2.67078*42.255= 225.7 km/mole, compare lit. value=226            
 INPUT CARD>!  lit. FREQ=221(e), 312(e), 366(a1), 578(a1), 840(e), 847(a1)                  
 INPUT CARD>!                                                                               
 INPUT CARD>!  This run takes 6 seconds on a 2.66 GHz Cloverton ( 6 Apr 2015)               
 INPUT CARD>!  results haven't changed since 2005                                           
 INPUT CARD>!                                                                               
 INPUT CARD> $contrl scftyp=rhf runtyp=hessian coord=unique pp=read $end                    
 INPUT CARD> $system memory=5000000 $end                                                    
 INPUT CARD> $guess  guess=huckel $end                                                      
 INPUT CARD> $data                                                                          
 INPUT CARD>F3AsS...Komornicki's ECP test case                                              
 INPUT CARD>Cnv  3                                                                          
 INPUT CARD>                                                                                
 INPUT CARD>As         33.0   0.0000000000   0.0000000000  -0.1081834002                    
 INPUT CARD>   HW                                                                           
 INPUT CARD>   d 1 ; 1 0.35 1.0                                                             
 INPUT CARD>                                                                                
 INPUT CARD>S          16.0   0.0000000000   0.0000000000   1.8812962146                    
 INPUT CARD>   HW                                                                           
 INPUT CARD>   D 1 ; 1 0.65 1.0                                                             
 INPUT CARD>                                                                                
 INPUT CARD>F           9.0   1.4419992354   0.0000000000  -0.9126874642                    
 INPUT CARD>   N31 6                                                                        
 INPUT CARD>   D 1 ; 1 0.80 1.0                                                             
 INPUT CARD>                                                                                
 INPUT CARD> $end                                                                           
 INPUT CARD> $ecp                                                                           
 INPUT CARD>As-ecp HW                                                                       
 INPUT CARD>S-ecp  HW                                                                       
 INPUT CARD>F-ecp  none                                                                     
 INPUT CARD>F-ecp  none                                                                     
 INPUT CARD>F-ecp  none                                                                     
 INPUT CARD> $end                                                                           
    5000000 WORDS OF MEMORY AVAILABLE


     RUN TITLE
     ---------
 F3AsS...Komornicki's ECP test case                                              

 THE POINT GROUP OF THE MOLECULE IS CNV     
 THE ORDER OF THE PRINCIPAL AXIS IS     3

 ATOM      ATOMIC                      COORDINATES (BOHR)
           CHARGE         X                   Y                   Z
 AS         33.0     0.0000000000        0.0000000000       -0.2044369828
 S          16.0     0.0000000000        0.0000000000        3.5551343473
 F           9.0    -1.3624917147        2.3599048748       -1.7247292198
 F           9.0    -1.3624917147       -2.3599048748       -1.7247292198
 F           9.0     2.7249834294        0.0000000000       -1.7247292198

          INTERNUCLEAR DISTANCES (ANGS.)
          ------------------------------

                1 AS         2 S          3 F          4 F          5 F     

   1 AS      0.0000000    1.9894796 *  1.6512385 *  1.6512385 *  1.6512385 *
   2 S       1.9894796 *  0.0000000    3.1441544    3.1441544    3.1441544  
   3 F       1.6512385 *  3.1441544    0.0000000    2.4976159 *  2.4976159 *
   4 F       1.6512385 *  3.1441544    2.4976159 *  0.0000000    2.4976159 *
   5 F       1.6512385 *  3.1441544    2.4976159 *  2.4976159 *  0.0000000  

  * ... LESS THAN  3.000


     ATOMIC BASIS SET
     ----------------
 THE CONTRACTED PRIMITIVE FUNCTIONS HAVE BEEN UNNORMALIZED
 THE CONTRACTED BASIS FUNCTIONS ARE NOW NORMALIZED TO UNITY

  SHELL TYPE  PRIMITIVE        EXPONENT          CONTRACTION COEFFICIENT(S)

 AS        

      1   S       1             0.9635000   -2.670954997964
      1   S       2             0.5427000    2.938789254184

      2   S       3             0.1407000    1.000000000000

      3   P       4             2.0840000   -0.113710036564
      3   P       5             0.3224000    1.038026599024

      4   P       6             0.1020000    1.000000000000

      5   D       7             0.3500000    1.000000000000

 S         

      6   S       8             1.8500000   -0.532433532777
      6   S       9             0.4035000    1.276380106237

      7   S      10             0.1438000    1.000000000000

      8   P      11             4.9450000   -0.060811588916
      8   P      12             0.4870000    1.013268618607

      9   P      13             0.1379000    1.000000000000

     10   D      14             0.6500000    1.000000000000

 F         

     19   S      15          7001.7130900    0.001819616901
     19   S      16          1051.3660900    0.013916079607
     19   S      17           239.2856900    0.068405324535
     19   S      18            67.3974453    0.233185760119
     19   S      19            21.5199573    0.471267439240
     19   S      20             7.4031013    0.356618546182

     20   L      21            20.8479528   -0.108506975109    0.071628724237
     20   L      22             4.8083083   -0.146451658147    0.345912102697
     20   L      23             1.3440699    1.128688581135    0.722469956367

     21   L      24             0.3581514    1.000000000000    1.000000000000

     22   D      25             0.8000000    1.000000000000

 TOTAL NUMBER OF BASIS SET SHELLS             =   22
 NUMBER OF CARTESIAN GAUSSIAN BASIS FUNCTIONS =   73
 NUMBER OF ELECTRONS                          =   76
 CHARGE OF MOLECULE                           =    0
 SPIN MULTIPLICITY                            =    1
 NUMBER OF OCCUPIED ORBITALS (ALPHA)          =   38
 NUMBER OF OCCUPIED ORBITALS (BETA )          =   38
 TOTAL NUMBER OF ATOMS                        =    5
 THE NUCLEAR REPULSION ENERGY IS      550.1758631544
 NOTE THIS RUN IS USING CORE POTENTIALS, AND THE NUMBER OF ELECTRONS,
 OCCUPIED ORBITALS, AND NUCLEAR REPULSION ENERGY WILL BE ADJUSTED BELOW
 AFTER REMOVAL OF THE CORE CHARGES.

     $CONTRL OPTIONS
     ---------------
 SCFTYP=RHF          RUNTYP=HESSIAN      EXETYP=RUN     
 MPLEVL=       0     CITYP =NONE         CCTYP =NONE         VBTYP =NONE    
 DFTTYP=NONE         TDDFT =NONE    
 MULT  =       1     ICHARG=       0     NZVAR =       0     COORD =UNIQUE  
 PP    =READ         RELWFN=NONE         LOCAL =NONE         NUMGRD=       F
 ISPHER=      -1     NOSYM =       0     MAXIT =      30     UNITS =ANGS    
 PLTORB=       F     MOLPLT=       F     AIMPAC=       F     FRIEND=        
 NPRINT=       7     IREST =       0     GEOM  =INPUT   
 NORMF =       0     NORMP =       0     ITOL  =      20     ICUT  =       9
 INTTYP=BEST         GRDTYP=BEST         QMTTOL= 1.0E-06

     $SYSTEM OPTIONS
     ---------------
  REPLICATED MEMORY=     5000000 WORDS (ON EVERY NODE).
 DISTRIBUTED MEMDDI=           0 MILLION WORDS IN AGGREGATE,
 MEMDDI DISTRIBUTED OVER   1 PROCESSORS IS           0 WORDS/PROCESSOR.
 TOTAL MEMORY REQUESTED ON EACH PROCESSOR=     5000000 WORDS.
 TIMLIM=      525600.00 MINUTES, OR     365.0 DAYS.
 PARALL= F  BALTYP=  DLB     KDIAG=    0  COREFL= F
 MXSEQ2=     300 MXSEQ3=     150  mem10=         0

          --------------
          ECP POTENTIALS
          --------------

 PARAMETERS FOR "AS-ECP  " ON ATOM    1 WITH ZCORE  28 AND LMAX  3 ARE
 FOR L= 3      COEFF    N           ZETA
    1      -28.00000    1      375.47488
    2     -198.36874    2       72.65548
    3      -60.45638    2       15.91627
    4      -22.31883    2        4.64203
    5       -2.16383    2        1.47892
 FOR L= 0      COEFF    N           ZETA
    1        3.00000    0      105.88539
    2       31.84868    1       62.59518
    3      200.99582    2       34.50174
    4      102.63876    2       10.37586
    5       34.18454    2        2.53793
 FOR L= 1      COEFF    N           ZETA
    1        5.00000    0       37.64714
    2       24.25057    1       17.20347
    3       48.91750    2       18.90757
    4       66.53323    2        6.81535
    5       19.65777    2        2.06119
 FOR L= 2      COEFF    N           ZETA
    1        3.00000    0       52.07313
    2       23.34607    1       28.00378
    3       80.78549    2       14.70512
    4       40.26813    2        4.79732
    5        4.83328    2        1.10628

 PARAMETERS FOR "S-ECP   " ON ATOM    2 WITH ZCORE  10 AND LMAX  2 ARE
 FOR L= 2      COEFF    N           ZETA
    1      -10.00000    1      532.66852
    2      -85.35938    2      108.13422
    3      -30.45133    2       24.56977
    4      -10.37459    2        7.37024
    5       -0.98993    2        2.37126
 FOR L= 0      COEFF    N           ZETA
    1        3.00000    0      106.31768
    2       10.62840    1      100.82458
    3      223.63605    2       53.58585
    4       93.64608    2       15.37063
    5       28.76091    2        3.17784
 FOR L= 1      COEFF    N           ZETA
    1        5.00000    0      101.97092
    2        6.09698    1       93.28090
    3      285.44255    2       65.14318
    4      147.14484    2       24.63474
    5       53.65698    2        7.81205
    6        8.92496    2        2.31127

 THE ECP RUN REMOVES   38 CORE ELECTRONS, AND THE SAME NUMBER OF PROTONS.
 NUMBER OF ELECTRONS KEPT IN THE CALCULATION IS =   38
 NUMBER OF OCCUPIED ORBITALS (ALPHA) KEPT IS    =   19
 NUMBER OF OCCUPIED ORBITALS (BETA ) KEPT IS    =   19
 THE ADJUSTED NUCLEAR REPULSION ENERGY=      129.9940335891
          ECP ANGULAR INTS.........     0.00 SECONDS

          ----------------
          PROPERTIES INPUT
          ----------------

     MOMENTS            FIELD           POTENTIAL          DENSITY
 IEMOM =       1   IEFLD =       0   IEPOT =       0   IEDEN =       0
 WHERE =COMASS     WHERE =NUCLEI     WHERE =NUCLEI     WHERE =NUCLEI  
 OUTPUT=BOTH       OUTPUT=BOTH       OUTPUT=BOTH       OUTPUT=BOTH    
 IEMINT=       0   IEFINT=       0                     IEDINT=       0
                                                       MORB  =       0
          EXTRAPOLATION IN EFFECT
          DIIS IN EFFECT
 ORBITAL PRINTING OPTION: NPREO=     1    73     2     1

     -------------------------------
     INTEGRAL TRANSFORMATION OPTIONS
     -------------------------------
     NWORD  =            0
     CUTOFF = 1.0E-09     MPTRAN =       0
     DIRTRF =       F     AOINTS =DUP     

          ----------------------
          INTEGRAL INPUT OPTIONS
          ----------------------
 NOPK  =       1 NORDER=       0 SCHWRZ=       F

     ------------------------------------------
     THE POINT GROUP IS CNV, NAXIS= 3, ORDER= 6
     ------------------------------------------

     DIMENSIONS OF THE SYMMETRY SUBSPACES ARE
 A1  =   23     A2  =    4     E   =   23

 ..... DONE SETTING UP THE RUN .....
 STEP CPU TIME =     0.02 TOTAL CPU TIME =        0.0 (    0.0 MIN)
 TOTAL WALL CLOCK TIME=        0.0 SECONDS, CPU UTILIZATION IS  66.67%

     ---------------------------------
     HESSIAN MATRIX CONTROL PARAMETERS
     ---------------------------------
     METHOD=ANALYTIC   NVIB  =       2   VIBSIZ= 0.01000
     RDHESS=       F   PURIFY=       F   PRTIFC=       F
     VIBANL=       T   DECOMP=       F   PROJCT=       F
     SCLFAC= 1.00000   PRTSCN=       F   NPRT  =       0
     PULCOR=       F   NPUN  =       0   REDOVB=       T
     HSSTYP=GENERAL 
     THERMOCHEMISTRY WILL BE PRINTED FOR    1 TEMPERATURES:
      298.15000
 Old integral subroutine is used

     ------------------------------
     CPHF RESPONSE SOLUTION OPTIONS
     ------------------------------
     POLAR  =       F     NWORD  =       0
     CPHF   =AO      

          ********************
          1 ELECTRON INTEGRALS
          ********************
 TIME TO DO ORDINARY INTEGRALS=      0.00
 TIME TO DO      ECP INTEGRALS=      0.01
 ...... END OF ONE-ELECTRON INTEGRALS ......
 STEP CPU TIME =     0.01 TOTAL CPU TIME =        0.0 (    0.0 MIN)
 TOTAL WALL CLOCK TIME=        0.0 SECONDS, CPU UTILIZATION IS  75.00%

          -------------
          GUESS OPTIONS
          -------------
          GUESS =HUCKEL            NORB  =       0          NORDER=       0
          MIX   =       F          PRTMO =       F          PUNMO =       F
          TOLZ  = 1.0E-08          TOLE  = 1.0E-05
          SYMDEN=       F          PURIFY=       F

 INITIAL GUESS ORBITALS GENERATED BY HUCKEL   ROUTINE.
 HUCKEL GUESS REQUIRES     45032 WORDS.

 SYMMETRIES FOR INITIAL GUESS ORBITALS FOLLOW.   BOTH SET(S).
    19 ORBITALS ARE OCCUPIED (    3 CORE ORBITALS).
     4=?A1      5=?E       6=?E       7=?A1      8=?A1      9=?E      10=?E  
    11=?A1     12=?E      13=?E      14=?A2     15=?E      16=?E      17=?A1 
    18=?E      19=?E      20=?E      21=E       22=?A1     23=A1      24=A1  
    25=A1      26=A1      27=A1      28=A1      29=A1  
 ...... END OF INITIAL ORBITAL SELECTION ......
 STEP CPU TIME =     0.01 TOTAL CPU TIME =        0.0 (    0.0 MIN)
 TOTAL WALL CLOCK TIME=        0.0 SECONDS, CPU UTILIZATION IS  80.00%

                    ----------------------
                    AO INTEGRAL TECHNOLOGY
                    ----------------------
     S,P,L SHELL ROTATED AXIS INTEGRALS, REPROGRAMMED BY
        KAZUYA ISHIMURA (IMS) AND JOSE SIERRA (SYNSTAR).
     S,P,D,L SHELL ROTATED AXIS INTEGRALS PROGRAMMED BY
        KAZUYA ISHIMURA (INSTITUTE FOR MOLECULAR SCIENCE).
     S,P,D,F,G SHELL TO TOTAL QUARTET ANGULAR MOMENTUM SUM 5,
        ERIC PROGRAM BY GRAHAM FLETCHER (ELORET AND NASA ADVANCED
        SUPERCOMPUTING DIVISION, AMES RESEARCH CENTER).
     S,P,D,F,G,L SHELL GENERAL RYS QUADRATURE PROGRAMMED BY
        MICHEL DUPUIS (PACIFIC NORTHWEST NATIONAL LABORATORY).

          --------------------
          2 ELECTRON INTEGRALS
          --------------------

 THE -PK- OPTION IS OFF, THE INTEGRALS ARE NOT IN SUPERMATRIX FORM.
 STORING   15000 INTEGRALS/RECORD ON DISK, USING 12 BYTES/INTEGRAL.
 TWO ELECTRON INTEGRAL EVALUATION REQUIRES   90649 WORDS OF MEMORY.
 II,JST,KST,LST =  1  1  1  1 NREC =         1 INTLOC =    1
 II,JST,KST,LST =  2  1  1  1 NREC =         1 INTLOC =    2
 II,JST,KST,LST =  3  1  1  1 NREC =         1 INTLOC =    7
 II,JST,KST,LST =  4  1  1  1 NREC =         1 INTLOC =   34
 II,JST,KST,LST =  5  1  1  1 NREC =         1 INTLOC =  139
 II,JST,KST,LST =  6  1  1  1 NREC =         1 INTLOC =  880
 II,JST,KST,LST =  7  1  1  1 NREC =         1 INTLOC = 1417
 II,JST,KST,LST =  8  1  1  1 NREC =         1 INTLOC = 2095
 II,JST,KST,LST =  9  1  1  1 NREC =         1 INTLOC = 4524
 II,JST,KST,LST = 10  1  1  1 NREC =         1 INTLOC = 8282
 II,JST,KST,LST = 11  1  1  1 NREC =         2 INTLOC = 6282
 II,JST,KST,LST = 12  1  1  1 NREC =         2 INTLOC = 6282
 II,JST,KST,LST = 13  1  1  1 NREC =         2 INTLOC = 6282
 II,JST,KST,LST = 14  1  1  1 NREC =         2 INTLOC = 6282
 II,JST,KST,LST = 15  1  1  1 NREC =         2 INTLOC = 6282
 II,JST,KST,LST = 16  1  1  1 NREC =         2 INTLOC = 6282
 II,JST,KST,LST = 17  1  1  1 NREC =         2 INTLOC = 6282
 II,JST,KST,LST = 18  1  1  1 NREC =         2 INTLOC = 6282
 II,JST,KST,LST = 19  1  1  1 NREC =         2 INTLOC = 6282
 II,JST,KST,LST = 20  1  1  1 NREC =         2 INTLOC =11770
 II,JST,KST,LST = 21  1  1  1 NREC =         6 INTLOC =  966
 II,JST,KST,LST = 22  1  1  1 NREC =        14 INTLOC = 1036
 TOTAL NUMBER OF NONZERO TWO-ELECTRON INTEGRALS =              562320
         38 INTEGRAL RECORDS WERE STORED ON DISK FILE  8.
  ...... END OF TWO-ELECTRON INTEGRALS .....
 STEP CPU TIME =     0.06 TOTAL CPU TIME =        0.1 (    0.0 MIN)
 TOTAL WALL CLOCK TIME=        0.1 SECONDS, CPU UTILIZATION IS 100.00%

          --------------------------
                 RHF SCF CALCULATION
          --------------------------

     NUCLEAR ENERGY =       129.9940335891
     MAXIT =   30     NPUNCH=    2
     EXTRAP=T  DAMP=F  SHIFT=F  RSTRCT=F  DIIS=T  DEM=F  SOSCF=F
     DENSITY MATRIX CONV=  1.00E-05
     MEMORY REQUIRED FOR RHF ITERS=     68990 WORDS.

 ITER EX DEM     TOTAL ENERGY        E CHANGE  DENSITY CHANGE    DIIS ERROR
   1  0  0     -313.0434493902  -313.0434493902   0.582648109   1.061935203
          * * *   INITIATING DIIS PROCEDURE   * * *
   2  1  0     -314.1244669694    -1.0810175792   0.352034340   0.132287809
   3  2  0     -314.2173273020    -0.0928603326   0.146561825   0.091358468
   4  3  0     -314.2466952724    -0.0293679704   0.023091947   0.014466440
   5  4  0     -314.2473033855    -0.0006081131   0.003048361   0.003080756
   6  5  0     -314.2473902195    -0.0000868340   0.005009578   0.001803646
   7  6  0     -314.2474058463    -0.0000156268   0.001848535   0.000517470
   8  7  0     -314.2474075792    -0.0000017329   0.000274657   0.000072595
   9  8  0     -314.2474076277    -0.0000000485   0.000031534   0.000011914
  10  9  0     -314.2474076303    -0.0000000026   0.000006433   0.000002814
  11 10  0     -314.2474076304    -0.0000000001   0.000000883   0.000000571

          -----------------
          DENSITY CONVERGED
          -----------------
     TIME TO FORM FOCK OPERATORS=       0.1 SECONDS (       0.0 SEC/ITER)
     TIME TO SOLVE SCF EQUATIONS=       0.0 SECONDS (       0.0 SEC/ITER)

 FINAL RHF ENERGY IS     -314.2474076304 AFTER  11 ITERATIONS

          ------------
          EIGENVECTORS
          ------------

                      1          2          3          4          5
                  -26.3724   -26.3724   -26.3724    -1.6967    -1.6504
                     E          E          A1         A1         E   
    1  AS 1  S    0.000000  -0.000000   0.000193   0.063215  -0.000000
    2  AS 1  S    0.000000  -0.000000  -0.000036   0.117732  -0.000000
    3  AS 1  X    0.000622  -0.000000   0.000000  -0.000000   0.066021
    4  AS 1  Y    0.000000  -0.000622   0.000000  -0.000000  -0.000000
    5  AS 1  Z    0.000000  -0.000000  -0.000486  -0.036801  -0.000000
    6  AS 1  X   -0.000344  -0.000000   0.000000  -0.000000   0.004638
    7  AS 1  Y    0.000000   0.000344   0.000000  -0.000000  -0.000000
    8  AS 1  Z    0.000000  -0.000000   0.000499   0.009095  -0.000000
    9  AS 1 XX    0.000242  -0.000000   0.000178  -0.016059   0.013955
   10  AS 1 YY   -0.000242  -0.000000   0.000178  -0.016059  -0.013955
   11  AS 1 ZZ    0.000000  -0.000000   0.000110  -0.016673  -0.000000
   12  AS 1 XY    0.000000   0.000279   0.000000  -0.000000  -0.000000
   13  AS 1 XZ   -0.000398  -0.000000   0.000000  -0.000000  -0.019619
   14  AS 1 YZ    0.000000   0.000398   0.000000  -0.000000  -0.000000
   15  S  2  S    0.000000  -0.000000  -0.000206   0.001369  -0.000000
   16  S  2  S    0.000000  -0.000000  -0.000462  -0.013059  -0.000000
   17  S  2  X   -0.000004  -0.000000   0.000000  -0.000000   0.001781
   18  S  2  Y    0.000000   0.000004   0.000000  -0.000000  -0.000000
   19  S  2  Z    0.000000  -0.000000  -0.000082  -0.008339  -0.000000
   20  S  2  X    0.000100  -0.000000   0.000000  -0.000000   0.001131
   21  S  2  Y    0.000000  -0.000100   0.000000  -0.000000  -0.000000
   22  S  2  Z    0.000000  -0.000000   0.000241   0.006061  -0.000000
   23  S  2 XX   -0.000009  -0.000000   0.000172   0.002190  -0.000039
   24  S  2 YY    0.000009  -0.000000   0.000172   0.002190   0.000039
   25  S  2 ZZ    0.000000  -0.000000   0.000197   0.008888  -0.000000
   26  S  2 XY    0.000000  -0.000011   0.000000  -0.000000  -0.000000
   27  S  2 XZ   -0.000044  -0.000000   0.000000  -0.000000  -0.001447
   28  S  2 YZ    0.000000   0.000044   0.000000  -0.000000  -0.000000
   29  F  3  S   -0.405967  -0.703156   0.574142  -0.125354   0.093326
   30  F  3  S   -0.007202  -0.012475   0.010277   0.292124  -0.218295
   31  F  3  X   -0.000147  -0.000267   0.000224   0.019313  -0.005163
   32  F  3  Y    0.000267   0.000455  -0.000389  -0.033451   0.018387
   33  F  3  Z   -0.000167  -0.000288   0.000251   0.017898  -0.011633
   34  F  3  S   -0.003406  -0.005900   0.004636   0.245282  -0.184683
   35  F  3  X    0.000080   0.000200  -0.000151   0.019376  -0.007626
   36  F  3  Y   -0.000200  -0.000311   0.000261  -0.033561   0.015515
   37  F  3  Z    0.000120   0.000207  -0.000184   0.018645  -0.009897
   38  F  3 XX    0.001869   0.003358  -0.002661   0.015669  -0.011212
   39  F  3 YY    0.002025   0.003386  -0.002740   0.024205  -0.015200
   40  F  3 ZZ    0.001938   0.003357  -0.002627   0.016153  -0.011479
   41  F  3 XY   -0.000016  -0.000109   0.000078  -0.008536   0.004149
   42  F  3 XZ    0.000045   0.000061  -0.000037   0.005409  -0.002645
   43  F  3 YZ   -0.000061  -0.000116   0.000064  -0.009369   0.004635
   44  F  4  S   -0.405967   0.703156   0.574142  -0.125354   0.093326
   45  F  4  S   -0.007202   0.012475   0.010277   0.292124  -0.218295
   46  F  4  X   -0.000147   0.000267   0.000224   0.019313  -0.005163
   47  F  4  Y   -0.000267   0.000455   0.000389   0.033451  -0.018387
   48  F  4  Z   -0.000167   0.000288   0.000251   0.017898  -0.011633
   49  F  4  S   -0.003406   0.005900   0.004636   0.245282  -0.184683
   50  F  4  X    0.000080  -0.000200  -0.000151   0.019376  -0.007626
   51  F  4  Y    0.000200  -0.000311  -0.000261   0.033561  -0.015515
   52  F  4  Z    0.000120  -0.000207  -0.000184   0.018645  -0.009897
   53  F  4 XX    0.001869  -0.003358  -0.002661   0.015669  -0.011212
   54  F  4 YY    0.002025  -0.003386  -0.002740   0.024205  -0.015200
   55  F  4 ZZ    0.001938  -0.003357  -0.002627   0.016153  -0.011479
   56  F  4 XY    0.000016  -0.000109  -0.000078   0.008536  -0.004149
   57  F  4 XZ    0.000045  -0.000061  -0.000037   0.005409  -0.002645
   58  F  4 YZ    0.000061  -0.000116  -0.000064   0.009369  -0.004635
   59  F  5  S    0.811934  -0.000000   0.574142  -0.125354  -0.186651
   60  F  5  S    0.014405  -0.000000   0.010277   0.292124   0.436590
   61  F  5  X   -0.000609  -0.000000  -0.000449  -0.038626  -0.037011
   62  F  5  Y    0.000000  -0.000007   0.000000  -0.000000  -0.000000
   63  F  5  Z    0.000333  -0.000000   0.000251   0.017898   0.023266
   64  F  5  S    0.006813  -0.000000   0.004636   0.245282   0.369365
   65  F  5  X    0.000427  -0.000000   0.000302  -0.038753  -0.034499
   66  F  5  Y    0.000000   0.000036   0.000000  -0.000000  -0.000000
   67  F  5  Z   -0.000240  -0.000000  -0.000184   0.018645   0.019795
   68  F  5 XX   -0.003996  -0.000000  -0.002779   0.028473   0.034630
   69  F  5 YY   -0.003792  -0.000000  -0.002622   0.011402   0.018195
   70  F  5 ZZ   -0.003877  -0.000000  -0.002627   0.016153   0.022959
   71  F  5 XY    0.000000  -0.000080   0.000000  -0.000000  -0.000000
   72  F  5 XZ    0.000151  -0.000000   0.000074  -0.010818  -0.010673
   73  F  5 YZ    0.000000  -0.000010   0.000000  -0.000000  -0.000000

                      6          7          8          9         10
                   -1.6504    -1.0301    -0.8862    -0.7942    -0.7942
                     E          A1         A1         E          E   
    1  AS 1  S    0.000000   0.140233   0.104405  -0.000000   0.000000
    2  AS 1  S    0.000000   0.374131   0.275271  -0.000000   0.000000
    3  AS 1  X    0.000000   0.000000   0.000000  -0.244882   0.000000
    4  AS 1  Y   -0.066021   0.000000   0.000000  -0.000000   0.244882
    5  AS 1  Z    0.000000   0.153684  -0.185272  -0.000000   0.000000
    6  AS 1  X    0.000000   0.000000   0.000000  -0.051336   0.000000
    7  AS 1  Y   -0.004638   0.000000   0.000000  -0.000000   0.051336
    8  AS 1  Z    0.000000   0.064297   0.015932  -0.000000   0.000000
    9  AS 1 XX    0.000000  -0.033798  -0.017152  -0.007187   0.000000
   10  AS 1 YY    0.000000  -0.033798  -0.017152   0.007187   0.000000
   11  AS 1 ZZ    0.000000   0.041262  -0.031113  -0.000000   0.000000
   12  AS 1 XY    0.016114   0.000000   0.000000  -0.000000  -0.008299
   13  AS 1 XZ    0.000000   0.000000   0.000000   0.042462   0.000000
   14  AS 1 YZ    0.019619   0.000000   0.000000  -0.000000  -0.042462
   15  S  2  S    0.000000   0.348128  -0.271744  -0.000000   0.000000
   16  S  2  S    0.000000   0.212441  -0.269344  -0.000000   0.000000
   17  S  2  X    0.000000   0.000000   0.000000  -0.030107   0.000000
   18  S  2  Y   -0.001781   0.000000   0.000000  -0.000000   0.030107
   19  S  2  Z    0.000000  -0.103151   0.000562  -0.000000   0.000000
   20  S  2  X    0.000000   0.000000   0.000000  -0.019715   0.000000
   21  S  2  Y   -0.001131   0.000000   0.000000  -0.000000   0.019715
   22  S  2  Z    0.000000   0.002267   0.028984  -0.000000   0.000000
   23  S  2 XX    0.000000   0.000157   0.014555   0.000086   0.000000
   24  S  2 YY    0.000000   0.000157   0.014555  -0.000086   0.000000
   25  S  2 ZZ    0.000000   0.044737   0.011146  -0.000000   0.000000
   26  S  2 XY   -0.000045   0.000000   0.000000  -0.000000   0.000099
   27  S  2 XZ    0.000000   0.000000   0.000000   0.009367   0.000000
   28  S  2 YZ    0.001447   0.000000   0.000000  -0.000000  -0.009367
   29  F  3  S    0.161645   0.030289   0.038457   0.017652   0.030575
   30  F  3  S   -0.378098  -0.061124  -0.082449  -0.036500  -0.063220
   31  F  3  X   -0.018387   0.038794   0.129166  -0.134673   0.251151
   32  F  3  Y    0.026395  -0.067193  -0.223723  -0.251151  -0.155331
   33  F  3  Z   -0.020149   0.068374   0.059665   0.117106   0.202834
   34  F  3  S   -0.319880  -0.110921  -0.143178  -0.076639  -0.132743
   35  F  3  X   -0.015515   0.026733   0.088679  -0.096961   0.171853
   36  F  3  Y    0.025541  -0.046303  -0.153596  -0.171853  -0.101478
   37  F  3  Z   -0.017143   0.041724   0.037690   0.077522   0.134272
   38  F  3 XX   -0.019281   0.002970   0.003641  -0.006961   0.008516
   39  F  3 YY   -0.026467   0.008633   0.017270   0.016188   0.007466
   40  F  3 ZZ   -0.019883   0.005540   0.000625   0.003845   0.006660
   41  F  3 XY    0.007093  -0.005663  -0.013629   0.000607  -0.012665
   42  F  3 XZ   -0.004635   0.005196   0.006164  -0.001276   0.011034
   43  F  3 YZ    0.007997  -0.009001  -0.010676  -0.011034  -0.011465
   44  F  4  S   -0.161645   0.030289   0.038457   0.017652  -0.030575
   45  F  4  S    0.378098  -0.061124  -0.082449  -0.036500   0.063220
   46  F  4  X    0.018387   0.038794   0.129166  -0.134673  -0.251151
   47  F  4  Y    0.026395   0.067193   0.223723   0.251151  -0.155331
   48  F  4  Z    0.020149   0.068374   0.059665   0.117106  -0.202834
   49  F  4  S    0.319880  -0.110921  -0.143178  -0.076639   0.132743
   50  F  4  X    0.015515   0.026733   0.088679  -0.096961  -0.171853
   51  F  4  Y    0.025541   0.046303   0.153596   0.171853  -0.101478
   52  F  4  Z    0.017143   0.041724   0.037690   0.077522  -0.134272
   53  F  4 XX    0.019281   0.002970   0.003641  -0.006961  -0.008516
   54  F  4 YY    0.026467   0.008633   0.017270   0.016188  -0.007466
   55  F  4 ZZ    0.019883   0.005540   0.000625   0.003845  -0.006660
   56  F  4 XY    0.007093   0.005663   0.013629  -0.000607  -0.012665
   57  F  4 XZ    0.004635   0.005196   0.006164  -0.001276  -0.011034
   58  F  4 YZ    0.007997   0.009001   0.010676   0.011034  -0.011465
   59  F  5  S    0.000000   0.030289   0.038457  -0.035304   0.000000
   60  F  5  S    0.000000  -0.061124  -0.082449   0.073001   0.000000
   61  F  5  X    0.000000  -0.077588  -0.258333   0.300333   0.000000
   62  F  5  Y   -0.005453   0.000000   0.000000  -0.000000   0.279675
   63  F  5  Z    0.000000   0.068374   0.059665  -0.234213   0.000000
   64  F  5  S    0.000000  -0.110921  -0.143178   0.153278   0.000000
   65  F  5  X    0.000000  -0.053466  -0.177358   0.200697   0.000000
   66  F  5  Y   -0.001331   0.000000   0.000000  -0.000000   0.196180
   67  F  5  Z    0.000000   0.041724   0.037690  -0.155044   0.000000
   68  F  5 XX    0.000000   0.011465   0.024085  -0.019892   0.000000
   69  F  5 YY    0.000000   0.000139  -0.003174   0.001437   0.000000
   70  F  5 ZZ    0.000000   0.005540   0.000625  -0.007690   0.000000
   71  F  5 XY   -0.000093   0.000000   0.000000  -0.000000  -0.013715
   72  F  5 XZ    0.000000  -0.010393  -0.012328   0.017835   0.000000
   73  F  5 YZ   -0.000031   0.000000   0.000000  -0.000000   0.007646

                     11         12         13         14         15
                   -0.7572    -0.7330    -0.7330    -0.6992    -0.6992
                     A1         E          E          E          E   
    1  AS 1  S    0.038127   0.000000  -0.000000   0.000000   0.000000
    2  AS 1  S    0.122781   0.000000  -0.000000   0.000000   0.000000
    3  AS 1  X   -0.000000   0.064976  -0.000000  -0.036325   0.000000
    4  AS 1  Y   -0.000000   0.000000  -0.064976   0.000000  -0.036325
    5  AS 1  Z    0.084974   0.000000  -0.000000   0.000000   0.000000
    6  AS 1  X   -0.000000  -0.021763  -0.000000   0.071730   0.000000
    7  AS 1  Y   -0.000000   0.000000   0.021763   0.000000   0.071730
    8  AS 1  Z    0.121505   0.000000  -0.000000   0.000000   0.000000
    9  AS 1 XX    0.013954   0.054596  -0.000000  -0.021009   0.000000
   10  AS 1 YY    0.013954  -0.054596  -0.000000   0.021009   0.000000
   11  AS 1 ZZ   -0.066659   0.000000  -0.000000   0.000000   0.000000
   12  AS 1 XY   -0.000000   0.000000   0.063042   0.000000   0.024259
   13  AS 1 XZ   -0.000000   0.026105  -0.000000   0.030944   0.000000
   14  AS 1 YZ   -0.000000   0.000000  -0.026105   0.000000   0.030944
   15  S  2  S   -0.186976   0.000000  -0.000000   0.000000   0.000000
   16  S  2  S   -0.235468   0.000000  -0.000000   0.000000   0.000000
   17  S  2  X   -0.000000   0.013594  -0.000000   0.011436   0.000000
   18  S  2  Y   -0.000000   0.000000  -0.013594   0.000000   0.011436
   19  S  2  Z   -0.050452   0.000000  -0.000000   0.000000   0.000000
   20  S  2  X   -0.000000   0.025931  -0.000000  -0.002975   0.000000
   21  S  2  Y   -0.000000   0.000000  -0.025931   0.000000  -0.002975
   22  S  2  Z    0.000849   0.000000  -0.000000   0.000000   0.000000
   23  S  2 XX    0.008287   0.000990  -0.000000   0.000039   0.000000
   24  S  2 YY    0.008287  -0.000990  -0.000000  -0.000039   0.000000
   25  S  2 ZZ    0.021905   0.000000  -0.000000   0.000000   0.000000
   26  S  2 XY   -0.000000   0.000000   0.001143   0.000000  -0.000046
   27  S  2 XZ   -0.000000  -0.003975  -0.000000   0.000068   0.000000
   28  S  2 YZ   -0.000000   0.000000   0.003975   0.000000   0.000068
   29  F  3  S   -0.000295  -0.004426  -0.007665   0.002650  -0.004591
   30  F  3  S   -0.010498   0.012512   0.021672  -0.013153   0.022781
   31  F  3  X   -0.066793  -0.257825   0.152951   0.299236  -0.065790
   32  F  3  Y    0.115689  -0.152951   0.081213  -0.065790   0.375204
   33  F  3  Z    0.315085  -0.195253  -0.338188  -0.116321   0.201473
   34  F  3  S    0.027931   0.011649   0.020176   0.006193  -0.010726
   35  F  3  X   -0.042865  -0.188922   0.113461   0.214885  -0.052073
   36  F  3  Y    0.074244  -0.113461   0.057908  -0.052073   0.275014
   37  F  3  Z    0.222528  -0.143210  -0.248046  -0.082640   0.143137
   38  F  3 XX   -0.007586  -0.007805   0.010388   0.005916   0.005499
   39  F  3 YY   -0.011139   0.012420  -0.002394   0.001346  -0.018077
   40  F  3 ZZ    0.007477  -0.006351  -0.011000  -0.009359   0.016211
   41  F  3 XY    0.003553   0.007380  -0.003156  -0.013612   0.013079
   42  F  3 XZ    0.006538  -0.009677  -0.004993   0.006196   0.002302
   43  F  3 YZ   -0.011324   0.004993   0.015442   0.002302   0.003538
   44  F  4  S   -0.000295  -0.004426   0.007665   0.002650   0.004591
   45  F  4  S   -0.010498   0.012512  -0.021672  -0.013153  -0.022781
   46  F  4  X   -0.066793  -0.257825  -0.152951   0.299236   0.065790
   47  F  4  Y   -0.115689   0.152951   0.081213   0.065790   0.375204
   48  F  4  Z    0.315085  -0.195253   0.338188  -0.116321  -0.201473
   49  F  4  S    0.027931   0.011649  -0.020176   0.006193   0.010726
   50  F  4  X   -0.042865  -0.188922  -0.113461   0.214885   0.052073
   51  F  4  Y   -0.074244   0.113461   0.057908   0.052073   0.275014
   52  F  4  Z    0.222528  -0.143210   0.248046  -0.082640  -0.143137
   53  F  4 XX   -0.007586  -0.007805  -0.010388   0.005916  -0.005499
   54  F  4 YY   -0.011139   0.012420   0.002394   0.001346   0.018077
   55  F  4 ZZ    0.007477  -0.006351   0.011000  -0.009359  -0.016211
   56  F  4 XY   -0.003553  -0.007380  -0.003156   0.013612   0.013079
   57  F  4 XZ    0.006538  -0.009677   0.004993   0.006196  -0.002302
   58  F  4 YZ    0.011324  -0.004993   0.015442  -0.002302   0.003538
   59  F  5  S   -0.000295   0.008851  -0.000000  -0.005301   0.000000
   60  F  5  S   -0.010498  -0.025025  -0.000000   0.026305   0.000000
   61  F  5  X    0.133586   0.007094  -0.000000   0.413187   0.000000
   62  F  5  Y   -0.000000   0.000000   0.346132   0.000000   0.261253
   63  F  5  Z    0.315085   0.390506  -0.000000   0.232641   0.000000
   64  F  5  S    0.027931  -0.023297  -0.000000  -0.012385   0.000000
   65  F  5  X    0.085729   0.007599  -0.000000   0.305078   0.000000
   66  F  5  Y   -0.000000   0.000000   0.254429   0.000000   0.184820
   67  F  5  Z    0.222528   0.286419  -0.000000   0.165281   0.000000
   68  F  5 XX   -0.012916  -0.003658  -0.000000  -0.025395   0.000000
   69  F  5 YY   -0.005809  -0.005572  -0.000000   0.010871   0.000000
   70  F  5 ZZ    0.007477   0.012701  -0.000000   0.018719   0.000000
   71  F  5 XY   -0.000000   0.000000  -0.015938   0.000000  -0.010497
   72  F  5 XZ   -0.013076  -0.018324  -0.000000   0.002209   0.000000
   73  F  5 YZ   -0.000000   0.000000   0.006794   0.000000   0.007525

                     16         17         18         19         20
                   -0.6935    -0.5585    -0.4141    -0.4141     0.1138
                     A2         A1         E          E          A1  
    1  AS 1  S    0.000000  -0.091522  -0.000000  -0.000000   0.225606
    2  AS 1  S    0.000000  -0.330529  -0.000000  -0.000000   1.280376
    3  AS 1  X    0.000000   0.000000   0.111220  -0.000000   0.000000
    4  AS 1  Y    0.000000   0.000000  -0.000000   0.111220   0.000000
    5  AS 1  Z    0.000000  -0.314412  -0.000000  -0.000000   0.028005
    6  AS 1  X    0.000000   0.000000   0.109602  -0.000000   0.000000
    7  AS 1  Y    0.000000   0.000000  -0.000000   0.109602   0.000000
    8  AS 1  Z    0.000000  -0.012227  -0.000000  -0.000000   0.108409
    9  AS 1 XX    0.000000   0.022993  -0.013555  -0.000000   0.073596
   10  AS 1 YY    0.000000   0.022993   0.013555  -0.000000   0.073596
   11  AS 1 ZZ    0.000000  -0.090581  -0.000000  -0.000000  -0.034431
   12  AS 1 XY    0.000000   0.000000  -0.000000   0.015652   0.000000
   13  AS 1 XZ    0.000000   0.000000   0.103777  -0.000000   0.000000
   14  AS 1 YZ    0.000000   0.000000  -0.000000   0.103777   0.000000
   15  S  2  S    0.000000   0.269898  -0.000000  -0.000000  -0.156295
   16  S  2  S    0.000000   0.333946  -0.000000  -0.000000  -0.357443
   17  S  2  X    0.000000   0.000000   0.493488  -0.000000   0.000000
   18  S  2  Y    0.000000   0.000000  -0.000000   0.493488   0.000000
   19  S  2  Z    0.000000   0.348384  -0.000000  -0.000000   0.328200
   20  S  2  X    0.000000   0.000000   0.501102  -0.000000   0.000000
   21  S  2  Y    0.000000   0.000000  -0.000000   0.501102   0.000000
   22  S  2  Z    0.000000   0.218510  -0.000000  -0.000000   0.721014
   23  S  2 XX    0.000000   0.006563  -0.001026  -0.000000  -0.025624
   24  S  2 YY    0.000000   0.006563   0.001026  -0.000000  -0.025624
   25  S  2 ZZ    0.000000  -0.067106  -0.000000  -0.000000   0.040526
   26  S  2 XY    0.000000   0.000000  -0.000000   0.001184   0.000000
   27  S  2 XZ    0.000000   0.000000  -0.047115  -0.000000   0.000000
   28  S  2 YZ    0.000000   0.000000  -0.000000  -0.047115   0.000000
   29  F  3  S    0.000000  -0.005731  -0.004647   0.008050   0.033599
   30  F  3  S    0.000000  -0.006511   0.002191  -0.003795  -0.072042
   31  F  3  X   -0.335477   0.028616  -0.023592  -0.033744  -0.079480
   32  F  3  Y   -0.193688  -0.049564  -0.033744   0.015372   0.137664
   33  F  3  Z    0.000000   0.152488   0.045345  -0.078540  -0.106286
   34  F  3  S    0.000000   0.066911   0.036688  -0.063545  -0.237548
   35  F  3  X   -0.247397   0.027506  -0.025970  -0.025983  -0.107488
   36  F  3  Y   -0.142835  -0.047642  -0.025983   0.004033   0.186175
   37  F  3  Z    0.000000   0.120161   0.039822  -0.068974  -0.137098
   38  F  3 XX   -0.012581  -0.008129  -0.004191   0.007563  -0.001034
   39  F  3 YY    0.012581  -0.005108  -0.005601   0.009397  -0.008205
   40  F  3 ZZ    0.000000  -0.006334  -0.002260   0.003915  -0.002273
   41  F  3 XY    0.008387  -0.003021   0.001058  -0.002036   0.007171
   42  F  3 XZ   -0.010080   0.002671   0.001195  -0.001055  -0.003730
   43  F  3 YZ   -0.005820  -0.004627  -0.001055   0.002413   0.006461
   44  F  4  S    0.000000  -0.005731  -0.004647  -0.008050   0.033599
   45  F  4  S    0.000000  -0.006511   0.002191   0.003795  -0.072042
   46  F  4  X    0.335477   0.028616  -0.023592   0.033744  -0.079480
   47  F  4  Y   -0.193688   0.049564   0.033744   0.015372  -0.137664
   48  F  4  Z    0.000000   0.152488   0.045345   0.078540  -0.106286
   49  F  4  S    0.000000   0.066911   0.036688   0.063545  -0.237548
   50  F  4  X    0.247397   0.027506  -0.025970   0.025983  -0.107488
   51  F  4  Y   -0.142835   0.047642   0.025983   0.004033  -0.186175
   52  F  4  Z    0.000000   0.120161   0.039822   0.068974  -0.137098
   53  F  4 XX    0.012581  -0.008129  -0.004191  -0.007563  -0.001034
   54  F  4 YY   -0.012581  -0.005108  -0.005601  -0.009397  -0.008205
   55  F  4 ZZ    0.000000  -0.006334  -0.002260  -0.003915  -0.002273
   56  F  4 XY    0.008387   0.003021  -0.001058  -0.002036  -0.007171
   57  F  4 XZ    0.010080   0.002671   0.001195   0.001055  -0.003730
   58  F  4 YZ   -0.005820   0.004627   0.001055   0.002413  -0.006461
   59  F  5  S    0.000000  -0.005731   0.009295  -0.000000   0.033599
   60  F  5  S    0.000000  -0.006511  -0.004383  -0.000000  -0.072042
   61  F  5  X    0.000000  -0.057231   0.034854  -0.000000   0.158960
   62  F  5  Y    0.387375   0.000000  -0.000000  -0.043074   0.000000
   63  F  5  Z    0.000000   0.152488  -0.090690  -0.000000  -0.106286
   64  F  5  S    0.000000   0.066911  -0.073375  -0.000000  -0.237548
   65  F  5  X    0.000000  -0.055013   0.019034  -0.000000   0.214976
   66  F  5  Y    0.285669   0.000000  -0.000000  -0.040972   0.000000
   67  F  5  Z    0.000000   0.120161  -0.079644  -0.000000  -0.137098
   68  F  5 XX    0.000000  -0.003598   0.012084  -0.000000  -0.011790
   69  F  5 YY    0.000000  -0.009639   0.007499  -0.000000   0.002552
   70  F  5 ZZ    0.000000  -0.006334   0.004520  -0.000000  -0.002273
   71  F  5 XY   -0.016775   0.000000  -0.000000  -0.000203   0.000000
   72  F  5 XZ    0.000000  -0.005342   0.003023  -0.000000   0.007461
   73  F  5 YZ    0.011639   0.000000  -0.000000   0.000585   0.000000

                     21         22         23         24         25
                    0.1420     0.1420     0.2832     0.4616     0.4985
                     E          E          A1         A1         E   
    1  AS 1  S   -0.000000  -0.000000  -0.040609   0.079024   0.000000
    2  AS 1  S   -0.000000  -0.000000   0.152859   0.102985   0.000000
    3  AS 1  X    0.424196  -0.000000   0.000000  -0.000000  -1.104945
    4  AS 1  Y   -0.000000   0.424196   0.000000  -0.000000   0.000000
    5  AS 1  Z   -0.000000  -0.000000   0.344457  -1.094772   0.000000
    6  AS 1  X    0.990921  -0.000000   0.000000  -0.000000   1.515941
    7  AS 1  Y   -0.000000   0.990921   0.000000  -0.000000   0.000000
    8  AS 1  Z   -0.000000  -0.000000   1.728057   1.286068   0.000000
    9  AS 1 XX   -0.060882  -0.000000   0.008074   0.024315   0.174601
   10  AS 1 YY    0.060882  -0.000000   0.008074   0.024315  -0.174601
   11  AS 1 ZZ   -0.000000  -0.000000  -0.054206  -0.254955   0.000000
   12  AS 1 XY   -0.000000   0.070300   0.000000  -0.000000   0.000000
   13  AS 1 XZ    0.123291  -0.000000   0.000000  -0.000000  -0.334885
   14  AS 1 YZ   -0.000000   0.123291   0.000000  -0.000000   0.000000
   15  S  2  S   -0.000000  -0.000000  -0.219357   0.148014   0.000000
   16  S  2  S   -0.000000  -0.000000  -1.002634  -0.297173   0.000000
   17  S  2  X   -0.207168  -0.000000   0.000000  -0.000000  -0.206601
   18  S  2  Y   -0.000000  -0.207168   0.000000  -0.000000   0.000000
   19  S  2  Z   -0.000000  -0.000000   0.031061   0.250887   0.000000
   20  S  2  X   -0.451237  -0.000000   0.000000  -0.000000   0.018577
   21  S  2  Y   -0.000000  -0.451237   0.000000  -0.000000   0.000000
   22  S  2  Z   -0.000000  -0.000000   0.886228  -0.541181   0.000000
   23  S  2 XX   -0.004209  -0.000000   0.011762   0.040375   0.012038
   24  S  2 YY    0.004209  -0.000000   0.011762   0.040375  -0.012038
   25  S  2 ZZ   -0.000000  -0.000000   0.071100  -0.331670   0.000000
   26  S  2 XY   -0.000000   0.004861   0.000000  -0.000000   0.000000
   27  S  2 XZ   -0.092776  -0.000000   0.000000  -0.000000   0.095067
   28  S  2 YZ   -0.000000  -0.092776   0.000000  -0.000000   0.000000
   29  F  3  S   -0.025584   0.044313  -0.044546  -0.006459  -0.013578
   30  F  3  S    0.010355  -0.017936   0.054311  -0.127319  -0.042220
   31  F  3  X   -0.089960  -0.101835   0.078946  -0.042040  -0.064916
   32  F  3  Y   -0.101835   0.027629  -0.136738   0.072815   0.050216
   33  F  3  Z    0.069428  -0.120252  -0.089181  -0.113817  -0.034684
   34  F  3  S    0.274722  -0.475833   0.454073   0.339627   0.321294
   35  F  3  X   -0.108330  -0.128770   0.123164  -0.021777  -0.068885
   36  F  3  Y   -0.128770   0.040361  -0.213326   0.037719  -0.046451
   37  F  3  Z    0.084069  -0.145611  -0.094548  -0.132146   0.019972
   38  F  3 XX   -0.019200   0.036327  -0.017640  -0.060812  -0.047110
   39  F  3 YY   -0.020758   0.032882  -0.016865  -0.056517  -0.007804
   40  F  3 ZZ   -0.021645   0.037490  -0.016019  -0.077665  -0.025133
   41  F  3 XY   -0.001989   0.001398  -0.000776  -0.004295   0.001449
   42  F  3 XZ    0.005477   0.003757   0.005747  -0.004357  -0.003787
   43  F  3 YZ    0.003757   0.001139  -0.009954   0.007546  -0.021571
   44  F  4  S   -0.025584  -0.044313  -0.044546  -0.006459  -0.013578
   45  F  4  S    0.010355   0.017936   0.054311  -0.127319  -0.042220
   46  F  4  X   -0.089960   0.101835   0.078946  -0.042040  -0.064916
   47  F  4  Y    0.101835   0.027629   0.136738  -0.072815  -0.050216
   48  F  4  Z    0.069428   0.120252  -0.089181  -0.113817  -0.034684
   49  F  4  S    0.274722   0.475833   0.454073   0.339627   0.321294
   50  F  4  X   -0.108330   0.128770   0.123164  -0.021777  -0.068885
   51  F  4  Y    0.128770   0.040361   0.213326  -0.037719   0.046451
   52  F  4  Z    0.084069   0.145611  -0.094548  -0.132146   0.019972
   53  F  4 XX   -0.019200  -0.036327  -0.017640  -0.060812  -0.047110
   54  F  4 YY   -0.020758  -0.032882  -0.016865  -0.056517  -0.007804
   55  F  4 ZZ   -0.021645  -0.037490  -0.016019  -0.077665  -0.025133
   56  F  4 XY    0.001989   0.001398   0.000776   0.004295  -0.001449
   57  F  4 XZ    0.005477  -0.003757   0.005747  -0.004357  -0.003787
   58  F  4 YZ   -0.003757   0.001139   0.009954  -0.007546   0.021571
   59  F  5  S    0.051168  -0.000000  -0.044546  -0.006459   0.027156
   60  F  5  S   -0.020711  -0.000000   0.054311  -0.127319   0.084441
   61  F  5  X    0.086424  -0.000000  -0.157892   0.084079  -0.151893
   62  F  5  Y   -0.000000  -0.148754   0.000000  -0.000000   0.000000
   63  F  5  Z   -0.138855  -0.000000  -0.089181  -0.113817   0.069368
   64  F  5  S   -0.549444  -0.000000   0.454073   0.339627  -0.642587
   65  F  5  X    0.114706  -0.000000  -0.246327   0.043554   0.011570
   66  F  5  Y   -0.000000  -0.182675   0.000000  -0.000000   0.000000
   67  F  5  Z   -0.168138  -0.000000  -0.094548  -0.132146  -0.039944
   68  F  5 XX    0.037753  -0.000000  -0.016477  -0.054370   0.037433
   69  F  5 YY    0.042163  -0.000000  -0.018028  -0.062959   0.072394
   70  F  5 ZZ    0.043290  -0.000000  -0.016019  -0.077665   0.050266
   71  F  5 XY   -0.000000  -0.002047   0.000000  -0.000000   0.000000
   72  F  5 XZ   -0.001030  -0.000000  -0.011494   0.008713   0.033575
   73  F  5 YZ   -0.000000   0.007646   0.000000  -0.000000   0.000000

                     26         27         28         29         30
                    0.4985     0.5647     0.6626     0.6626     0.7181
                     E          A1         E          E          E   
    1  AS 1  S    0.000000   0.038532   0.000000  -0.000000  -0.000000
    2  AS 1  S    0.000000   0.719521   0.000000  -0.000000  -0.000000
    3  AS 1  X    0.000000  -0.000000  -0.304817  -0.000000   0.296876
    4  AS 1  Y   -1.104945  -0.000000   0.000000   0.304817  -0.000000
    5  AS 1  Z    0.000000  -0.606340   0.000000  -0.000000  -0.000000
    6  AS 1  X    0.000000  -0.000000   0.312599  -0.000000  -0.637852
    7  AS 1  Y    1.515941  -0.000000   0.000000  -0.312599  -0.000000
    8  AS 1  Z    0.000000   1.212750   0.000000  -0.000000  -0.000000
    9  AS 1 XX    0.000000  -0.290458   0.540265  -0.000000   0.239582
   10  AS 1 YY    0.000000  -0.290458  -0.540265  -0.000000  -0.239582
   11  AS 1 ZZ    0.000000   0.625146   0.000000  -0.000000  -0.000000
   12  AS 1 XY   -0.201611  -0.000000   0.000000   0.623844  -0.000000
   13  AS 1 XZ    0.000000  -0.000000   0.605693  -0.000000   0.148104
   14  AS 1 YZ   -0.334885  -0.000000   0.000000  -0.605693  -0.000000
   15  S  2  S    0.000000  -0.135735   0.000000  -0.000000  -0.000000
   16  S  2  S    0.000000  -0.806730   0.000000  -0.000000  -0.000000
   17  S  2  X    0.000000  -0.000000   0.306784  -0.000000  -1.100305
   18  S  2  Y   -0.206601  -0.000000   0.000000  -0.306784  -0.000000
   19  S  2  Z    0.000000  -0.683390   0.000000  -0.000000  -0.000000
   20  S  2  X    0.000000  -0.000000  -0.549931  -0.000000   1.192830
   21  S  2  Y    0.018577  -0.000000   0.000000   0.549931  -0.000000
   22  S  2  Z    0.000000   1.257525   0.000000  -0.000000  -0.000000
   23  S  2 XX    0.000000  -0.001605   0.072645  -0.000000   0.041534
   24  S  2 YY    0.000000  -0.001605  -0.072645  -0.000000  -0.041534
   25  S  2 ZZ    0.000000   0.063070   0.000000  -0.000000  -0.000000
   26  S  2 XY   -0.013900  -0.000000   0.000000   0.083884  -0.000000
   27  S  2 XZ    0.000000  -0.000000  -0.303776  -0.000000   0.038471
   28  S  2 YZ    0.095067  -0.000000   0.000000   0.303776  -0.000000
   29  F  3  S    0.023518  -0.001484  -0.000290  -0.000502   0.003185
   30  F  3  S    0.073128  -0.003483  -0.029465  -0.051035  -0.000704
   31  F  3  X    0.050216  -0.056650   0.106497  -0.120816   0.096808
   32  F  3  Y   -0.122900   0.098120   0.120816   0.033010   0.044424
   33  F  3  Z    0.060075   0.018311   0.026129   0.045257   0.048651
   34  F  3  S   -0.556497   0.089176   0.062888   0.108925  -0.066294
   35  F  3  X   -0.046451  -0.019118   0.039195  -0.071235   0.048190
   36  F  3  Y   -0.015248   0.033114   0.071235   0.043060   0.004273
   37  F  3  Z   -0.034593  -0.024050   0.021636   0.037475   0.002140
   38  F  3 XX    0.046302  -0.000144  -0.035119   0.004679   0.002115
   39  F  3 YY    0.048811   0.025685   0.019907  -0.031027   0.020052
   40  F  3 ZZ    0.043532  -0.022126  -0.024598  -0.042605  -0.011429
   41  F  3 XY    0.021021  -0.025829   0.020615  -0.007965   0.006765
   42  F  3 XZ   -0.021571  -0.003027  -0.014632   0.010285  -0.002897
   43  F  3 YZ    0.021121   0.005243  -0.010285   0.002756   0.002352
   44  F  4  S   -0.023518  -0.001484  -0.000290   0.000502   0.003185
   45  F  4  S   -0.073128  -0.003483  -0.029465   0.051035  -0.000704
   46  F  4  X   -0.050216  -0.056650   0.106497   0.120816   0.096808
   47  F  4  Y   -0.122900  -0.098120  -0.120816   0.033010  -0.044424
   48  F  4  Z   -0.060075   0.018311   0.026129  -0.045257   0.048651
   49  F  4  S    0.556497   0.089176   0.062888  -0.108925  -0.066294
   50  F  4  X    0.046451  -0.019118   0.039195   0.071235   0.048190
   51  F  4  Y   -0.015248  -0.033114  -0.071235   0.043060  -0.004273
   52  F  4  Z    0.034593  -0.024050   0.021636  -0.037475   0.002140
   53  F  4 XX   -0.046302  -0.000144  -0.035119  -0.004679   0.002115
   54  F  4 YY   -0.048811   0.025685   0.019907   0.031027   0.020052
   55  F  4 ZZ   -0.043532  -0.022126  -0.024598   0.042605  -0.011429
   56  F  4 XY    0.021021   0.025829  -0.020615  -0.007965  -0.006765
   57  F  4 XZ    0.021571  -0.003027  -0.014632  -0.010285  -0.002897
   58  F  4 YZ    0.021121  -0.005243   0.010285   0.002756  -0.002352
   59  F  5  S    0.000000  -0.001484   0.000580  -0.000000  -0.006371
   60  F  5  S    0.000000  -0.003483   0.058930  -0.000000   0.001408
   61  F  5  X    0.000000   0.113299  -0.102763  -0.000000   0.019864
   62  F  5  Y   -0.035923  -0.000000   0.000000  -0.176250  -0.000000
   63  F  5  Z    0.000000   0.018311  -0.052258  -0.000000  -0.097301
   64  F  5  S    0.000000   0.089176  -0.125776  -0.000000   0.132588
   65  F  5  X    0.000000   0.038237  -0.084188  -0.000000   0.040790
   66  F  5  Y   -0.095704  -0.000000   0.000000  -0.080323  -0.000000
   67  F  5  Z    0.000000  -0.024050  -0.043272  -0.000000  -0.004280
   68  F  5 XX    0.000000   0.038600   0.018622  -0.000000  -0.020987
   69  F  5 YY    0.000000  -0.013058   0.011803  -0.000000  -0.023346
   70  F  5 ZZ    0.000000  -0.022126   0.049196  -0.000000   0.022859
   71  F  5 XY    0.023530  -0.000000   0.000000  -0.043672  -0.000000
   72  F  5 XZ    0.000000   0.006054   0.003181  -0.000000  -0.006970
   73  F  5 YZ   -0.016241  -0.000000   0.000000   0.020570  -0.000000

                     31         32         33         34         35
                    0.7181     0.8985     0.8985     0.9002     1.0402
                     E          E          E          A1         E   
    1  AS 1  S   -0.000000  -0.000000   0.000000   0.050950   0.000000
    2  AS 1  S   -0.000000  -0.000000   0.000000  -0.096549   0.000000
    3  AS 1  X   -0.000000   0.728385   0.000000   0.000000  -0.185527
    4  AS 1  Y    0.296876  -0.000000  -0.728385   0.000000   0.000000
    5  AS 1  Z   -0.000000  -0.000000   0.000000  -0.103368   0.000000
    6  AS 1  X   -0.000000   0.029370   0.000000   0.000000  -0.017983
    7  AS 1  Y   -0.637852  -0.000000  -0.029370   0.000000   0.000000
    8  AS 1  Z   -0.000000  -0.000000   0.000000   0.419784   0.000000
    9  AS 1 XX   -0.000000   0.685487   0.000000  -0.416796  -0.282525
   10  AS 1 YY   -0.000000  -0.685487   0.000000  -0.416796   0.282525
   11  AS 1 ZZ   -0.000000  -0.000000   0.000000   0.567994   0.000000
   12  AS 1 XY   -0.276645  -0.000000   0.791533   0.000000   0.000000
   13  AS 1 XZ   -0.000000  -0.596422   0.000000   0.000000   0.070420
   14  AS 1 YZ    0.148104  -0.000000   0.596422   0.000000   0.000000
   15  S  2  S   -0.000000  -0.000000   0.000000  -0.349334   0.000000
   16  S  2  S   -0.000000  -0.000000   0.000000  -0.611485   0.000000
   17  S  2  X   -0.000000   0.227113   0.000000   0.000000  -0.066785
   18  S  2  Y   -1.100305  -0.000000  -0.227113   0.000000   0.000000
   19  S  2  Z   -0.000000  -0.000000   0.000000   0.948059   0.000000
   20  S  2  X   -0.000000  -0.160314   0.000000   0.000000   0.077145
   21  S  2  Y    1.192830  -0.000000   0.160314   0.000000   0.000000
   22  S  2  Z   -0.000000  -0.000000   0.000000  -0.679106   0.000000
   23  S  2 XX   -0.000000   0.307354   0.000000   0.091781   0.796976
   24  S  2 YY   -0.000000  -0.307354   0.000000   0.091781  -0.796976
   25  S  2 ZZ   -0.000000  -0.000000   0.000000   0.658309   0.000000
   26  S  2 XY   -0.047959  -0.000000   0.354902   0.000000   0.000000
   27  S  2 XZ   -0.000000   0.371071   0.000000   0.000000  -0.212317
   28  S  2 YZ    0.038471  -0.000000  -0.371071   0.000000   0.000000
   29  F  3  S   -0.005517  -0.010038  -0.017387  -0.002373   0.000178
   30  F  3  S    0.001219   0.215365   0.373024   0.135032  -0.119249
   31  F  3  X    0.044424   0.014963   0.026226  -0.025373  -0.039245
   32  F  3  Y    0.045512  -0.026226  -0.045246   0.043947  -0.032465
   33  F  3  Z   -0.084265   0.044348   0.076813   0.006942  -0.027743
   34  F  3  S    0.114824  -0.112404  -0.194690  -0.102210   0.142429
   35  F  3  X    0.004273   0.144942   0.201325   0.038973  -0.029262
   36  F  3  Y    0.043257  -0.201325  -0.377411  -0.067503   0.069806
   37  F  3  Z   -0.003707   0.136455   0.236347   0.085859  -0.031918
   38  F  3 XX   -0.025056   0.114163   0.152829   0.045230  -0.049539
   39  F  3 YY   -0.013338   0.090055   0.200885   0.084649  -0.067246
   40  F  3 ZZ    0.019796   0.078545   0.136045   0.050276  -0.037225
   41  F  3 XY    0.002544  -0.027745  -0.018119  -0.039419  -0.002505
   42  F  3 XZ    0.002352  -0.014347   0.021761  -0.004769   0.018161
   43  F  3 YZ   -0.005612  -0.021761  -0.010780   0.008260   0.005966
   44  F  4  S    0.005517  -0.010038   0.017387  -0.002373   0.000178
   45  F  4  S   -0.001219   0.215365  -0.373024   0.135032  -0.119249
   46  F  4  X   -0.044424   0.014963  -0.026226  -0.025373  -0.039245
   47  F  4  Y    0.045512   0.026226  -0.045246  -0.043947   0.032465
   48  F  4  Z    0.084265   0.044348  -0.076813   0.006942  -0.027743
   49  F  4  S   -0.114824  -0.112404   0.194690  -0.102210   0.142429
   50  F  4  X   -0.004273   0.144942  -0.201325   0.038973  -0.029262
   51  F  4  Y    0.043257   0.201325  -0.377411   0.067503  -0.069806
   52  F  4  Z    0.003707   0.136455  -0.236347   0.085859  -0.031918
   53  F  4 XX    0.025056   0.114163  -0.152829   0.045230  -0.049539
   54  F  4 YY    0.013338   0.090055  -0.200885   0.084649  -0.067246
   55  F  4 ZZ   -0.019796   0.078545  -0.136045   0.050276  -0.037225
   56  F  4 XY    0.002544   0.027745  -0.018119   0.039419   0.002505
   57  F  4 XZ   -0.002352  -0.014347  -0.021761  -0.004769   0.018161
   58  F  4 YZ   -0.005612   0.021761  -0.010780  -0.008260  -0.005966
   59  F  5  S   -0.000000   0.020076   0.000000  -0.002373  -0.000356
   60  F  5  S   -0.000000  -0.430731   0.000000   0.135032   0.238498
   61  F  5  X   -0.000000   0.060387   0.000000   0.050745   0.016986
   62  F  5  Y    0.122456  -0.000000   0.000179   0.000000   0.000000
   63  F  5  Z   -0.000000  -0.088696   0.000000   0.006942   0.055485
   64  F  5  S   -0.000000   0.224809   0.000000  -0.102210  -0.284859
   65  F  5  X   -0.000000   0.493646   0.000000  -0.077946  -0.150170
   66  F  5  Y    0.050657  -0.000000  -0.028707   0.000000   0.000000
   67  F  5  Z   -0.000000  -0.272910   0.000000   0.085859   0.063835
   68  F  5 XX   -0.000000  -0.233781   0.000000   0.104358   0.121881
   69  F  5 YY   -0.000000  -0.174654   0.000000   0.025521   0.111689
   70  F  5 ZZ   -0.000000  -0.157091   0.000000   0.050276   0.074450
   71  F  5 XY    0.014262  -0.000000   0.029937   0.000000   0.000000
   72  F  5 XZ   -0.000000   0.023343   0.000000   0.009538   0.007828
   73  F  5 YZ   -0.001539  -0.000000   0.026911   0.000000   0.000000

                     36         37         38         39         40
                    1.0402     1.1968     1.1968     1.3132     1.3554
                     E          E          E          A1         A1  
    1  AS 1  S   -0.000000   0.000000   0.000000  -0.158893  -0.012819
    2  AS 1  S   -0.000000   0.000000   0.000000  -0.486540   0.047296
    3  AS 1  X   -0.000000  -0.354461   0.000000   0.000000   0.000000
    4  AS 1  Y    0.185527   0.000000  -0.354461   0.000000   0.000000
    5  AS 1  Z   -0.000000   0.000000   0.000000  -0.524576  -0.432456
    6  AS 1  X   -0.000000   0.238291   0.000000   0.000000   0.000000
    7  AS 1  Y    0.017983   0.000000   0.238291   0.000000   0.000000
    8  AS 1  Z   -0.000000   0.000000   0.000000   0.424346  -0.245518
    9  AS 1 XX   -0.000000  -0.272284   0.000000   0.239575   0.385319
   10  AS 1 YY   -0.000000   0.272284   0.000000   0.239575   0.385319
   11  AS 1 ZZ   -0.000000   0.000000   0.000000   0.069196  -0.705543
   12  AS 1 XY   -0.326232   0.000000   0.314407   0.000000   0.000000
   13  AS 1 XZ   -0.000000   0.724781   0.000000   0.000000   0.000000
   14  AS 1 YZ   -0.070420   0.000000   0.724781   0.000000   0.000000
   15  S  2  S   -0.000000   0.000000   0.000000  -0.021190  -0.712209
   16  S  2  S   -0.000000   0.000000   0.000000  -0.114305  -0.471217
   17  S  2  X   -0.000000   0.131374   0.000000   0.000000   0.000000
   18  S  2  Y    0.066785   0.000000   0.131374   0.000000   0.000000
   19  S  2  Z   -0.000000   0.000000   0.000000  -0.105105  -0.468192
   20  S  2  X   -0.000000  -0.346708   0.000000   0.000000   0.000000
   21  S  2  Y   -0.077145   0.000000  -0.346708   0.000000   0.000000
   22  S  2  Z   -0.000000   0.000000   0.000000  -0.069581  -0.011168
   23  S  2 XX   -0.000000   0.089195   0.000000  -0.197327   0.412381
   24  S  2 YY   -0.000000  -0.089195   0.000000  -0.197327   0.412381
   25  S  2 ZZ   -0.000000   0.000000   0.000000   0.563134   1.354478
   26  S  2 XY    0.920268   0.000000  -0.102994   0.000000   0.000000
   27  S  2 XZ   -0.000000   0.833826   0.000000   0.000000   0.000000
   28  S  2 YZ    0.212317   0.000000   0.833826   0.000000   0.000000
   29  F  3  S    0.000309   0.002495  -0.004321  -0.040870   0.037656
   30  F  3  S   -0.206546  -0.151801   0.262927  -0.677663   0.329092
   31  F  3  X    0.032465   0.009032   0.034138   0.172218  -0.090439
   32  F  3  Y    0.001757   0.034138  -0.030387  -0.298291   0.156645
   33  F  3  Z   -0.048052   0.081399  -0.140988  -0.051814  -0.154965
   34  F  3  S    0.246695   0.138558  -0.239989   1.379569  -0.871211
   35  F  3  X   -0.069806  -0.090682   0.136719  -0.195768   0.045542
   36  F  3  Y    0.109867   0.136719  -0.248551   0.339081  -0.078881
   37  F  3  Z   -0.055283  -0.154137   0.266973   0.005627   0.039835
   38  F  3 XX   -0.103308  -0.105626   0.074923  -0.302242   0.201476
   39  F  3 YY   -0.098969  -0.002939   0.113116  -0.322877   0.177947
   40  F  3 ZZ   -0.064476  -0.088207   0.152780  -0.339701   0.170445
   41  F  3 XY    0.007331   0.022051   0.033824   0.020634   0.023529
   42  F  3 XZ   -0.005966   0.023543   0.024953  -0.011311   0.052332
   43  F  3 YZ   -0.011273   0.024953  -0.005270   0.019592  -0.090642
   44  F  4  S   -0.000309   0.002495   0.004321  -0.040870   0.037656
   45  F  4  S    0.206546  -0.151801  -0.262927  -0.677663   0.329092
   46  F  4  X   -0.032465   0.009032  -0.034138   0.172218  -0.090439
   47  F  4  Y    0.001757  -0.034138  -0.030387   0.298291  -0.156645
   48  F  4  Z    0.048052   0.081399   0.140988  -0.051814  -0.154965
   49  F  4  S   -0.246695   0.138558   0.239989   1.379569  -0.871211
   50  F  4  X    0.069806  -0.090682  -0.136719  -0.195768   0.045542
   51  F  4  Y    0.109867  -0.136719  -0.248551  -0.339081   0.078881
   52  F  4  Z    0.055283  -0.154137  -0.266973   0.005627   0.039835
   53  F  4 XX    0.103308  -0.105626  -0.074923  -0.302242   0.201476
   54  F  4 YY    0.098969  -0.002939  -0.113116  -0.322877   0.177947
   55  F  4 ZZ    0.064476  -0.088207  -0.152780  -0.339701   0.170445
   56  F  4 XY    0.007331  -0.022051   0.033824  -0.020634  -0.023529
   57  F  4 XZ    0.005966   0.023543  -0.024953  -0.011311   0.052332
   58  F  4 YZ   -0.011273  -0.024953  -0.005270  -0.019592   0.090642
   59  F  5  S   -0.000000  -0.004989   0.000000  -0.040870   0.037656
   60  F  5  S   -0.000000   0.303602   0.000000  -0.677663   0.329092
   61  F  5  X   -0.000000  -0.050097   0.000000  -0.344437   0.180878
   62  F  5  Y    0.057989   0.000000   0.028741   0.000000   0.000000
   63  F  5  Z   -0.000000  -0.162799   0.000000  -0.051814  -0.154965
   64  F  5  S   -0.000000  -0.277115   0.000000   1.379569  -0.871211
   65  F  5  X   -0.000000  -0.327486   0.000000   0.391537  -0.091084
   66  F  5  Y   -0.011040   0.000000  -0.011747   0.000000   0.000000
   67  F  5  Z   -0.000000   0.308274   0.000000   0.005627   0.039835
   68  F  5 XX   -0.000000   0.090297   0.000000  -0.333194   0.166183
   69  F  5 YY   -0.000000   0.126832   0.000000  -0.291925   0.213240
   70  F  5 ZZ   -0.000000   0.176415   0.000000  -0.339701   0.170445
   71  F  5 XY    0.011669   0.000000   0.072018   0.000000   0.000000
   72  F  5 XZ   -0.000000  -0.019677   0.000000   0.022623  -0.104665
   73  F  5 YZ   -0.021605   0.000000   0.037950   0.000000   0.000000

                     41         42         43         44         45
                    1.4169     1.4169     1.5008     1.5008     1.5463
                     E          E          E          E          A2  
    1  AS 1  S   -0.000000   0.000000   0.000000  -0.000000   0.000000
    2  AS 1  S   -0.000000   0.000000   0.000000  -0.000000   0.000000
    3  AS 1  X    0.031873   0.000000   0.000946  -0.000000   0.000000
    4  AS 1  Y   -0.000000  -0.031873   0.000000  -0.000946   0.000000
    5  AS 1  Z   -0.000000   0.000000   0.000000  -0.000000   0.000000
    6  AS 1  X   -0.332324   0.000000  -0.286746  -0.000000   0.000000
    7  AS 1  Y   -0.000000   0.332324   0.000000   0.286746   0.000000
    8  AS 1  Z   -0.000000   0.000000   0.000000  -0.000000   0.000000
    9  AS 1 XX   -0.399354   0.000000   0.055506  -0.000000   0.000000
   10  AS 1 YY    0.399354   0.000000  -0.055506  -0.000000   0.000000
   11  AS 1 ZZ   -0.000000   0.000000   0.000000  -0.000000   0.000000
   12  AS 1 XY   -0.000000  -0.461135   0.000000   0.064093   0.000000
   13  AS 1 XZ    0.204611   0.000000   0.467439  -0.000000   0.000000
   14  AS 1 YZ   -0.000000  -0.204611   0.000000  -0.467439   0.000000
   15  S  2  S   -0.000000   0.000000   0.000000  -0.000000   0.000000
   16  S  2  S   -0.000000   0.000000   0.000000  -0.000000   0.000000
   17  S  2  X   -0.039619   0.000000  -0.109648  -0.000000   0.000000
   18  S  2  Y   -0.000000   0.039619   0.000000   0.109648   0.000000
   19  S  2  Z   -0.000000   0.000000   0.000000  -0.000000   0.000000
   20  S  2  X    0.078594   0.000000   0.100255  -0.000000   0.000000
   21  S  2  Y   -0.000000  -0.078594   0.000000  -0.100255   0.000000
   22  S  2  Z   -0.000000   0.000000   0.000000  -0.000000   0.000000
   23  S  2 XX    0.064247   0.000000   0.000247  -0.000000   0.000000
   24  S  2 YY   -0.064247   0.000000  -0.000247  -0.000000   0.000000
   25  S  2 ZZ   -0.000000   0.000000   0.000000  -0.000000   0.000000
   26  S  2 XY   -0.000000   0.074186   0.000000   0.000285   0.000000
   27  S  2 XZ    0.043449   0.000000   0.178027  -0.000000   0.000000
   28  S  2 YZ   -0.000000  -0.043449   0.000000  -0.178027   0.000000
   29  F  3  S    0.033218   0.057536   0.017647   0.030566   0.000000
   30  F  3  S    0.414934   0.718687   0.177417   0.307295   0.000000
   31  F  3  X    0.196989  -0.380780  -0.186954   0.168716   0.471773
   32  F  3  Y    0.380780   0.242699  -0.168716  -0.007862   0.272378
   33  F  3  Z   -0.097414  -0.168726  -0.320074  -0.554384   0.000000
   34  F  3  S   -0.972451  -1.684334  -0.470126  -0.814282   0.000000
   35  F  3  X   -0.284349   0.351943   0.242472  -0.303105  -0.554174
   36  F  3  Y   -0.351943  -0.122040   0.303105   0.107523  -0.319952
   37  F  3  Z    0.035528   0.061537   0.347533   0.601945   0.000000
   38  F  3 XX    0.203780   0.333754   0.071394   0.194381   0.050746
   39  F  3 YY    0.191917   0.351614   0.147309   0.184423  -0.050746
   40  F  3 ZZ    0.203235   0.352013   0.046630   0.080766   0.000000
   41  F  3 XY   -0.010312  -0.005057   0.005749  -0.037191  -0.033831
   42  F  3 XZ    0.055873  -0.025443  -0.044244   0.008441  -0.025021
   43  F  3 YZ    0.025443  -0.026494  -0.008441   0.034496  -0.014446
   44  F  4  S    0.033218  -0.057536   0.017647  -0.030566   0.000000
   45  F  4  S    0.414934  -0.718687   0.177417  -0.307295   0.000000
   46  F  4  X    0.196989   0.380780  -0.186954  -0.168716  -0.471773
   47  F  4  Y   -0.380780   0.242699   0.168716  -0.007862   0.272378
   48  F  4  Z   -0.097414   0.168726  -0.320074   0.554384   0.000000
   49  F  4  S   -0.972451   1.684334  -0.470126   0.814282   0.000000
   50  F  4  X   -0.284349  -0.351943   0.242472   0.303105   0.554174
   51  F  4  Y    0.351943  -0.122040  -0.303105   0.107523  -0.319952
   52  F  4  Z    0.035528  -0.061537   0.347533  -0.601945   0.000000
   53  F  4 XX    0.203780  -0.333754   0.071394  -0.194381  -0.050746
   54  F  4 YY    0.191917  -0.351614   0.147309  -0.184423   0.050746
   55  F  4 ZZ    0.203235  -0.352013   0.046630  -0.080766   0.000000
   56  F  4 XY    0.010312  -0.005057  -0.005749  -0.037191  -0.033831
   57  F  4 XZ    0.055873   0.025443  -0.044244  -0.008441   0.025021
   58  F  4 YZ   -0.025443  -0.026494   0.008441   0.034496  -0.014446
   59  F  5  S   -0.066437   0.000000  -0.035295  -0.000000   0.000000
   60  F  5  S   -0.829868   0.000000  -0.354834  -0.000000   0.000000
   61  F  5  X   -0.462542   0.000000   0.105270  -0.000000   0.000000
   62  F  5  Y   -0.000000  -0.416832   0.000000   0.284363  -0.544757
   63  F  5  Z    0.194828   0.000000   0.640148  -0.000000   0.000000
   64  F  5  S    1.944901   0.000000   0.940252  -0.000000   0.000000
   65  F  5  X    0.325235   0.000000  -0.282521  -0.000000   0.000000
   66  F  5  Y   -0.000000   0.487544   0.000000  -0.417469   0.639905
   67  F  5  Z   -0.071056   0.000000  -0.695066  -0.000000   0.000000
   68  F  5 XX   -0.405233   0.000000  -0.248037  -0.000000   0.000000
   69  F  5 YY   -0.386162   0.000000  -0.189368  -0.000000   0.000000
   70  F  5 ZZ   -0.406469   0.000000  -0.093261  -0.000000   0.000000
   71  F  5 XY   -0.000000   0.012803   0.000000  -0.047149   0.067662
   72  F  5 XZ    0.011805   0.000000  -0.029623  -0.000000   0.000000
   73  F  5 YZ   -0.000000  -0.070562   0.000000   0.049117   0.028892

                     46         47         48         49         50
                    1.6103     1.6745     1.6745     1.6985     1.8128
                     A1         E          E          A1         A1  
    1  AS 1  S    0.353951  -0.000000  -0.000000   0.884580  -0.617621
    2  AS 1  S    1.160692  -0.000000  -0.000000   2.865954  -0.962351
    3  AS 1  X   -0.000000   0.228161  -0.000000  -0.000000   0.000000
    4  AS 1  Y   -0.000000  -0.000000   0.228161  -0.000000   0.000000
    5  AS 1  Z    0.513165  -0.000000  -0.000000   0.084789  -0.151783
    6  AS 1  X   -0.000000  -0.656000  -0.000000  -0.000000   0.000000
    7  AS 1  Y   -0.000000  -0.000000  -0.656000  -0.000000   0.000000
    8  AS 1  Z   -0.507248  -0.000000  -0.000000   0.046943   0.035519
    9  AS 1 XX   -0.795369   0.010394  -0.000000  -1.594941   1.420021
   10  AS 1 YY   -0.795369  -0.010394  -0.000000  -1.594941   1.420021
   11  AS 1 ZZ   -0.242138  -0.000000  -0.000000  -1.650739   1.528867
   12  AS 1 XY   -0.000000  -0.000000  -0.012002  -0.000000   0.000000
   13  AS 1 XZ   -0.000000   0.101376  -0.000000  -0.000000   0.000000
   14  AS 1 YZ   -0.000000  -0.000000   0.101376  -0.000000   0.000000
   15  S  2  S   -0.783952  -0.000000  -0.000000  -0.159603  -1.113602
   16  S  2  S   -0.707288  -0.000000  -0.000000  -0.302696  -1.187444
   17  S  2  X   -0.000000  -0.080593  -0.000000  -0.000000   0.000000
   18  S  2  Y   -0.000000  -0.000000  -0.080593  -0.000000   0.000000
   19  S  2  Z   -0.074848  -0.000000  -0.000000  -0.144475   0.080006
   20  S  2  X   -0.000000   0.219507  -0.000000  -0.000000   0.000000
   21  S  2  Y   -0.000000  -0.000000   0.219507  -0.000000   0.000000
   22  S  2  Z    0.333311  -0.000000  -0.000000   0.068481   0.540725
   23  S  2 XX    0.847499  -0.000742  -0.000000   0.110152   1.072309
   24  S  2 YY    0.847499   0.000742  -0.000000   0.110152   1.072309
   25  S  2 ZZ    0.260101  -0.000000  -0.000000   0.278243   0.408954
   26  S  2 XY   -0.000000  -0.000000   0.000857  -0.000000   0.000000
   27  S  2 XZ   -0.000000  -0.053022  -0.000000  -0.000000   0.000000
   28  S  2 YZ   -0.000000  -0.000000  -0.053022  -0.000000   0.000000
   29  F  3  S    0.006791   0.011171  -0.019349   0.013888   0.042542
   30  F  3  S    0.060825   0.058707  -0.101684   0.193176   0.382502
   31  F  3  X    0.064158  -0.511816   0.009958   0.080929   0.081423
   32  F  3  Y   -0.111125   0.009958  -0.523314  -0.140174  -0.141029
   33  F  3  Z   -0.407485   0.072670  -0.125868   0.188601   0.116752
   34  F  3  S   -0.152992  -0.241119   0.417631  -0.349766  -1.105806
   35  F  3  X   -0.032022   0.685267   0.021453  -0.007832  -0.295948
   36  F  3  Y    0.055464   0.021453   0.660495   0.013565   0.512597
   37  F  3  Z    0.633826  -0.101758   0.176249  -0.150408  -0.335357
   38  F  3 XX    0.041529  -0.046603  -0.128558   0.027625   0.140020
   39  F  3 YY    0.090351   0.090439   0.052633   0.171873   0.250203
   40  F  3 ZZ    0.003385   0.079721  -0.138081   0.115841   0.124449
   41  F  3 XY   -0.048821   0.104611  -0.041673  -0.144248  -0.110183
   42  F  3 XZ   -0.009218  -0.013238   0.024115   0.137495   0.057682
   43  F  3 YZ    0.015966   0.024115  -0.041084  -0.238148  -0.099909
   44  F  4  S    0.006791   0.011171   0.019349   0.013888   0.042542
   45  F  4  S    0.060825   0.058707   0.101684   0.193176   0.382502
   46  F  4  X    0.064158  -0.511816  -0.009958   0.080929   0.081423
   47  F  4  Y    0.111125  -0.009958  -0.523314   0.140174   0.141029
   48  F  4  Z   -0.407485   0.072670   0.125868   0.188601   0.116752
   49  F  4  S   -0.152992  -0.241119  -0.417631  -0.349766  -1.105806
   50  F  4  X   -0.032022   0.685267  -0.021453  -0.007832  -0.295948
   51  F  4  Y   -0.055464  -0.021453   0.660495  -0.013565  -0.512597
   52  F  4  Z    0.633826  -0.101758  -0.176249  -0.150408  -0.335357
   53  F  4 XX    0.041529  -0.046603   0.128558   0.027625   0.140020
   54  F  4 YY    0.090351   0.090439  -0.052633   0.171873   0.250203
   55  F  4 ZZ    0.003385   0.079721   0.138081   0.115841   0.124449
   56  F  4 XY    0.048821  -0.104611  -0.041673   0.144248   0.110183
   57  F  4 XZ   -0.009218  -0.013238  -0.024115   0.137495   0.057682
   58  F  4 YZ   -0.015966  -0.024115  -0.041084   0.238148   0.099909
   59  F  5  S    0.006791  -0.022342  -0.000000   0.013888   0.042542
   60  F  5  S    0.060825  -0.117414  -0.000000   0.193176   0.382502
   61  F  5  X   -0.128316  -0.529063  -0.000000  -0.161858  -0.162847
   62  F  5  Y   -0.000000  -0.000000  -0.506067  -0.000000   0.000000
   63  F  5  Z   -0.407485  -0.145340  -0.000000   0.188601   0.116752
   64  F  5  S   -0.152992   0.482238  -0.000000  -0.349766  -1.105806
   65  F  5  X    0.064045   0.648110  -0.000000   0.015664   0.591896
   66  F  5  Y   -0.000000  -0.000000   0.697652  -0.000000   0.000000
   67  F  5  Z    0.633826   0.203515  -0.000000  -0.150408  -0.335357
   68  F  5 XX    0.114761   0.044559  -0.000000   0.243997   0.305295
   69  F  5 YY    0.017119  -0.132231  -0.000000  -0.044500   0.084928
   70  F  5 ZZ    0.003385  -0.159442  -0.000000   0.115841   0.124449
   71  F  5 XY   -0.000000  -0.000000   0.139518  -0.000000   0.000000
   72  F  5 XZ    0.018436  -0.055006  -0.000000  -0.274989  -0.115364
   73  F  5 YZ   -0.000000  -0.000000   0.000684  -0.000000   0.000000

                     51         52         53         54         55
                    1.8516     1.8516     2.0131     2.0459     2.0559
                     E          E          A2         A1         E   
    1  AS 1  S    0.000000  -0.000000  -0.000000  -0.085606   0.000000
    2  AS 1  S    0.000000  -0.000000  -0.000000  -0.332811   0.000000
    3  AS 1  X   -0.287062  -0.000000  -0.000000   0.000000  -0.013423
    4  AS 1  Y    0.000000   0.287062  -0.000000   0.000000   0.000000
    5  AS 1  Z    0.000000  -0.000000  -0.000000  -0.101337   0.000000
    6  AS 1  X   -1.043337  -0.000000  -0.000000   0.000000  -0.071084
    7  AS 1  Y    0.000000   1.043337  -0.000000   0.000000   0.000000
    8  AS 1  Z    0.000000  -0.000000  -0.000000  -0.277795   0.000000
    9  AS 1 XX   -0.257433  -0.000000  -0.000000   0.174707  -0.012157
   10  AS 1 YY    0.257433  -0.000000  -0.000000   0.174707   0.012157
   11  AS 1 ZZ    0.000000  -0.000000  -0.000000   0.066547   0.000000
   12  AS 1 XY    0.000000  -0.297258  -0.000000   0.000000   0.000000
   13  AS 1 XZ    0.375797  -0.000000  -0.000000   0.000000  -0.058672
   14  AS 1 YZ    0.000000  -0.375797  -0.000000   0.000000   0.000000
   15  S  2  S    0.000000  -0.000000  -0.000000   0.165014   0.000000
   16  S  2  S    0.000000  -0.000000  -0.000000   0.313691   0.000000
   17  S  2  X   -0.105432  -0.000000  -0.000000   0.000000  -0.017027
[...]
 II,JST,KST,LST =  8  1  1  1 NREC =         1 INTLOC = 2095
 II,JST,KST,LST =  9  1  1  1 NREC =         1 INTLOC = 4524
 II,JST,KST,LST = 10  1  1  1 NREC =         1 INTLOC = 8282
 II,JST,KST,LST = 11  1  1  1 NREC =         2 INTLOC = 6282
 II,JST,KST,LST = 12  1  1  1 NREC =         3 INTLOC =  100
 II,JST,KST,LST = 13  1  1  1 NREC =         7 INTLOC =    3
 II,JST,KST,LST = 14  1  1  1 NREC =        12 INTLOC =12269
 II,JST,KST,LST = 15  1  1  1 NREC =        25 INTLOC = 7497
 II,JST,KST,LST = 16  1  1  1 NREC =        27 INTLOC =  258
 II,JST,KST,LST = 17  1  1  1 NREC =        37 INTLOC = 8342
 II,JST,KST,LST = 18  1  1  1 NREC =        52 INTLOC =10612
 II,JST,KST,LST = 19  1  1  1 NREC =        80 INTLOC =13941
 II,JST,KST,LST = 20  1  1  1 NREC =        83 INTLOC =11323
 II,JST,KST,LST = 21  1  1  1 NREC =       103 INTLOC =12948
 II,JST,KST,LST = 22  1  1  1 NREC =       132 INTLOC =14109
 TOTAL NUMBER OF NONZERO TWO-ELECTRON INTEGRALS =             2721520
        182 INTEGRAL RECORDS WERE STORED ON DISK FILE  8.
  ...... END OF TWO-ELECTRON INTEGRALS .....
 STEP CPU TIME =     0.16 TOTAL CPU TIME =        0.4 (    0.0 MIN)
 TOTAL WALL CLOCK TIME=        0.4 SECONDS, CPU UTILIZATION IS  97.37%

     ---------------------------------------------
     1ST AND 2ND INTEGRAL DERIVATIVE CONTRIBUTIONS
     ---------------------------------------------
 ...... END OF 1-ELECTRON GRAD+HESS+FOCKDER ......
 STEP CPU TIME =     0.19 TOTAL CPU TIME =        0.6 (    0.0 MIN)
 TOTAL WALL CLOCK TIME=        0.6 SECONDS, CPU UTILIZATION IS 100.00%

     ----------------------------------------------
     TWO ELECTRON INTEGRAL DERIVATIVE CONTRIBUTIONS
     ----------------------------------------------

      70129 WORDS REQUIRED,   5000000 WORDS AVAILABLE
 THE COARSE/FINE SCHWARZ SCREENINGS SKIPPED          0/         0 BLOCKS.
 THE NUMBER OF DERIVATIVE INTEGRAL BLOCKS COMPUTED WAS      8607
 STEP CPU TIME =     1.12 TOTAL CPU TIME =        1.7 (    0.0 MIN)
 TOTAL WALL CLOCK TIME=        1.7 SECONDS, CPU UTILIZATION IS  99.41%
 ...... END OF 2-ELECTRON GRAD+HESS+FOCKDER ......
 STEP CPU TIME =     0.00 TOTAL CPU TIME =        1.7 (    0.0 MIN)
 TOTAL WALL CLOCK TIME=        1.7 SECONDS, CPU UTILIZATION IS  99.41%

     -------------------------------------------
     COUPLED-PERTURBED CLOSED SHELL HARTREE-FOCK
     -------------------------------------------
 THE CPHF HAS    1026 INDEPENDENT ORBITAL ROTATIONS.
 SOLVING FOR    9 NUCLEAR RESPONSES AND 0 ELECTRIC FIELD RESPONSES
           -FA- WILL USE     32119 WORDS,
           -TA- WILL USE     96887 WORDS,
          -FCK- WILL USE    151085 WORDS,
 -WXY- AND -YA- WILL USE    154508 WORDS,
               THERE ARE   5000000 WORDS OF REPLICATED MEMORY AVAILABLE.
        TIME FOR -FA-   =        0.000
        TIME FOR -TA-   =        0.010
        TIME FOR -FCK-  =        0.150
 PRECONDITIONED CONJUGATE GRADIENT SOLVER     CONV. TOLERANCE=5.00E-05
 ITER    RESPONSE ERROR        IMPROVED
   1       2.04381E-01             9
   2       7.88809E-02             9
   3       2.38326E-02             9
   4       6.52298E-03             9
   5       2.14911E-03             9
   6       5.77378E-04             9
   7       1.86128E-04             9
   8       6.39349E-05             9
   9       1.55943E-05             1
 THE CPHF HAS CONVERGED AFTER  9 ITERATIONS.
 IT REQUIRED    73 FOCK-LIKE BUILDS TO FIND THE   9 SYMMETRY UNIQUE RESPONSES.
        TIME FOR -YA-   =        0.930
 ...... DONE WITH CPHF CONTRIBUTIONS ......
 STEP CPU TIME =     1.09 TOTAL CPU TIME =        2.8 (    0.0 MIN)
 TOTAL WALL CLOCK TIME=        2.8 SECONDS, CPU UTILIZATION IS  99.64%

          ---------------
          ENERGY GRADIENT
          ---------------

 UNITS ARE HARTREE/BOHR    E'X               E'Y               E'Z 
    1 AS               0.000000000       0.000000000      -0.000000142
    2 S                0.000000000       0.000000000       0.000000550
    3 F               -0.000000054       0.000000093      -0.000000136
    4 F               -0.000000054      -0.000000093      -0.000000136
    5 F                0.000000108       0.000000000      -0.000000136

          -------------------------------
          CARTESIAN FORCE CONSTANT MATRIX
          -------------------------------

                                   1                          2
                               AS                         S         
                          X        Y        Z        X        Y        Z
  1   AS           X 0.521500-0.000000 0.000000-0.030842 0.000000 0.000000
                   Y-0.000000 0.521500 0.000000 0.000000-0.030842 0.000000
                   Z 0.000000 0.000000 0.659467 0.000000 0.000000-0.264805
  2   S            X-0.030842 0.000000 0.000000 0.019034-0.000000 0.000000
                   Y 0.000000-0.030842 0.000000 0.000000 0.019034 0.000000
                   Z 0.000000 0.000000-0.264805 0.000000 0.000000 0.297234
  3   F            X-0.100396 0.109389-0.069887 0.005547 0.002792-0.002412
                   Y 0.109389-0.226708 0.121048 0.002792 0.002324 0.004177
                   Z-0.077064 0.133478-0.131555-0.006558 0.011358-0.010810
  4   F            X-0.100396-0.109389-0.069887 0.005547-0.002792-0.002412
                   Y-0.109389-0.226708-0.121048-0.002792 0.002324-0.004177
                   Z-0.077064-0.133478-0.131555-0.006558-0.011358-0.010810
  5   F            X-0.289864 0.000000 0.139774 0.000712 0.000000 0.004823
                   Y 0.000000-0.037240 0.000000 0.000000 0.007159 0.000000
                   Z 0.154127 0.000000-0.131555 0.013115 0.000000-0.010810

                                   3                          4
                               F                          F         
                          X        Y        Z        X        Y        Z
  3   F            X 0.106386-0.127613 0.077545 0.007596-0.004211 0.000829
                   Y-0.127613 0.253740-0.134312 0.004211-0.028043 0.006537
                   Z 0.077545-0.134312 0.121722 0.000829-0.006537 0.010322
  4   F            X 0.007596 0.004211 0.000829 0.106386 0.127613 0.077545
                   Y-0.004211-0.028043-0.006537 0.127613 0.253740 0.134312
                   Z 0.000829 0.006537 0.010322 0.077545 0.134312 0.121722
  5   F            X-0.019133 0.011221 0.005247-0.019133-0.011221 0.005247
                   Y 0.019643-0.001314-0.003986-0.019643-0.001314 0.003986
                   Z-0.006075 0.002551 0.010322-0.006075-0.002551 0.010322

                                   5
                               F         
                          X        Y        Z
  5   F            X 0.327418 0.000000-0.155091
                   Y 0.000000 0.032708 0.000000
                   Z-0.155091 0.000000 0.121722

          ------------------------          ----------------
          DIPOLE DERIVATIVE TENSOR          (DEBYE/ANGSTROM)
          ------------------------          ----------------

        ATOM                 MU-X           MU-Y           MU-Z
     AS         D/DX    10.871235191    0.000000000    0.000000007
                D/DY     0.000000000   10.871235193    0.000000000
                D/DZ     0.000000002    0.000000000   15.898960916
     S          D/DX    -2.144056000    0.000000000    0.000000000
                D/DY     0.000000000   -2.144055998    0.000000000
                D/DZ     0.000000000    0.000000000   -3.859713144
     F          D/DX    -2.402537208    0.877402621   -0.705802169
                D/DY     0.877402621   -3.415674486    1.222485216
                D/DZ    -0.789902237    1.368150807   -4.013098054
     F          D/DX    -2.402537208   -0.877402621   -0.705802169
                D/DY    -0.877402621   -3.415674486   -1.222485216
                D/DZ    -0.789902237   -1.368150807   -4.013098054
     F          D/DX    -3.922243125    0.000000000    1.411604338
                D/DY     0.000000000   -1.895968568    0.000000000
                D/DZ     1.579804473    0.000000000   -4.013098054

          --------------------------------------------------------
          NORMAL COORDINATE ANALYSIS IN THE HARMONIC APPROXIMATION
          --------------------------------------------------------

          ATOMIC WEIGHTS (AMU)

    1     AS               74.92160
    2     S                31.97207
    3     F                18.99840
    4     F                18.99840
    5     F                18.99840

 MODES    1 TO    6 ARE TAKEN AS ROTATIONS AND TRANSLATIONS.

 ANALYZING SYMMETRY OF NORMAL MODES...
 WATCH OUT!! THE COUNTING OF DEGENERATE MODES COUNTS INDIVIDUAL MODES,
 E.G. 2*E MEANS ONE (1) SET OF DEGENERATE E MODES

 --- SYMMETRY FOR NORMAL MODES ---
 INCLUDING TRANSLATION AND ROTATION
    4*A1     1*A2    10*E   
 EXCLUDING TRANSLATION AND ROTATION (SAYVETZ < 0.01)
    3*A1     0*A2     6*E   

     FREQUENCIES IN CM**-1, IR INTENSITIES IN DEBYE**2/AMU-ANGSTROM**2,
     REDUCED MASSES IN AMU.

                            1           2           3           4           5
       FREQUENCY:         0.72        0.28        0.28        0.01        0.91  
        SYMMETRY:         A2          E           E           A1          E   
    REDUCED MASS:     18.99840    34.96863    34.96863    32.77799    23.01751
    IR INTENSITY:      0.00000     0.00018     0.00018     0.00000     0.00180

  1   AS           X -0.00000000  0.05636564 -0.04537318 -0.00000000 -0.02694489
                   Y -0.00000000  0.04537318  0.05636564  0.00000000 -0.01389101
                   Z -0.00000000  0.00000000 -0.00000000  0.07811364  0.00000000
  2   S            X -0.00000000  0.08755447 -0.07047954 -0.00000000  0.08662197
                   Y -0.00000000  0.07047954  0.08755447  0.00000000  0.04465657
                   Z -0.00000000  0.00000000 -0.00000000  0.07811403  0.00000000
  3   F            X -0.11471270  0.04375432 -0.03522111  0.00000020 -0.07286980
                   Y -0.06622941  0.03522125  0.04375397 -0.00000034 -0.03756689
                   Z -0.00000000 -0.00445632 -0.02867567  0.07811259  0.00440669
  4   F            X  0.11471270  0.04375411 -0.03522137  0.00000020 -0.07286956
                   Y -0.06622941  0.03522099  0.04375417  0.00000034 -0.03756644
                   Z -0.00000000  0.02706201  0.01047855  0.07811259  0.07790844
  5   F            X -0.00000000  0.04375399 -0.03522106 -0.00000040 -0.07286929
                   Y  0.13245881  0.03522130  0.04375429  0.00000000 -0.03756687
                   Z  0.00000000 -0.02260570  0.01819712  0.07811259 -0.08231513

 TRANS. SAYVETZ    X -0.00000000  9.51607780 -7.66024611 -0.00000000 -3.40248536
                   Y -0.00000000  7.66024611  9.51607780  0.00000000 -1.75409699
                   Z -0.00000000  0.00000000 -0.00000001 12.80190884  0.00000000
               TOTAL  0.00000000 12.21618218 12.21618218 12.80190884  3.82802336

   ROT. SAYVETZ    X -0.00000000 -5.26471063 -6.54018099 -0.00000000-12.27742330
                   Y -0.00000000  6.54018099 -5.26471063 -0.00000001 23.81496184
                   Z 20.57230747  0.00000000 -0.00000000  0.00000000 -0.00000000
               TOTAL 20.57230747  8.39590051  8.39590052  0.00000001 26.79342326

                            6           7           8           9          10
       FREQUENCY:         0.91      220.97      220.97      311.73      311.73  
        SYMMETRY:         E           E           E           E           E   
    REDUCED MASS:     23.01751    23.59171    23.59171    22.55604    22.55604
    IR INTENSITY:      0.00180     0.17365     0.17365     0.57054     0.57054

  1   AS           X  0.01389101  0.02011772  0.03424213 -0.05101396  0.00061216
                   Y -0.02694489 -0.03424213  0.02011772 -0.00061216 -0.05101396
                   Z -0.00000000 -0.00000000  0.00000000 -0.00000000 -0.00000000
  2   S            X -0.04465657 -0.04589477 -0.07811694  0.03062265 -0.00036747
                   Y  0.08662197  0.07811694 -0.04589477  0.00036747  0.03062265
                   Z -0.00000000 -0.00000000  0.00000000  0.00000000 -0.00000000
  3   F            X  0.03756657 -0.01812278  0.02952210  0.10358950  0.08990336
                   Y -0.07286930  0.03190456  0.01672306  0.09110047 -0.00382935
                   Z -0.09250512  0.13869379 -0.00105256  0.00404301 -0.00720089
  4   F            X  0.03756703  0.03461012 -0.00145920  0.10140232 -0.09236324
                   Y -0.07286954  0.00092326 -0.03600985 -0.09116613 -0.00164217
                   Z  0.05006887 -0.06843535  0.12063863  0.00421464  0.00710179
  5   F            X  0.03756660 -0.01858693 -0.03163659 -0.05535160  0.00066421
                   Y -0.07286981 -0.02925413  0.01718720  0.00186133  0.15511175
                   Z  0.04243625 -0.07025844 -0.11958607 -0.00825766  0.00009909

 TRANS. SAYVETZ    X  1.75409700  0.00001199  0.00002040 -0.00005300  0.00000064
                   Y -3.40248536 -0.00002040  0.00001199 -0.00000064 -0.00005300
                   Z -0.00000000 -0.00000000  0.00000000  0.00000000 -0.00000000
               TOTAL  3.82802337  0.00002366  0.00002366  0.00005300  0.00005300

   ROT. SAYVETZ    X-23.81496184 -0.00002692  0.00001582 -0.00000081 -0.00006767
                   Y-12.27742330 -0.00001582 -0.00002692  0.00006767 -0.00000081
                   Z -0.00000000 -0.00000000 -0.00000000 -0.00000000  0.00000000
               TOTAL 26.79342326  0.00003122  0.00003122  0.00006767  0.00006767

                           11          12          13          14          15
       FREQUENCY:       366.01      578.06      839.89      839.89      846.87  
        SYMMETRY:         A1          A1          E           E           A1  
    REDUCED MASS:     22.26744    33.51857    22.84743    22.84743    22.39867
    IR INTENSITY:      1.38032     1.26187     2.67054     2.67054     4.05540

  1   AS           X  0.00000000  0.00000000  0.01194195 -0.05357082  0.00000000
                   Y -0.00000000 -0.00000000 -0.05357082 -0.01194195  0.00000000
                   Z -0.04046223 -0.05448588  0.00000000  0.00000000  0.05137745
  2   S            X -0.00000000 -0.00000000 -0.00007137  0.00032018  0.00000000
                   Y -0.00000000 -0.00000000  0.00032018  0.00007137 -0.00000000
                   Z -0.06525878  0.14350563 -0.00000000 -0.00000000 -0.01797006
  3   F            X -0.03514459 -0.02242609 -0.06888503  0.02135219 -0.05146127
                   Y  0.06087221  0.03884313  0.11912829 -0.03756926  0.08913354
                   Z  0.08979795 -0.00887828 -0.07612613  0.02390487 -0.05745663
  4   F            X -0.03514459 -0.02242609  0.05329399  0.04858821 -0.05146127
                   Y -0.06087221 -0.03884313  0.09189228  0.08460975 -0.08913354
                   Z  0.08979795 -0.00887828  0.05876529  0.05397472 -0.05745663
  5   F            X  0.07028917  0.04485218 -0.03138260  0.14078033  0.10292255
                   Y -0.00000000 -0.00000000 -0.00029985 -0.00006684  0.00000000
                   Z  0.08979795 -0.00887828  0.01736084 -0.07787959 -0.05745663

 TRANS. SAYVETZ    X -0.00000000 -0.00000000  0.00000396 -0.00001777  0.00000000
                   Y -0.00000000 -0.00000000 -0.00001777 -0.00000396  0.00000000
                   Z  0.00009924 -0.00001649  0.00000000  0.00000000 -0.00001146
               TOTAL  0.00009924  0.00001649  0.00001821  0.00001821  0.00001146

   ROT. SAYVETZ    X -0.00000000 -0.00000000  0.00000411  0.00000092  0.00000000
                   Y  0.00000000 -0.00000000  0.00000092 -0.00000411  0.00000000
                   Z  0.00000000 -0.00000000 -0.00000000 -0.00000000  0.00000000
               TOTAL  0.00000000  0.00000000  0.00000422  0.00000422  0.00000000

 REFERENCE ON SAYVETZ CONDITIONS - A. SAYVETZ, J.CHEM.PHYS., 7, 383-389(1939).

 NOTE - THE MODES J,K ARE ORTHONORMALIZED ACCORDING TO
 SUM ON I   M(I) * (X(I,J)*X(I,K) + Y(I,J)*Y(I,K) + Z(I,J)*Z(I,K)) = DELTA(J,K)

  MODE FREQ(CM**-1)  SYMMETRY  RED. MASS  IR INTENS.
     1       0.720    A2      18.998400    0.000000
     2       0.285    E       34.968631    0.000178
     3       0.285    E       34.968631    0.000178
     4       0.011    A1      32.777994    0.000000
     5       0.908    E       23.017513    0.001804
     6       0.908    E       23.017513    0.001804
     7     220.974    E       23.591709    0.173647
     8     220.974    E       23.591709    0.173647
     9     311.728    E       22.556043    0.570540
    10     311.728    E       22.556043    0.570540
    11     366.013    A1      22.267440    1.380319
    12     578.060    A1      33.518574    1.261872
    13     839.894    E       22.847435    2.670540
    14     839.894    E       22.847435    2.670540
    15     846.874    A1      22.398669    4.055400

     -------------------------------
     THERMOCHEMISTRY AT T=  298.15 K
     -------------------------------

 USING IDEAL GAS, RIGID ROTOR, HARMONIC NORMAL MODE APPROXIMATIONS.
 P=  1.01325E+05 PASCAL.
 ALL FREQUENCIES ARE SCALED BY   1.00000
 THE MOMENTS OF INERTIA ARE (IN AMU*BOHR**2)
    423.21983   788.37868   788.37868
 THE ROTATIONAL SYMMETRY NUMBER IS  3.0
 THE ROTATIONAL CONSTANTS ARE (IN GHZ)
      4.26041     2.28708     2.28708
      7 -     15 VIBRATIONAL MODES ARE USED IN THERMOCHEMISTRY.
 THE HARMONIC ZERO POINT ENERGY IS (SCALED BY   1.000)
        0.010334 HARTREE/MOLECULE     2268.070111 CM**-1/MOLECULE 
        6.484744 KCAL/MOL               27.132170 KJ/MOL

               Q               LN Q
 ELEC.     1.00000E+00       0.000000
 TRANS.    8.24666E+07      18.227904
 ROT.      6.11981E+04      11.021872
 VIB.      5.20371E+00       1.649371
 TOT.      2.62621E+13      30.899146

              E         H         G         CV        CP        S
           KJ/MOL    KJ/MOL    KJ/MOL   J/MOL-K   J/MOL-K   J/MOL-K
 ELEC.      0.000     0.000     0.000     0.000     0.000     0.000
 TRANS.     3.718     6.197   -45.186    12.472    20.786   172.340
 ROT.       3.718     3.718   -27.323    12.472    12.472   104.112
 VIB.      33.922    33.922    23.043    47.249    47.249    36.487
 TOTAL     41.359    43.838   -49.465    72.192    80.507   312.939
 VIB. THERMAL CORRECTION E(T)-E(0) = H(T)-H(0) =  6789.792 J/MOL

              E         H         G         CV        CP        S
         KCAL/MOL  KCAL/MOL  KCAL/MOL CAL/MOL-K CAL/MOL-K CAL/MOL-K
 ELEC.      0.000     0.000     0.000     0.000     0.000     0.000
 TRANS.     0.889     1.481   -10.800     2.981     4.968    41.190
 ROT.       0.889     0.889    -6.530     2.981     2.981    24.883
 VIB.       8.108     8.108     5.508    11.293    11.293     8.721
 TOTAL      9.885    10.477   -11.822    17.254    19.242    74.794
 VIB. THERMAL CORRECTION E(T)-E(0) = H(T)-H(0) =  1622.799 CAL/MOL
 ......END OF NORMAL COORDINATE ANALYSIS......
 STEP CPU TIME =     0.00 TOTAL CPU TIME =        2.8 (    0.0 MIN)
 TOTAL WALL CLOCK TIME=        2.8 SECONDS, CPU UTILIZATION IS  99.64%
               809517  WORDS OF DYNAMIC MEMORY USED
 EXECUTION OF GAMESS TERMINATED NORMALLY Wed Aug  9 20:48:59 2017
 DDI: 263640 bytes (0.3 MB / 0 MWords) used by master data server.

 ----------------------------------------
 CPU timing information for all processes
 ========================================
 0: 2.700 + 0.87 = 2.788
 ----------------------------------------
 ddikick.x: exited gracefully.
unset echo
----- accounting info -----
Files used on the master node compute-0-1.local were:
-rw-rw-r-- 1 sarom sarom 1.1K Aug  9 20:48 /scratch/ecp-f3ass.F05
-rw-rw-r-- 1 sarom sarom  32M Aug  9 20:48 /scratch/ecp-f3ass.F08
-rw-rw-r-- 1 sarom sarom 3.7M Aug  9 20:48 /scratch/ecp-f3ass.F10
-rw-rw-r-- 1 sarom sarom 317K Aug  9 20:48 /scratch/ecp-f3ass.F18
rm: No match.
ls: No match.
ls: No match.
ls: No match.
Wed Aug  9 20:49:02 CDT 2017
0.254u 0.160s 0:06.26 6.5%	0+0k 8+360io 0pf+0w
/opt/gridengine/default/spool/compute-0-1/active_jobs/35968.1/pe_hostfile compute-0-1.local
