-catch_rsh /opt/gridengine/default/spool/compute-0-7/active_jobs/23725.1/pe_hostfile
compute-0-7
The primary node assigned by SGE to this run is compute-0-7
Warning: no access to tty (Bad file descriptor).
Thus no job control in this shell.
Deleting shmid=2523136.
Deleting shmid=2555905.
Deleting shmid=2785282.
source /home/sarom/gamess.github.2017-05-31.14.06/install.info
setenv GMS_PATH /home/sarom/gamess.github.2017-05-31.14.06
setenv GMS_BUILD_DIR /home/sarom/gamess.github.2017-05-31.14.06
setenv GMS_TARGET linux64
setenv GMS_FORTRAN gfortran
setenv GMS_GFORTRAN_VERNO 4.4
setenv GMS_MATHLIB mkl-so
setenv GMS_MATHLIB_PATH /share/apps/intel/compilers_and_libraries_2017.1.132/linux/mkl/lib/intel64
setenv GMS_MKL_VERNO 12
setenv GMS_DDI_COMM sockets
setenv GMS_LIBCCHEM false
setenv GMS_EIGEN_PATH
setenv GMS_PHI false
setenv GMS_SHMTYPE sysv
setenv GMS_OPENMP false
unset echo
rna-3nj6-fixsol
tests/quanpol
----- GAMESS execution script 'rungms' -----
This job is running on host compute-0-7.local
under operating system Linux at Fri Jun 2 02:19:57 CDT 2017
Available scratch disk space (Kbyte units) at beginning of the job is
Filesystem           1K-blocks      Used Available Use% Mounted on
/dev/sda1             16126920   3867340  11440380  26% /
GAMESS temporary binary files will be written to /scratch
GAMESS supplementary output files will be written to /home/sarom/restart
Copying input file rna-3nj6-fixsol.inp to your run's scratch directory...
cp tests/quanpol/rna-3nj6-fixsol.inp /scratch/rna-3nj6-fixsol.F05
unset echo
The generated host list is
compute-0-7.local
/home/sarom/gamess.github.2017-05-31.14.06/ddikick.x /home/sarom/gamess.github.2017-05-31.14.06/gamess.00.x rna-3nj6-fixsol -ddi 1 1 compute-0-7.local -scr /scratch

 Distributed Data Interface kickoff program.
 Initiating 1 compute processes on 1 nodes to run the following command:
 /home/sarom/gamess.github.2017-05-31.14.06/gamess.00.x rna-3nj6-fixsol 

          ******************************************************
          *         GAMESS VERSION = 20 APR 2017 (R1)          *
          *             FROM IOWA STATE UNIVERSITY             *
          * M.W.SCHMIDT, K.K.BALDRIDGE, J.A.BOATZ, S.T.ELBERT, *
          *   M.S.GORDON, J.H.JENSEN, S.KOSEKI, N.MATSUNAGA,   *
          *          K.A.NGUYEN, S.J.SU, T.L.WINDUS,           *
          *       TOGETHER WITH M.DUPUIS, J.A.MONTGOMERY       *
          *         J.COMPUT.CHEM.  14, 1347-1363(1993)        *
          **************** 64 BIT LINUX VERSION ****************

  SINCE 1993, STUDENTS AND POSTDOCS WORKING AT IOWA STATE UNIVERSITY
  AND ALSO IN THEIR VARIOUS JOBS AFTER LEAVING ISU HAVE MADE IMPORTANT
  CONTRIBUTIONS TO THE CODE:
     IVANA ADAMOVIC, CHRISTINE AIKENS, YURI ALEXEEV, POOJA ARORA,
     ANDREY ASADCHEV, ROB BELL, PRADIPTA BANDYOPADHYAY, JONATHAN BENTZ,
     BRETT BODE, KURT BRORSEN, CALEB CARLIN, GALINA CHABAN, WEI CHEN,
     CHEOL HO CHOI, PAUL DAY, ALBERT DEFUSCO, NUWAN DESILVA, TIM DUDLEY,
     DMITRI FEDOROV, GRAHAM FLETCHER, MARK FREITAG, KURT GLAESEMANN,
     DAN KEMP, GRANT MERRILL, NORIYUKI MINEZAWA, JONATHAN MULLIN,
     TAKESHI NAGATA, SEAN NEDD, HEATHER NETZLOFF, BOSILJKA NJEGIC, RYAN OLSON,
     MIKE PAK, SPENCER PRUITT, LUKE ROSKOP, JIM SHOEMAKER, LYUDMILA SLIPCHENKO,
     TONY SMITH, SAROM SOK LEANG, JIE SONG, TETSUYA TAKETSUGU, SIMON WEBB,
     PENG XU, SOOHAENG YOO, FEDERICO ZAHARIEV

  ADDITIONAL CODE HAS BEEN PROVIDED BY COLLABORATORS IN OTHER GROUPS:
     IOWA STATE UNIVERSITY:
          JOE IVANIC, AARON WEST, LAIMUTIS BYTAUTAS, KLAUS RUEDENBERG
     UNIVERSITY OF TOKYO: KIMIHIKO HIRAO, TAKAHITO NAKAJIMA,
          TAKAO TSUNEDA, MUNEAKI KAMIYA, SUSUMU YANAGISAWA,
          KIYOSHI YAGI, MAHITO CHIBA, SEIKEN TOKURA, NAOAKI KAWAKAMI
     UNIVERSITY OF AARHUS: FRANK JENSEN
     UNIVERSITY OF IOWA: VISVALDAS KAIRYS, HUI LI
     NATIONAL INST. OF STANDARDS AND TECHNOLOGY: WALT STEVENS, DAVID GARMER
     UNIVERSITY OF PISA: BENEDETTA MENNUCCI, JACOPO TOMASI
     UNIVERSITY OF MEMPHIS: HENRY KURTZ, PRAKASHAN KORAMBATH
     UNIVERSITY OF ALBERTA: TOBY ZENG, MARIUSZ KLOBUKOWSKI
     UNIVERSITY OF NEW ENGLAND: MARK SPACKMAN
     MIE UNIVERSITY: HIROAKI UMEDA
     NAT. INST. OF ADVANCED INDUSTRIAL SCIENCE AND TECHNOLOGY: KAZUO KITAURA
     MICHIGAN STATE UNIVERSITY:
          KAROL KOWALSKI, MARTA WLOCH, JEFFREY GOUR, JESSE LUTZ,
          WEI LI, PIOTR PIECUCH
     UNIVERSITY OF SILESIA: MONIKA MUSIAL, STANISLAW KUCHARSKI
     FACULTES UNIVERSITAIRES NOTRE-DAME DE LA PAIX:
          OLIVIER QUINET, BENOIT CHAMPAGNE
     UNIVERSITY OF CALIFORNIA - SANTA BARBARA: BERNARD KIRTMAN
     INSTITUTE FOR MOLECULAR SCIENCE:
          KAZUYA ISHIMURA, MICHIO KATOUDA, AND SHIGERU NAGASE
     UNIVERSITY OF NOTRE DAME: ANNA POMOGAEVA, DAN CHIPMAN
     KYUSHU UNIVERSITY:
          HARUYUKI NAKANO,
          FENG LONG GU, JACEK KORCHOWIEC, MARCIN MAKOWSKI, AND YURIKO AOKI,
          HIROTOSHI MORI AND EISAKU MIYOSHI
     PENNSYLVANIA STATE UNIVERSITY:
          TZVETELIN IORDANOV, CHET SWALINA, JONATHAN SKONE,
          SHARON HAMMES-SCHIFFER
     WASEDA UNIVERSITY:
          MASATO KOBAYASHI, TOMOKO AKAMA, TSUGUKI TOUMA,
          TAKESHI YOSHIKAWA, YASUHIRO IKABATA, JUNJI SEINO,
          YUYA NAKAJIMA, HIROMI NAKAI
     NANJING UNIVERSITY: SHUHUA LI
     UNIVERSITY OF NEBRASKA:
          PEIFENG SU, DEJUN SI, NANDUN THELLAMUREGE, YALI WANG, HUI LI
     UNIVERSITY OF ZURICH: ROBERTO PEVERATI, KIM BALDRIDGE
     N. COPERNICUS UNIVERSITY AND JACKSON STATE UNIVERSITY:
          MARIA BARYSZ
     UNIVERSITY OF COPENHAGEN: Jimmy Kromann, CASPER STEINMANN
     TOKYO INSTITUTE OF TECHNOLOGY: HIROYA NAKATA
     NAGOYA UNIVERSITY: YOSHIO NISHIMOTO, STEPHAN IRLE
     MOSCOW STATE UNIVERSITY: VLADIMIR MIRONOV

 EXECUTION OF GAMESS BEGUN Fri Jun  2 02:19:57 2017

            ECHO OF THE FIRST FEW INPUT CARDS -
 INPUT CARD>! This is a RNA molecule GGCAGCAGCC from the PDB file 3nj6.                     
 INPUT CARD>! The AMBER 2010 force field is used with the FixSol solvation model.           
 INPUT CARD>!                                                                               
 INPUT CARD>! TOTAL     ENERGY =     -1556.1916351053  KCAL/MOL                             
 INPUT CARD>! TOTAL     ENERGY =     -1556.1925858584  KCAL/MOL                             
 INPUT CARD>!                                                                               
 INPUT CARD> $CONTRL RUNTYP=MD COORD=FRAGONLY $END                                          
 INPUT CARD> $SYSTEM TIMLIM=999999 MWORDS=50 $END                                           
 INPUT CARD> $QUANPO                                                                        
 INPUT CARD>         DT=1.0D-16 TEMP0=298.15 NSTEP=1 JOUT=1 KOUT=1 IFIXSOL=1                
 INPUT CARD>         NFFTYP=30000 NFFFILE=3 IDOPOL=0                                        
 INPUT CARD>         TOPNUCA= '/home/hui/gamess/auxdata/QUANPOL/nucleic10.in'               
 INPUT CARD>         PARFILE= '/home/hui/gamess/auxdata/QUANPOL/parm10.dat'                 
 INPUT CARD> $END                                                                           
 INPUT CARD> $FFPDB                                                                         
 INPUT CARD>ATOM      1  O5'   G A   1      -4.914   9.002   9.535  1.00 15.82           O  
 INPUT CARD>ATOM      2  C5'   G A   1      -4.713   7.614   9.537  1.00 11.60           C  
 INPUT CARD>ATOM      3  C4'   G A   1      -5.932   6.869  10.006  1.00  9.71           C  
 INPUT CARD>ATOM      4  O4'   G A   1      -6.233   7.181  11.382  1.00  9.62           O  
 INPUT CARD>ATOM      5  C3'   G A   1      -7.245   7.108   9.282  1.00  9.44           C  
 INPUT CARD>ATOM      6  O3'   G A   1      -7.268   6.361   8.052  1.00 10.51           O  
 INPUT CARD>ATOM      7  C2'   G A   1      -8.248   6.679  10.323  1.00  9.11           C  
 INPUT CARD>ATOM      8  O2'   G A   1      -8.244   5.261  10.407  1.00 10.41           O  
 INPUT CARD>ATOM      9  C1'   G A   1      -7.628   7.273  11.557  1.00  8.96           C  
 INPUT CARD>ATOM     10  N9    G A   1      -8.004   8.684  11.736  1.00  8.68           N  
 INPUT CARD>ATOM     11  C8    G A   1      -7.230   9.772  11.697  1.00  9.56           C  
 INPUT CARD>ATOM     12  N7    G A   1      -7.867  10.910  11.879  1.00 10.21           N  
 INPUT CARD>ATOM     13  C5    G A   1      -9.197  10.513  12.043  1.00  8.76           C  
 INPUT CARD>ATOM     14  C6    G A   1     -10.378  11.262  12.241  1.00  8.38           C  
 INPUT CARD>ATOM     15  O6    G A   1     -10.492  12.477  12.315  1.00  9.77           O  
 INPUT CARD>ATOM     16  N1    G A   1     -11.494  10.457  12.398  1.00  7.55           N  
 INPUT CARD>ATOM     17  C2    G A   1     -11.488   9.087  12.319  1.00  7.43           C  
 INPUT CARD>ATOM     18  N2    G A   1     -12.647   8.477  12.476  1.00  8.18           N  
 INPUT CARD>ATOM     19  N3    G A   1     -10.390   8.365  12.089  1.00  7.64           N  
 INPUT CARD>ATOM     20  C4    G A   1      -9.295   9.131  11.960  1.00  7.96           C  
 INPUT CARD>ATOM     21  H5'   G A   1      -3.962   7.402  10.130  1.00 13.92           H  
 INPUT CARD>ATOM     22 H5''   G A   1      -4.492   7.323   8.628  1.00 13.92           H  
 INPUT CARD>ATOM     23  H4'   G A   1      -5.733   5.911   9.953  1.00 11.66           H  
 INPUT CARD>ATOM     24  H3'   G A   1      -7.350   8.064   9.093  1.00 11.33           H  
 INPUT CARD>ATOM     25  H2'   G A   1      -9.141   7.042  10.146  1.00 10.93           H  
 INPUT CARD>ATOM     26 HO2'   G A   1      -8.904   4.980  11.074  1.00 12.49           H  
 INPUT CARD>ATOM     27  H1'   G A   1      -7.897   6.756  12.344  1.00 10.76           H  
 INPUT CARD>ATOM     28  H8    G A   1      -6.267   9.729  11.522  1.00 11.48           H  
 INPUT CARD>ATOM     29  H1    G A   1     -12.355  10.899  12.553  1.00  9.05           H  
 INPUT CARD>ATOM     30  H21   G A   1     -13.458   9.001  12.646  1.00  9.81           H  
 INPUT CARD>ATOM     31  H22   G A   1     -12.698   7.500  12.423  1.00  9.81           H  
 INPUT CARD>ATOM     32 HO5'   G A   1      -4.439   9.567  10.179  1.00 18.98           H  
 INPUT CARD>ATOM     33  P     G A   2      -8.181   6.859   6.830  1.00 12.89           P  
 INPUT CARD>ATOM     34  OP1   G A   2      -7.837   5.953   5.706  1.00 15.51           O  
 INPUT CARD>ATOM     35  OP2   G A   2      -8.096   8.329   6.639  1.00 13.98           O  
   50000000 WORDS OF MEMORY AVAILABLE
  
 ===================================================
                       QUANPOL                      
  QUANTUM CHEMISTRY POLARIZABLE FORCE FIELD PROGRAM 
     NANDUN THELLAMUREGE, DEJUN SI, FENGCHAO CUI    
             HONGBO ZHU, RUI LAI, HUI LI            
                  LI RESEARCH GROUP                 
           UNIVERSITY OF NEBRASKA-LINCOLN           
             - - - - 2016-02-03 - - - -             
     QM/MM AND QM/MM/CONTINUUM STYLE CALCULATION    
    USING HF, DFT, GVB, MCSCF, MP2, TDDFT METHODS   
 ===================================================
 STEP CPU TIME =     0.02 TOTAL CPU TIME =        0.0 (    0.0 MIN)
 TOTAL WALL CLOCK TIME=        0.0 SECONDS, CPU UTILIZATION IS 100.00%

 READ $QUANPO GROUP...

 STEP CPU TIME =     0.00 TOTAL CPU TIME =        0.0 (    0.0 MIN)
 TOTAL WALL CLOCK TIME=        0.0 SECONDS, CPU UTILIZATION IS 100.00%

 $QUANPO CHECK UP...

 STEP CPU TIME =     0.00 TOTAL CPU TIME =        0.0 (    0.0 MIN)
 TOTAL WALL CLOCK TIME=        0.0 SECONDS, CPU UTILIZATION IS 100.00%

 DETERMINE MXFFAT...

 STEP CPU TIME =     0.01 TOTAL CPU TIME =        0.0 (    0.0 MIN)
 TOTAL WALL CLOCK TIME=        0.0 SECONDS, CPU UTILIZATION IS 100.00%

 MEMORY REQUIRED BY QUANPOL IS      7202054 WORDS ON EACH PROCESSOR.
 INPUT SMALLER MXFFAT, MXBOND, MXANGL, MXDIHR, MXDIHB AND MXWAGG.
 ACTUAL NFFAT, NBOND, NANGL, NDIHR, NDIHB AND NWAGG ARE PRINTED BELOW.
  
 PROCESSING $FFPDB...
  
  
 READING AMBER TOP/PAR FILES ...
   WARNING: QUANPOL CANNOT OPEN THE FILE:
   TOPAMIA=''
   WARNING: QUANPOL CANNOT OPEN THE FILE:
   TOPNTER=''
   WARNING: QUANPOL CANNOT OPEN THE FILE:
   TOPCTER=''
   WARNING: QUANPOL CANNOT OPEN THE FILE:
   TOPNUCA='/home/hui/gamess/auxdata/QUANPOL/nucleic10.in'
   WARNING: QUANPOL CANNOT OPEN THE FILE:
   PARFILE='/home/hui/gamess/auxdata/QUANPOL/parm10.dat'
   WARNING: QUANPOL CANNOT OPEN THE FILE:
   PARFIL2=''
   WARNING: QUANPOL CANNOT OPEN THE FILE:
   PARFIL3=''
 DONE READING TOP/PAR FILES.
  
 STEP CPU TIME =     0.00 TOTAL CPU TIME =        0.0 (    0.0 MIN)
 TOTAL WALL CLOCK TIME=        0.0 SECONDS, CPU UTILIZATION IS  75.00%
 STEP CPU TIME =     0.00 TOTAL CPU TIME =        0.0 (    0.0 MIN)
 TOTAL WALL CLOCK TIME=        0.0 SECONDS, CPU UTILIZATION IS  75.00%

 CALL PREPARE...

 WARNING: ATOM        1 FORMS NO BOND.
 WARNING: ATOM        2 FORMS NO BOND.
 WARNING: ATOM        3 FORMS NO BOND.
 WARNING: ATOM        4 FORMS NO BOND.
 WARNING: ATOM        5 FORMS NO BOND.
 WARNING: ATOM        6 FORMS NO BOND.
 WARNING: ATOM        7 FORMS NO BOND.
 WARNING: ATOM        8 FORMS NO BOND.
 WARNING: ATOM        9 FORMS NO BOND.
 WARNING: ATOM       10 FORMS NO BOND.
 WARNING: ATOM       11 FORMS NO BOND.
 WARNING: ATOM       12 FORMS NO BOND.
 WARNING: ATOM       13 FORMS NO BOND.
 WARNING: ATOM       14 FORMS NO BOND.
 WARNING: ATOM       15 FORMS NO BOND.
 WARNING: ATOM       16 FORMS NO BOND.
 WARNING: ATOM       17 FORMS NO BOND.
 WARNING: ATOM       18 FORMS NO BOND.
 WARNING: ATOM       19 FORMS NO BOND.
 WARNING: ATOM       20 FORMS NO BOND.

 ERROR: ATOM       21 FORMS NO BOND. THE BOND LENGTH MAY BE TOO LONG,
 OR THE H IS ATTACHED TO A WRONG O OR N ATOM IN PDB.


 ERROR: ATOM       22 FORMS NO BOND. THE BOND LENGTH MAY BE TOO LONG,
 OR THE H IS ATTACHED TO A WRONG O OR N ATOM IN PDB.


 ERROR: ATOM       23 FORMS NO BOND. THE BOND LENGTH MAY BE TOO LONG,
 OR THE H IS ATTACHED TO A WRONG O OR N ATOM IN PDB.


 ERROR: ATOM       24 FORMS NO BOND. THE BOND LENGTH MAY BE TOO LONG,
 OR THE H IS ATTACHED TO A WRONG O OR N ATOM IN PDB.


 ERROR: ATOM       25 FORMS NO BOND. THE BOND LENGTH MAY BE TOO LONG,
 OR THE H IS ATTACHED TO A WRONG O OR N ATOM IN PDB.


 ERROR: ATOM       26 FORMS NO BOND. THE BOND LENGTH MAY BE TOO LONG,
 OR THE H IS ATTACHED TO A WRONG O OR N ATOM IN PDB.


 ERROR: ATOM       27 FORMS NO BOND. THE BOND LENGTH MAY BE TOO LONG,
 OR THE H IS ATTACHED TO A WRONG O OR N ATOM IN PDB.


 ERROR: ATOM       28 FORMS NO BOND. THE BOND LENGTH MAY BE TOO LONG,
 OR THE H IS ATTACHED TO A WRONG O OR N ATOM IN PDB.


 ERROR: ATOM       29 FORMS NO BOND. THE BOND LENGTH MAY BE TOO LONG,
 OR THE H IS ATTACHED TO A WRONG O OR N ATOM IN PDB.


 ERROR: ATOM       30 FORMS NO BOND. THE BOND LENGTH MAY BE TOO LONG,
 OR THE H IS ATTACHED TO A WRONG O OR N ATOM IN PDB.


 ERROR: ATOM       31 FORMS NO BOND. THE BOND LENGTH MAY BE TOO LONG,
 OR THE H IS ATTACHED TO A WRONG O OR N ATOM IN PDB.


 ERROR: ATOM       32 FORMS NO BOND. THE BOND LENGTH MAY BE TOO LONG,
 OR THE H IS ATTACHED TO A WRONG O OR N ATOM IN PDB.

 WARNING: ATOM       33 FORMS NO BOND.
 WARNING: ATOM       34 FORMS NO BOND.
 WARNING: ATOM       35 FORMS NO BOND.
 WARNING: ATOM       36 FORMS NO BOND.
 WARNING: ATOM       37 FORMS NO BOND.
 WARNING: ATOM       38 FORMS NO BOND.
 WARNING: ATOM       39 FORMS NO BOND.
 WARNING: ATOM       40 FORMS NO BOND.
 WARNING: ATOM       41 FORMS NO BOND.
 WARNING: ATOM       42 FORMS NO BOND.
 WARNING: ATOM       43 FORMS NO BOND.
 WARNING: ATOM       44 FORMS NO BOND.
 WARNING: ATOM       45 FORMS NO BOND.
 WARNING: ATOM       46 FORMS NO BOND.
 WARNING: ATOM       47 FORMS NO BOND.
 WARNING: ATOM       48 FORMS NO BOND.
 WARNING: ATOM       49 FORMS NO BOND.
 WARNING: ATOM       50 FORMS NO BOND.
 WARNING: ATOM       51 FORMS NO BOND.
 WARNING: ATOM       52 FORMS NO BOND.
 WARNING: ATOM       53 FORMS NO BOND.
 WARNING: ATOM       54 FORMS NO BOND.
 WARNING: ATOM       55 FORMS NO BOND.

 ERROR: ATOM       56 FORMS NO BOND. THE BOND LENGTH MAY BE TOO LONG,
 OR THE H IS ATTACHED TO A WRONG O OR N ATOM IN PDB.


 ERROR: ATOM       57 FORMS NO BOND. THE BOND LENGTH MAY BE TOO LONG,
 OR THE H IS ATTACHED TO A WRONG O OR N ATOM IN PDB.


 ERROR: ATOM       58 FORMS NO BOND. THE BOND LENGTH MAY BE TOO LONG,
 OR THE H IS ATTACHED TO A WRONG O OR N ATOM IN PDB.


 ERROR: ATOM       59 FORMS NO BOND. THE BOND LENGTH MAY BE TOO LONG,
 OR THE H IS ATTACHED TO A WRONG O OR N ATOM IN PDB.


 ERROR: ATOM       60 FORMS NO BOND. THE BOND LENGTH MAY BE TOO LONG,
 OR THE H IS ATTACHED TO A WRONG O OR N ATOM IN PDB.


 ERROR: ATOM       61 FORMS NO BOND. THE BOND LENGTH MAY BE TOO LONG,
 OR THE H IS ATTACHED TO A WRONG O OR N ATOM IN PDB.


 ERROR: ATOM       62 FORMS NO BOND. THE BOND LENGTH MAY BE TOO LONG,
 OR THE H IS ATTACHED TO A WRONG O OR N ATOM IN PDB.


 ERROR: ATOM       63 FORMS NO BOND. THE BOND LENGTH MAY BE TOO LONG,
 OR THE H IS ATTACHED TO A WRONG O OR N ATOM IN PDB.


 ERROR: ATOM       64 FORMS NO BOND. THE BOND LENGTH MAY BE TOO LONG,
 OR THE H IS ATTACHED TO A WRONG O OR N ATOM IN PDB.


 ERROR: ATOM       65 FORMS NO BOND. THE BOND LENGTH MAY BE TOO LONG,
 OR THE H IS ATTACHED TO A WRONG O OR N ATOM IN PDB.


 ERROR: ATOM       66 FORMS NO BOND. THE BOND LENGTH MAY BE TOO LONG,
 OR THE H IS ATTACHED TO A WRONG O OR N ATOM IN PDB.

 WARNING: ATOM       67 FORMS NO BOND.
 WARNING: ATOM       68 FORMS NO BOND.
 WARNING: ATOM       69 FORMS NO BOND.
 WARNING: ATOM       70 FORMS NO BOND.
 WARNING: ATOM       71 FORMS NO BOND.
 WARNING: ATOM       72 FORMS NO BOND.
 WARNING: ATOM       73 FORMS NO BOND.
 WARNING: ATOM       74 FORMS NO BOND.
 WARNING: ATOM       75 FORMS NO BOND.
 WARNING: ATOM       76 FORMS NO BOND.
 WARNING: ATOM       77 FORMS NO BOND.
 WARNING: ATOM       78 FORMS NO BOND.
 WARNING: ATOM       79 FORMS NO BOND.
 WARNING: ATOM       80 FORMS NO BOND.
 WARNING: ATOM       81 FORMS NO BOND.
 WARNING: ATOM       82 FORMS NO BOND.
 WARNING: ATOM       83 FORMS NO BOND.
 WARNING: ATOM       84 FORMS NO BOND.
 WARNING: ATOM       85 FORMS NO BOND.
 WARNING: ATOM       86 FORMS NO BOND.

 ERROR: ATOM       87 FORMS NO BOND. THE BOND LENGTH MAY BE TOO LONG,
 OR THE H IS ATTACHED TO A WRONG O OR N ATOM IN PDB.


 ERROR: ATOM       88 FORMS NO BOND. THE BOND LENGTH MAY BE TOO LONG,
 OR THE H IS ATTACHED TO A WRONG O OR N ATOM IN PDB.


 ERROR: ATOM       89 FORMS NO BOND. THE BOND LENGTH MAY BE TOO LONG,
 OR THE H IS ATTACHED TO A WRONG O OR N ATOM IN PDB.


 ERROR: ATOM       90 FORMS NO BOND. THE BOND LENGTH MAY BE TOO LONG,
 OR THE H IS ATTACHED TO A WRONG O OR N ATOM IN PDB.


 ERROR: ATOM       91 FORMS NO BOND. THE BOND LENGTH MAY BE TOO LONG,
 OR THE H IS ATTACHED TO A WRONG O OR N ATOM IN PDB.


 ERROR: ATOM       92 FORMS NO BOND. THE BOND LENGTH MAY BE TOO LONG,
 OR THE H IS ATTACHED TO A WRONG O OR N ATOM IN PDB.


 ERROR: ATOM       93 FORMS NO BOND. THE BOND LENGTH MAY BE TOO LONG,
 OR THE H IS ATTACHED TO A WRONG O OR N ATOM IN PDB.


 ERROR: ATOM       94 FORMS NO BOND. THE BOND LENGTH MAY BE TOO LONG,
 OR THE H IS ATTACHED TO A WRONG O OR N ATOM IN PDB.


 ERROR: ATOM       95 FORMS NO BOND. THE BOND LENGTH MAY BE TOO LONG,
 OR THE H IS ATTACHED TO A WRONG O OR N ATOM IN PDB.


 ERROR: ATOM       96 FORMS NO BOND. THE BOND LENGTH MAY BE TOO LONG,
 OR THE H IS ATTACHED TO A WRONG O OR N ATOM IN PDB.


 ERROR: ATOM       97 FORMS NO BOND. THE BOND LENGTH MAY BE TOO LONG,
 OR THE H IS ATTACHED TO A WRONG O OR N ATOM IN PDB.

 WARNING: ATOM       98 FORMS NO BOND.
 WARNING: ATOM       99 FORMS NO BOND.
 WARNING: ATOM      100 FORMS NO BOND.
 WARNING: ATOM      101 FORMS NO BOND.
 WARNING: ATOM      102 FORMS NO BOND.
 WARNING: ATOM      103 FORMS NO BOND.
 WARNING: ATOM      104 FORMS NO BOND.
 WARNING: ATOM      105 FORMS NO BOND.
 WARNING: ATOM      106 FORMS NO BOND.
 WARNING: ATOM      107 FORMS NO BOND.
 WARNING: ATOM      108 FORMS NO BOND.
 WARNING: ATOM      109 FORMS NO BOND.
 WARNING: ATOM      110 FORMS NO BOND.
 WARNING: ATOM      111 FORMS NO BOND.
 WARNING: ATOM      112 FORMS NO BOND.
 WARNING: ATOM      113 FORMS NO BOND.
 WARNING: ATOM      114 FORMS NO BOND.
 WARNING: ATOM      115 FORMS NO BOND.
 WARNING: ATOM      116 FORMS NO BOND.
 WARNING: ATOM      117 FORMS NO BOND.
 WARNING: ATOM      118 FORMS NO BOND.
 WARNING: ATOM      119 FORMS NO BOND.

 ERROR: ATOM      120 FORMS NO BOND. THE BOND LENGTH MAY BE TOO LONG,
 OR THE H IS ATTACHED TO A WRONG O OR N ATOM IN PDB.


 ERROR: ATOM      121 FORMS NO BOND. THE BOND LENGTH MAY BE TOO LONG,
 OR THE H IS ATTACHED TO A WRONG O OR N ATOM IN PDB.


 ERROR: ATOM      122 FORMS NO BOND. THE BOND LENGTH MAY BE TOO LONG,
 OR THE H IS ATTACHED TO A WRONG O OR N ATOM IN PDB.


 ERROR: ATOM      123 FORMS NO BOND. THE BOND LENGTH MAY BE TOO LONG,
 OR THE H IS ATTACHED TO A WRONG O OR N ATOM IN PDB.


 ERROR: ATOM      124 FORMS NO BOND. THE BOND LENGTH MAY BE TOO LONG,
 OR THE H IS ATTACHED TO A WRONG O OR N ATOM IN PDB.


 ERROR: ATOM      125 FORMS NO BOND. THE BOND LENGTH MAY BE TOO LONG,
 OR THE H IS ATTACHED TO A WRONG O OR N ATOM IN PDB.


 ERROR: ATOM      126 FORMS NO BOND. THE BOND LENGTH MAY BE TOO LONG,
 OR THE H IS ATTACHED TO A WRONG O OR N ATOM IN PDB.


 ERROR: ATOM      127 FORMS NO BOND. THE BOND LENGTH MAY BE TOO LONG,
 OR THE H IS ATTACHED TO A WRONG O OR N ATOM IN PDB.


 ERROR: ATOM      128 FORMS NO BOND. THE BOND LENGTH MAY BE TOO LONG,
 OR THE H IS ATTACHED TO A WRONG O OR N ATOM IN PDB.


 ERROR: ATOM      129 FORMS NO BOND. THE BOND LENGTH MAY BE TOO LONG,
 OR THE H IS ATTACHED TO A WRONG O OR N ATOM IN PDB.


 ERROR: ATOM      130 FORMS NO BOND. THE BOND LENGTH MAY BE TOO LONG,
 OR THE H IS ATTACHED TO A WRONG O OR N ATOM IN PDB.

 WARNING: ATOM      131 FORMS NO BOND.
 WARNING: ATOM      132 FORMS NO BOND.
 WARNING: ATOM      133 FORMS NO BOND.
 WARNING: ATOM      134 FORMS NO BOND.
 WARNING: ATOM      135 FORMS NO BOND.
 WARNING: ATOM      136 FORMS NO BOND.
 WARNING: ATOM      137 FORMS NO BOND.
 WARNING: ATOM      138 FORMS NO BOND.
 WARNING: ATOM      139 FORMS NO BOND.
 WARNING: ATOM      140 FORMS NO BOND.
 WARNING: ATOM      141 FORMS NO BOND.
 WARNING: ATOM      142 FORMS NO BOND.
 WARNING: ATOM      143 FORMS NO BOND.
 WARNING: ATOM      144 FORMS NO BOND.
 WARNING: ATOM      145 FORMS NO BOND.
 WARNING: ATOM      146 FORMS NO BOND.
 WARNING: ATOM      147 FORMS NO BOND.
 WARNING: ATOM      148 FORMS NO BOND.
 WARNING: ATOM      149 FORMS NO BOND.
 WARNING: ATOM      150 FORMS NO BOND.
 WARNING: ATOM      151 FORMS NO BOND.
 WARNING: ATOM      152 FORMS NO BOND.
 WARNING: ATOM      153 FORMS NO BOND.

 ERROR: ATOM      154 FORMS NO BOND. THE BOND LENGTH MAY BE TOO LONG,
 OR THE H IS ATTACHED TO A WRONG O OR N ATOM IN PDB.


 ERROR: ATOM      155 FORMS NO BOND. THE BOND LENGTH MAY BE TOO LONG,
 OR THE H IS ATTACHED TO A WRONG O OR N ATOM IN PDB.


 ERROR: ATOM      156 FORMS NO BOND. THE BOND LENGTH MAY BE TOO LONG,
 OR THE H IS ATTACHED TO A WRONG O OR N ATOM IN PDB.


 ERROR: ATOM      157 FORMS NO BOND. THE BOND LENGTH MAY BE TOO LONG,
 OR THE H IS ATTACHED TO A WRONG O OR N ATOM IN PDB.


 ERROR: ATOM      158 FORMS NO BOND. THE BOND LENGTH MAY BE TOO LONG,
 OR THE H IS ATTACHED TO A WRONG O OR N ATOM IN PDB.


 ERROR: ATOM      159 FORMS NO BOND. THE BOND LENGTH MAY BE TOO LONG,
 OR THE H IS ATTACHED TO A WRONG O OR N ATOM IN PDB.


 ERROR: ATOM      160 FORMS NO BOND. THE BOND LENGTH MAY BE TOO LONG,
 OR THE H IS ATTACHED TO A WRONG O OR N ATOM IN PDB.


 ERROR: ATOM      161 FORMS NO BOND. THE BOND LENGTH MAY BE TOO LONG,
 OR THE H IS ATTACHED TO A WRONG O OR N ATOM IN PDB.


 ERROR: ATOM      162 FORMS NO BOND. THE BOND LENGTH MAY BE TOO LONG,
 OR THE H IS ATTACHED TO A WRONG O OR N ATOM IN PDB.


 ERROR: ATOM      163 FORMS NO BOND. THE BOND LENGTH MAY BE TOO LONG,
 OR THE H IS ATTACHED TO A WRONG O OR N ATOM IN PDB.


 ERROR: ATOM      164 FORMS NO BOND. THE BOND LENGTH MAY BE TOO LONG,
 OR THE H IS ATTACHED TO A WRONG O OR N ATOM IN PDB.

 WARNING: ATOM      165 FORMS NO BOND.
 WARNING: ATOM      166 FORMS NO BOND.
 WARNING: ATOM      167 FORMS NO BOND.
 WARNING: ATOM      168 FORMS NO BOND.
 WARNING: ATOM      169 FORMS NO BOND.
 WARNING: ATOM      170 FORMS NO BOND.
 WARNING: ATOM      171 FORMS NO BOND.
 WARNING: ATOM      172 FORMS NO BOND.
 WARNING: ATOM      173 FORMS NO BOND.
 WARNING: ATOM      174 FORMS NO BOND.
 WARNING: ATOM      175 FORMS NO BOND.
 WARNING: ATOM      176 FORMS NO BOND.
 WARNING: ATOM      177 FORMS NO BOND.
 WARNING: ATOM      178 FORMS NO BOND.
 WARNING: ATOM      179 FORMS NO BOND.
 WARNING: ATOM      180 FORMS NO BOND.
 WARNING: ATOM      181 FORMS NO BOND.
 WARNING: ATOM      182 FORMS NO BOND.
 WARNING: ATOM      183 FORMS NO BOND.
 WARNING: ATOM      184 FORMS NO BOND.

 ERROR: ATOM      185 FORMS NO BOND. THE BOND LENGTH MAY BE TOO LONG,
 OR THE H IS ATTACHED TO A WRONG O OR N ATOM IN PDB.


 ERROR: ATOM      186 FORMS NO BOND. THE BOND LENGTH MAY BE TOO LONG,
 OR THE H IS ATTACHED TO A WRONG O OR N ATOM IN PDB.


 ERROR: ATOM      187 FORMS NO BOND. THE BOND LENGTH MAY BE TOO LONG,
 OR THE H IS ATTACHED TO A WRONG O OR N ATOM IN PDB.


 ERROR: ATOM      188 FORMS NO BOND. THE BOND LENGTH MAY BE TOO LONG,
 OR THE H IS ATTACHED TO A WRONG O OR N ATOM IN PDB.


 ERROR: ATOM      189 FORMS NO BOND. THE BOND LENGTH MAY BE TOO LONG,
 OR THE H IS ATTACHED TO A WRONG O OR N ATOM IN PDB.


 ERROR: ATOM      190 FORMS NO BOND. THE BOND LENGTH MAY BE TOO LONG,
 OR THE H IS ATTACHED TO A WRONG O OR N ATOM IN PDB.


 ERROR: ATOM      191 FORMS NO BOND. THE BOND LENGTH MAY BE TOO LONG,
 OR THE H IS ATTACHED TO A WRONG O OR N ATOM IN PDB.


 ERROR: ATOM      192 FORMS NO BOND. THE BOND LENGTH MAY BE TOO LONG,
 OR THE H IS ATTACHED TO A WRONG O OR N ATOM IN PDB.


 ERROR: ATOM      193 FORMS NO BOND. THE BOND LENGTH MAY BE TOO LONG,
 OR THE H IS ATTACHED TO A WRONG O OR N ATOM IN PDB.


 ERROR: ATOM      194 FORMS NO BOND. THE BOND LENGTH MAY BE TOO LONG,
 OR THE H IS ATTACHED TO A WRONG O OR N ATOM IN PDB.


 ERROR: ATOM      195 FORMS NO BOND. THE BOND LENGTH MAY BE TOO LONG,
 OR THE H IS ATTACHED TO A WRONG O OR N ATOM IN PDB.

 WARNING: ATOM      196 FORMS NO BOND.
 WARNING: ATOM      197 FORMS NO BOND.
 WARNING: ATOM      198 FORMS NO BOND.
 WARNING: ATOM      199 FORMS NO BOND.
 WARNING: ATOM      200 FORMS NO BOND.
 WARNING: ATOM      201 FORMS NO BOND.
 WARNING: ATOM      202 FORMS NO BOND.
 WARNING: ATOM      203 FORMS NO BOND.
 WARNING: ATOM      204 FORMS NO BOND.
 WARNING: ATOM      205 FORMS NO BOND.
 WARNING: ATOM      206 FORMS NO BOND.
 WARNING: ATOM      207 FORMS NO BOND.
 WARNING: ATOM      208 FORMS NO BOND.
 WARNING: ATOM      209 FORMS NO BOND.
 WARNING: ATOM      210 FORMS NO BOND.
 WARNING: ATOM      211 FORMS NO BOND.
 WARNING: ATOM      212 FORMS NO BOND.
 WARNING: ATOM      213 FORMS NO BOND.
 WARNING: ATOM      214 FORMS NO BOND.
 WARNING: ATOM      215 FORMS NO BOND.
 WARNING: ATOM      216 FORMS NO BOND.
 WARNING: ATOM      217 FORMS NO BOND.

 ERROR: ATOM      218 FORMS NO BOND. THE BOND LENGTH MAY BE TOO LONG,
 OR THE H IS ATTACHED TO A WRONG O OR N ATOM IN PDB.


 ERROR: ATOM      219 FORMS NO BOND. THE BOND LENGTH MAY BE TOO LONG,
 OR THE H IS ATTACHED TO A WRONG O OR N ATOM IN PDB.


 ERROR: ATOM      220 FORMS NO BOND. THE BOND LENGTH MAY BE TOO LONG,
 OR THE H IS ATTACHED TO A WRONG O OR N ATOM IN PDB.


 ERROR: ATOM      221 FORMS NO BOND. THE BOND LENGTH MAY BE TOO LONG,
 OR THE H IS ATTACHED TO A WRONG O OR N ATOM IN PDB.


 ERROR: ATOM      222 FORMS NO BOND. THE BOND LENGTH MAY BE TOO LONG,
 OR THE H IS ATTACHED TO A WRONG O OR N ATOM IN PDB.


 ERROR: ATOM      223 FORMS NO BOND. THE BOND LENGTH MAY BE TOO LONG,
 OR THE H IS ATTACHED TO A WRONG O OR N ATOM IN PDB.


 ERROR: ATOM      224 FORMS NO BOND. THE BOND LENGTH MAY BE TOO LONG,
 OR THE H IS ATTACHED TO A WRONG O OR N ATOM IN PDB.


 ERROR: ATOM      225 FORMS NO BOND. THE BOND LENGTH MAY BE TOO LONG,
 OR THE H IS ATTACHED TO A WRONG O OR N ATOM IN PDB.


 ERROR: ATOM      226 FORMS NO BOND. THE BOND LENGTH MAY BE TOO LONG,
 OR THE H IS ATTACHED TO A WRONG O OR N ATOM IN PDB.


 ERROR: ATOM      227 FORMS NO BOND. THE BOND LENGTH MAY BE TOO LONG,
 OR THE H IS ATTACHED TO A WRONG O OR N ATOM IN PDB.


 ERROR: ATOM      228 FORMS NO BOND. THE BOND LENGTH MAY BE TOO LONG,
 OR THE H IS ATTACHED TO A WRONG O OR N ATOM IN PDB.

 WARNING: ATOM      229 FORMS NO BOND.
 WARNING: ATOM      230 FORMS NO BOND.
 WARNING: ATOM      231 FORMS NO BOND.
 WARNING: ATOM      232 FORMS NO BOND.
 WARNING: ATOM      233 FORMS NO BOND.
 WARNING: ATOM      234 FORMS NO BOND.
 WARNING: ATOM      235 FORMS NO BOND.
 WARNING: ATOM      236 FORMS NO BOND.
 WARNING: ATOM      237 FORMS NO BOND.
 WARNING: ATOM      238 FORMS NO BOND.
 WARNING: ATOM      239 FORMS NO BOND.
 WARNING: ATOM      240 FORMS NO BOND.
 WARNING: ATOM      241 FORMS NO BOND.
 WARNING: ATOM      242 FORMS NO BOND.
 WARNING: ATOM      243 FORMS NO BOND.
 WARNING: ATOM      244 FORMS NO BOND.
 WARNING: ATOM      245 FORMS NO BOND.
 WARNING: ATOM      246 FORMS NO BOND.
 WARNING: ATOM      247 FORMS NO BOND.
 WARNING: ATOM      248 FORMS NO BOND.
 WARNING: ATOM      249 FORMS NO BOND.
 WARNING: ATOM      250 FORMS NO BOND.
 WARNING: ATOM      251 FORMS NO BOND.

 ERROR: ATOM      252 FORMS NO BOND. THE BOND LENGTH MAY BE TOO LONG,
 OR THE H IS ATTACHED TO A WRONG O OR N ATOM IN PDB.


 ERROR: ATOM      253 FORMS NO BOND. THE BOND LENGTH MAY BE TOO LONG,
 OR THE H IS ATTACHED TO A WRONG O OR N ATOM IN PDB.


 ERROR: ATOM      254 FORMS NO BOND. THE BOND LENGTH MAY BE TOO LONG,
 OR THE H IS ATTACHED TO A WRONG O OR N ATOM IN PDB.


 ERROR: ATOM      255 FORMS NO BOND. THE BOND LENGTH MAY BE TOO LONG,
 OR THE H IS ATTACHED TO A WRONG O OR N ATOM IN PDB.


 ERROR: ATOM      256 FORMS NO BOND. THE BOND LENGTH MAY BE TOO LONG,
 OR THE H IS ATTACHED TO A WRONG O OR N ATOM IN PDB.


 ERROR: ATOM      257 FORMS NO BOND. THE BOND LENGTH MAY BE TOO LONG,
 OR THE H IS ATTACHED TO A WRONG O OR N ATOM IN PDB.


 ERROR: ATOM      258 FORMS NO BOND. THE BOND LENGTH MAY BE TOO LONG,
 OR THE H IS ATTACHED TO A WRONG O OR N ATOM IN PDB.


 ERROR: ATOM      259 FORMS NO BOND. THE BOND LENGTH MAY BE TOO LONG,
 OR THE H IS ATTACHED TO A WRONG O OR N ATOM IN PDB.


 ERROR: ATOM      260 FORMS NO BOND. THE BOND LENGTH MAY BE TOO LONG,
 OR THE H IS ATTACHED TO A WRONG O OR N ATOM IN PDB.


 ERROR: ATOM      261 FORMS NO BOND. THE BOND LENGTH MAY BE TOO LONG,
 OR THE H IS ATTACHED TO A WRONG O OR N ATOM IN PDB.


 ERROR: ATOM      262 FORMS NO BOND. THE BOND LENGTH MAY BE TOO LONG,
 OR THE H IS ATTACHED TO A WRONG O OR N ATOM IN PDB.

 WARNING: ATOM      263 FORMS NO BOND.
 WARNING: ATOM      264 FORMS NO BOND.
 WARNING: ATOM      265 FORMS NO BOND.
 WARNING: ATOM      266 FORMS NO BOND.
 WARNING: ATOM      267 FORMS NO BOND.
 WARNING: ATOM      268 FORMS NO BOND.
 WARNING: ATOM      269 FORMS NO BOND.
 WARNING: ATOM      270 FORMS NO BOND.
 WARNING: ATOM      271 FORMS NO BOND.
 WARNING: ATOM      272 FORMS NO BOND.
 WARNING: ATOM      273 FORMS NO BOND.
 WARNING: ATOM      274 FORMS NO BOND.
 WARNING: ATOM      275 FORMS NO BOND.
 WARNING: ATOM      276 FORMS NO BOND.
 WARNING: ATOM      277 FORMS NO BOND.
 WARNING: ATOM      278 FORMS NO BOND.
 WARNING: ATOM      279 FORMS NO BOND.
 WARNING: ATOM      280 FORMS NO BOND.
 WARNING: ATOM      281 FORMS NO BOND.
 WARNING: ATOM      282 FORMS NO BOND.

 ERROR: ATOM      283 FORMS NO BOND. THE BOND LENGTH MAY BE TOO LONG,
 OR THE H IS ATTACHED TO A WRONG O OR N ATOM IN PDB.


 ERROR: ATOM      284 FORMS NO BOND. THE BOND LENGTH MAY BE TOO LONG,
 OR THE H IS ATTACHED TO A WRONG O OR N ATOM IN PDB.


 ERROR: ATOM      285 FORMS NO BOND. THE BOND LENGTH MAY BE TOO LONG,
 OR THE H IS ATTACHED TO A WRONG O OR N ATOM IN PDB.


 ERROR: ATOM      286 FORMS NO BOND. THE BOND LENGTH MAY BE TOO LONG,
 OR THE H IS ATTACHED TO A WRONG O OR N ATOM IN PDB.


 ERROR: ATOM      287 FORMS NO BOND. THE BOND LENGTH MAY BE TOO LONG,
 OR THE H IS ATTACHED TO A WRONG O OR N ATOM IN PDB.


 ERROR: ATOM      288 FORMS NO BOND. THE BOND LENGTH MAY BE TOO LONG,
 OR THE H IS ATTACHED TO A WRONG O OR N ATOM IN PDB.


 ERROR: ATOM      289 FORMS NO BOND. THE BOND LENGTH MAY BE TOO LONG,
 OR THE H IS ATTACHED TO A WRONG O OR N ATOM IN PDB.


 ERROR: ATOM      290 FORMS NO BOND. THE BOND LENGTH MAY BE TOO LONG,
 OR THE H IS ATTACHED TO A WRONG O OR N ATOM IN PDB.


 ERROR: ATOM      291 FORMS NO BOND. THE BOND LENGTH MAY BE TOO LONG,
 OR THE H IS ATTACHED TO A WRONG O OR N ATOM IN PDB.


 ERROR: ATOM      292 FORMS NO BOND. THE BOND LENGTH MAY BE TOO LONG,
 OR THE H IS ATTACHED TO A WRONG O OR N ATOM IN PDB.


 ERROR: ATOM      293 FORMS NO BOND. THE BOND LENGTH MAY BE TOO LONG,
 OR THE H IS ATTACHED TO A WRONG O OR N ATOM IN PDB.

 WARNING: ATOM      294 FORMS NO BOND.
 WARNING: ATOM      295 FORMS NO BOND.
 WARNING: ATOM      296 FORMS NO BOND.
 WARNING: ATOM      297 FORMS NO BOND.
 WARNING: ATOM      298 FORMS NO BOND.
 WARNING: ATOM      299 FORMS NO BOND.
 WARNING: ATOM      300 FORMS NO BOND.
 WARNING: ATOM      301 FORMS NO BOND.
 WARNING: ATOM      302 FORMS NO BOND.
 WARNING: ATOM      303 FORMS NO BOND.
 WARNING: ATOM      304 FORMS NO BOND.
 WARNING: ATOM      305 FORMS NO BOND.
 WARNING: ATOM      306 FORMS NO BOND.
 WARNING: ATOM      307 FORMS NO BOND.
 WARNING: ATOM      308 FORMS NO BOND.
 WARNING: ATOM      309 FORMS NO BOND.
 WARNING: ATOM      310 FORMS NO BOND.
 WARNING: ATOM      311 FORMS NO BOND.
 WARNING: ATOM      312 FORMS NO BOND.
 WARNING: ATOM      313 FORMS NO BOND.

 ERROR: ATOM      314 FORMS NO BOND. THE BOND LENGTH MAY BE TOO LONG,
 OR THE H IS ATTACHED TO A WRONG O OR N ATOM IN PDB.


 ERROR: ATOM      315 FORMS NO BOND. THE BOND LENGTH MAY BE TOO LONG,
 OR THE H IS ATTACHED TO A WRONG O OR N ATOM IN PDB.


 ERROR: ATOM      316 FORMS NO BOND. THE BOND LENGTH MAY BE TOO LONG,
 OR THE H IS ATTACHED TO A WRONG O OR N ATOM IN PDB.


 ERROR: ATOM      317 FORMS NO BOND. THE BOND LENGTH MAY BE TOO LONG,
 OR THE H IS ATTACHED TO A WRONG O OR N ATOM IN PDB.


 ERROR: ATOM      318 FORMS NO BOND. THE BOND LENGTH MAY BE TOO LONG,
 OR THE H IS ATTACHED TO A WRONG O OR N ATOM IN PDB.


 ERROR: ATOM      319 FORMS NO BOND. THE BOND LENGTH MAY BE TOO LONG,
 OR THE H IS ATTACHED TO A WRONG O OR N ATOM IN PDB.


 ERROR: ATOM      320 FORMS NO BOND. THE BOND LENGTH MAY BE TOO LONG,
 OR THE H IS ATTACHED TO A WRONG O OR N ATOM IN PDB.


 ERROR: ATOM      321 FORMS NO BOND. THE BOND LENGTH MAY BE TOO LONG,
 OR THE H IS ATTACHED TO A WRONG O OR N ATOM IN PDB.


 ERROR: ATOM      322 FORMS NO BOND. THE BOND LENGTH MAY BE TOO LONG,
 OR THE H IS ATTACHED TO A WRONG O OR N ATOM IN PDB.


 ERROR: ATOM      323 FORMS NO BOND. THE BOND LENGTH MAY BE TOO LONG,
 OR THE H IS ATTACHED TO A WRONG O OR N ATOM IN PDB.


 ERROR: ATOM      324 FORMS NO BOND. THE BOND LENGTH MAY BE TOO LONG,
 OR THE H IS ATTACHED TO A WRONG O OR N ATOM IN PDB.


 ERROR: ATOM      325 FORMS NO BOND. THE BOND LENGTH MAY BE TOO LONG,
 OR THE H IS ATTACHED TO A WRONG O OR N ATOM IN PDB.

  
 GENERATING 1-2, 1-3, 1-4 EXCLUSION LISTS...
 STEP CPU TIME =     0.01 TOTAL CPU TIME =        0.0 (    0.0 MIN)
 TOTAL WALL CLOCK TIME=        0.1 SECONDS, CPU UTILIZATION IS  80.00%
  
 TOTAL MM    CHARGE =       0.0000000 IN $FFDATA OR $FFPDB.
  
 ASSIGNING INITIAL VELOCITY...
 STEP CPU TIME =     0.00 TOTAL CPU TIME =        0.0 (    0.0 MIN)
 TOTAL WALL CLOCK TIME=        0.1 SECONDS, CPU UTILIZATION IS  80.00%
  
 NFFAT   =         325       NBOND   =         350       NANGL   =         622
 NDIHR   =           0       NDIHB   =           0       NWAGG   =           0
  
  
     $QUANPO OPTIONS
     ---------------

 MXFFAT  =         500       MXBOND  =        1100       MXANGL  =        1500
 MXDIHR  =        1800       MXDIHB  =         300       MXWAGG  =         500
 XBOX    = 1.00000E+30       YBOX    = 1.00000E+30       ZBOX    = 1.00000E+30
 CENTX   =-9.84900E+00       CENTY   = 1.62265E+01       CENTZ   =-2.81250E+00
 IEWALD  =           0       KEWALD  =          10       SPLIT   =      0.1500
 ISHIFT  =           0       SWRA    = 1.00000E+29       SWRB    = 1.00000E+30
 ISWITCH =           1       SWRAQ   = 1.00000E+29       SWRBQ   = 1.00000E+30
 ISPHSOL =           0       RXNEPS  =     78.3900       RSPHSOL = 1.00000E+30
 SPHSIG  =      1.5000       SPHEPS  =      0.1500       SPHRAD  = 1.00000E+30
 IDOCHG  =           1       IDOPOL  =           0       IDOLJ   =           1
 DT      = 1.00000E-16       NSTEP   =           1       INTALG  =           1
 TEMP0   =    298.1500       ITSTAT  =           0       LJSIGMA =           0
 PRES0   =      1.0000       IPSTAT  =           0       NATPDB  =         325
 MXLIST1 =         700       BUFWID1 =      3.0000       IRMDF   =           0
 MXLIST2 =         700       BUFWID2 =      3.0000       KOUTPBC =           0
 JOUT    =           1       KOUT    =           1       LOUT    =           0
 NFFTYP  =       30000       NFFFILE =           3       MMHESS  =           0
 WT14LJ  =   1.0000000       WT14CH  =   0.8333333       IDOCMAP =           1
 IHESS   =           0       POLTOL  = 1.00000E-09       MXCHECK =         100
 NRDF    =           0       DELRDF  =      0.0500       DIFFUSE =           0
 NRALL   =           0       NRMSD   =           0       NGYRA   =           0
 TIMRALL = 1.00000E-12       TIMGYRA = 1.00000E-12       TIMDFS  = 3.00000E-12
 NRIJMM  =           0       NDIEL   =           1       JUMBUP  =           0
 NRIJQM  =           0       NAIJKMM =           0       NAIJKQM =           0
 IADDNA1 =           0       IADDK1  =           0       IADDCL1 =           0
 IADDCA2 =           0       IADDMG2 =           0       IADDWAT =           0
 ITYPWAT =           0       JADDNA1 =           0       JADDK1  =           0
 NRANDOM =           0       NFOLD   =           0       RFOLD   =      0.0000
 ICOMBIN =           0       IDELETE =           0       ISCOOP  =           0
 RETAIN  =      0.5000       QMREP   =           0       LJQMMM  =           1
 RDAMP   =      3.0000       INTCHG  =           1       FIXTOL  = 1.00000E-10
 IFIXSOL =           1       MXFFTS  =       37500       NTSATM  =          60
 NFIXQM  =           0       NFIXMM  =           0       IPOLSHF =           0
 NFIXQMB =           0       NFIXMMB =           0       IFEPTYP =           0
 IFEPTOP =           0       KFREEA  =           0       KFREEB  =           0
 WSIMUL  =      0.0000       WPERT1  =      1.0000       WPERT2  =      1.0000
 MATOMA  =           0       MCHARGA =           0       MULTA   =           1
 MATOMB  =           0       MCHARGB =           0       MULTB   =           1
 ISOFTCR =           0       SOFTALJ =      0.3000       SOFTACH =      2.8000
 IRATTLE =           0       RATOLC  = 1.00000E-05       RATOLV  = 1.00000E-08
 JRATTLE =           0       MXRATT  =         200       SCALRAT =      1.0000
 MEANFLD =           0       MFMERGE =          20       MFQMCHG =          10
 SCFTYP2 =    RHF            TDDFT2  =    NONE           CITYP2  =    NONE    
 MPLEVL2 =           0       ICHARG2 =           0       MULT2   =           1
 IRATQM  =           0       JUMBPOT =           0       JUM2POT =           0
 MMFF94Q =         110       IVIBMM  =           0       BEREND  = 2.00000E-13
 MXCMAP  =         200       NRDEN   =           0       MATCHAB =           0
 PARFILE =     PARFILE       TOPFILE =     TOPFILE       TOPAMIA =     TOPAMIA
 TOPCTER =     TOPCTER       TOPNTER =     TOPNTER       TOPNUCA =     TOPNUCA
 IPODAMP =           0       LACTQM  =           0       LACTMM  =           0
 APODAMP =    0.000000       IPO1213 =           0       PARFIL2 =     PARFIL2
 PARFIL3 =     PARFIL3       NRADMM  =           0       NRADQM  =           0
 RALLMM  =    0.000000       RALLQM  =    0.000000       KOUTACT =           0
  
  
     *****************************************
     $FFDATA GROUP IS PRINTED IN THE .DAT FILE
     *****************************************
  
  
 STEP CPU TIME =     0.01 TOTAL CPU TIME =        0.0 (    0.0 MIN)
 TOTAL WALL CLOCK TIME=        0.1 SECONDS, CPU UTILIZATION IS  83.33%
  
 UPDATING LARGE NEIGHBOR LIST AT STEP          0
  
 STEP CPU TIME =     0.00 TOTAL CPU TIME =        0.0 (    0.0 MIN)
 TOTAL WALL CLOCK TIME=        0.1 SECONDS, CPU UTILIZATION IS  83.33%
  
  
   ** QUANPOL IS SUCCESSFULLY LOADED **
  
 STEP CPU TIME =     0.00 TOTAL CPU TIME =        0.0 (    0.0 MIN)
 TOTAL WALL CLOCK TIME=        0.1 SECONDS, CPU UTILIZATION IS  83.33%

     $CONTRL OPTIONS
     ---------------
 SCFTYP=RHF          RUNTYP=MD           EXETYP=RUN     
 MPLEVL=       0     CITYP =NONE         CCTYP =NONE         VBTYP =NONE    
 DFTTYP=NONE         TDDFT =NONE    
 MULT  =       1     ICHARG=       0     NZVAR =       0     COORD =FRAGONLY
 PP    =NONE         RELWFN=NONE         LOCAL =NONE         NUMGRD=       F
 ISPHER=      -1     NOSYM =       0     MAXIT =      30     UNITS =ANGS    
 PLTORB=       F     MOLPLT=       F     AIMPAC=       F     FRIEND=        
 NPRINT=       7     IREST =       0     GEOM  =INPUT   
 NORMF =       0     NORMP =       0     ITOL  =      20     ICUT  =       9
 INTTYP=BEST         GRDTYP=BEST         QMTTOL= 1.0E-06

     $SYSTEM OPTIONS
     ---------------
  REPLICATED MEMORY=    50000000 WORDS (ON EVERY NODE).
 DISTRIBUTED MEMDDI=           0 MILLION WORDS IN AGGREGATE,
 MEMDDI DISTRIBUTED OVER   1 PROCESSORS IS           0 WORDS/PROCESSOR.
 TOTAL MEMORY REQUESTED ON EACH PROCESSOR=    50000000 WORDS.
 TIMLIM=      999999.00 MINUTES, OR     694.4 DAYS.
 PARALL= F  BALTYP=  DLB     KDIAG=    0  COREFL= F
 MXSEQ2=     300 MXSEQ3=     150  mem10=         0

          ----------------
          PROPERTIES INPUT
          ----------------

     MOMENTS            FIELD           POTENTIAL          DENSITY
 IEMOM =       1   IEFLD =       0   IEPOT =       0   IEDEN =       0
 WHERE =COMASS     WHERE =NUCLEI     WHERE =NUCLEI     WHERE =NUCLEI  
 OUTPUT=BOTH       OUTPUT=BOTH       OUTPUT=BOTH       OUTPUT=BOTH    
 IEMINT=       0   IEFINT=       0                     IEDINT=       0
                                                       MORB  =       0
          EXTRAPOLATION IN EFFECT
 ORBITAL PRINTING OPTION: NPREO=     1     0     2     1

     -------------------------------
     INTEGRAL TRANSFORMATION OPTIONS
     -------------------------------
     NWORD  =            0
     CUTOFF = 1.0E-09     MPTRAN =       0
     DIRTRF =       F     AOINTS =DUP     

          ----------------------
          INTEGRAL INPUT OPTIONS
          ----------------------
 NOPK  =       1 NORDER=       0 SCHWRZ=       F

 ..... DONE SETTING UP THE RUN .....
 STEP CPU TIME =     0.01 TOTAL CPU TIME =        0.1 (    0.0 MIN)
 TOTAL WALL CLOCK TIME=        0.1 SECONDS, CPU UTILIZATION IS  85.71%
  
 STEP CPU TIME =     0.00 TOTAL CPU TIME =        0.1 (    0.0 MIN)
 TOTAL WALL CLOCK TIME=        0.1 SECONDS, CPU UTILIZATION IS  85.71%
  
 UPDATING LARGE NEIGHBOR LIST AT STEP          0
  
 STEP CPU TIME =     0.00 TOTAL CPU TIME =        0.1 (    0.0 MIN)
 TOTAL WALL CLOCK TIME=        0.1 SECONDS, CPU UTILIZATION IS  85.71%
  
  
 ======================= QUANPOL MD SIMULATION INITIATED =======================
  
 FIXSOL TOTAL SURFACE AREA =     2112.1221724385 A**2, NFFTS=    3719
 FIXSOL CONVERGED IN   1 ITERATIONS, TOTAL SURFACE CHARGE=   0.000000
  
 MD STEP          0                                 TIME=                0.00 FS
 BOND STRETCHING               ENERGY =                   0.0000000000  KCAL/MOL
 BOND ANGLE BENDING            ENERGY =                   0.0000000000  KCAL/MOL
 STRETCHING BENDING            ENERGY =                   0.0000000000  KCAL/MOL
 DIHEDRAL ROTATION             ENERGY =                   0.0000000000  KCAL/MOL
 DIHEDRAL BENDING              ENERGY =                   0.0000000000  KCAL/MOL
 CMAP                          ENERGY =                   0.0000000000  KCAL/MOL
 WAGGING                       ENERGY =                   0.0000000000  KCAL/MOL
 LJ REPULSION                  ENERGY =                   0.0000000000  KCAL/MOL
 LJ DISPERSION                 ENERGY =                   0.0000000000  KCAL/MOL
 CHARGE                        ENERGY =                   0.0000000000  KCAL/MOL
 INDUCED DIPOLE                ENERGY =                   0.0000000000  KCAL/MOL
 SPHSOL                        ENERGY =                   0.0000000000  KCAL/MOL
 FIXSOL                        ENERGY =                   0.0000000000  KCAL/MOL
 QM CENTER                     ENERGY =                   0.0000000000  KCAL/MOL
 SPHERE                        ENERGY =                   0.0000000000  KCAL/MOL
 POTENTIAL                     ENERGY =                   0.0000000000  KCAL/MOL
 KINETIC                       ENERGY =                 287.0593001768  KCAL/MOL
 TOTAL                         ENERGY =                 287.0593001768  KCAL/MOL
 TEMPERATURE                          =                 298.1500000000  K
 PRESSURE                             =                   0.0000000000  BAR
 VOLUME                               =                                 OPEN SYSTEM
  
 STEP CPU TIME =     0.27 TOTAL CPU TIME =        0.3 (    0.0 MIN)
 TOTAL WALL CLOCK TIME=        0.3 SECONDS, CPU UTILIZATION IS  97.06%
  
 STEP CPU TIME =     0.00 TOTAL CPU TIME =        0.3 (    0.0 MIN)
 TOTAL WALL CLOCK TIME=        0.3 SECONDS, CPU UTILIZATION IS  97.06%
 STEP CPU TIME =     0.00 TOTAL CPU TIME =        0.3 (    0.0 MIN)
 TOTAL WALL CLOCK TIME=        0.3 SECONDS, CPU UTILIZATION IS  97.06%
 FIXSOL TOTAL SURFACE AREA =     2112.1369530472 A**2, NFFTS=    3716
 FIXSOL CONVERGED IN   1 ITERATIONS, TOTAL SURFACE CHARGE=   0.000000
  
 MD STEP          1                                 TIME=                0.10 FS
 BOND STRETCHING               ENERGY =                   0.0000000000  KCAL/MOL
 BOND ANGLE BENDING            ENERGY =                   0.0000000000  KCAL/MOL
 STRETCHING BENDING            ENERGY =                   0.0000000000  KCAL/MOL
 DIHEDRAL ROTATION             ENERGY =                   0.0000000000  KCAL/MOL
 DIHEDRAL BENDING              ENERGY =                   0.0000000000  KCAL/MOL
 CMAP                          ENERGY =                   0.0000000000  KCAL/MOL
 WAGGING                       ENERGY =                   0.0000000000  KCAL/MOL
 LJ REPULSION                  ENERGY =                   0.0000000000  KCAL/MOL
 LJ DISPERSION                 ENERGY =                   0.0000000000  KCAL/MOL
 CHARGE                        ENERGY =                   0.0000000000  KCAL/MOL
 INDUCED DIPOLE                ENERGY =                   0.0000000000  KCAL/MOL
 SPHSOL                        ENERGY =                   0.0000000000  KCAL/MOL
 FIXSOL                        ENERGY =                   0.0000000000  KCAL/MOL
 QM CENTER                     ENERGY =                   0.0000000000  KCAL/MOL
 SPHERE                        ENERGY =                   0.0000000000  KCAL/MOL
 POTENTIAL                     ENERGY =                   0.0000000000  KCAL/MOL
 KINETIC                       ENERGY =                 287.0593001768  KCAL/MOL
 TOTAL                         ENERGY =                 287.0593001768  KCAL/MOL
 TEMPERATURE                          =                 298.1500000000  K
 PRESSURE                             =                   0.0000000000  BAR
 VOLUME                               =                                 OPEN SYSTEM
  
 AVERAGE POTENTIAL             ENERGY =                   0.0000000000  KCAL/MOL
 AVERAGE KINETIC               ENERGY =                 287.0593001768  KCAL/MOL
 AVERAGE TOTAL                 ENERGY =                 287.0593001768  KCAL/MOL
 AVERAGE TEMPERATURE                  =                 298.1500000000  K
 AVERAGE PRESSURE                     =                   0.0000000000  BAR
  
 STEP CPU TIME =     0.27 TOTAL CPU TIME =        0.6 (    0.0 MIN)
 TOTAL WALL CLOCK TIME=        0.6 SECONDS, CPU UTILIZATION IS  98.36%
  
 DIELECTRIC CONSTANT =           1.00000
 <M**2> = 0.00000000000000E+00 <M>**2 = 0.00000000000000E+00 (E*BOHR)**2
 DIPOLE MOMENT OF EACH MD STEP IS IN .DAT FILE.

 NATPDB DIE CONSTANT =           1.00000
 <M**2> = 0.00000000000000E+00 <M>**2 = 0.00000000000000E+00 (E*BOHR)**2
 DIPOLE MOMENT OF EACH MD STEP IS IN .DAT FILE.

 STEP CPU TIME =     0.00 TOTAL CPU TIME =        0.6 (    0.0 MIN)
 TOTAL WALL CLOCK TIME=        0.6 SECONDS, CPU UTILIZATION IS  98.36%
 STEP CPU TIME =     0.00 TOTAL CPU TIME =        0.6 (    0.0 MIN)
 TOTAL WALL CLOCK TIME=        0.6 SECONDS, CPU UTILIZATION IS  98.36%
  
 ================ QUANPOL MD SIMULATION SUCCESSFULLY COMPLETED =================
 ========= RESTART $DATA, $FFDATA, $FFDATB ARE IN .DAT AND .TRJ FILES ==========
  
 STEP CPU TIME =     0.00 TOTAL CPU TIME =        0.6 (    0.0 MIN)
 TOTAL WALL CLOCK TIME=        0.6 SECONDS, CPU UTILIZATION IS  96.77%
             23211395  WORDS OF DYNAMIC MEMORY USED
 EXECUTION OF GAMESS TERMINATED NORMALLY Fri Jun  2 02:19:58 2017
 DDI: 263640 bytes (0.3 MB / 0 MWords) used by master data server.

 ----------------------------------------
 CPU timing information for all processes
 ========================================
 0: 0.599 + 0.17 = 0.617
 ----------------------------------------
 ddikick.x: exited gracefully.
unset echo
----- accounting info -----
Files used on the master node compute-0-7.local were:
-rw-rw-r-- 1 sarom sarom 26907 Jun  2 02:19 /scratch/rna-3nj6-fixsol.F05
-rw-rw-r-- 1 sarom sarom     0 Jun  2 02:19 /scratch/rna-3nj6-fixsol.F08
-rw-rw-r-- 1 sarom sarom 32720 Jun  2 02:20 /scratch/rna-3nj6-fixsol.F10
removed `/scratch/fort.16'
rm: cannot remove `/scratch/sarom': Is a directory
rm: cannot remove `/scratch/tmp': Is a directory
ls: No match.
ls: No match.
ls: No match.
Fri Jun  2 02:20:01 CDT 2017
0.255u 0.282s 0:04.23 12.5%	0+0k 56+424io 0pf+0w
Deleting shmid=2523136.
Deleting shmid=2555905.
Deleting shmid=2785282.
/opt/gridengine/default/spool/compute-0-7/active_jobs/23725.1/pe_hostfile compute-0-7.local
