----- GAMESS execution script 'rungms' -----
This job is running on host bolt.iprt.iastate.edu
under operating system Linux at Tue Nov 29 15:28:11 CST 2016
Available scratch disk space (Kbyte units) at beginning of the job is
Filesystem           1K-blocks      Used Available Use% Mounted on
/dev/sda4            9590469592 1553711736 7549589960  18% /state/partition1
Copying input file si199h92-3.inp to your run's scratch directory...
cp si199h92-3.inp .//si199h92-3.F05
unset echo
/home/sarom/gamessGH/ddikick.x /home/sarom/gamessGH/gamess.00.x si199h92-3 -ddi 1 1 localhost -scr ./

 Distributed Data Interface kickoff program.
 Initiating 1 compute processes on 1 nodes to run the following command:
 /home/sarom/gamessGH/gamess.00.x si199h92-3 

          ******************************************************
          *         GAMESS VERSION = 18 AUG 2016 (R1)          *
          *             FROM IOWA STATE UNIVERSITY             *
          * M.W.SCHMIDT, K.K.BALDRIDGE, J.A.BOATZ, S.T.ELBERT, *
          *   M.S.GORDON, J.H.JENSEN, S.KOSEKI, N.MATSUNAGA,   *
          *          K.A.NGUYEN, S.J.SU, T.L.WINDUS,           *
          *       TOGETHER WITH M.DUPUIS, J.A.MONTGOMERY       *
          *         J.COMPUT.CHEM.  14, 1347-1363(1993)        *
          **************** 64 BIT LINUX VERSION ****************

  SINCE 1993, STUDENTS AND POSTDOCS WORKING AT IOWA STATE UNIVERSITY
  AND ALSO IN THEIR VARIOUS JOBS AFTER LEAVING ISU HAVE MADE IMPORTANT
  CONTRIBUTIONS TO THE CODE:
     IVANA ADAMOVIC, CHRISTINE AIKENS, YURI ALEXEEV, POOJA ARORA,
     ANDREY ASADCHEV, ROB BELL, PRADIPTA BANDYOPADHYAY, JONATHAN BENTZ,
     BRETT BODE, KURT BRORSEN, CALEB CARLIN, GALINA CHABAN, WEI CHEN,
     CHEOL HO CHOI, PAUL DAY, ALBERT DEFUSCO, NUWAN DESILVA, TIM DUDLEY,
     DMITRI FEDOROV, GRAHAM FLETCHER, MARK FREITAG, KURT GLAESEMANN,
     DAN KEMP, GRANT MERRILL, NORIYUKI MINEZAWA, JONATHAN MULLIN,
     TAKESHI NAGATA, SEAN NEDD, HEATHER NETZLOFF, BOSILJKA NJEGIC, RYAN OLSON,
     MIKE PAK, SPENCER PRUITT, LUKE ROSKOP, JIM SHOEMAKER, LYUDMILA SLIPCHENKO,
     TONY SMITH, SAROM SOK LEANG, JIE SONG, TETSUYA TAKETSUGU, SIMON WEBB,
     PENG XU, SOOHAENG YOO, FEDERICO ZAHARIEV

  ADDITIONAL CODE HAS BEEN PROVIDED BY COLLABORATORS IN OTHER GROUPS:
     IOWA STATE UNIVERSITY:
          JOE IVANIC, AARON WEST, LAIMUTIS BYTAUTAS, KLAUS RUEDENBERG
     UNIVERSITY OF TOKYO: KIMIHIKO HIRAO, TAKAHITO NAKAJIMA,
          TAKAO TSUNEDA, MUNEAKI KAMIYA, SUSUMU YANAGISAWA,
          KIYOSHI YAGI, MAHITO CHIBA, SEIKEN TOKURA, NAOAKI KAWAKAMI
     UNIVERSITY OF AARHUS: FRANK JENSEN
     UNIVERSITY OF IOWA: VISVALDAS KAIRYS, HUI LI
     NATIONAL INST. OF STANDARDS AND TECHNOLOGY: WALT STEVENS, DAVID GARMER
     UNIVERSITY OF PISA: BENEDETTA MENNUCCI, JACOPO TOMASI
     UNIVERSITY OF MEMPHIS: HENRY KURTZ, PRAKASHAN KORAMBATH
     UNIVERSITY OF ALBERTA: TOBY ZENG, MARIUSZ KLOBUKOWSKI
     UNIVERSITY OF NEW ENGLAND: MARK SPACKMAN
     MIE UNIVERSITY: HIROAKI UMEDA
     NAT. INST. OF ADVANCED INDUSTRIAL SCIENCE AND TECHNOLOGY: KAZUO KITAURA
     MICHIGAN STATE UNIVERSITY:
          KAROL KOWALSKI, MARTA WLOCH, JEFFREY GOUR, JESSE LUTZ,
          WEI LI, PIOTR PIECUCH
     UNIVERSITY OF SILESIA: MONIKA MUSIAL, STANISLAW KUCHARSKI
     FACULTES UNIVERSITAIRES NOTRE-DAME DE LA PAIX:
          OLIVIER QUINET, BENOIT CHAMPAGNE
     UNIVERSITY OF CALIFORNIA - SANTA BARBARA: BERNARD KIRTMAN
     INSTITUTE FOR MOLECULAR SCIENCE:
          KAZUYA ISHIMURA, MICHIO KATOUDA, AND SHIGERU NAGASE
     UNIVERSITY OF NOTRE DAME: ANNA POMOGAEVA, DAN CHIPMAN
     KYUSHU UNIVERSITY:
          HARUYUKI NAKANO,
          FENG LONG GU, JACEK KORCHOWIEC, MARCIN MAKOWSKI, AND YURIKO AOKI,
          HIROTOSHI MORI AND EISAKU MIYOSHI
     PENNSYLVANIA STATE UNIVERSITY:
          TZVETELIN IORDANOV, CHET SWALINA, JONATHAN SKONE,
          SHARON HAMMES-SCHIFFER
     WASEDA UNIVERSITY:
          MASATO KOBAYASHI, TOMOKO AKAMA, TSUGUKI TOUMA,
          TAKESHI YOSHIKAWA, YASUHIRO IKABATA, JUNJI SEINO,
          YUYA NAKAJIMA, HIROMI NAKAI
     NANJING UNIVERSITY: SHUHUA LI
     UNIVERSITY OF NEBRASKA:
          PEIFENG SU, DEJUN SI, NANDUN THELLAMUREGE, YALI WANG, HUI LI
     UNIVERSITY OF ZURICH: ROBERTO PEVERATI, KIM BALDRIDGE
     N. COPERNICUS UNIVERSITY AND JACKSON STATE UNIVERSITY:
          MARIA BARYSZ
     UNIVERSITY OF COPENHAGEN: Jimmy Kromann, CASPER STEINMANN
     TOKYO INSTITUTE OF TECHNOLOGY: HIROYA NAKATA
     NAGOYA UNIVERSITY: YOSHIO NISHIMOTO, STEPHAN IRLE
     MOSCOW STATE UNIVERSITY: VLADIMIR MIRONOV

 EXECUTION OF GAMESS BEGUN Tue Nov 29 15:28:11 2016

            ECHO OF THE FIRST FEW INPUT CARDS -
 INPUT CARD>!   Si199,H94 model for Si(100).   run #3, 15 atoms are converted to QM.        
 INPUT CARD>!                                                                               
 INPUT CARD>!   It is easy to run QM/MM using QuanPol.                                      
 INPUT CARD>! (1) You can copy some atoms from $FFDATA (or $FFPDB) to $DATA                 
 INPUT CARD>!     You do not have to (sometimes cannot) delete these atoms from $FFDATA.    
 INPUT CARD>! (2) You can add atoms that are not in $FFDATA.                                
 INPUT CARD>!                                                                               
 INPUT CARD>! TOTAL     ENERGY =  -2704641.4071289133  KCAL/MOL                             
 INPUT CARD>! TOTAL     ENERGY =  -2704641.4070482133  KCAL/MOL                             
 INPUT CARD>!                                                                               
 INPUT CARD> $CONTRL SCFTYP=UHF RUNTYP=MD $END                                              
 INPUT CARD> $BASIS  GBASIS=MINI $END                                                       
 INPUT CARD> $SCF    DIRSCF=.T. FDIFF=.F. DIIS=.T. $END                                     
 INPUT CARD> $SYSTEM TIMLIM=9999 MWORDS=50 $END                                             
 INPUT CARD> $QUANPO DT=1.0D-16 TEMP0=298.15 NSTEP=1 NFFTYP=0 $END                          
 INPUT CARD> $DATA                                                                          
 INPUT CARD>  15 SI ATOMS COPIED FROM $FFDATA (FIRST 15 ATOMS)                              
 INPUT CARD> C1                                                                             
 INPUT CARD> SI          14.0    -1.9429119800000    -3.8307359200000     0.1066120000000   
 INPUT CARD> SI          14.0     1.6015059900000    -3.8336720500000     0.5325110000000   
 INPUT CARD> SI          14.0    -1.8945510400000     4.0811018900000    -0.2413470000000   
 INPUT CARD> SI          14.0     1.6498620500000     4.0781660100000     0.1845520000000   
 INPUT CARD> SI          14.0     0.0158320000000    -3.9336431000000    -1.2335259900000   
 INPUT CARD> SI          14.0     0.0645810000000     4.0420599000000    -1.5842989700000   
 INPUT CARD> SI          14.0    -1.4382480400000    -1.8189389700000     1.2566109900000   
 INPUT CARD> SI          14.0     0.8420659900000    -1.8208260500000     1.5306179500000   
 INPUT CARD> SI          14.0    -1.4138549600000     2.1720199600000     1.0810910500000   
 INPUT CARD> SI          14.0     0.8664590100000     2.1701300100000     1.3551039700000   
 INPUT CARD> SI          14.0     0.1827070000000    -1.9822009800000    -2.6088500000000   
 INPUT CARD> SI          14.0     0.2068990000000     1.9755320500000    -2.7829151200000   
 INPUT CARD> SI          14.0    -1.8949619500000     0.1278540000000    -0.0033670000000   
 INPUT CARD> SI          14.0     1.5874290500000     0.1249710000000     0.4150680000000   
 INPUT CARD> SI          14.0     0.0369740000000     0.0554140000000    -1.3820619600000   
 INPUT CARD> $END                                                                           
 INPUT CARD> $FFDATA       !   FROM LOUT=1, TOTAL MM CHARGE = 0.000000, MAY NEED EDITING    
 INPUT CARD> COORDINATES  NUC                   X                   Y                   Z   
 INPUT CARD> SI          14.0    -1.9429119800000    -3.8307359200000     0.1066120000000   
 INPUT CARD> SI          14.0     1.6015059900000    -3.8336720500000     0.5325110000000   
 INPUT CARD> SI          14.0    -1.8945510400000     4.0811018900000    -0.2413470000000   
 INPUT CARD> SI          14.0     1.6498620500000     4.0781660100000     0.1845520000000   
 INPUT CARD> SI          14.0     0.0158320000000    -3.9336431000000    -1.2335259900000   
 INPUT CARD> SI          14.0     0.0645810000000     4.0420599000000    -1.5842989700000   
 INPUT CARD> SI          14.0    -1.4382480400000    -1.8189389700000     1.2566109900000   
 INPUT CARD> SI          14.0     0.8420659900000    -1.8208260500000     1.5306179500000   
 INPUT CARD> SI          14.0    -1.4138549600000     2.1720199600000     1.0810910500000   
 INPUT CARD> SI          14.0     0.8664590100000     2.1701300100000     1.3551039700000   
 INPUT CARD> SI          14.0     0.1827070000000    -1.9822009800000    -2.6088500000000   
 INPUT CARD> SI          14.0     0.2068990000000     1.9755320500000    -2.7829151200000   
 INPUT CARD> SI          14.0    -1.8949619500000     0.1278540000000    -0.0033670000000   
 INPUT CARD> SI          14.0     1.5874290500000     0.1249710000000     0.4150680000000   
   50000000 WORDS OF MEMORY AVAILABLE

     BASIS OPTIONS
     -------------
     GBASIS=MINI         IGAUSS=       0      POLAR=NONE    
     NDFUNC=       0     NFFUNC=       0     DIFFSP=       F
     NPFUNC=       0      DIFFS=       F     BASNAM=        


     RUN TITLE
     ---------
   15 SI ATOMS COPIED FROM $FFDATA (FIRST 15 ATOMS)                              

 THE POINT GROUP OF THE MOLECULE IS C1      
 THE ORDER OF THE PRINCIPAL AXIS IS     0

 ATOM      ATOMIC                      COORDINATES (BOHR)
           CHARGE         X                   Y                   Z
 SI         14.0    -3.6715712605       -7.2390412201        0.2014674670
 SI         14.0     3.0264074888       -7.2445897013        1.0062998754
 SI         14.0    -3.5801823354        7.7121643001       -0.4560796980
 SI         14.0     3.1177871920        7.7066162913        0.3487527105
 SI         14.0     0.0299181418       -7.4335075925       -2.3310261198
 SI         14.0     0.1220403940        7.6383856370       -2.9938909359
 SI         14.0    -2.7178946980       -3.4372962417        2.3746504443
 SI         14.0     1.5912739847       -3.4408623058        2.8924485174
 SI         14.0    -2.6717984608        4.1045225643        2.0429658523
 SI         14.0     1.6373701085        4.1009510766        2.5607751882
 SI         14.0     0.3452661660       -3.7458167048       -4.9300116431
 SI         14.0     0.3909824171        3.7332142545       -5.2589470239
 SI         14.0    -3.5809588427        0.2416090264       -0.0063627074
 SI         14.0     2.9998059294        0.2361609464        0.7843647863
 SI         14.0     0.0698707287        0.1047172759       -2.6117184025

     ATOMIC BASIS SET
     ----------------
 THE CONTRACTED PRIMITIVE FUNCTIONS HAVE BEEN UNNORMALIZED
 THE CONTRACTED BASIS FUNCTIONS ARE NOW NORMALIZED TO UNITY

  SHELL TYPE  PRIMITIVE        EXPONENT          CONTRACTION COEFFICIENT(S)

 SI        

      1   S       1           909.2348700    0.066405305184
      1   S       2           137.1245600    0.386221930152
      1   S       3            29.7148100    0.672240052482

      2   S       4            39.1294230   -0.090999399404
      2   S       5             3.3359807    0.611614895994
      2   S       6             1.2512594    0.456860197007

      3   P       7            37.8817610    0.108752500909
      3   P       8             8.3045980    0.463515203873
      3   P       9             2.1207924    0.611334305108

      4   S      10             2.1976486   -0.168732791728
      4   S      11             0.2759268    0.675452666888
      4   S      12             0.1004255    0.429419178949

      5   P      13             0.5457888    0.238913009702
      5   P      14             0.0760075    0.345452814029
      5   P      15             0.2082195    0.542294922023

 SI        

      6   S      16           909.2348700    0.066405305184
      6   S      17           137.1245600    0.386221930152
      6   S      18            29.7148100    0.672240052482

      7   S      19            39.1294230   -0.090999399404
      7   S      20             3.3359807    0.611614895994
      7   S      21             1.2512594    0.456860197007

      8   P      22            37.8817610    0.108752500909
      8   P      23             8.3045980    0.463515203873
      8   P      24             2.1207924    0.611334305108

      9   S      25             2.1976486   -0.168732791728
      9   S      26             0.2759268    0.675452666888
      9   S      27             0.1004255    0.429419178949

     10   P      28             0.5457888    0.238913009702
     10   P      29             0.0760075    0.345452814029
     10   P      30             0.2082195    0.542294922023

 SI        

     11   S      31           909.2348700    0.066405305184
     11   S      32           137.1245600    0.386221930152
     11   S      33            29.7148100    0.672240052482

     12   S      34            39.1294230   -0.090999399404
     12   S      35             3.3359807    0.611614895994
     12   S      36             1.2512594    0.456860197007

     13   P      37            37.8817610    0.108752500909
     13   P      38             8.3045980    0.463515203873
     13   P      39             2.1207924    0.611334305108

     14   S      40             2.1976486   -0.168732791728
     14   S      41             0.2759268    0.675452666888
     14   S      42             0.1004255    0.429419178949

     15   P      43             0.5457888    0.238913009702
     15   P      44             0.0760075    0.345452814029
     15   P      45             0.2082195    0.542294922023

 SI        

     16   S      46           909.2348700    0.066405305184
     16   S      47           137.1245600    0.386221930152
     16   S      48            29.7148100    0.672240052482

     17   S      49            39.1294230   -0.090999399404
     17   S      50             3.3359807    0.611614895994
     17   S      51             1.2512594    0.456860197007

     18   P      52            37.8817610    0.108752500909
     18   P      53             8.3045980    0.463515203873
     18   P      54             2.1207924    0.611334305108

     19   S      55             2.1976486   -0.168732791728
     19   S      56             0.2759268    0.675452666888
     19   S      57             0.1004255    0.429419178949

     20   P      58             0.5457888    0.238913009702
     20   P      59             0.0760075    0.345452814029
     20   P      60             0.2082195    0.542294922023

 SI        

     21   S      61           909.2348700    0.066405305184
     21   S      62           137.1245600    0.386221930152
     21   S      63            29.7148100    0.672240052482

     22   S      64            39.1294230   -0.090999399404
     22   S      65             3.3359807    0.611614895994
     22   S      66             1.2512594    0.456860197007

     23   P      67            37.8817610    0.108752500909
     23   P      68             8.3045980    0.463515203873
     23   P      69             2.1207924    0.611334305108

     24   S      70             2.1976486   -0.168732791728
     24   S      71             0.2759268    0.675452666888
     24   S      72             0.1004255    0.429419178949

     25   P      73             0.5457888    0.238913009702
     25   P      74             0.0760075    0.345452814029
     25   P      75             0.2082195    0.542294922023

 SI        

     26   S      76           909.2348700    0.066405305184
     26   S      77           137.1245600    0.386221930152
     26   S      78            29.7148100    0.672240052482

     27   S      79            39.1294230   -0.090999399404
     27   S      80             3.3359807    0.611614895994
     27   S      81             1.2512594    0.456860197007

     28   P      82            37.8817610    0.108752500909
     28   P      83             8.3045980    0.463515203873
     28   P      84             2.1207924    0.611334305108

     29   S      85             2.1976486   -0.168732791728
     29   S      86             0.2759268    0.675452666888
     29   S      87             0.1004255    0.429419178949

     30   P      88             0.5457888    0.238913009702
     30   P      89             0.0760075    0.345452814029
     30   P      90             0.2082195    0.542294922023

 SI        

     31   S      91           909.2348700    0.066405305184
     31   S      92           137.1245600    0.386221930152
     31   S      93            29.7148100    0.672240052482

     32   S      94            39.1294230   -0.090999399404
     32   S      95             3.3359807    0.611614895994
     32   S      96             1.2512594    0.456860197007

     33   P      97            37.8817610    0.108752500909
     33   P      98             8.3045980    0.463515203873
     33   P      99             2.1207924    0.611334305108

     34   S     100             2.1976486   -0.168732791728
     34   S     101             0.2759268    0.675452666888
     34   S     102             0.1004255    0.429419178949

     35   P     103             0.5457888    0.238913009702
     35   P     104             0.0760075    0.345452814029
     35   P     105             0.2082195    0.542294922023

 SI        

     36   S     106           909.2348700    0.066405305184
     36   S     107           137.1245600    0.386221930152
     36   S     108            29.7148100    0.672240052482

     37   S     109            39.1294230   -0.090999399404
     37   S     110             3.3359807    0.611614895994
     37   S     111             1.2512594    0.456860197007

     38   P     112            37.8817610    0.108752500909
     38   P     113             8.3045980    0.463515203873
     38   P     114             2.1207924    0.611334305108

     39   S     115             2.1976486   -0.168732791728
     39   S     116             0.2759268    0.675452666888
     39   S     117             0.1004255    0.429419178949

     40   P     118             0.5457888    0.238913009702
     40   P     119             0.0760075    0.345452814029
     40   P     120             0.2082195    0.542294922023

 SI        

     41   S     121           909.2348700    0.066405305184
     41   S     122           137.1245600    0.386221930152
     41   S     123            29.7148100    0.672240052482

     42   S     124            39.1294230   -0.090999399404
     42   S     125             3.3359807    0.611614895994
     42   S     126             1.2512594    0.456860197007

     43   P     127            37.8817610    0.108752500909
     43   P     128             8.3045980    0.463515203873
     43   P     129             2.1207924    0.611334305108

     44   S     130             2.1976486   -0.168732791728
     44   S     131             0.2759268    0.675452666888
     44   S     132             0.1004255    0.429419178949

     45   P     133             0.5457888    0.238913009702
     45   P     134             0.0760075    0.345452814029
     45   P     135             0.2082195    0.542294922023

 SI        

     46   S     136           909.2348700    0.066405305184
     46   S     137           137.1245600    0.386221930152
     46   S     138            29.7148100    0.672240052482

     47   S     139            39.1294230   -0.090999399404
     47   S     140             3.3359807    0.611614895994
     47   S     141             1.2512594    0.456860197007

     48   P     142            37.8817610    0.108752500909
     48   P     143             8.3045980    0.463515203873
     48   P     144             2.1207924    0.611334305108

     49   S     145             2.1976486   -0.168732791728
     49   S     146             0.2759268    0.675452666888
     49   S     147             0.1004255    0.429419178949

     50   P     148             0.5457888    0.238913009702
     50   P     149             0.0760075    0.345452814029
     50   P     150             0.2082195    0.542294922023

 SI        

     51   S     151           909.2348700    0.066405305184
     51   S     152           137.1245600    0.386221930152
     51   S     153            29.7148100    0.672240052482

     52   S     154            39.1294230   -0.090999399404
     52   S     155             3.3359807    0.611614895994
     52   S     156             1.2512594    0.456860197007

     53   P     157            37.8817610    0.108752500909
     53   P     158             8.3045980    0.463515203873
     53   P     159             2.1207924    0.611334305108

     54   S     160             2.1976486   -0.168732791728
     54   S     161             0.2759268    0.675452666888
     54   S     162             0.1004255    0.429419178949

     55   P     163             0.5457888    0.238913009702
     55   P     164             0.0760075    0.345452814029
     55   P     165             0.2082195    0.542294922023

 SI        

     56   S     166           909.2348700    0.066405305184
     56   S     167           137.1245600    0.386221930152
     56   S     168            29.7148100    0.672240052482

     57   S     169            39.1294230   -0.090999399404
     57   S     170             3.3359807    0.611614895994
     57   S     171             1.2512594    0.456860197007

     58   P     172            37.8817610    0.108752500909
     58   P     173             8.3045980    0.463515203873
     58   P     174             2.1207924    0.611334305108

     59   S     175             2.1976486   -0.168732791728
     59   S     176             0.2759268    0.675452666888
     59   S     177             0.1004255    0.429419178949

     60   P     178             0.5457888    0.238913009702
     60   P     179             0.0760075    0.345452814029
     60   P     180             0.2082195    0.542294922023

 SI        

     61   S     181           909.2348700    0.066405305184
     61   S     182           137.1245600    0.386221930152
     61   S     183            29.7148100    0.672240052482

     62   S     184            39.1294230   -0.090999399404
     62   S     185             3.3359807    0.611614895994
     62   S     186             1.2512594    0.456860197007

     63   P     187            37.8817610    0.108752500909
     63   P     188             8.3045980    0.463515203873
     63   P     189             2.1207924    0.611334305108

     64   S     190             2.1976486   -0.168732791728
     64   S     191             0.2759268    0.675452666888
     64   S     192             0.1004255    0.429419178949

     65   P     193             0.5457888    0.238913009702
     65   P     194             0.0760075    0.345452814029
     65   P     195             0.2082195    0.542294922023

 SI        

     66   S     196           909.2348700    0.066405305184
     66   S     197           137.1245600    0.386221930152
     66   S     198            29.7148100    0.672240052482

     67   S     199            39.1294230   -0.090999399404
     67   S     200             3.3359807    0.611614895994
     67   S     201             1.2512594    0.456860197007

     68   P     202            37.8817610    0.108752500909
     68   P     203             8.3045980    0.463515203873
     68   P     204             2.1207924    0.611334305108

     69   S     205             2.1976486   -0.168732791728
     69   S     206             0.2759268    0.675452666888
     69   S     207             0.1004255    0.429419178949

     70   P     208             0.5457888    0.238913009702
     70   P     209             0.0760075    0.345452814029
     70   P     210             0.2082195    0.542294922023

 SI        

     71   S     211           909.2348700    0.066405305184
     71   S     212           137.1245600    0.386221930152
     71   S     213            29.7148100    0.672240052482

     72   S     214            39.1294230   -0.090999399404
     72   S     215             3.3359807    0.611614895994
     72   S     216             1.2512594    0.456860197007

     73   P     217            37.8817610    0.108752500909
     73   P     218             8.3045980    0.463515203873
     73   P     219             2.1207924    0.611334305108

     74   S     220             2.1976486   -0.168732791728
     74   S     221             0.2759268    0.675452666888
     74   S     222             0.1004255    0.429419178949

     75   P     223             0.5457888    0.238913009702
     75   P     224             0.0760075    0.345452814029
     75   P     225             0.2082195    0.542294922023

 TOTAL NUMBER OF BASIS SET SHELLS             =   75
 NUMBER OF CARTESIAN GAUSSIAN BASIS FUNCTIONS =  135
 NUMBER OF ELECTRONS                          =  210
 CHARGE OF MOLECULE                           =    0
 SPIN MULTIPLICITY                            =    1
 NUMBER OF OCCUPIED ORBITALS (ALPHA)          =  105
 NUMBER OF OCCUPIED ORBITALS (BETA )          =  105
 TOTAL NUMBER OF ATOMS                        =   15
 THE NUCLEAR REPULSION ENERGY IS     2739.0543943517
  
 ===================================================
                       QUANPOL                      
  QUANTUM CHEMISTRY POLARIZABLE FORCE FIELD PROGRAM 
     NANDUN THELLAMUREGE, DEJUN SI, FENGCHAO CUI    
             HONGBO ZHU, RUI LAI, HUI LI            
                  LI RESEARCH GROUP                 
           UNIVERSITY OF NEBRASKA-LINCOLN           
             - - - - 2016-02-03 - - - -             
     QM/MM AND QM/MM/CONTINUUM STYLE CALCULATION    
    USING HF, DFT, GVB, MCSCF, MP2, TDDFT METHODS   
 ===================================================
 STEP CPU TIME =     0.12 TOTAL CPU TIME =        0.1 (    0.0 MIN)
 TOTAL WALL CLOCK TIME=        0.1 SECONDS, CPU UTILIZATION IS  92.31%

 READ $QUANPO GROUP...

 STEP CPU TIME =     0.00 TOTAL CPU TIME =        0.1 (    0.0 MIN)
 TOTAL WALL CLOCK TIME=        0.1 SECONDS, CPU UTILIZATION IS  92.31%

 $QUANPO CHECK UP...

 STEP CPU TIME =     0.00 TOTAL CPU TIME =        0.1 (    0.0 MIN)
 TOTAL WALL CLOCK TIME=        0.1 SECONDS, CPU UTILIZATION IS  92.31%

 DETERMINE MXFFAT...

 STEP CPU TIME =     0.01 TOTAL CPU TIME =        0.1 (    0.0 MIN)
 TOTAL WALL CLOCK TIME=        0.2 SECONDS, CPU UTILIZATION IS  86.67%

 MEMORY REQUIRED BY QUANPOL IS       629880 WORDS ON EACH PROCESSOR.
 INPUT SMALLER MXFFAT, MXBOND, MXANGL, MXDIHR, MXDIHB AND MXWAGG.
 ACTUAL NFFAT, NBOND, NANGL, NDIHR, NDIHB AND NWAGG ARE PRINTED BELOW.
  
 PROCESSING $FFDATA...
  
  
 STEP CPU TIME =     0.07 TOTAL CPU TIME =        0.2 (    0.0 MIN)
 TOTAL WALL CLOCK TIME=        0.2 SECONDS, CPU UTILIZATION IS  95.24%

 CALL PREPARE...

  
 GENERATING 1-2, 1-3, 1-4 EXCLUSION LISTS...
 STEP CPU TIME =     0.01 TOTAL CPU TIME =        0.2 (    0.0 MIN)
 TOTAL WALL CLOCK TIME=        0.2 SECONDS, CPU UTILIZATION IS  95.45%
  
 TOTAL MM    CHARGE =       0.0000000 IN $FFDATA OR $FFPDB.
  
 THE FOLLOWING   15 MM ATOMS ARE QM ATOMS:
               1       2       3       4       5       6       7       8  >
               9      10      11      12      13      14      15
  
  
 WARNING: NO QMREP IS USED FOR QM CAPPING ATOM      5
 WARNING: NO QMREP IS USED FOR QM CAPPING ATOM      5
 WARNING: NO QMREP IS USED FOR QM CAPPING ATOM      6
 WARNING: NO QMREP IS USED FOR QM CAPPING ATOM      6
 WARNING: NO QMREP IS USED FOR QM CAPPING ATOM     11
 WARNING: NO QMREP IS USED FOR QM CAPPING ATOM     12
 WARNING: NO QMREP IS USED FOR QM CAPPING ATOM     13
 WARNING: NO QMREP IS USED FOR QM CAPPING ATOM     14
 WARNING: NO QMREP IS USED FOR QM CAPPING ATOM     13
 WARNING: NO QMREP IS USED FOR QM CAPPING ATOM     14
 WARNING: NO QMREP IS USED FOR QM CAPPING ATOM      1
 WARNING: NO QMREP IS USED FOR QM CAPPING ATOM      1
 WARNING: NO QMREP IS USED FOR QM CAPPING ATOM      2
 WARNING: NO QMREP IS USED FOR QM CAPPING ATOM      2
 WARNING: NO QMREP IS USED FOR QM CAPPING ATOM      3
 WARNING: NO QMREP IS USED FOR QM CAPPING ATOM      3
 WARNING: NO QMREP IS USED FOR QM CAPPING ATOM      4
 WARNING: NO QMREP IS USED FOR QM CAPPING ATOM      4
 WARNING: NO QMREP IS USED FOR QM CAPPING ATOM      5
 WARNING: NO QMREP IS USED FOR QM CAPPING ATOM      6
 WARNING: NO QMREP IS USED FOR QM CAPPING ATOM     11
 WARNING: NO QMREP IS USED FOR QM CAPPING ATOM     12
 WARNING: NO QMREP IS USED FOR QM CAPPING ATOM     13
 WARNING: NO QMREP IS USED FOR QM CAPPING ATOM     14
  
 ASSIGNING INITIAL VELOCITY...
 STEP CPU TIME =     0.00 TOTAL CPU TIME =        0.2 (    0.0 MIN)
 TOTAL WALL CLOCK TIME=        0.2 SECONDS, CPU UTILIZATION IS  95.45%
  
 NFFAT   =         291       NBOND   =         432       NANGL   =        1122
 NDIHR   =        2856       NDIHB   =           0       NWAGG   =           0
  
  
     $QUANPO OPTIONS
     ---------------

 MXFFAT  =         400       MXBOND  =         600       MXANGL  =        1300
 MXDIHR  =        3000       MXDIHB  =         200       MXWAGG  =         400
 XBOX    = 1.00000E+30       YBOX    = 1.00000E+30       ZBOX    = 1.00000E+30
 CENTX   = 1.66025E-01       CENTY   = 5.96304E-02       CENTZ   =-5.32630E+00
 IEWALD  =           0       KEWALD  =          10       SPLIT   =      0.1500
 ISHIFT  =           4       SWRA    = 1.00000E+29       SWRB    = 1.00000E+30
 ISWITCH =           1       SWRAQ   = 1.00000E+29       SWRBQ   = 1.00000E+30
 ISPHSOL =           0       RXNEPS  =     78.3900       RSPHSOL = 1.00000E+30
 SPHSIG  =      1.5000       SPHEPS  =      0.1500       SPHRAD  = 1.00000E+30
 IDOCHG  =           1       IDOPOL  =         100       IDOLJ   =           1
 DT      = 1.00000E-16       NSTEP   =           1       INTALG  =           1
 TEMP0   =    298.1500       ITSTAT  =           0       LJSIGMA =           0
 PRES0   =      1.0000       IPSTAT  =           0       NATPDB  =           0
 MXLIST1 =         600       BUFWID1 =      3.0000       IRMDF   =           0
 MXLIST2 =         600       BUFWID2 =      3.0000       KOUTPBC =           0
 JOUT    =           1       KOUT    =         100       LOUT    =           0
 NFFTYP  =           0       NFFFILE =           0       MMHESS  =           0
 WT14LJ  =   1.0000000       WT14CH  =   1.0000000       IDOCMAP =           1
 IHESS   =           1       POLTOL  = 1.00000E-09       MXCHECK =         100
 NRDF    =           0       DELRDF  =      0.0500       DIFFUSE =           0
 NRALL   =           0       NRMSD   =           0       NGYRA   =           0
 TIMRALL = 1.00000E-12       TIMGYRA = 1.00000E-12       TIMDFS  = 3.00000E-12
 NRIJMM  =           0       NDIEL   =           1       JUMBUP  =           0
 NRIJQM  =           0       NAIJKMM =           0       NAIJKQM =           0
 IADDNA1 =           0       IADDK1  =           0       IADDCL1 =           0
 IADDCA2 =           0       IADDMG2 =           0       IADDWAT =           0
 ITYPWAT =           0       JADDNA1 =           0       JADDK1  =           0
 NRANDOM =           0       NFOLD   =           0       RFOLD   =      0.0000
 ICOMBIN =           0       IDELETE =           0       ISCOOP  =           0
 RETAIN  =      0.5000       QMREP   =           0       LJQMMM  =           1
 RDAMP   =      3.0000       INTCHG  =           1       FIXTOL  = 1.00000E-10
 IFIXSOL =           0       MXFFTS  =           1       NTSATM  =          60
 NFIXQM  =           0       NFIXMM  =           0       IPOLSHF =           0
 NFIXQMB =           0       NFIXMMB =           0       IFEPTYP =           0
 IFEPTOP =           0       KFREEA  =           0       KFREEB  =           0
 WSIMUL  =      0.0000       WPERT1  =      1.0000       WPERT2  =      1.0000
 MATOMA  =          15       MCHARGA =           0       MULTA   =           1
 MATOMB  =           0       MCHARGB =           0       MULTB   =           1
 ISOFTCR =           0       SOFTALJ =      0.3000       SOFTACH =      2.8000
 IRATTLE =           0       RATOLC  = 1.00000E-05       RATOLV  = 1.00000E-08
 JRATTLE =           0       MXRATT  =         200       SCALRAT =      1.0000
 MEANFLD =           0       MFMERGE =          20       MFQMCHG =          10
 SCFTYP2 =    UHF            TDDFT2  =    NONE           CITYP2  =    NONE    
 MPLEVL2 =           0       ICHARG2 =           0       MULT2   =           1
 IRATQM  =           0       JUMBPOT =           0       JUM2POT =           0
 MMFF94Q =  1855196608       IVIBMM  =           0       BEREND  = 2.00000E-13
 MXCMAP  =         200       NRDEN   =           0       MATCHAB =           0
 PARFILE =     PARFILE       TOPFILE =     TOPFILE       TOPAMIA =     TOPAMIA
 TOPCTER =     TOPCTER       TOPNTER =     TOPNTER       TOPNUCA =     TOPNUCA
 IPODAMP =           0       LACTQM  =           0       LACTMM  =           0
 APODAMP =    0.000000       IPO1213 =           0       PARFIL2 =     PARFIL2
 PARFIL3 =     PARFIL3       NRADMM  =           0       NRADQM  =           0
 RALLMM  =    0.000000       RALLQM  =    0.000000       KOUTACT =           0
  
 THIS IS A QM/MM SYSTEM WITH   24 BOUNDARY COVALENT BONDS.
 MM COVALENT TERMS RETAIN IN THE QM REGION IF THEY INVOLVE A "WEAK"
 BOUNDARY H ATOM, AND ARE SCALED BY 0.5000 AS DEFINED BY "RETAIN".
  
 TOTAL MM    CHARGE =       0.0000000 IN THE QM/MM SYSTEM
 TOTAL QM/MM CHARGE =       0.0000000
  
     *****************************************
     $FFDATA GROUP IS PRINTED IN THE .DAT FILE
     *****************************************
  
  
 STEP CPU TIME =     0.03 TOTAL CPU TIME =        0.2 (    0.0 MIN)
 TOTAL WALL CLOCK TIME=        0.3 SECONDS, CPU UTILIZATION IS  96.00%
  
 UPDATING LARGE NEIGHBOR LIST AT STEP          0
  
 STEP CPU TIME =     0.00 TOTAL CPU TIME =        0.2 (    0.0 MIN)
 TOTAL WALL CLOCK TIME=        0.3 SECONDS, CPU UTILIZATION IS  96.00%
  
 UPDATING QM/MM NEIGHBOR LIST AT STEP          0
  
  
   ** QUANPOL IS SUCCESSFULLY LOADED **
  
 STEP CPU TIME =     0.00 TOTAL CPU TIME =        0.2 (    0.0 MIN)
 TOTAL WALL CLOCK TIME=        0.3 SECONDS, CPU UTILIZATION IS  96.00%

     $CONTRL OPTIONS
     ---------------
 SCFTYP=UHF          RUNTYP=MD           EXETYP=RUN     
 MPLEVL=       0     CITYP =NONE         CCTYP =NONE         VBTYP =NONE    
 DFTTYP=NONE         TDDFT =NONE    
 MULT  =       1     ICHARG=       0     NZVAR =       0     COORD =UNIQUE  
 PP    =NONE         RELWFN=NONE         LOCAL =NONE         NUMGRD=       F
 ISPHER=      -1     NOSYM =       0     MAXIT =      30     UNITS =ANGS    
 PLTORB=       F     MOLPLT=       F     AIMPAC=       F     FRIEND=        
 NPRINT=       7     IREST =       0     GEOM  =INPUT   
 NORMF =       0     NORMP =       0     ITOL  =      20     ICUT  =       9
 INTTYP=BEST         GRDTYP=BEST         QMTTOL= 1.0E-06

     $SYSTEM OPTIONS
     ---------------
  REPLICATED MEMORY=    50000000 WORDS (ON EVERY NODE).
 DISTRIBUTED MEMDDI=           0 MILLION WORDS IN AGGREGATE,
 MEMDDI DISTRIBUTED OVER   1 PROCESSORS IS           0 WORDS/PROCESSOR.
 TOTAL MEMORY REQUESTED ON EACH PROCESSOR=    50000000 WORDS.
 TIMLIM=        9999.00 MINUTES, OR       6.9 DAYS.
 PARALL= F  BALTYP=  DLB     KDIAG=    0  COREFL= F
 MXSEQ2=     300 MXSEQ3=     150  mem10=         0

          ----------------
          PROPERTIES INPUT
          ----------------

     MOMENTS            FIELD           POTENTIAL          DENSITY
 IEMOM =       1   IEFLD =       0   IEPOT =       0   IEDEN =       0
 WHERE =COMASS     WHERE =NUCLEI     WHERE =NUCLEI     WHERE =NUCLEI  
 OUTPUT=BOTH       OUTPUT=BOTH       OUTPUT=BOTH       OUTPUT=BOTH    
 IEMINT=       0   IEFINT=       0                     IEDINT=       0
                                                       MORB  =       0
          EXTRAPOLATION IN EFFECT
          DIIS IN EFFECT
          DIIS or SOSCF will be reset if energy rises
 ORBITAL PRINTING OPTION: NPREO=     1   135     2     1

     -------------------------------
     INTEGRAL TRANSFORMATION OPTIONS
     -------------------------------
     NWORD  =            0
     CUTOFF = 1.0E-09     MPTRAN =       0
     DIRTRF =       T     AOINTS =DUP     

          ----------------------
          INTEGRAL INPUT OPTIONS
          ----------------------
 NOPK  =       1 NORDER=       0 SCHWRZ=       T

     ------------------------------------------
     THE POINT GROUP IS C1 , NAXIS= 0, ORDER= 1
     ------------------------------------------

     DIMENSIONS OF THE SYMMETRY SUBSPACES ARE
 A   =  135

 ..... DONE SETTING UP THE RUN .....
 STEP CPU TIME =     0.14 TOTAL CPU TIME =        0.4 (    0.0 MIN)
 TOTAL WALL CLOCK TIME=        0.4 SECONDS, CPU UTILIZATION IS  95.00%
  
 STEP CPU TIME =     0.00 TOTAL CPU TIME =        0.4 (    0.0 MIN)
 TOTAL WALL CLOCK TIME=        0.4 SECONDS, CPU UTILIZATION IS  95.00%
  
 UPDATING LARGE NEIGHBOR LIST AT STEP          0
  
 STEP CPU TIME =     0.00 TOTAL CPU TIME =        0.4 (    0.0 MIN)
 TOTAL WALL CLOCK TIME=        0.4 SECONDS, CPU UTILIZATION IS  95.00%
  
 UPDATING QM/MM NEIGHBOR LIST AT STEP          0
  

                    --------------------------------
                    SINGLE POINT ENERGY AND GRADIENT
                    --------------------------------
 ...... END OF ONE-ELECTRON INTEGRALS ......
 STEP CPU TIME =     0.14 TOTAL CPU TIME =        0.5 (    0.0 MIN)
 TOTAL WALL CLOCK TIME=        0.5 SECONDS, CPU UTILIZATION IS  96.30%

          -------------
          GUESS OPTIONS
          -------------
          GUESS =HUCKEL            NORB  =       0          NORDER=       0
          MIX   =       F          PRTMO =       F          PUNMO =       F
          TOLZ  = 1.0E-08          TOLE  = 1.0E-05
          SYMDEN=       F          PURIFY=       F

 INITIAL GUESS ORBITALS GENERATED BY HUCKEL   ROUTINE.
 HUCKEL GUESS REQUIRES    213480 WORDS.

 SYMMETRIES FOR INITIAL GUESS ORBITALS FOLLOW.  ALPHA SET(S).
   105 ORBITALS ARE OCCUPIED (   75 CORE ORBITALS).
    76=A       77=A       78=A       79=A       80=A       81=A       82=A   
    83=A       84=A       85=A       86=A       87=A       88=A       89=A   
    90=A       91=A       92=A       93=A       94=A       95=A       96=A   
    97=A       98=A       99=A      100=A      101=A      102=A      103=A   
   104=A      105=A      106=A      107=A      108=A      109=A      110=A   
   111=A      112=A      113=A      114=A      115=A   

 SYMMETRIES FOR INITIAL GUESS ORBITALS FOLLOW.   BETA SET(S).
   105 ORBITALS ARE OCCUPIED (   75 CORE ORBITALS).
    76=A       77=A       78=A       79=A       80=A       81=A       82=A   
    83=A       84=A       85=A       86=A       87=A       88=A       89=A   
    90=A       91=A       92=A       93=A       94=A       95=A       96=A   
    97=A       98=A       99=A      100=A      101=A      102=A      103=A   
   104=A      105=A      106=A      107=A      108=A      109=A      110=A   
   111=A      112=A      113=A      114=A      115=A   
 ...... END OF INITIAL ORBITAL SELECTION ......
 STEP CPU TIME =     0.09 TOTAL CPU TIME =        0.6 (    0.0 MIN)
 TOTAL WALL CLOCK TIME=        0.6 SECONDS, CPU UTILIZATION IS 100.00%

                    ----------------------
                    AO INTEGRAL TECHNOLOGY
                    ----------------------
     S,P,L SHELL ROTATED AXIS INTEGRALS, REPROGRAMMED BY
        KAZUYA ISHIMURA (IMS) AND JOSE SIERRA (SYNSTAR).
     S,P,D,L SHELL ROTATED AXIS INTEGRALS PROGRAMMED BY
        KAZUYA ISHIMURA (INSTITUTE FOR MOLECULAR SCIENCE).
     S,P,D,F,G SHELL TO TOTAL QUARTET ANGULAR MOMENTUM SUM 5,
        ERIC PROGRAM BY GRAHAM FLETCHER (ELORET AND NASA ADVANCED
        SUPERCOMPUTING DIVISION, AMES RESEARCH CENTER).
     S,P,D,F,G,L SHELL GENERAL RYS QUADRATURE PROGRAMMED BY
        MICHEL DUPUIS (PACIFIC NORTHWEST NATIONAL LABORATORY).
  ...... END OF TWO-ELECTRON INTEGRALS .....
 STEP CPU TIME =     0.01 TOTAL CPU TIME =        0.6 (    0.0 MIN)
 TOTAL WALL CLOCK TIME=        0.6 SECONDS, CPU UTILIZATION IS 100.00%
          * * *   INITIATING DIIS PROCEDURE   * * *
 STEP CPU TIME =   175.49 TOTAL CPU TIME =      176.1 (    2.9 MIN)
 TOTAL WALL CLOCK TIME=      176.2 SECONDS, CPU UTILIZATION IS  99.97%
 ..... END OF 1-ELECTRON GRADIENT ......
 STEP CPU TIME =    11.29 TOTAL CPU TIME =      187.4 (    3.1 MIN)
 TOTAL WALL CLOCK TIME=      187.5 SECONDS, CPU UTILIZATION IS  99.97%
 ...... END OF 2-ELECTRON GRADIENT ......
 STEP CPU TIME =     9.20 TOTAL CPU TIME =      196.6 (    3.3 MIN)
 TOTAL WALL CLOCK TIME=      196.7 SECONDS, CPU UTILIZATION IS  99.97%

..... END OF SINGLE POINT GRADIENT .....
 STEP CPU TIME =     0.00 TOTAL CPU TIME =      196.6 (    3.3 MIN)
 TOTAL WALL CLOCK TIME=      196.7 SECONDS, CPU UTILIZATION IS  99.97%
  
 ======================= QUANPOL MD SIMULATION INITIATED =======================
  
  
 MD STEP          0                                 TIME=                0.00 FS
 BOND STRETCHING               ENERGY =                   0.0000000099  KCAL/MOL
 BOND ANGLE BENDING            ENERGY =                   0.0000000001  KCAL/MOL
 STRETCHING BENDING            ENERGY =                   0.0000000000  KCAL/MOL
 DIHEDRAL ROTATION             ENERGY =                   0.0000105604  KCAL/MOL
 DIHEDRAL BENDING              ENERGY =                   0.0000000000  KCAL/MOL
 CMAP                          ENERGY =                   0.0000000000  KCAL/MOL
 WAGGING                       ENERGY =                   0.0000000000  KCAL/MOL
 LJ REPULSION                  ENERGY =                  17.2748989190  KCAL/MOL
 LJ DISPERSION                 ENERGY =                -110.2683584958  KCAL/MOL
 CHARGE                        ENERGY =                   0.0000000000  KCAL/MOL
 INDUCED DIPOLE                ENERGY =                 -68.8602461713  KCAL/MOL
 SPHSOL                        ENERGY =                   0.0000000000  KCAL/MOL
 FIXSOL                        ENERGY =                   0.0000000000  KCAL/MOL
 QM CENTER                     ENERGY =                   0.0000000000  KCAL/MOL
 SPHERE                        ENERGY =                   0.0000000000  KCAL/MOL
 POTENTIAL                     ENERGY =            -2704898.2496606200  KCAL/MOL
 KINETIC                       ENERGY =                 256.8425317372  KCAL/MOL
 TOTAL                         ENERGY =            -2704641.4071288826  KCAL/MOL
 TEMPERATURE                          =                 298.1500000000  K
 PRESSURE                             =                   0.0000000000  BAR
 VOLUME                               =                                 OPEN SYSTEM
  
 STEP CPU TIME =     0.00 TOTAL CPU TIME =      196.6 (    3.3 MIN)
 TOTAL WALL CLOCK TIME=      196.7 SECONDS, CPU UTILIZATION IS  99.97%
  
 STEP CPU TIME =     0.00 TOTAL CPU TIME =      196.6 (    3.3 MIN)
 TOTAL WALL CLOCK TIME=      196.7 SECONDS, CPU UTILIZATION IS  99.97%
 STEP CPU TIME =     0.00 TOTAL CPU TIME =      196.6 (    3.3 MIN)
 TOTAL WALL CLOCK TIME=      196.7 SECONDS, CPU UTILIZATION IS  99.96%
  
 MD STEP          1                                 TIME=                0.10 FS
 BOND STRETCHING               ENERGY =                   0.1083591213  KCAL/MOL
 BOND ANGLE BENDING            ENERGY =                   0.0209009726  KCAL/MOL
 STRETCHING BENDING            ENERGY =                   0.0000000000  KCAL/MOL
 DIHEDRAL ROTATION             ENERGY =                   0.0020077296  KCAL/MOL
 DIHEDRAL BENDING              ENERGY =                   0.0000000000  KCAL/MOL
 CMAP                          ENERGY =                   0.0000000000  KCAL/MOL
 WAGGING                       ENERGY =                   0.0000000000  KCAL/MOL
 LJ REPULSION                  ENERGY =                  17.2743287946  KCAL/MOL
 LJ DISPERSION                 ENERGY =                -110.2664870155  KCAL/MOL
 CHARGE                        ENERGY =                   0.0000000000  KCAL/MOL
 INDUCED DIPOLE                ENERGY =                 -68.8538013962  KCAL/MOL
 SPHSOL                        ENERGY =                   0.0000000000  KCAL/MOL
 FIXSOL                        ENERGY =                   0.0000000000  KCAL/MOL
 QM CENTER                     ENERGY =                   0.0000000000  KCAL/MOL
 SPHERE                        ENERGY =                   0.0000000000  KCAL/MOL
 POTENTIAL                     ENERGY =            -2704898.1441126629  KCAL/MOL
 KINETIC                       ENERGY =                 256.7370644583  KCAL/MOL
 TOTAL                         ENERGY =            -2704641.4070482049  KCAL/MOL
 TEMPERATURE                          =                 298.0275706306  K
 PRESSURE                             =                   0.0000000000  BAR
 VOLUME                               =                                 OPEN SYSTEM
  
 AVERAGE POTENTIAL             ENERGY =            -2704898.1441126629  KCAL/MOL
 AVERAGE KINETIC               ENERGY =                 256.7370644583  KCAL/MOL
 AVERAGE TOTAL                 ENERGY =            -2704641.4070482049  KCAL/MOL
 AVERAGE TEMPERATURE                  =                 298.0275706306  K
 AVERAGE PRESSURE                     =                   0.0000000000  BAR
  
 STEP CPU TIME =     0.00 TOTAL CPU TIME =      287.6 (    4.8 MIN)
 TOTAL WALL CLOCK TIME=      287.6 SECONDS, CPU UTILIZATION IS  99.97%
  
 DIELECTRIC CONSTANT =           1.00000
 <M**2> = 0.98292091758714E-01 <M>**2 = 0.98292091758714E-01 (E*BOHR)**2
 DIPOLE MOMENT OF EACH MD STEP IS IN .DAT FILE.

 STEP CPU TIME =     0.00 TOTAL CPU TIME =      287.6 (    4.8 MIN)
 TOTAL WALL CLOCK TIME=      287.7 SECONDS, CPU UTILIZATION IS  99.97%
  
 ================ QUANPOL MD SIMULATION SUCCESSFULLY COMPLETED =================
 ========= RESTART $DATA, $FFDATA, $FFDATB ARE IN .DAT AND .TRJ FILES ==========
  
 STEP CPU TIME =     0.00 TOTAL CPU TIME =      287.6 (    4.8 MIN)
 TOTAL WALL CLOCK TIME=      287.7 SECONDS, CPU UTILIZATION IS  99.97%
               902605  WORDS OF DYNAMIC MEMORY USED
 EXECUTION OF GAMESS TERMINATED NORMALLY Tue Nov 29 15:32:58 2016
 DDI: 263640 bytes (0.3 MB / 0 MWords) used by master data server.

 ----------------------------------------
 CPU timing information for all processes
 ========================================
 0: 287.525 + 0.45 = 287.571
 ----------------------------------------
 ddikick.x: exited gracefully.
unset echo
----- accounting info -----
Files used on the master node bolt.iprt.iastate.edu were:
-rw-rw-r-- 1 sarom sarom  379494 Nov 29 15:31 .//si199h92-3.dat
-rw-rw-r-- 1 sarom sarom    2398 Nov 29 15:32 .//si199h92-3.dip
-rw-rw-r-- 1 sarom sarom  373241 Nov 29 15:28 .//si199h92-3.F05
-rw-rw-r-- 1 sarom sarom 3828240 Nov 29 15:33 .//si199h92-3.F10
-rw-rw-r-- 1 sarom sarom  373241 Nov 28 17:27 .//si199h92-3.inp
-rw-rw-r-- 1 sarom sarom   46790 Nov 29 15:33 .//si199h92-3.log
-rw-rw-r-- 1 sarom sarom    5621 Nov 29 15:32 .//si199h92-3.qmw
-rw-rw-r-- 1 sarom sarom   96638 Nov 29 15:32 .//si199h92-3.trj
Tue Nov 29 15:33:01 CST 2016
0.124u 0.025s 4:50.97 0.0%	0+0k 0+744io 0pf+0w
