-catch_rsh /opt/gridengine/default/spool/compute-0-1/active_jobs/24031.1/pe_hostfile
compute-0-1
The primary node assigned by SGE to this run is compute-0-1
Warning: no access to tty (Bad file descriptor).
Thus no job control in this shell.
source /home/sarom/gamess.github.2017-05-31.14.06/install.info
setenv GMS_PATH /home/sarom/gamess.github.2017-05-31.14.06
setenv GMS_BUILD_DIR /home/sarom/gamess.github.2017-05-31.14.06
setenv GMS_TARGET linux64
setenv GMS_FORTRAN gfortran
setenv GMS_GFORTRAN_VERNO 4.4
setenv GMS_MATHLIB mkl-so
setenv GMS_MATHLIB_PATH /share/apps/intel/compilers_and_libraries_2017.1.132/linux/mkl/lib/intel64
setenv GMS_MKL_VERNO 12
setenv GMS_DDI_COMM sockets
setenv GMS_LIBCCHEM false
setenv GMS_EIGEN_PATH
setenv GMS_PHI false
setenv GMS_SHMTYPE sysv
setenv GMS_OPENMP false
unset echo
pcm-efp-acetone
tests/solvent/pcm
----- GAMESS execution script 'rungms' -----
This job is running on host compute-0-1.local
under operating system Linux at Fri Jun 2 05:07:42 CDT 2017
Available scratch disk space (Kbyte units) at beginning of the job is
Filesystem           1K-blocks      Used Available Use% Mounted on
/dev/sda1             16126920   3867344  11440376  26% /
GAMESS temporary binary files will be written to /scratch
GAMESS supplementary output files will be written to /home/sarom/restart
Copying input file pcm-efp-acetone.inp to your run's scratch directory...
cp tests/solvent/pcm/pcm-efp-acetone.inp /scratch/pcm-efp-acetone.F05
unset echo
The generated host list is
compute-0-1.local
/home/sarom/gamess.github.2017-05-31.14.06/ddikick.x /home/sarom/gamess.github.2017-05-31.14.06/gamess.00.x pcm-efp-acetone -ddi 1 1 compute-0-1.local -scr /scratch

 Distributed Data Interface kickoff program.
 Initiating 1 compute processes on 1 nodes to run the following command:
 /home/sarom/gamess.github.2017-05-31.14.06/gamess.00.x pcm-efp-acetone 

          ******************************************************
          *         GAMESS VERSION = 20 APR 2017 (R1)          *
          *             FROM IOWA STATE UNIVERSITY             *
          * M.W.SCHMIDT, K.K.BALDRIDGE, J.A.BOATZ, S.T.ELBERT, *
          *   M.S.GORDON, J.H.JENSEN, S.KOSEKI, N.MATSUNAGA,   *
          *          K.A.NGUYEN, S.J.SU, T.L.WINDUS,           *
          *       TOGETHER WITH M.DUPUIS, J.A.MONTGOMERY       *
          *         J.COMPUT.CHEM.  14, 1347-1363(1993)        *
          **************** 64 BIT LINUX VERSION ****************

  SINCE 1993, STUDENTS AND POSTDOCS WORKING AT IOWA STATE UNIVERSITY
  AND ALSO IN THEIR VARIOUS JOBS AFTER LEAVING ISU HAVE MADE IMPORTANT
  CONTRIBUTIONS TO THE CODE:
     IVANA ADAMOVIC, CHRISTINE AIKENS, YURI ALEXEEV, POOJA ARORA,
     ANDREY ASADCHEV, ROB BELL, PRADIPTA BANDYOPADHYAY, JONATHAN BENTZ,
     BRETT BODE, KURT BRORSEN, CALEB CARLIN, GALINA CHABAN, WEI CHEN,
     CHEOL HO CHOI, PAUL DAY, ALBERT DEFUSCO, NUWAN DESILVA, TIM DUDLEY,
     DMITRI FEDOROV, GRAHAM FLETCHER, MARK FREITAG, KURT GLAESEMANN,
     DAN KEMP, GRANT MERRILL, NORIYUKI MINEZAWA, JONATHAN MULLIN,
     TAKESHI NAGATA, SEAN NEDD, HEATHER NETZLOFF, BOSILJKA NJEGIC, RYAN OLSON,
     MIKE PAK, SPENCER PRUITT, LUKE ROSKOP, JIM SHOEMAKER, LYUDMILA SLIPCHENKO,
     TONY SMITH, SAROM SOK LEANG, JIE SONG, TETSUYA TAKETSUGU, SIMON WEBB,
     PENG XU, SOOHAENG YOO, FEDERICO ZAHARIEV

  ADDITIONAL CODE HAS BEEN PROVIDED BY COLLABORATORS IN OTHER GROUPS:
     IOWA STATE UNIVERSITY:
          JOE IVANIC, AARON WEST, LAIMUTIS BYTAUTAS, KLAUS RUEDENBERG
     UNIVERSITY OF TOKYO: KIMIHIKO HIRAO, TAKAHITO NAKAJIMA,
          TAKAO TSUNEDA, MUNEAKI KAMIYA, SUSUMU YANAGISAWA,
          KIYOSHI YAGI, MAHITO CHIBA, SEIKEN TOKURA, NAOAKI KAWAKAMI
     UNIVERSITY OF AARHUS: FRANK JENSEN
     UNIVERSITY OF IOWA: VISVALDAS KAIRYS, HUI LI
     NATIONAL INST. OF STANDARDS AND TECHNOLOGY: WALT STEVENS, DAVID GARMER
     UNIVERSITY OF PISA: BENEDETTA MENNUCCI, JACOPO TOMASI
     UNIVERSITY OF MEMPHIS: HENRY KURTZ, PRAKASHAN KORAMBATH
     UNIVERSITY OF ALBERTA: TOBY ZENG, MARIUSZ KLOBUKOWSKI
     UNIVERSITY OF NEW ENGLAND: MARK SPACKMAN
     MIE UNIVERSITY: HIROAKI UMEDA
     NAT. INST. OF ADVANCED INDUSTRIAL SCIENCE AND TECHNOLOGY: KAZUO KITAURA
     MICHIGAN STATE UNIVERSITY:
          KAROL KOWALSKI, MARTA WLOCH, JEFFREY GOUR, JESSE LUTZ,
          WEI LI, PIOTR PIECUCH
     UNIVERSITY OF SILESIA: MONIKA MUSIAL, STANISLAW KUCHARSKI
     FACULTES UNIVERSITAIRES NOTRE-DAME DE LA PAIX:
          OLIVIER QUINET, BENOIT CHAMPAGNE
     UNIVERSITY OF CALIFORNIA - SANTA BARBARA: BERNARD KIRTMAN
     INSTITUTE FOR MOLECULAR SCIENCE:
          KAZUYA ISHIMURA, MICHIO KATOUDA, AND SHIGERU NAGASE
     UNIVERSITY OF NOTRE DAME: ANNA POMOGAEVA, DAN CHIPMAN
     KYUSHU UNIVERSITY:
          HARUYUKI NAKANO,
          FENG LONG GU, JACEK KORCHOWIEC, MARCIN MAKOWSKI, AND YURIKO AOKI,
          HIROTOSHI MORI AND EISAKU MIYOSHI
     PENNSYLVANIA STATE UNIVERSITY:
          TZVETELIN IORDANOV, CHET SWALINA, JONATHAN SKONE,
          SHARON HAMMES-SCHIFFER
     WASEDA UNIVERSITY:
          MASATO KOBAYASHI, TOMOKO AKAMA, TSUGUKI TOUMA,
          TAKESHI YOSHIKAWA, YASUHIRO IKABATA, JUNJI SEINO,
          YUYA NAKAJIMA, HIROMI NAKAI
     NANJING UNIVERSITY: SHUHUA LI
     UNIVERSITY OF NEBRASKA:
          PEIFENG SU, DEJUN SI, NANDUN THELLAMUREGE, YALI WANG, HUI LI
     UNIVERSITY OF ZURICH: ROBERTO PEVERATI, KIM BALDRIDGE
     N. COPERNICUS UNIVERSITY AND JACKSON STATE UNIVERSITY:
          MARIA BARYSZ
     UNIVERSITY OF COPENHAGEN: Jimmy Kromann, CASPER STEINMANN
     TOKYO INSTITUTE OF TECHNOLOGY: HIROYA NAKATA
     NAGOYA UNIVERSITY: YOSHIO NISHIMOTO, STEPHAN IRLE
     MOSCOW STATE UNIVERSITY: VLADIMIR MIRONOV

 EXECUTION OF GAMESS BEGUN Fri Jun  2 05:07:42 2017

            ECHO OF THE FIRST FEW INPUT CARDS -
 INPUT CARD>!  triplet state of acetone + 2 EFP1/DFT waters + water continuum               
 INPUT CARD>!  the ab initio calculation is open shell MP2.                                 
 INPUT CARD>!  Test comes from Hui Li's group, November 2010                                
 INPUT CARD>!                                                                               
 INPUT CARD>!  test is limited to five steps to shorten the run's time:                     
 INPUT CARD>!   NSERCH:   0  E= -192.3879415975  RMS=  0.0187311                            
 INPUT CARD>!   NSERCH:   1  E= -192.4096688002  RMS=  0.0061752                            
 INPUT CARD>!   NSERCH:   2  E= -192.4158336696  RMS=  0.0036471                            
 INPUT CARD>!   NSERCH:   3  E= -192.4177258019  RMS=  0.0018734                            
 INPUT CARD>!   NSERCH:   4  E= -192.4180822673  RMS=  0.0005966                            
 INPUT CARD>!   NSERCH:   5  E= -192.4180573897  RMS=  0.0011733                            
 INPUT CARD>!                                                                               
 INPUT CARD>!  This test takes 139 seconds on 2.66 GHz Cloverton (29 Nov 2010)              
 INPUT CARD>!  results unchanged since 2010.                                                
 INPUT CARD>!                                                                               
 INPUT CARD>!  -----------------------------------------------------                        
 INPUT CARD>!  Hui ran this satisfactorily for RMP2, ZAPT2, UMP2 & MULT=1, 2, 3, by         
 INPUT CARD>!  MP2 CODE=SERIAL, IMS, DDI and says the quality of gradient is 1e-07 au       
 INPUT CARD>!  if PROJGRAD=.F. in grd2a.src and mp2ddi.src and if $SCF CONV=1.0D-08         
 INPUT CARD>!  He used NVIB=2 VIBSIZ=0.001 to test using numerical gradients.               
 INPUT CARD>!                                                                               
 INPUT CARD>!  the full optimization went like this:                                        
 INPUT CARD>!    NSERCH=  0  E= -192.3879415975  R.M.S.=  0.0187311                         
 INPUT CARD>!    NSERCH=  1  E= -192.4096688002  R.M.S.=  0.0061752                         
 INPUT CARD>!    NSERCH=  2  E= -192.4158336696  R.M.S.=  0.0036471                         
 INPUT CARD>!    NSERCH=  3  E= -192.4177258019  R.M.S.=  0.0018734                         
 INPUT CARD>!    NSERCH=  4  E= -192.4180822673  R.M.S.=  0.0005966                         
 INPUT CARD>!    NSERCH=  5  E= -192.4180573895  R.M.S.=  0.0011733                         
 INPUT CARD>!    NSERCH=  6  E= -192.4182456683  R.M.S.=  0.0002002                         
 INPUT CARD>!    NSERCH=  7  E= -192.4182397555  R.M.S.=  0.0005572                         
 INPUT CARD>!    NSERCH=  8  E= -192.4183180241  R.M.S.=  0.0003731                         
 INPUT CARD>!    NSERCH=  9  E= -192.4183258682  R.M.S.=  0.0009679                         
 INPUT CARD>!    NSERCH= 10  E= -192.4184164262  R.M.S.=  0.0002159                         
 INPUT CARD>!    NSERCH= 11  E= -192.4184227803  R.M.S.=  0.0002220                         
 INPUT CARD>!    NSERCH= 12  E= -192.4184516334  R.M.S.=  0.0001202                         
 INPUT CARD>!    NSERCH= 13  E= -192.4184737799  R.M.S.=  0.0000751                         
 INPUT CARD>!    NSERCH= 14  E= -192.4184990659  R.M.S.=  0.0001447                         
 INPUT CARD>!    NSERCH= 15  E= -192.4185325614  R.M.S.=  0.0002510                         
 INPUT CARD>!    NSERCH= 16  E= -192.4185290161  R.M.S.=  0.0003234                         
 INPUT CARD>!    NSERCH= 17  E= -192.4185704488  R.M.S.=  0.0001642                         
 INPUT CARD>!    NSERCH= 18  E= -192.4185811639  R.M.S.=  0.0001069                         
 INPUT CARD>!    NSERCH= 19  E= -192.4185878042  R.M.S.=  0.0000307                         
 INPUT CARD>!    NSERCH= 20  E= -192.4185888663  R.M.S.=  0.0000301                         
 INPUT CARD>!    NSERCH= 21  E= -192.4185898851  R.M.S.=  0.0000140                         
 INPUT CARD>!    NSERCH= 22  E= -192.4185900159  R.M.S.=  0.0000081                         
 INPUT CARD>!    NSERCH= 23  E= -192.4185901261  R.M.S.=  0.0000053                         
 INPUT CARD>!    NSERCH= 24  E= -192.4185901327  R.M.S.=  0.0000042                         
 INPUT CARD>!    NSERCH= 25  E= -192.4185901396  R.M.S.=  0.0000016                         
 INPUT CARD>!    NSERCH= 26  E= -192.4185901486  R.M.S.=  0.0000017                         
 INPUT CARD>!    NSERCH= 27  E= -192.4185901223  R.M.S.=  0.0000018                         
   25000000 WORDS OF MEMORY AVAILABLE

     BASIS OPTIONS
     -------------
     GBASIS=N31          IGAUSS=       6      POLAR=POPN31  
     NDFUNC=       1     NFFUNC=       0     DIFFSP=       F
     NPFUNC=       0      DIFFS=       F     BASNAM=        


     RUN TITLE
     ---------
 acetone with 2 EFP water and with PCM                                           

 THE POINT GROUP OF THE MOLECULE IS C1      
 THE ORDER OF THE PRINCIPAL AXIS IS     0

 ATOM      ATOMIC                      COORDINATES (BOHR)
           CHARGE         X                   Y                   Z
 C           6.0     1.8318155457       -1.3045064617       -0.9463033506
 C           6.0    -0.7215298584       -0.0367647100       -0.5855620194
 O           8.0    -0.4933264404        2.5556500489        0.0291316691
 C           6.0    -2.7713574055       -1.3468491256        0.9431327721
 H           1.0     3.0069118561       -0.2390187616       -2.2791754752
 H           1.0    -2.1883092549       -1.5456548683        2.9312744944
 H           1.0     2.8406982764       -1.4507267215        0.8681181645
 H           1.0     1.5175163697       -3.2089100108       -1.6938233157
 H           1.0    -4.5459805331       -0.2816960932        0.8736747320
 H           1.0    -3.0797495844       -3.2309548936        0.1439587533

          INTERNUCLEAR DISTANCES (ANGS.)
          ------------------------------

                1 C          2 C          3 O          4 C          5 H     

   1 C       0.0000000    1.5205792 *  2.4398783 *  2.6332066 *  1.0963888 *
   2 C       1.5205792 *  0.0000000    1.4150460 *  1.5204085 *  2.1696597 *
   3 O       2.4398783 *  1.4150460 *  0.0000000    2.4396347 *  2.6664508 *
   4 C       2.6332066 *  1.5204085 *  2.4396347 *  0.0000000    3.5497877  
   5 H       1.0963888 *  2.1696597 *  2.6664508 *  3.5497877    0.0000000  
   6 H       2.9584353 *  2.1687444 *  2.8059422 *  1.1014232 *  3.9545657  
   7 H       1.1013182 *  2.1691068 *  2.7936687 *  2.9705461 *  1.7868115 *
   8 H       1.0953231 *  2.1367282 *  3.3569286    2.8406147 *  1.7852334 *
   9 H       3.5511990    2.1700001 *  2.6558051 *  1.0958777 *  4.3311297  
  10 H       2.8508536 *  2.1362153 *  3.3546485    1.0952358 *  3.8112045  

                6 H          7 H          8 H          9 H         10 H     

   1 C       2.9584353 *  1.1013182 *  1.0953231 *  3.5511990    2.8508536 *
   2 C       2.1687444 *  2.1691068 *  2.1367282 *  2.1700001 *  2.1362153 *
   3 O       2.8059422 *  2.7936687 *  3.3569286    2.6558051 *  3.3546485  
   4 C       1.1014232 *  2.9705461 *  2.8406147 *  1.0958777 *  1.0952358 *
   5 H       3.9545657    1.7868115 *  1.7852334 *  4.3311297    3.8112045  
   6 H       0.0000000    2.8769213 *  3.2573897    1.7859181 *  1.7870239 *
   7 H       2.8769213 *  0.0000000    1.7871439 *  3.9575131    3.2939030  
   8 H       3.2573897    1.7871439 *  0.0000000    3.8132581    2.6199770 *
   9 H       1.7859181 *  3.9575131    3.8132581    0.0000000    1.7851750 *
  10 H       1.7870239 *  3.2939030    2.6199770 *  1.7851750 *  0.0000000  

  * ... LESS THAN  3.000


     ATOMIC BASIS SET
     ----------------
 THE CONTRACTED PRIMITIVE FUNCTIONS HAVE BEEN UNNORMALIZED
 THE CONTRACTED BASIS FUNCTIONS ARE NOW NORMALIZED TO UNITY

  SHELL TYPE  PRIMITIVE        EXPONENT          CONTRACTION COEFFICIENT(S)

 C         

      1   S       1          3047.5248800    0.001834737132
      1   S       2           457.3695180    0.014037322813
      1   S       3           103.9486850    0.068842622264
      1   S       4            29.2101553    0.232184443216
      1   S       5             9.2866630    0.467941348435
      1   S       6             3.1639270    0.362311985337

      2   L       7             7.8682723   -0.119332419775    0.068999066591
      2   L       8             1.8812885   -0.160854151696    0.316423960957
      2   L       9             0.5442493    1.143456437840    0.744308290898

      3   L      10             0.1687145    1.000000000000    1.000000000000

      4   D      11             0.8000000    1.000000000000

 C         

      5   S      12          3047.5248800    0.001834737132
      5   S      13           457.3695180    0.014037322813
      5   S      14           103.9486850    0.068842622264
      5   S      15            29.2101553    0.232184443216
      5   S      16             9.2866630    0.467941348435
      5   S      17             3.1639270    0.362311985337

      6   L      18             7.8682723   -0.119332419775    0.068999066591
      6   L      19             1.8812885   -0.160854151696    0.316423960957
      6   L      20             0.5442493    1.143456437840    0.744308290898

      7   L      21             0.1687145    1.000000000000    1.000000000000

      8   D      22             0.8000000    1.000000000000

 O         

      9   S      23          5484.6716600    0.001831074430
      9   S      24           825.2349460    0.013950172200
      9   S      25           188.0469580    0.068445078098
      9   S      26            52.9645000    0.232714335992
      9   S      27            16.8975704    0.470192897984
      9   S      28             5.7996353    0.358520852987

     10   L      29            15.5396162   -0.110777549525    0.070874268231
     10   L      30             3.5999336   -0.148026262701    0.339752839147
     10   L      31             1.0137618    1.130767015354    0.727158577316

     11   L      32             0.2700058    1.000000000000    1.000000000000

     12   D      33             0.8000000    1.000000000000

 C         

     13   S      34          3047.5248800    0.001834737132
     13   S      35           457.3695180    0.014037322813
     13   S      36           103.9486850    0.068842622264
     13   S      37            29.2101553    0.232184443216
     13   S      38             9.2866630    0.467941348435
     13   S      39             3.1639270    0.362311985337

     14   L      40             7.8682723   -0.119332419775    0.068999066591
     14   L      41             1.8812885   -0.160854151696    0.316423960957
     14   L      42             0.5442493    1.143456437840    0.744308290898

     15   L      43             0.1687145    1.000000000000    1.000000000000

     16   D      44             0.8000000    1.000000000000

 H         

     17   S      45            18.7311370    0.033494604338
     17   S      46             2.8253944    0.234726953484
     17   S      47             0.6401217    0.813757326146

     18   S      48             0.1612778    1.000000000000

 H         

     19   S      49            18.7311370    0.033494604338
     19   S      50             2.8253944    0.234726953484
     19   S      51             0.6401217    0.813757326146

     20   S      52             0.1612778    1.000000000000

 H         

     21   S      53            18.7311370    0.033494604338
     21   S      54             2.8253944    0.234726953484
     21   S      55             0.6401217    0.813757326146

     22   S      56             0.1612778    1.000000000000

 H         

     23   S      57            18.7311370    0.033494604338
     23   S      58             2.8253944    0.234726953484
     23   S      59             0.6401217    0.813757326146

     24   S      60             0.1612778    1.000000000000

 H         

     25   S      61            18.7311370    0.033494604338
     25   S      62             2.8253944    0.234726953484
     25   S      63             0.6401217    0.813757326146

     26   S      64             0.1612778    1.000000000000

 H         

     27   S      65            18.7311370    0.033494604338
     27   S      66             2.8253944    0.234726953484
     27   S      67             0.6401217    0.813757326146

     28   S      68             0.1612778    1.000000000000

 TOTAL NUMBER OF BASIS SET SHELLS             =   28
 NUMBER OF CARTESIAN GAUSSIAN BASIS FUNCTIONS =   72
 NUMBER OF ELECTRONS                          =   32
 CHARGE OF MOLECULE                           =    0
 SPIN MULTIPLICITY                            =    3
 NUMBER OF OCCUPIED ORBITALS (ALPHA)          =   17
 NUMBER OF OCCUPIED ORBITALS (BETA )          =   15
 TOTAL NUMBER OF ATOMS                        =   10
 THE NUCLEAR REPULSION ENERGY IS      115.2932368512

     $CONTRL OPTIONS
     ---------------
 SCFTYP=ROHF         RUNTYP=OPTIMIZE     EXETYP=RUN     
 MPLEVL=       2     CITYP =NONE         CCTYP =NONE         VBTYP =NONE    
 DFTTYP=NONE         TDDFT =NONE    
 MULT  =       3     ICHARG=       0     NZVAR =       0     COORD =UNIQUE  
 PP    =NONE         RELWFN=NONE         LOCAL =NONE         NUMGRD=       F
 ISPHER=      -1     NOSYM =       0     MAXIT =      30     UNITS =ANGS    
 PLTORB=       F     MOLPLT=       F     AIMPAC=       F     FRIEND=        
 NPRINT=       7     IREST =       0     GEOM  =INPUT   
 NORMF =       0     NORMP =       0     ITOL  =      20     ICUT  =       9
 INTTYP=BEST         GRDTYP=BEST         QMTTOL= 1.0E-06

     $SYSTEM OPTIONS
     ---------------
  REPLICATED MEMORY=    25000000 WORDS (ON EVERY NODE).
 DISTRIBUTED MEMDDI=          20 MILLION WORDS IN AGGREGATE,
 MEMDDI DISTRIBUTED OVER   1 PROCESSORS IS    20000000 WORDS/PROCESSOR.
 TOTAL MEMORY REQUESTED ON EACH PROCESSOR=    45000000 WORDS.
 TIMLIM=      525600.00 MINUTES, OR     365.0 DAYS.
 PARALL= F  BALTYP=  DLB     KDIAG=    0  COREFL= F
 MXSEQ2=     300 MXSEQ3=     150  mem10=         0

 READING $EFRAG GROUP
 COORD=CART      POSITION=OPTIMIZE  POLMETHD=FRGSCF   NBUFFMO=0
 READING COORDINATES OF FRAGMENT   1 NAMED   H2ODFT
 READING COORDINATES OF FRAGMENT   2 NAMED   H2ODFT
 FINISHED READING $EFRAG GROUP,   2 FRAGMENTS WILL BE USED.



     SUMMARY OF THE EFFECTIVE FRAGMENT POTENTIAL MODEL CHOSEN
     --------------------------------------------------------
 TOTAL NUMBER OF MULTIPOLE POINTS   =        10  (EFP1/EFP2 ELECTROSTATICS)
 TOTAL NUMBER OF POLARIZABLE POINTS =        10  (EFP1/EFP2 INDUCTION)
 TOTAL NUMBER OF L-J POINTS         =         0  (REPULSION AND DISPERSION)
 TOTAL NUMBER OF REPULSIVE POINTS   =         6  (EFP1 REPULSION/ETC.)

 THIS IS A -EFP1- TYPE RUN, WITH PAULI REPULSION, CHARGE TRANSFER, AND
 HIGHER ORDER EFFECTS COLLECTED IN A FITTED REPULSIVE POTENTIAL.

 OPTIONS FOR EFP SCREENING:
     ELECTROSTATIC AB INITIO-EFP GAUSSIAN SCREENING IS ON
     ELECTROSTATIC EFP-EFP SCREENING CHOICE IS EXPONENTIAL, FOR CHARGE/CHARGE
     POLARIZATION EFP-EFP SCREENING IS OFF

     $EWALD OPTIONS
     -----------

     IFEWLD   =        F         TINFOIL        =        T
     BETA    =    0.200         ELECTRIC CONST =     1.00
     EPSILON =     1.00         CUT_OFF        = 0.10E+04
     CUTLIST =  1000.00         LEVEL          =    1
     KMAX    =       10         EWLDPL         =        F

            MULTIPOLE COORDINATES, ELECTRONIC AND NUCLEAR CHARGES

                  X              Y              Z           ELEC.   NUC.
 O1        -1.7692558927   5.7818531335  -2.9809791189   -8.22458    8.0
 H2        -1.3623007223   4.6011298308  -1.7075333123   -0.57906    1.0
 H3        -1.0029869321   5.2003893714  -4.4830164101   -0.57906    1.0
 B12       -1.5657785830   5.1914918959  -2.3442561620   -0.30866    0.0
 B13       -1.3861216879   5.4911216663  -3.7319977109   -0.30866    0.0
 O1         1.1503278530   3.8832578748   4.1092883532   -8.22458    8.0
 H2         0.6269855995   3.2387073772   2.5306649680   -0.57906    1.0
 H3         0.0054080518   5.1820844139   4.5377653314   -0.57906    1.0
 B12        0.8886571180   3.5609824724   3.3199769307   -0.30866    0.0
 B13        0.5778683442   4.5326709908   4.3235271124   -0.30866    0.0

   CHARGE SCREENING PARAMETERS (COEF AND ZETA)
   ICHGP=   5 AI-FRAGMENT SCREENING= 1   FRAGMENT-FRAGMENT SCREENING= 2

             GAUSSIAN DAMPING    EXPONENTIAL DAMPING
 O1         0.18612   0.54910      1.00000   1.96018
 H2         0.11218   0.38954      1.00000   2.38351
 H3         0.11218   0.38954      1.00000   2.38351
 B12       -0.71758   0.96214      1.00000   9.99991
 B13       -0.71758   0.96214      1.00000   9.99991
 O1         0.18612   0.54910      1.00000   1.96018
 H2         0.11218   0.38954      1.00000   2.38351
 H3         0.11218   0.38954      1.00000   2.38351
 B12       -0.71758   0.96214      1.00000   9.99991
 B13       -0.71758   0.96214      1.00000   9.99991

   SCREENING FOR POLARIZATION WITH EXPONENTIAL FORMULA  OFF

   SCREENING FOR POLARIZATION WITH TANG-TOENNIS FORMULA  OFF

                  DIPOLE MOMENTS AND THE SECOND MOMENT TENSOR

                  X        Y        Z           XX/XY    YY/XZ    ZZ/YZ
 O1            0.24209 -0.36361 -0.04717     -4.36017 -4.13913 -3.59854
                                             -0.20543 -0.14979 -0.15471
 H2            0.00523 -0.02577  0.04155     -0.31131 -0.30480 -0.30721
                                             -0.00416  0.00153 -0.00509
 H3            0.01653 -0.00691 -0.04579     -0.30978 -0.30865 -0.30490
                                             -0.00403 -0.00456  0.00358
 B12          -0.04504  0.12783 -0.13416     -0.12451 -0.10880 -0.10057
                                             -0.01010  0.00081 -0.01395
 B13          -0.08301  0.06451  0.15911     -0.12128 -0.11689 -0.09571
                                             -0.00983 -0.01198  0.00425
 O1           -0.34423  0.13500 -0.23732     -4.17190 -4.02814 -3.89780
                                             -0.26721  0.06481  0.38433
 H2           -0.00569 -0.02451 -0.04224     -0.30926 -0.31135 -0.30272
                                             -0.00010  0.00520  0.00301
 H3           -0.02525  0.03664  0.02091     -0.30548 -0.30671 -0.31113
                                             -0.00675  0.00040  0.00133
 B12           0.05820  0.06696  0.16880     -0.11839 -0.11747 -0.09801
                                             -0.00381  0.00990  0.01414
 B13           0.12388 -0.13838 -0.04327     -0.11045 -0.10774 -0.11568
                                             -0.01778 -0.00018  0.01061

                  THE THIRD MOMENT TENSOR

               XXX/XYY  YYY/YYZ  ZZZ/XZZ  XXY/YZZ  XXZ/XYZ
 O1            0.59322 -0.88548 -0.10179 -0.29717 -0.03206
               0.19675 -0.05375  0.17289 -0.26358  0.00031
 H2            0.00259 -0.01962  0.04359 -0.00763  0.01616
              -0.00165  0.01113 -0.00088 -0.00269  0.00205
 H3            0.01491 -0.00191 -0.04331  0.00049 -0.01520
               0.00399 -0.01606 -0.00001  0.00289 -0.00245
 B12          -0.12872  0.37674 -0.41752  0.12487 -0.13830
              -0.04193 -0.13796 -0.04006  0.12425  0.00138
 B13          -0.24502  0.18119  0.48843  0.06091  0.16138
              -0.07987  0.16412 -0.08102  0.05823 -0.00103
 O1           -0.83831  0.31197 -0.54530  0.09782 -0.20230
              -0.26053 -0.19633 -0.27030  0.12718  0.01508
 H2           -0.00103 -0.03026 -0.03457 -0.01000 -0.01369
              -0.00022 -0.01363  0.00406 -0.00538  0.00138
 H3           -0.01992  0.03519  0.02787  0.00806  0.00828
              -0.00214  0.00715 -0.00771  0.01296  0.00170
 B12           0.16304  0.21235  0.50753  0.07292  0.16919
               0.05184  0.17069  0.05469  0.07064 -0.00091
 B13           0.36560 -0.41835 -0.14678 -0.13915 -0.04799
               0.12211 -0.04813  0.11953 -0.14229 -0.00039

                  POLARIZABLE POINTS AND THE POLARIZABILITY TENSOR

              X       Y       Z       XX/YZ    YY/YX    ZZ/ZX    XY/ZY     XZ
 LMO1     -1.7690  5.7815 -2.9810   0.00400  0.00330  0.00317  0.00075  0.00028
                                    0.00014  0.00075  0.00028  0.00014
 LMO2     -1.3347  5.4347 -3.7915   1.22967  0.99521  2.27580 -0.32397 -0.71481
                                    0.52580 -0.24077 -0.91244  0.83886
 LMO3     -1.5275  5.1131 -2.3022   0.91860  1.77444  1.80764 -0.26656  0.31927
                                   -0.91512 -0.34976  0.51690 -1.22818
 LMO4     -2.3325  5.7616 -3.0583   1.27966  0.70160  1.45749 -0.69081 -0.18020
                                   -0.17917 -0.01989 -0.03534 -0.26603
 LMO5     -1.5204  6.2742 -2.8424   0.48873  1.45158  1.49844  0.32445 -0.06339
                                   -0.05952 -0.34648 -0.20825  0.02734
 LMO1      1.1500  3.8834  4.1091   0.00342  0.00372  0.00333  0.00063 -0.00051
                                   -0.00040  0.00063 -0.00051 -0.00040
 LMO2      0.5027  4.5933  4.3162   1.72041  1.95983  0.82043 -0.94630 -0.24826
                                    0.20651 -1.12284 -0.50126  0.42745
 LMO3      0.8362  3.5505  3.2392   0.95524  1.02158  2.52385  0.22337  0.47037
                                    0.76761  0.39991  0.72336  0.54668
 LMO4      1.0872  3.4675  4.4923   0.65058  1.31775  1.47041 -0.12990 -0.14332
                                    0.00486 -0.61508  0.32646  0.15511
 LMO5      1.6604  4.1238  4.0344   1.44429  0.96129  1.03316 -0.31628  0.28295
                                    0.59279  0.16890 -0.18683  0.44253

                    --------------                     ------------------
                      REP POINTS                         REP PARAMETERS  
                    --------------                     ------------------

                X         Y         Z               COEF       N          ZETA

  O1        -1.76926   5.78185  -2.98098        -0.00125       0       0.07615
                                                17.16050       0       1.00000
  H2        -1.36230   4.60113  -1.70753        -0.00025       0       0.09500
                                                 0.10634       0       0.60000
  H3        -1.00299   5.20039  -4.48302        -0.00025       0       0.09500
                                                 0.10634       0       0.60000
  O1         1.15033   3.88326   4.10929        -0.00125       0       0.07615
                                                17.16050       0       1.00000
  H2         0.62699   3.23871   2.53066        -0.00025       0       0.09500
                                                 0.10634       0       0.60000
  H3         0.00541   5.18208   4.53777        -0.00025       0       0.09500
                                                 0.10634       0       0.60000

 THERE ARE   1 FRAGMENT TYPES, AND   1 FRAGMENT-FRAGMENT INTERACTIONS.

 REPULSIVE FIT FOR FRAGMENT PAIR H2ODFT-H2ODFT (COEF,EXPONENT)
 O1      -O1         -47.20425500    1.50233300
 O1      -H2          44.18476900    2.73135500
 O1      -H3          44.18476900    2.73135500
 O1      -CENTER      31.73261600    1.51840900
 H2      -O1          44.18476900    2.73135500
 H2      -H2           0.12069900    1.31532100
 H2      -H3           0.12069900    1.31532100
 H2      -CENTER      -0.06170800    0.80230100
 H3      -O1          44.18476900    2.73135500
 H3      -H2           0.12069900    1.31532100
 H3      -H3           0.12069900    1.31532100
 H3      -CENTER      -0.06170800    0.80230100
 CENTER  -O1          31.73261600    1.51840900
 CENTER  -H2          -0.06170800    0.80230100
 CENTER  -H3          -0.06170800    0.80230100
 CENTER  -CENTER     146.76346400    2.08394700

 ** LOOKING UP INTERNALLY STORED DATA FOR SOLVENT=WATER    **
 OPTICAL AND PHYSICAL CONSTANTS:
 EPS= 78.390; EPSINF=  1.776; RSOLV=  1.385 A; VMOL=  18.070 ML/MOL;
 TCE= .25700E-03 1/K; STEN= 71.810 DYN/CM;  DSTEN=  0.6500; CMF=  1.2770


     -----------------------------------
     INPUT FOR PCM SOLVATION CALCULATION 
     -----------------------------------
     IEF   =     -10
     ICOMP =       0     IFIELD=       0     ICAV  =       0
     IDISP =       0     IREP  =       0     IDP   =       0

     SOLVNT=WATER        EPS   = 78.3900     EPSINF=  1.7760
     VMOL  = 18.0700     TCE   =  0.00025700 STEN  = 71.8100
     DSTEN =  0.6500     CMF   =  1.2770     RSOLV =  1.3850

     NESFP =       0
     OMEGA = 40.0000     RET   =100.0000     FRO   =  0.7000

     TABS  =298.0000     IPRINT=       0

     --------------------------------
     INPUT FOR ITERATIVE C-PCM METHOD 
     --------------------------------
     IPCMIT  =         1     MXDIIS  =        50
     MXITR1  =        50     MXITR2  =        50
     THRES   = 0.100E-09     IMUL    =         3
     RCUT(1) =   15.0000     RCUT(2) =   30.0000

     IDIRCT  =         1
     IMGABI  =         0     RABI    =    4.0000
     IMGASC  =         0     RASC    =   20.0000
     THRSLS  = 0.500E-03     DENSLS  =    0.0100
     IEFPOL  =         1     REFPOL  =    0.0000

     INPUT FOR ISOTROPIC DIELECTRICS
     -------------------------------
     EPS=    78.39

     INPUT FOR CAVITY DEFINITION 
     ---------------------------
   ATOM               COORDINATES                RADIUS       EPS
      1      0.9694     -0.6903     -0.5008      1.7700     78.3900
      2     -0.3818     -0.0195     -0.3099      1.7700     78.3900
      3     -0.2611      1.3524      0.0154      1.5900     78.3900
      4     -1.4665     -0.7127      0.4991      1.7700     78.3900
      5      1.5912     -0.1265     -1.2061      0.0100     78.3900
      6     -1.1580     -0.8179      1.5512      0.0100     78.3900
      7      1.5032     -0.7677      0.4594      0.0100     78.3900
      8      0.8030     -1.6981     -0.8963      0.0100     78.3900
      9     -2.4056     -0.1491      0.4623      0.0100     78.3900
     10     -1.6297     -1.7097      0.0762      0.0100     78.3900
     11     -0.9362      3.0596     -1.5775      1.5900     78.3900
     12     -0.7209      2.4348     -0.9036      0.0100     78.3900
     13     -0.5308      2.7519     -2.3723      0.0100     78.3900
     14      0.6087      2.0549      2.1745      1.5900     78.3900
     15      0.3318      1.7139      1.3392      0.0100     78.3900
     16      0.0029      2.7422      2.4013      0.0100     78.3900

     ----------------------------
     INPUT FOR TESSERA DEFINITION
     ----------------------------
     NTSALL  =        60     MTHALL  =         4
     MTHAUT  =         0     AUTFRE  =    2.0000
     NTSFRZ  =        60     KEEPSM  =         0
     AREAKP  =   10.0000     BONDRY  =    1.0000
     AREATL  =    0.0100

     SPHERE     INITS       METHOD
          1        60       FIXPVA
          2        60       FIXPVA
          3        60       FIXPVA
          4        60       FIXPVA
          5        60       FIXPVA
          6        60       FIXPVA
          7        60       FIXPVA
          8        60       FIXPVA
          9        60       FIXPVA
         10        60       FIXPVA
         11        60       FIXPVA
         12        60       FIXPVA
         13        60       FIXPVA
         14        60       FIXPVA
         15        60       FIXPVA
         16        60       FIXPVA

     ------------------------------
      FIXPVA TESSELLATION FOR PCM
         PEIFENG SU AND HUI LI
     UNIVERSITY OF NEBRASKA-LINCOLN
     ------------------------------


     -----------------------------
     INPUT FOR PCM GRADIENT METHOD
     -----------------------------
     IPCDER  =         3     IFAST   =         0
     FIXPVA GRADIENTS BY PEIFENG SU AND HUI LI
  

 PCM DIMENSIONS: MXSP=  2000, MXTS=       960, MEMORY=         49123

          ----------------
          PROPERTIES INPUT
          ----------------

     MOMENTS            FIELD           POTENTIAL          DENSITY
 IEMOM =       1   IEFLD =       0   IEPOT =       0   IEDEN =       0
 WHERE =COMASS     WHERE =NUCLEI     WHERE =NUCLEI     WHERE =NUCLEI  
 OUTPUT=BOTH       OUTPUT=BOTH       OUTPUT=BOTH       OUTPUT=BOTH    
 IEMINT=       0   IEFINT=       0                     IEDINT=       0
                                                       MORB  =       0
          EXTRAPOLATION IN EFFECT
          DIIS IN EFFECT
 ORBITAL PRINTING OPTION: NPREO=     1    72     2     1

     -------------------------------
     INTEGRAL TRANSFORMATION OPTIONS
     -------------------------------
     NWORD  =            0
     CUTOFF = 1.0E-09     MPTRAN =       0
     DIRTRF =       T     AOINTS =DUP     

          ----------------------
          INTEGRAL INPUT OPTIONS
          ----------------------
 NOPK  =       1 NORDER=       0 SCHWRZ=       T

          -----------------------
          MP2 CONTROL INFORMATION
          -----------------------
          NACORE =        4  NBCORE =        4
          LMOMP2 =        F  AOINTS = DUP     
          METHOD =        2  NWORD  =               0
          MP2PRP =        F  OSPT   = ZAPT    
          CUTOFF = 1.00E-09  CPHFBS = BASISAO 
          CODE   = DDI     

          NUMBER OF CORE -A-  ORBITALS =     4
          NUMBER OF CORE -B-  ORBITALS =     4
          NUMBER OF OCC. -A-  ORBITALS =    17
          NUMBER OF OCC. -B-  ORBITALS =    15
          NUMBER OF MOLECULAR ORBITALS =    72
          NUMBER OF   BASIS  FUNCTIONS =    72


     ------------------------------------------
     THE POINT GROUP IS C1 , NAXIS= 1, ORDER= 1
     ------------------------------------------

     DIMENSIONS OF THE SYMMETRY SUBSPACES ARE
 A   =   72

 ..... DONE SETTING UP THE RUN .....
 CPU     0: STEP CPU TIME=     0.05 TOTAL CPU TIME=        0.0 (    0.0 MIN)
 TOTAL WALL CLOCK TIME=        0.0 SECONDS, CPU UTILIZATION IS 100.00%


          -----------------------------
          STATIONARY POINT LOCATION RUN
          -----------------------------

 OBTAINING INITIAL HESSIAN, HESS=READ    

 $HESS GROUP READ FROM CARDS
 ENERGY IS     -191.1930521474 E(NUC) IS      116.5017524055                     

          PARAMETERS CONTROLLING GEOMETRY SEARCH ARE
          METHOD =QA                  UPHESS =BFGS    
          NNEG   =         0          NFRZ   =         0
          NSTEP  =         5          IFOLOW =         1
          HESS   =READ                RESTAR =         F
          IHREP  =         0          HSSEND =         F
          NPRT   =         0          NPUN   =         0
          OPTTOL = 1.000E-07          RMIN   = 1.500E-03
          RMAX   = 1.000E-01          RLIM   = 7.000E-02
          DXMAX  = 3.000E-01          PURIFY =         F
          MOVIE  =         F          TRUPD  =         T
          TRMAX  = 5.000E-01          TRMIN  = 5.000E-02
          ITBMAT =         5          STPT   =         F
          STSTEP = 1.000E-02          PROJCT=          T

 BEGINNING GEOMETRY SEARCH POINT NSERCH=   0 ...

 COORDINATES OF ALL ATOMS ARE (ANGS)
   ATOM   CHARGE       X              Y              Z
 ------------------------------------------------------------
 C           6.0   0.9693551116  -0.6903151410  -0.5007622040
 C           6.0  -0.3818171857  -0.0194550481  -0.3098660987
 O           8.0  -0.2610571287   1.3523918629   0.0154158165
 C           6.0  -1.4665392885  -0.7127219154   0.4990844060
 H           1.0   1.5911893447  -0.1264832908  -1.2060878085
 H           1.0  -1.1580034720  -0.8179253915   1.5511637737
 H           1.0   1.5032328998  -0.7676915759   0.4593883823
 H           1.0   0.8030351382  -1.6980821726  -0.8963327629
 H           1.0  -2.4056294736  -0.1490671637   0.4623287914
 H           1.0  -1.6297334134  -1.7097478230   0.0761796971
 COORDINATES OF FRAGMENT MULTIPOLE CENTERS (ANGS)
 MULTIPOLE NAME        X              Y              Z
 ------------------------------------------------------------
 FRAGNAME=H2ODFT
 O1               -0.9362499665   3.0596251367  -1.5774663302
 H2               -0.7208985489   2.4348132273  -0.9035877812
 H3               -0.5307578658   2.7519277426  -2.3723102922
 FRAGNAME=H2ODFT
 O1                0.6087273290   2.0549317203   2.1745419071
 H2                0.3317865148   1.7138502610   1.3391703265
 H3                0.0028618180   2.7422411755   2.4012821757

          ********************
          1 ELECTRON INTEGRALS
          ********************
 TIME TO DO ORDINARY INTEGRALS=      0.00
 TIME TO DO FRAGMENT INTEGRALS=      0.06
 ...... END OF ONE-ELECTRON INTEGRALS ......
 CPU     0: STEP CPU TIME=     0.06 TOTAL CPU TIME=        0.1 (    0.0 MIN)
 TOTAL WALL CLOCK TIME=        0.1 SECONDS, CPU UTILIZATION IS 100.00%

          -------------
          GUESS OPTIONS
          -------------
          GUESS =HUCKEL            NORB  =       0          NORDER=       0
          MIX   =       F          PRTMO =       F          PUNMO =       F
          TOLZ  = 1.0E-08          TOLE  = 1.0E-05
          SYMDEN=       F          PURIFY=       F

 INITIAL GUESS ORBITALS GENERATED BY HUCKEL   ROUTINE.
 HUCKEL GUESS REQUIRES     47838 WORDS.

 SYMMETRIES FOR INITIAL GUESS ORBITALS FOLLOW.  ALPHA SET(S).
    17 ORBITALS ARE OCCUPIED (    4 CORE ORBITALS).
     5=A        6=A        7=A        8=A        9=A       10=A       11=A   
    12=A       13=A       14=A       15=A       16=A       17=A       18=A   
    19=A       20=A       21=A       22=A       23=A       24=A       25=A   
    26=A       27=A   

 SYMMETRIES FOR INITIAL GUESS ORBITALS FOLLOW.   BETA SET(S).
    15 ORBITALS ARE OCCUPIED (    4 CORE ORBITALS).
     5=A        6=A        7=A        8=A        9=A       10=A       11=A   
    12=A       13=A       14=A       15=A       16=A       17=A       18=A   
    19=A       20=A       21=A       22=A       23=A       24=A       25=A   
 ...... END OF INITIAL ORBITAL SELECTION ......
 CPU     0: STEP CPU TIME=     0.00 TOTAL CPU TIME=        0.1 (    0.0 MIN)
 TOTAL WALL CLOCK TIME=        0.1 SECONDS, CPU UTILIZATION IS  91.67%

                    ----------------------
                    AO INTEGRAL TECHNOLOGY
                    ----------------------
     S,P,L SHELL ROTATED AXIS INTEGRALS, REPROGRAMMED BY
        KAZUYA ISHIMURA (IMS) AND JOSE SIERRA (SYNSTAR).
     S,P,D,L SHELL ROTATED AXIS INTEGRALS PROGRAMMED BY
        KAZUYA ISHIMURA (INSTITUTE FOR MOLECULAR SCIENCE).
     S,P,D,F,G SHELL TO TOTAL QUARTET ANGULAR MOMENTUM SUM 5,
        ERIC PROGRAM BY GRAHAM FLETCHER (ELORET AND NASA ADVANCED
        SUPERCOMPUTING DIVISION, AMES RESEARCH CENTER).
     S,P,D,F,G,L SHELL GENERAL RYS QUADRATURE PROGRAMMED BY
        MICHEL DUPUIS (PACIFIC NORTHWEST NATIONAL LABORATORY).

          --------------------
          2 ELECTRON INTEGRALS
          --------------------

 DIRECT SCF METHOD SKIPS INTEGRAL STORAGE ON DISK.
 DIRECT TRANSFORMATION SKIPS AO INTEGRAL STORAGE ON DISK.
  ...... END OF TWO-ELECTRON INTEGRALS .....
 CPU     0: STEP CPU TIME=     0.02 TOTAL CPU TIME=        0.1 (    0.0 MIN)
 TOTAL WALL CLOCK TIME=        0.1 SECONDS, CPU UTILIZATION IS  92.86%

          ********************************************
          *    EFFECTIVE FRAGMENT POTENTIAL(EFP)     *
          *                 +                        *
          *    POLARISABLE CONTINUUM MODEL(PCM)      *
          *                                          *
          *       PRADIPTA BANDYOPADHYAY             *
          *               AND                        *
          *         BENEDETTA MENNUCCI               *
          *             JULY-2000                    *
          ********************************************

        <><><><><><><><><><><><><><><><><><><><><><><><>
             VARIATIONAL QM/MM(POL)/CONTINUUM STYLE  
                         HF, MCSCF, DFT              
                   QM/MM(POL)/CONTINUUM STYLE        
                         MP2 AND TD-DFT              
           LI GROUP AT UNIVERSITY OF NEBRASKA-LINCOLN
        <><><><><><><><><><><><><><><><><><><><><><><><>

     ----------------------------
     INPUT FOR TESSERA DEFINITION
     ----------------------------
     NTSALL  =        60     MTHALL  =         4
     MTHAUT  =         0     AUTFRE  =    2.0000
     NTSFRZ  =        60     KEEPSM  =         0
     AREAKP  =   10.0000     BONDRY  =    1.0000
     AREATL  =    0.0100

     SPHERE     INITS       METHOD
          1        60       FIXPVA
          2        60       FIXPVA
          3        60       FIXPVA
          4        60       FIXPVA
          5        60       FIXPVA
          6        60       FIXPVA
          7        60       FIXPVA
          8        60       FIXPVA
          9        60       FIXPVA
         10        60       FIXPVA
         11        60       FIXPVA
         12        60       FIXPVA
         13        60       FIXPVA
         14        60       FIXPVA
         15        60       FIXPVA
         16        60       FIXPVA

     ------------------------------
      FIXPVA TESSELLATION FOR PCM
         PEIFENG SU AND HUI LI
     UNIVERSITY OF NEBRASKA-LINCOLN
     ------------------------------


     INPUT FOR CAVITY DEFINITION 
     ---------------------------
   ATOM               COORDINATES                RADIUS       EPS
      1      0.9694     -0.6903     -0.5008      1.7700     78.3900
      2     -0.3818     -0.0195     -0.3099      1.7700     78.3900
      3     -0.2611      1.3524      0.0154      1.5900     78.3900
      4     -1.4665     -0.7127      0.4991      1.7700     78.3900
      5      1.5912     -0.1265     -1.2061      0.0100     78.3900
      6     -1.1580     -0.8179      1.5512      0.0100     78.3900
      7      1.5032     -0.7677      0.4594      0.0100     78.3900
      8      0.8030     -1.6981     -0.8963      0.0100     78.3900
      9     -2.4056     -0.1491      0.4623      0.0100     78.3900
     10     -1.6297     -1.7097      0.0762      0.0100     78.3900
     11     -0.9362      3.0596     -1.5775      1.5900     78.3900
     12     -0.7209      2.4348     -0.9036      0.0100     78.3900
     13     -0.5308      2.7519     -2.3723      0.0100     78.3900
     14      0.6087      2.0549      2.1745      1.5900     78.3900
     15      0.3318      1.7139      1.3392      0.0100     78.3900
     16      0.0029      2.7422      2.4013      0.0100     78.3900

 MEMORY USED TO GENERATE CAVITY=    288322


 TOTAL NUMBER OF SPHERES=    16
 SPHERE           CENTER  (X,Y,Z) (A)               RADIUS (A)      AREA(A*A)
     1   0.969355112  -0.690315141  -0.500762204   2.124000000  32.597874842
     2  -0.381817186  -0.019455048  -0.309866099   2.124000000   6.318455761
     3  -0.261057129   1.352391863   0.015415817   1.908000000   6.156873490
     4  -1.466539289  -0.712721915   0.499084406   2.124000000  33.339018312
     5   1.591189345  -0.126483291  -1.206087809   0.012000000   0.000000000
     6  -1.158003472  -0.817925392   1.551163774   0.012000000   0.000000000
     7   1.503232900  -0.767691576   0.459388382   0.012000000   0.000000000
     8   0.803035138  -1.698082173  -0.896332763   0.012000000   0.000000000
     9  -2.405629474  -0.149067164   0.462328791   0.012000000   0.000000000
    10  -1.629733413  -1.709747823   0.076179697   0.012000000   0.000000000
    11  -0.936249967   3.059625137  -1.577466330   1.908000000  34.737106319
    12  -0.720898549   2.434813227  -0.903587781   0.012000000   0.000000000
    13  -0.530757866   2.751927743  -2.372310292   0.012000000   0.000000000
    14   0.608727329   2.054931720   2.174541907   1.908000000  31.848756847
    15   0.331786515   1.713850261   1.339170327   0.012000000   0.000000000
    16   0.002861818   2.742241175   2.401282176   0.012000000   0.000000000

 TOTAL NUMBER OF TESSERAE=     191
 SURFACE AREA=   144.99808557(A**2)    CAVITY VOLUME=    131.64455947 (A**3)
 CPU     0: STEP CPU TIME=     0.00 TOTAL CPU TIME=        0.1 (    0.0 MIN)
 TOTAL WALL CLOCK TIME=        0.1 SECONDS, CPU UTILIZATION IS  86.67%

          THE SOLUTE IS ENCLOSED IN ONE CAVITY
 DONE CHECKING SEPARATION.
 CPU     0: STEP CPU TIME=     0.00 TOTAL CPU TIME=        0.1 (    0.0 MIN)
 TOTAL WALL CLOCK TIME=        0.1 SECONDS, CPU UTILIZATION IS  86.67%

 ..... DONE GENERATING CAVITY .....
 CPU     0: STEP CPU TIME=     0.00 TOTAL CPU TIME=        0.1 (    0.0 MIN)
 TOTAL WALL CLOCK TIME=        0.1 SECONDS, CPU UTILIZATION IS  86.67%
 NUCLEI-NUCLEAR CHARGE POLARIZATION ADJUSTMENT TO VNN=        0.0000000000

 EFP ADDITIVE CONTRIBUTIONS TO THE "NUCLEAR ENERGY":
   -- NUCLEAR CHARGE - NUCLEAR CHARGE   =      115.2932368512
   -- NUCLEAR CHARGE - EFP CHARGE       =        0.8821067498
   -- NUCLEAR CHARGE - EFP DIPOLE       =        0.2247962112
   -- NUCLEAR CHARGE - EFP QUADRUPOLE   =        0.1275948595
   -- NUCLEAR CHARGE - EFP OCTUPOLE     =       -0.0075898902
   -- EFP CHARGE     - EFP CHARGE       =        0.0009423402
   -- EFP CHARGE     - EFP DIPOLE       =        0.0003045079
   -- EFP CHARGE     - EFP QUADRUPOLE   =        0.0005048269
   -- EFP CHARGE     - EFP OCTUPOLE     =       -0.0000149084
   -- EFP DIPOLE     - EFP DIPOLE       =        0.0000057563
   -- EFP DIPOLE     - EFP QUADRUPOLE   =        0.0001302505
   -- EFP QUADRUPOLE - EFP QUADRUPOLE   =        0.0000412647
   -- EFP-EFP EXCHANGE REPULSION ENERGY =       -0.0005659897
   -- EFP-EFP DISPERSION ENERGY (C6)    =        0.0000000000
   -- EFP-EFP DISPERSION ENERGY (C8)    =        0.0000000000
   -- TOTAL INTERFRAGMENT INTERACTION   =        0.0013480484
 THE TOTAL NUCLEAR CHARGE/EFP ENERGY    =      116.5214928299

          ---------------------------
                 ROHF SCF CALCULATION
          ---------------------------

     NUCLEAR ENERGY =       116.5214928299
     MAXIT = 30     NPUNCH=  2     MULT=  3
     EXTRAP=T  DAMP=F  SHIFT=F  RSTRCT=F  DIIS=T  SOSCF=F
     DENSITY MATRIX CONV=  2.00E-06
     ROHF CANONICALIZATION PARAMETERS
             C-C     O-O     V-V
     ALPHA -0.5000  0.5000  1.5000
     BETA   1.5000  0.5000 -0.5000
     MEMORY REQUIRED FOR UHF/ROHF ITERS=    189565 WORDS.

 DIRECT SCF CALCULATION, SCHWRZ=T   FDIFF=F
 SCHWARZ INEQUALITY OVERHEAD:      2625 INTEGRALS, T=        0.01

                                                                                NONZERO     BLOCKS
 ITER EX      TOTAL ENERGY        E CHANGE  DENSITY CHANGE    DIIS ERROR      INTEGRALS    SKIPPED
   1  0     -191.3237053896  -191.3237053896   0.373575074   0.755375908        3350536       6904
          * * *   INITIATING DIIS PROCEDURE   * * *
   2  1     -191.7873272342    -0.4636218447   0.315366002   0.109280826        3349520       7056
   3  2     -191.6771721136     0.1101551206   0.253559310   0.153102764        3349733       7009
   4  3     -191.8784014076    -0.2012292940   0.028050467   0.017751757        3349324       7064
   5  4     -191.8805935262    -0.0021921186   0.010444646   0.006501754        3349308       7059
   6  5     -191.8809207280    -0.0003272018   0.002105145   0.001121101        3349273       7053
   7  6     -191.8809467223    -0.0000259943   0.000881925   0.000562713        3349283       7052
   8  7     -191.8809526445    -0.0000059222   0.000650272   0.000172973        3349283       7052
   9  8     -191.8809545905    -0.0000019460   0.000571866   0.000150198        3349279       7053
  10  9     -191.8809556691    -0.0000010786   0.000904607   0.000121139        3349279       7053
  11 10     -191.8809569787    -0.0000013096   0.000966316   0.000072653        3349279       7053
  12 11     -191.8809577292    -0.0000007505   0.000315433   0.000020372        3349279       7053
  13 12     -191.8809574587     0.0000002705   0.000037769   0.000003949        3349279       7053
  14 13     -191.8809572842     0.0000001744   0.000004782   0.000001270        3349279       7053
  15 14     -191.8809572546     0.0000000296   0.000001397   0.000000503        3349279       7053
  16 15     -191.8809572460     0.0000000086   0.000000485   0.000000228        3349279       7053

          -----------------
          DENSITY CONVERGED
          -----------------
     TIME TO FORM FOCK OPERATORS=       4.8 SECONDS (       0.3 SEC/ITER)
     FOCK TIME ON FIRST ITERATION=       0.3, LAST ITERATION=       0.3
     TIME TO SOLVE SCF EQUATIONS=       0.1 SECONDS (       0.0 SEC/ITER)

 THE CONVERGED ORBITALS WILL UNDERGO GUEST/SAUNDERS
 CANONICALIZATION FOR ZAPT PERTURBATION THEORY.

 FINAL ROHF ENERGY IS     -191.8809572460 AFTER  16 ITERATIONS

          --------------------
          SPIN SZ   =    1.000
          S-SQUARED =    2.000
          --------------------
  
   PCM ASC=     -0.0111737035
   GCAVP  =      0.0000000000
   GDISP  =      0.0000000000
   GREP   =      0.0000000000

          INDUCED DIPOLE     ATOMIC UNITS          DEBYE
                X(IND)           -0.03029         -0.07699
                Y(IND)           -0.11560         -0.29383
                Z(IND)           -0.07842         -0.19931

          ------------
          EIGENVECTORS
          ------------

                      1          2          3          4          5
                  -20.6591   -11.2999   -11.2326   -11.2324    -1.3688
                     A          A          A          A          A   
    1  C  1  S    0.000001   0.004350   0.994549   0.048449  -0.015496
    2  C  1  S    0.000042   0.000144   0.028391   0.001150   0.029753
    3  C  1  X    0.000018  -0.000011  -0.000315   0.000084  -0.017384
    4  C  1  Y   -0.000014  -0.000048   0.000153   0.000065   0.016061
    5  C  1  Z    0.000002  -0.000004   0.000071  -0.000076   0.004356
    6  C  1  S   -0.000067   0.003495  -0.014817   0.000192   0.014968
    7  C  1  X    0.000074  -0.001641   0.000816  -0.000345   0.000842
    8  C  1  Y   -0.000065   0.000818  -0.000308  -0.000139   0.005419
    9  C  1  Z   -0.000056   0.000687  -0.000173   0.000304   0.001651
   10  C  1 XX   -0.000023  -0.000393  -0.001846  -0.000139   0.003333
   11  C  1 YY   -0.000038  -0.000275  -0.001816  -0.000140   0.002186
   12  C  1 ZZ   -0.000017  -0.000074  -0.001810  -0.000185   0.000506
   13  C  1 XY    0.000026   0.000176   0.000031  -0.000033  -0.003597
   14  C  1 XZ    0.000009  -0.000024  -0.000013  -0.000011  -0.001193
   15  C  1 YZ   -0.000010   0.000042   0.000005  -0.000016   0.000569
   16  C  2  S   -0.000022   0.995891  -0.004423  -0.004867  -0.075057
   17  C  2  S    0.000275   0.026728   0.000137   0.000152   0.142338
   18  C  2  X    0.000012   0.000502  -0.000010  -0.000017   0.013165
   19  C  2  Y    0.000306   0.001048  -0.000052  -0.000058   0.098347
   20  C  2  Z    0.000037   0.001245  -0.000035  -0.000035   0.034333
   21  C  2  S    0.000103  -0.012197   0.002740   0.003017   0.035174
   22  C  2  X    0.000014  -0.000702   0.001725  -0.001419  -0.000334
   23  C  2  Y   -0.000198   0.001268  -0.000731  -0.000831  -0.021296
   24  C  2  Z    0.000024  -0.001677  -0.000509   0.000797  -0.001848
   25  C  2 XX   -0.000026  -0.001585  -0.000453  -0.000378  -0.005576
   26  C  2 YY   -0.000033  -0.001247  -0.000256  -0.000286   0.022454
   27  C  2 ZZ   -0.000056  -0.001777  -0.000121  -0.000250  -0.006630
   28  C  2 XY    0.000002   0.000037   0.000177  -0.000144   0.003288
   29  C  2 XZ   -0.000017  -0.000113   0.000053   0.000194  -0.000728
   30  C  2 YZ    0.000005   0.000097  -0.000044   0.000093   0.008739
   31  O  3  S    0.994722  -0.000153  -0.000040  -0.000044  -0.208723
   32  O  3  S    0.020954   0.000227  -0.000231  -0.000253   0.477344
   33  O  3  X   -0.000068  -0.000068  -0.000019   0.000015  -0.006225
   34  O  3  Y   -0.000834  -0.000132   0.000079   0.000087  -0.079265
   35  O  3  Z   -0.000186  -0.000169   0.000008  -0.000005  -0.016770
   36  O  3  S    0.003852   0.001123   0.000662   0.000722   0.474241
   37  O  3  X    0.000026   0.000161   0.000061  -0.000047  -0.003967
   38  O  3  Y    0.000321   0.000455  -0.000274  -0.000302  -0.049194
   39  O  3  Z    0.000075   0.000400  -0.000024   0.000025  -0.010311
   40  O  3 XX   -0.004134   0.000039  -0.000078  -0.000163  -0.001257
   41  O  3 YY   -0.003981  -0.000881  -0.000061  -0.000064   0.022145
   42  O  3 ZZ   -0.003861   0.000055  -0.000232  -0.000179   0.005456
   43  O  3 XY   -0.000030  -0.000144  -0.000055   0.000064   0.000832
   44  O  3 XZ    0.000175   0.000014  -0.000001  -0.000089   0.004454
   45  O  3 YZ   -0.000052  -0.000374   0.000044  -0.000004   0.003422
   46  C  4  S    0.000001   0.004341  -0.048560   0.994543  -0.015481
   47  C  4  S    0.000041   0.000145  -0.001617   0.028370   0.029776
   48  C  4  X   -0.000011   0.000006  -0.000139   0.000259   0.015223
   49  C  4  Y   -0.000015  -0.000052   0.000049   0.000163   0.016404
   50  C  4  Z    0.000014  -0.000013   0.000026  -0.000174  -0.008978
   51  C  4  S   -0.000063   0.003487   0.001626  -0.014729   0.015114
   52  C  4  X   -0.000093   0.001633   0.000515  -0.000649   0.000252
   53  C  4  Y   -0.000064   0.000866  -0.000112  -0.000331   0.005270
   54  C  4  Z    0.000010  -0.000646  -0.000090   0.000448   0.001528
   55  C  4 XX   -0.000028  -0.000210   0.000026  -0.001823   0.002903
   56  C  4 YY   -0.000039  -0.000280   0.000037  -0.001823   0.002333
   57  C  4 ZZ   -0.000012  -0.000250   0.000008  -0.001846   0.000835
   58  C  4 XY   -0.000025  -0.000097   0.000015  -0.000019   0.002967
   59  C  4 XZ    0.000003   0.000183  -0.000026   0.000017  -0.001579
   60  C  4 YZ    0.000011   0.000154  -0.000038   0.000023  -0.002137
   61  H  5  S    0.000012  -0.000094   0.000127  -0.000004   0.006972
   62  H  5  S   -0.000048   0.000181   0.002406   0.000408   0.000748
   63  H  6  S    0.000021  -0.000272  -0.000067   0.000143   0.005419
   64  H  6  S   -0.000004   0.000068  -0.000342   0.002513   0.000248
   65  H  7  S    0.000022  -0.000274   0.000147  -0.000049   0.005459
   66  H  7  S   -0.000007   0.000078   0.002539  -0.000115   0.000115
   67  H  8  S    0.000000  -0.000082   0.000147  -0.000057   0.004718
   68  H  8  S   -0.000045   0.000175   0.002508  -0.000141  -0.001347
   69  H  9  S    0.000012  -0.000095  -0.000017   0.000125   0.007035
   70  H  9  S   -0.000051   0.000168   0.000171   0.002433   0.000611
   71  H 10  S   -0.000000  -0.000081  -0.000068   0.000140   0.004717
   72  H 10  S   -0.000045   0.000203  -0.000403   0.002486  -0.001522

                      6          7          8          9         10
                   -1.0332    -0.9512    -0.7703    -0.6368    -0.6301
                     A          A          A          A          A   
    1  C  1  S   -0.118240   0.138469  -0.058107   0.017569  -0.004686
    2  C  1  S    0.220109  -0.255913   0.105142  -0.029736   0.008323
    3  C  1  X   -0.048709  -0.007582   0.123580  -0.188930   0.140876
    4  C  1  Y    0.011347  -0.007899  -0.084362  -0.055897   0.072248
    5  C  1  Z    0.011019   0.007145  -0.023236   0.105971   0.122726
    6  C  1  S    0.203521  -0.275778   0.150744  -0.072365   0.007622
    7  C  1  X   -0.007553  -0.003131   0.037042  -0.078174   0.074170
    8  C  1  Y   -0.000674  -0.003494  -0.026822  -0.030527   0.047088
    9  C  1  Z   -0.000038  -0.000976  -0.001920   0.049338   0.062399
   10  C  1 XX    0.008754  -0.003050  -0.007759   0.007034  -0.003973
   11  C  1 YY    0.004408  -0.007428   0.005287  -0.003591  -0.007734
   12  C  1 ZZ    0.003687  -0.007290   0.009134  -0.006936   0.013213
   13  C  1 XY   -0.001391  -0.002173   0.012314  -0.009057  -0.000106
   14  C  1 XZ   -0.001481  -0.000811   0.004187   0.003717   0.004410
   15  C  1 YZ    0.001000   0.000799  -0.001319   0.009827  -0.004789
   16  C  2  S   -0.109304  -0.000139   0.119108  -0.035749   0.034838
   17  C  2  S    0.216521   0.000332  -0.244154   0.072414  -0.078025
   18  C  2  X    0.019397  -0.162418  -0.019896   0.032722   0.047684
   19  C  2  Y   -0.101787  -0.001689  -0.088944  -0.242424   0.117010
   20  C  2  Z    0.044372   0.066891  -0.049563   0.064589   0.097839
   21  C  2  S    0.160032   0.000144  -0.233442   0.138299  -0.076052
   22  C  2  X    0.009263  -0.030978  -0.011382   0.016284   0.013395
   23  C  2  Y   -0.018152  -0.000593   0.004354  -0.080602   0.026307
   24  C  2  Z    0.021856   0.012904  -0.027084   0.036295   0.029427
   25  C  2 XX    0.015595  -0.006070   0.003515   0.007111  -0.004514
   26  C  2 YY   -0.004841   0.000172  -0.013321  -0.018011  -0.001788
   27  C  2 ZZ   -0.002867   0.005926   0.006828   0.006115   0.008181
   28  C  2 XY   -0.002011   0.011723  -0.002386  -0.001498   0.006304
   29  C  2 XZ   -0.010477  -0.006899   0.002000  -0.000263   0.007536
   30  C  2 YZ   -0.005519  -0.004934  -0.006107  -0.004843   0.014513
   31  O  3  S    0.064752   0.000051  -0.061087  -0.017836   0.009989
   32  O  3  S   -0.148488  -0.000166   0.137093   0.034929  -0.020073
   33  O  3  X   -0.001827  -0.022501   0.030452   0.132165   0.160953
   34  O  3  Y   -0.077865   0.000056   0.352007   0.190069  -0.233001
   35  O  3  Z   -0.007559   0.008151   0.085622   0.306544   0.348441
   36  O  3  S   -0.195737   0.000043   0.233764   0.083130  -0.046246
   37  O  3  X   -0.002260  -0.008624   0.020306   0.093604   0.119455
   38  O  3  Y   -0.035879   0.000043   0.217884   0.127023  -0.162335
   39  O  3  Z   -0.007372   0.002694   0.057658   0.215504   0.256568
   40  O  3 XX   -0.000766   0.000318   0.003992   0.000308  -0.001011
   41  O  3 YY    0.005154   0.000062  -0.022576  -0.009947   0.010286
   42  O  3 ZZ   -0.003551  -0.000412   0.006565  -0.000068  -0.003515
   43  O  3 XY    0.000737   0.003580  -0.003246  -0.004890  -0.003237
   44  O  3 XZ   -0.001876   0.000461   0.002030   0.000151  -0.001514
   45  O  3 YZ    0.001626  -0.001453  -0.008141  -0.011313  -0.006529
   46  C  4  S   -0.117916  -0.138804  -0.057976   0.016917  -0.006012
   47  C  4  S    0.219515   0.256624   0.104966  -0.028547   0.010974
   48  C  4  X    0.042113  -0.010528  -0.102850   0.207709  -0.019726
   49  C  4  Y    0.012107   0.007742  -0.085888  -0.058127   0.058433
   50  C  4  Z   -0.026410  -0.000005   0.069471  -0.056351   0.190319
   51  C  4  S    0.202929   0.276098   0.150217  -0.070789   0.010418
   52  C  4  X    0.005394  -0.001646  -0.027033   0.089607  -0.012611
   53  C  4  Y   -0.000688   0.003242  -0.027718  -0.032538   0.039026
   54  C  4  Z   -0.005372   0.002909   0.024416  -0.019017   0.099079
   55  C  4 XX    0.007469   0.004513  -0.002760  -0.003408   0.000791
   56  C  4 YY    0.004409   0.007423   0.004884  -0.003594  -0.007140
   57  C  4 ZZ    0.004911   0.005888   0.004549   0.003633   0.008201
   58  C  4 XY    0.001787  -0.002201  -0.009869   0.013485  -0.004072
   59  C  4 XZ   -0.002896   0.002338   0.009503  -0.007279   0.010310
   60  C  4 YZ   -0.000309   0.001029   0.007844   0.000489  -0.003291
   61  H  5  S    0.064094  -0.099081   0.067300  -0.136718   0.024796
   62  H  5  S    0.009959  -0.023845   0.031747  -0.088489   0.006236
   63  H  6  S    0.067933   0.091131   0.071244  -0.007833   0.111650
   64  H  6  S    0.007900   0.018695   0.036904   0.001569   0.087706
   65  H  7  S    0.068128  -0.091328   0.071310  -0.011502   0.110310
   66  H  7  S    0.008083  -0.019041   0.037280  -0.000064   0.087989
   67  H  8  S    0.072829  -0.090666   0.080865   0.008492  -0.075331
   68  H  8  S    0.012574  -0.020438   0.040785   0.008998  -0.045797
   69  H  9  S    0.063891   0.099454   0.067307  -0.137366   0.027540
   70  H  9  S    0.009964   0.024064   0.032254  -0.088990   0.007468
   71  H 10  S    0.072603   0.091122   0.080441   0.010144  -0.069185
   72  H 10  S    0.012559   0.020505   0.040311   0.009758  -0.042582

                     11         12         13         14         15
                   -0.5837    -0.5618    -0.5491    -0.5392    -0.5166
                     A          A          A          A          A   
    1  C  1  S    0.007427  -0.001033  -0.000204  -0.003715   0.009977
    2  C  1  S   -0.009290   0.000637  -0.001324   0.006844  -0.019868
    3  C  1  X   -0.114742  -0.025045   0.109736   0.002791   0.273899
    4  C  1  Y    0.272939   0.066792   0.108605   0.273448   0.086750
    5  C  1  Z   -0.080845  -0.244836   0.275880   0.056887  -0.144296
    6  C  1  S   -0.038691   0.006908   0.002009   0.011231  -0.033296
    7  C  1  X   -0.044759  -0.012222   0.061501   0.006857   0.151990
    8  C  1  Y    0.145355   0.045693   0.064444   0.148041   0.061560
    9  C  1  Z   -0.043831  -0.139221   0.159719   0.031810  -0.089564
   10  C  1 XX    0.011736   0.001752   0.002388   0.012431  -0.002962
   11  C  1 YY   -0.006419   0.007070  -0.018422  -0.019212  -0.003469
   12  C  1 ZZ   -0.008025  -0.010245   0.015449   0.003950   0.009729
   13  C  1 XY   -0.008762   0.006286  -0.005901  -0.004787   0.017311
   14  C  1 XZ   -0.012914  -0.016223   0.013357  -0.006336  -0.012216
   15  C  1 YZ   -0.010220  -0.003265  -0.006519  -0.014022  -0.014949
   16  C  2  S   -0.000306  -0.008219   0.000251  -0.034687   0.000409
   17  C  2  S    0.000821   0.020597  -0.000640   0.072491  -0.000935
   18  C  2  X    0.275908  -0.015073  -0.016263   0.002213  -0.259808
   19  C  2  Y    0.002429  -0.045594   0.001599  -0.171670  -0.000764
   20  C  2  Z   -0.118832  -0.003040   0.005568  -0.001370   0.108289
   21  C  2  S   -0.000977   0.005876  -0.000842   0.136137  -0.001060
   22  C  2  X    0.121471   0.001350  -0.001016   0.004363  -0.113127
   23  C  2  Y    0.001234  -0.025693  -0.000150  -0.032516  -0.001049
   24  C  2  Z   -0.051343   0.019169   0.000052   0.006479   0.047763
   25  C  2 XX    0.005746   0.009464   0.006953   0.019902  -0.008520
   26  C  2 YY    0.000012  -0.010891   0.000381  -0.026135   0.000320
   27  C  2 ZZ   -0.005765   0.001395  -0.007395   0.003652   0.008218
   28  C  2 XY   -0.001260   0.005355   0.005477  -0.005782   0.015240
   29  C  2 XZ    0.006094  -0.005158   0.008592  -0.009007  -0.009342
   30  C  2 YZ    0.001118   0.011674  -0.002055  -0.015186  -0.005913
   31  O  3  S   -0.000232  -0.001403  -0.000031   0.003179  -0.000012
   32  O  3  S    0.000363  -0.002992  -0.000047  -0.008192   0.000153
   33  O  3  X    0.070163   0.138950   0.007562  -0.040343  -0.040619
   34  O  3  Y   -0.000515  -0.028256  -0.001670   0.307828  -0.005345
   35  O  3  Z   -0.023620   0.320411  -0.007195  -0.076209   0.025330
   36  O  3  S    0.001475   0.023496   0.000567  -0.022705  -0.000071
   37  O  3  X    0.033533   0.104053   0.000145  -0.033256  -0.019537
   38  O  3  Y   -0.001093  -0.029744  -0.001522   0.241923  -0.003852
   39  O  3  Z   -0.009707   0.235094  -0.002993  -0.061358   0.014469
   40  O  3 XX   -0.001092  -0.001402   0.000615   0.005582   0.000513
   41  O  3 YY   -0.000260  -0.001672   0.000006  -0.012394   0.000375
   42  O  3 ZZ    0.001107  -0.003915  -0.000773   0.004967  -0.000710
   43  O  3 XY   -0.009190  -0.002344  -0.000475  -0.001029   0.007138
   44  O  3 XZ   -0.001417  -0.001181   0.000857  -0.000108   0.000770
   45  O  3 YZ    0.003823  -0.006545   0.000358  -0.002895  -0.003089
   46  C  4  S   -0.007669  -0.000720   0.000360  -0.003703  -0.009928
   47  C  4  S    0.009503   0.000583   0.001273   0.006852   0.019738
   48  C  4  X   -0.041995  -0.158200  -0.114490   0.036823   0.294046
   49  C  4  Y   -0.275343   0.096475  -0.114019   0.261446  -0.085245
   50  C  4  Z    0.107019  -0.204905  -0.275236   0.041406  -0.094018
   51  C  4  S    0.041003   0.003703  -0.003861   0.011862   0.032886
   52  C  4  X   -0.009992  -0.092313  -0.068196   0.017114   0.169227
   53  C  4  Y   -0.145782   0.061354  -0.066585   0.141141  -0.060127
   54  C  4  Z    0.045275  -0.113384  -0.158174   0.026100  -0.045409
   55  C  4 XX   -0.012226   0.011137   0.001757   0.013312  -0.014230
   56  C  4 YY    0.007130   0.006616   0.018548  -0.017713   0.003678
   57  C  4 ZZ    0.007740  -0.019399  -0.019578   0.001660   0.007295
   58  C  4 XY    0.000105  -0.006789   0.001271  -0.006026   0.022902
   59  C  4 XZ    0.010764  -0.008522  -0.007514  -0.005223  -0.006424
   60  C  4 YZ    0.013944   0.001933   0.010466  -0.013264  -0.001831
   61  H  5  S    0.073114   0.115549  -0.039557   0.074976   0.192991
   62  H  5  S    0.048392   0.081728  -0.030576   0.062398   0.157630
   63  H  6  S    0.079876  -0.163891  -0.184875   0.019465   0.009564
   64  H  6  S    0.057392  -0.124612  -0.136330   0.009095   0.000708
   65  H  7  S   -0.098424  -0.151616   0.186522   0.024113  -0.008611
   66  H  7  S   -0.071907  -0.115346   0.138597   0.012503   0.000389
   67  H  8  S   -0.134989   0.021037  -0.140184  -0.183844  -0.053877
   68  H  8  S   -0.090995   0.019451  -0.100566  -0.149405  -0.034575
   69  H  9  S   -0.061549   0.124673   0.032506   0.072323  -0.193165
   70  H  9  S   -0.040088   0.088020   0.024927   0.060842  -0.158483
   71  H 10  S    0.142554   0.010672   0.147491  -0.175183   0.054554
   72  H 10  S    0.096866   0.012129   0.106771  -0.143168   0.035424

                     16         17         18         19         20
                   -0.2638    -0.0952     0.2465     0.2877     0.3010
                     A          A          A          A          A   
    1  C  1  S    0.016748  -0.017528  -0.093923  -0.021035   0.102728
    2  C  1  S   -0.033531   0.035145   0.085399   0.032513  -0.057727
    3  C  1  X    0.061523  -0.072518   0.067601   0.059654  -0.125850
    4  C  1  Y   -0.060238   0.033789  -0.073043   0.179743   0.009552
    5  C  1  Z   -0.009933  -0.032617  -0.010421   0.007494  -0.005893
    6  C  1  S   -0.051870   0.098207   1.574240   0.238971  -2.009350
    7  C  1  X    0.033851  -0.061486   0.412888   0.355405  -0.282501
    8  C  1  Y   -0.028855   0.015427  -0.271800   0.860558  -0.062022
    9  C  1  Z   -0.003237  -0.034470  -0.149563  -0.018598  -0.140844
   10  C  1 XX   -0.004103  -0.002593  -0.004350  -0.012919   0.004356
   11  C  1 YY    0.003068   0.004801  -0.005846   0.014060   0.006579
   12  C  1 ZZ    0.000443  -0.002724  -0.007704  -0.002353   0.010342
   13  C  1 XY    0.003471   0.002858  -0.004481  -0.007239  -0.002012
   14  C  1 XZ    0.001431  -0.022351   0.004736   0.009872   0.007025
   15  C  1 YZ    0.001100   0.007211   0.000689   0.010470  -0.000355
   16  C  2  S   -0.000883   0.067383  -0.006546  -0.003203  -0.000030
   17  C  2  S    0.001978  -0.138674   0.057628   0.015651  -0.000619
   18  C  2  X   -0.073985   0.229304  -0.014204   0.005518   0.050726
   19  C  2  Y   -0.001284  -0.061865  -0.007695   0.155971   0.000133
   20  C  2  Z    0.020867   0.556597  -0.034567   0.015511  -0.020203
   21  C  2  S    0.003786  -0.376208   0.065927  -0.070901   0.003417
   22  C  2  X   -0.051674   0.177029   0.006866  -0.012733   0.476905
   23  C  2  Y   -0.000057  -0.042509  -0.087119   0.060791   0.003111
   24  C  2  Z    0.014918   0.431534   0.018590  -0.025095  -0.189171
   25  C  2 XX   -0.000220   0.010283   0.011415   0.021467  -0.003921
   26  C  2 YY    0.000138   0.018363   0.003226  -0.027854  -0.000112
   27  C  2 ZZ   -0.000209  -0.013315  -0.000763   0.005738   0.003877
   28  C  2 XY    0.021711  -0.000874  -0.000561   0.001563  -0.002581
   29  C  2 XZ    0.000358  -0.013396  -0.006788  -0.009275  -0.004701
   30  C  2 YZ   -0.009573  -0.002462  -0.001562   0.002180   0.001123
   31  O  3  S   -0.000107  -0.010954  -0.009864   0.024803  -0.000108
   32  O  3  S    0.000300   0.028090   0.052823  -0.089914   0.000307
   33  O  3  X    0.628986  -0.067664   0.008695  -0.003083  -0.050400
   34  O  3  Y    0.013846  -0.018000  -0.014229   0.127157  -0.000320
   35  O  3  Z   -0.276410  -0.184161   0.020238  -0.002597   0.019242
   36  O  3  S    0.000100   0.056755   0.037510  -0.102112   0.000055
   37  O  3  X    0.421638  -0.079315  -0.002470   0.004771  -0.072875
   38  O  3  Y    0.008091  -0.017738  -0.045857   0.153777  -0.000450
   39  O  3  Z   -0.182410  -0.203134  -0.007102   0.015558   0.028488
   40  O  3 XX   -0.002057   0.000688   0.007070  -0.007888  -0.001841
   41  O  3 YY   -0.000746   0.004948   0.017790  -0.003726   0.000071
   42  O  3 ZZ    0.002751  -0.006166   0.009291  -0.011250   0.001675
   43  O  3 XY   -0.013331  -0.003969   0.002398  -0.000155   0.002216
   44  O  3 XZ   -0.002806  -0.003975   0.001144  -0.002003  -0.001819
   45  O  3 YZ    0.006051  -0.009088   0.005999  -0.000038  -0.001031
   46  C  4  S   -0.016655  -0.017623  -0.093058  -0.020707  -0.103434
   47  C  4  S    0.033245   0.035458   0.084426   0.032519   0.059347
   48  C  4  X    0.050623   0.028181  -0.054945  -0.035754  -0.088116
   49  C  4  Y    0.061849   0.034969  -0.074172   0.180049  -0.012711
   50  C  4  Z   -0.033296  -0.074381   0.038103   0.052762   0.088282
   51  C  4  S    0.051442   0.097461   1.559602   0.231088   2.016532
   52  C  4  X    0.026936   0.019649  -0.397840  -0.260969  -0.121587
   53  C  4  Y    0.029913   0.015073  -0.276328   0.853624   0.055312
   54  C  4  Z   -0.019149  -0.068941   0.175655   0.265220   0.281582
   55  C  4 XX    0.002764   0.016391  -0.010153  -0.016378  -0.001424
   56  C  4 YY   -0.003181   0.004917  -0.005838   0.013951  -0.006456
   57  C  4 ZZ    0.001059  -0.021786  -0.001900   0.001296  -0.013393
   58  C  4 XY    0.001631   0.003484   0.003640   0.011923  -0.000821
   59  C  4 XZ   -0.002676  -0.000065  -0.001774   0.006378  -0.003510
   60  C  4 YZ   -0.003610   0.007797  -0.002830   0.002520   0.001992
   61  H  5  S   -0.005339   0.036135  -0.024379  -0.064374  -0.024369
   62  H  5  S    0.014690   0.050788  -0.809059  -1.014592   0.847492
   63  H  6  S   -0.000431  -0.073082   0.017315   0.007452  -0.035573
   64  H  6  S   -0.009172  -0.144713  -0.695675  -0.238369  -1.069509
   65  H  7  S    0.002550  -0.072877   0.016725   0.006729   0.035528
   66  H  7  S    0.012273  -0.145325  -0.709527  -0.239467   1.098615
   67  H  8  S    0.023643   0.022500   0.000769   0.067051   0.004391
   68  H  8  S    0.033055   0.013789  -0.915263   1.029620   0.587904
   69  H  9  S    0.004701   0.034832  -0.024646  -0.063986   0.023399
   70  H  9  S   -0.015284   0.049450  -0.806520  -1.010061  -0.877956
   71  H 10  S   -0.025188   0.024154   0.000538   0.065874  -0.002979
   72  H 10  S   -0.034707   0.015408  -0.911444   1.033636  -0.603702

                     21         22         23         24         25
                    0.3211     0.3417     0.3497     0.3801     0.4015
                     A          A          A          A          A   
    1  C  1  S   -0.002400   0.000920  -0.022303   0.073161   0.003873
    2  C  1  S    0.031466   0.020446   0.034504   0.001715  -0.009335
    3  C  1  X   -0.075973  -0.074560  -0.090312   0.100508  -0.025546
    4  C  1  Y    0.018074  -0.070469  -0.197323  -0.022237  -0.088364
    5  C  1  Z   -0.231297   0.234630  -0.056321  -0.005515  -0.047961
    6  C  1  S   -0.161381  -0.191488   0.290991  -1.550144   0.176004
    7  C  1  X   -0.212570  -0.235494  -0.426736   1.322725  -0.356974
    8  C  1  Y    0.042379  -0.315451  -0.931793  -0.278238  -0.676726
    9  C  1  Z   -1.086807   1.010500  -0.297530  -0.379178  -0.180512
   10  C  1 XX   -0.004449  -0.003397   0.002616   0.019270  -0.021862
   11  C  1 YY   -0.000506   0.008639  -0.012004  -0.007767   0.018946
   12  C  1 ZZ    0.008544  -0.001474   0.007260  -0.002896   0.001878
   13  C  1 XY   -0.000999   0.003910   0.000301  -0.012224  -0.020847
   14  C  1 XZ    0.003689  -0.006617   0.003962  -0.008248  -0.011324
   15  C  1 YZ    0.005733   0.000721  -0.009989   0.009916   0.007836
   16  C  2  S    0.017082  -0.000472  -0.003811  -0.149262  -0.076554
   17  C  2  S   -0.063165  -0.000097   0.003396   0.144568   0.054155
   18  C  2  X    0.010241  -0.048459  -0.031443   0.050009   0.044262
   19  C  2  Y   -0.018007   0.008573  -0.003904  -0.128073   0.315190
   20  C  2  Z    0.031885   0.021901   0.015421   0.115740   0.106016
   21  C  2  S   -0.061163  -0.000696   0.074385   3.108920   1.108845
   22  C  2  X    0.159478  -0.006681   0.082761   0.277771   0.188823
   23  C  2  Y   -0.096175   0.046698  -0.028200  -1.058694   1.866511
   24  C  2  Z    0.421437   0.003758  -0.033807   0.659569   0.438941
   25  C  2 XX    0.003800   0.010723  -0.009551   0.009875   0.008752
   26  C  2 YY   -0.004723  -0.000765  -0.000392  -0.002606  -0.006578
   27  C  2 ZZ   -0.005112  -0.009864   0.009648   0.004785   0.014191
   28  C  2 XY    0.003415  -0.006286  -0.013828  -0.001183  -0.001051
   29  C  2 XZ   -0.005401   0.012092  -0.010489  -0.001938   0.002391
   30  C  2 YZ    0.009380   0.002501   0.005134  -0.004308  -0.003341
   31  O  3  S   -0.009358   0.002069   0.000061   0.009249   0.095126
   32  O  3  S    0.043315  -0.002219  -0.000121  -0.000015  -0.133042
   33  O  3  X   -0.021125  -0.022283   0.056613  -0.015238   0.031578
   34  O  3  Y   -0.023988   0.005616   0.002590   0.094537   0.233865
   35  O  3  Z   -0.057127   0.012660  -0.023293  -0.029918   0.078824
   36  O  3  S    0.014333  -0.032782   0.001879  -0.108578  -1.516370
   37  O  3  X   -0.027031   0.004499   0.053174  -0.042532   0.082506
   38  O  3  Y   -0.031420   0.018001   0.002510   0.188624   0.880362
   39  O  3  Z   -0.076815   0.005295  -0.022811  -0.095044   0.228415
   40  O  3 XX    0.004079   0.001092  -0.004167  -0.003198   0.022386
   41  O  3 YY    0.007154   0.000530   0.000651   0.021212   0.008002
   42  O  3 ZZ    0.006920   0.000526   0.003794   0.004582   0.029504
   43  O  3 XY   -0.001133   0.002681   0.010980  -0.000958  -0.001990
   44  O  3 XZ    0.001860   0.000553  -0.004088   0.004655   0.004241
   45  O  3 YZ   -0.003234  -0.001172  -0.004557  -0.000468  -0.004910
   46  C  4  S    0.001747  -0.001841   0.025927   0.072159   0.003468
   47  C  4  S    0.028592  -0.021425  -0.035688   0.003092  -0.009393
   48  C  4  X   -0.110262  -0.218470  -0.022166  -0.077331  -0.001395
   49  C  4  Y    0.030480   0.071591   0.189449  -0.032936  -0.089798
   50  C  4  Z   -0.210632  -0.113743   0.124354   0.058427  -0.047464
   51  C  4  S   -0.236254   0.222392  -0.357855  -1.534779   0.187285
   52  C  4  X   -0.634195  -0.856993  -0.118510  -1.211281   0.185948
   53  C  4  Y    0.096217   0.307445   0.903677  -0.340305  -0.658974
   54  C  4  Z   -0.888746  -0.558202   0.611036   0.619891  -0.375063
   55  C  4 XX   -0.001409  -0.003388  -0.000768   0.015011  -0.000644
   56  C  4 YY    0.000078  -0.007671   0.011142  -0.008139   0.019715
   57  C  4 ZZ    0.005697   0.006969  -0.007888   0.001616  -0.019933
   58  C  4 XY    0.005005   0.002900   0.007929   0.015621   0.020304
   59  C  4 XZ    0.007486   0.000196  -0.003269  -0.012433   0.014440
   60  C  4 YZ    0.003375  -0.004216   0.007196  -0.002129  -0.007729
   61  H  5  S   -0.017852   0.033335   0.024528  -0.029443  -0.035185
   62  H  5  S   -0.729595   1.314874   0.570412  -0.174535   0.277679
   63  H  6  S    0.028557   0.039437  -0.047470  -0.032364  -0.050401
   64  H  6  S    1.370819   1.025895  -0.468204   0.134174   0.158235
   65  H  7  S    0.028018  -0.041664   0.046444  -0.035218  -0.051109
   66  H  7  S    1.365615  -1.021947   0.408760   0.084857   0.211972
   67  H  8  S    0.004724   0.025096  -0.068148  -0.031745   0.068819
   68  H  8  S   -0.454381   0.123071  -1.517878   0.290803  -0.549297
   69  H  9  S   -0.021120  -0.034033  -0.025290  -0.028766  -0.036391
   70  H  9  S   -0.732996  -1.299343  -0.545587  -0.169007   0.343694
   71  H 10  S    0.007903  -0.022071   0.066652  -0.034709   0.071654
   72  H 10  S   -0.374901  -0.142106   1.551939   0.207382  -0.524085

                     26         27         28         29         30
                    0.4495     0.6972     0.7559     0.7759     0.7843
                     A          A          A          A          A   
    1  C  1  S    0.046950   0.001188   0.002554  -0.001079   0.015317
    2  C  1  S    0.023309  -0.154025  -0.075637  -0.012317  -0.238222
    3  C  1  X    0.107529   0.386543   0.461946  -0.144296   0.426378
    4  C  1  Y   -0.029810   0.219256  -0.111159  -0.207512  -0.482419
    5  C  1  Z    0.025471  -0.306342   0.255851  -0.285750  -0.056708
    6  C  1  S   -1.360510   0.571464  -0.372780  -0.035922   0.229678
    7  C  1  X    1.328277  -0.570760  -0.486166   0.430706  -0.190238
    8  C  1  Y   -1.083304  -0.512856  -0.068301   0.509057   0.837344
    9  C  1  Z    0.108297   0.512603  -0.435260   0.642266   0.077217
   10  C  1 XX    0.014124   0.012601  -0.056156   0.009863   0.006948
   11  C  1 YY    0.003622  -0.024744  -0.018684   0.039355  -0.017518
   12  C  1 ZZ   -0.010860  -0.011632   0.042338  -0.054397  -0.017315
   13  C  1 XY   -0.025818   0.017841  -0.001246   0.027102   0.015098
   14  C  1 XZ    0.003516  -0.059387   0.056089  -0.004169  -0.012675
   15  C  1 YZ   -0.007882  -0.048660  -0.010469   0.014524   0.040309
   16  C  2  S    0.000795  -0.031041  -0.000113   0.005966  -0.054175
   17  C  2  S   -0.001258   0.142666  -0.000980  -0.019026  -0.214627
   18  C  2  X    0.390072  -0.020535  -0.257028  -0.240156   0.163083
   19  C  2  Y    0.001118   0.051385  -0.002387  -0.303430  -0.184355
   20  C  2  Z   -0.160536  -0.046657   0.105260  -0.594839   0.383400
   21  C  2  S   -0.010997  -0.433358  -0.000233  -0.053167  -0.132015
   22  C  2  X    2.291315  -0.042064   0.908937   0.119972  -0.191710
   23  C  2  Y    0.006794   0.602149   0.001045  -0.218048  -0.421758
   24  C  2  Z   -0.944332  -0.099112  -0.376164   0.305049  -0.461933
   25  C  2 XX    0.002648  -0.045700  -0.040113   0.002286  -0.147604
   26  C  2 YY   -0.000032   0.014117   0.000765   0.040610  -0.039908
   27  C  2 ZZ   -0.002876   0.023334   0.038642  -0.010678   0.016105
   28  C  2 XY    0.004493  -0.001521   0.071807  -0.001247   0.012626
   29  C  2 XZ    0.003239   0.038684  -0.044909  -0.007599   0.092273
   30  C  2 YZ   -0.001666  -0.001615  -0.029645  -0.004673   0.024786
   31  O  3  S   -0.000807   0.014458  -0.000196  -0.018199  -0.003417
[...]
   27  C  2 ZZ   -0.004420  -0.009765  -0.009844   0.000892   0.013903
   28  C  2 XY    0.003584  -0.006895   0.012160  -0.001508  -0.000086
   29  C  2 XZ   -0.005243   0.011314   0.010726  -0.004469   0.000033
   30  C  2 YZ    0.008511   0.003269  -0.004332  -0.005033  -0.001233
   31  O  3  S   -0.006516   0.001480   0.000101  -0.014473   0.100736
   32  O  3  S    0.039522  -0.002048   0.000403   0.029027  -0.124173
   33  O  3  X   -0.023227  -0.020656  -0.058736  -0.022858   0.026013
   34  O  3  Y   -0.010803   0.002538  -0.002708   0.042191   0.213341
   35  O  3  Z   -0.058572   0.012307   0.024813  -0.047892   0.072734
   36  O  3  S   -0.037413  -0.022663  -0.003798   0.275258  -1.790392
   37  O  3  X   -0.031187   0.002829  -0.060217  -0.066693   0.082802
   38  O  3  Y    0.003926   0.011454  -0.001937  -0.011214   0.991439
   39  O  3  Z   -0.079165   0.005467   0.025515  -0.161395   0.261335
   40  O  3 XX    0.004321   0.000744   0.004668  -0.009239   0.026308
   41  O  3 YY    0.007818   0.000226  -0.000584   0.017007   0.000368
   42  O  3 ZZ    0.007518   0.000051  -0.003567  -0.003017   0.033533
   43  O  3 XY   -0.000935   0.003148  -0.009992   0.000146  -0.003692
   44  O  3 XZ    0.002158   0.000472   0.003926   0.003762   0.005009
   45  O  3 YZ   -0.002228  -0.001435   0.004445   0.003134  -0.011082
   46  C  4  S    0.001732  -0.001434  -0.026119   0.069283   0.019299
   47  C  4  S    0.029128  -0.022312   0.033657   0.012359   0.003092
   48  C  4  X   -0.114654  -0.218551   0.014388  -0.060372  -0.010515
   49  C  4  Y    0.029474   0.076289  -0.190042  -0.004363  -0.067407
   50  C  4  Z   -0.212543  -0.107414  -0.125698   0.064067  -0.023489
   51  C  4  S   -0.230888   0.220969   0.368509  -1.612170  -0.217300
   52  C  4  X   -0.652182  -0.864437   0.091484  -1.251183  -0.154523
   53  C  4  Y    0.074030   0.343673  -0.901994  -0.200370  -0.730815
   54  C  4  Z   -0.911667  -0.529683  -0.615846   0.731237  -0.170634
   55  C  4 XX   -0.000367  -0.003288   0.000494   0.013877   0.001846
   56  C  4 YY    0.000468  -0.007073  -0.010978  -0.011916   0.017383
   57  C  4 ZZ    0.004247   0.006508   0.006983   0.006586  -0.019049
   58  C  4 XY    0.005240   0.002636  -0.007319   0.011498   0.023574
   59  C  4 XZ    0.007780   0.000186   0.002912  -0.014988   0.011351
   60  C  4 YZ    0.003305  -0.004390  -0.007723  -0.001197  -0.007320
   61  H  5  S   -0.016322   0.032877  -0.022334  -0.024574  -0.050399
   62  H  5  S   -0.689129   1.323352  -0.528202  -0.225474   0.182140
   63  H  6  S    0.024040   0.037760   0.046026  -0.021027  -0.061193
   64  H  6  S    1.390398   1.014713   0.454509   0.080684   0.115967
   65  H  7  S    0.023091  -0.039090  -0.045469  -0.022430  -0.061362
   66  H  7  S    1.383985  -1.042807  -0.411604   0.036081   0.155633
   67  H  8  S    0.007167   0.023000   0.065598  -0.049212   0.060373
   68  H  8  S   -0.466710   0.099051   1.546975   0.406229  -0.360694
   69  H  9  S   -0.018669  -0.032899   0.023086  -0.023518  -0.053618
   70  H  9  S   -0.722859  -1.313197   0.513407  -0.250538   0.224630
   71  H 10  S    0.009305  -0.020742  -0.064806  -0.051463   0.060375
   72  H 10  S   -0.419046  -0.100104  -1.573714   0.360436  -0.366108

                     26         27
                    0.4598     0.7031
                     A          A   
    1  C  1  S    0.048382   0.001782
    2  C  1  S    0.032051  -0.153696
    3  C  1  X    0.095258   0.371239
    4  C  1  Y   -0.012524   0.245138
    5  C  1  Z    0.024540  -0.303300
    6  C  1  S   -1.508332   0.559284
    7  C  1  X    1.414777  -0.518423
    8  C  1  Y   -1.105922  -0.586981
    9  C  1  Z    0.054409   0.502994
   10  C  1 XX    0.015329   0.012741
   11  C  1 YY    0.002487  -0.022363
   12  C  1 ZZ   -0.010653  -0.014105
   13  C  1 XY   -0.025629   0.018913
   14  C  1 XZ    0.002255  -0.059033
   15  C  1 YZ   -0.007532  -0.051358
   16  C  2  S   -0.001260  -0.031708
   17  C  2  S   -0.000359   0.120546
   18  C  2  X    0.384018  -0.025943
   19  C  2  Y    0.014709   0.016053
   20  C  2  Z   -0.161065  -0.045316
   21  C  2  S    0.042751  -0.287793
   22  C  2  X    2.407717  -0.025384
   23  C  2  Y    0.097706   0.702495
   24  C  2  Z   -1.005919  -0.067167
   25  C  2 XX    0.004078  -0.043872
   26  C  2 YY    0.000115   0.016477
   27  C  2 ZZ   -0.003856   0.021113
   28  C  2 XY    0.003141  -0.002708
   29  C  2 XZ    0.004316   0.037368
   30  C  2 YZ   -0.001084  -0.000565
   31  O  3  S    0.000813   0.015387
   32  O  3  S   -0.000014   0.063638
   33  O  3  X   -0.035192   0.006953
   34  O  3  Y    0.000552   0.015097
   35  O  3  Z    0.016202   0.015958
   36  O  3  S   -0.020931  -0.473290
   37  O  3  X   -0.307438   0.022534
   38  O  3  Y    0.000270   0.167451
   39  O  3  Z    0.133616   0.075993
   40  O  3 XX   -0.009115   0.011286
   41  O  3 YY    0.000191   0.038241
   42  O  3 ZZ    0.010109   0.041607
   43  O  3 XY   -0.002640  -0.001573
   44  O  3 XZ   -0.010708   0.017894
   45  O  3 YZ    0.000551  -0.001935
   46  C  4  S   -0.047597   0.001967
   47  C  4  S   -0.030433  -0.153165
   48  C  4  X    0.047527  -0.484014
   49  C  4  Y    0.018663   0.217226
   50  C  4  Z   -0.086720   0.059619
   51  C  4  S    1.479487   0.577897
   52  C  4  X    0.865299   0.759284
   53  C  4  Y    1.172266  -0.533355
   54  C  4  Z   -1.014807  -0.040439
   55  C  4 XX    0.001274   0.055426
   56  C  4 YY   -0.004931  -0.023938
   57  C  4 ZZ   -0.003651  -0.054390
   58  C  4 XY   -0.012150  -0.043548
   59  C  4 XZ    0.013382  -0.020199
   60  C  4 YZ    0.024381  -0.020580
   61  H  5  S   -0.058052   0.340431
   62  H  5  S    0.077219  -0.113542
   63  H  6  S    0.039533  -0.180699
   64  H  6  S    0.438025  -0.088202
   65  H  7  S   -0.041432  -0.171079
   66  H  7  S   -0.429524  -0.088723
   67  H  8  S   -0.075330  -0.181262
   68  H  8  S   -0.247110  -0.111055
   69  H  9  S    0.056511   0.342183
   70  H  9  S   -0.070978  -0.111427
   71  H 10  S    0.076905  -0.176248
   72  H 10  S    0.238903  -0.103330

     -------------------------------------------------
     MP2 PROPERTIES...FOR THE FIRST ORDER WAVEFUNCTION
          USING THE RESPONSE (OR RELAXED) DENSITY
     -------------------------------------------------

          ---------------------------------------
          MULLIKEN AND LOWDIN POPULATION ANALYSES
          ---------------------------------------

     ATOMIC SPIN POPULATION (ALPHA MINUS BETA)
       ATOM         MULL.POP.                    LOW.POP.
    1 C             0.000000                     0.000000
    2 C             0.000000                     0.000000
    3 O             0.000000                     0.000000
    4 C             0.000000                     0.000000
    5 H             0.000000                     0.000000
    6 H             0.000000                     0.000000
    7 H             0.000000                     0.000000
    8 H             0.000000                     0.000000
    9 H             0.000000                     0.000000
   10 H             0.000000                     0.000000

               ----- POPULATIONS IN EACH AO -----
                             MULLIKEN      LOWDIN
              1  C  1  S      1.99647     1.98049
              2  C  1  S      0.65385     0.35856
              3  C  1  X      0.67058     0.60758
              4  C  1  Y      0.70840     0.64069
              5  C  1  Z      0.71920     0.64873
              6  C  1  S      0.64419     0.33135
              7  C  1  X      0.30631     0.41941
              8  C  1  Y      0.38744     0.47846
              9  C  1  Z      0.40088     0.49596
             10  C  1 XX      0.00701     0.14885
             11  C  1 YY      0.01484     0.15545
             12  C  1 ZZ      0.01444     0.15411
             13  C  1 XY      0.01037     0.01559
             14  C  1 XZ      0.01497     0.02536
             15  C  1 YZ      0.01045     0.01511
             16  C  2  S      1.99662     1.97795
             17  C  2  S      0.68699     0.36417
             18  C  2  X      0.69499     0.62001
             19  C  2  Y      0.57050     0.51738
             20  C  2  Z      0.63337     0.59779
             21  C  2  S      0.48828     0.31163
             22  C  2  X      0.21262     0.35623
             23  C  2  Y      0.07227     0.26569
             24  C  2  Z      0.34589     0.41311
             25  C  2 XX      0.01294     0.16736
             26  C  2 YY      0.02103     0.17900
             27  C  2 ZZ     -0.00776     0.13161
             28  C  2 XY      0.01547     0.03061
             29  C  2 XZ      0.01039     0.01655
             30  C  2 YZ      0.01726     0.03360
             31  O  3  S      1.99573     1.97828
             32  O  3  S      0.94763     0.75658
             33  O  3  X      0.72908     0.70622
             34  O  3  Y      0.94651     0.89283
             35  O  3  Z      1.02337     0.99497
             36  O  3  S      0.98424     0.49827
             37  O  3  X      0.44486     0.45641
             38  O  3  Y      0.54445     0.59616
             39  O  3  Z      0.67809     0.69412
             40  O  3 XX     -0.00159     0.17842
             41  O  3 YY      0.01818     0.19357
             42  O  3 ZZ      0.00187     0.18237
             43  O  3 XY      0.00850     0.01349
             44  O  3 XZ      0.00423     0.00481
             45  O  3 YZ      0.00993     0.01586
             46  C  4  S      1.99646     1.98050
             47  C  4  S      0.65401     0.35845
             48  C  4  X      0.69549     0.63060
             49  C  4  Y      0.70450     0.63696
             50  C  4  Z      0.69797     0.62866
             51  C  4  S      0.64375     0.33127
             52  C  4  X      0.34265     0.44687
             53  C  4  Y      0.38041     0.47312
             54  C  4  Z      0.37115     0.47458
             55  C  4 XX      0.01262     0.15645
             56  C  4 YY      0.01392     0.15463
             57  C  4 ZZ      0.01525     0.15694
             58  C  4 XY      0.01180     0.01766
             59  C  4 XZ      0.00889     0.01240
             60  C  4 YZ      0.00958     0.01391
             61  H  5  S      0.50451     0.47046
             62  H  5  S      0.28988     0.34578
             63  H  6  S      0.50168     0.47118
             64  H  6  S      0.30060     0.35401
             65  H  7  S      0.50224     0.47049
             66  H  7  S      0.30069     0.35378
             67  H  8  S      0.50319     0.46958
             68  H  8  S      0.28723     0.34165
             69  H  9  S      0.50520     0.47224
             70  H  9  S      0.29014     0.34584
             71  H 10  S      0.50403     0.47015
             72  H 10  S      0.28682     0.34111

          ----- MULLIKEN ATOMIC OVERLAP POPULATIONS -----
          (OFF-DIAGONAL ELEMENTS NEED TO BE MULTIPLIED BY 2)

             1           2           3           4           5

    1    5.2718612
    2    0.3081684   5.1948350
    3   -0.0467780   0.1587864   8.2651022
    4   -0.0494795   0.3080555  -0.0459023   5.2697134
    5    0.3670539  -0.0334742  -0.0013839   0.0040585   0.5086654
    6   -0.0033301  -0.0376632   0.0005790   0.3484241  -0.0001661
    7    0.3480191  -0.0376568   0.0005497  -0.0032715  -0.0286831
    8    0.3633489  -0.0286581   0.0028054  -0.0035944  -0.0215551
    9    0.0040273  -0.0328307  -0.0014449   0.3670345  -0.0000963
   10   -0.0035060  -0.0286978   0.0027698   0.3634250  -0.0000264

             6           7           8           9          10

    6    0.5434129
    7    0.0038402   0.5442374
    8    0.0000040  -0.0239394   0.5000335
    9   -0.0286512  -0.0001682  -0.0000214   0.5092075
   10   -0.0241685  -0.0000033   0.0019969  -0.0217220   0.5007827

          TOTAL MULLIKEN AND LOWDIN ATOMIC POPULATIONS
       ATOM         MULL.POP.    CHARGE          LOW.POP.     CHARGE
    1 C             6.559385   -0.559385         6.475703   -0.475703
    2 C             5.770864    0.229136         5.982685    0.017315
    3 O             8.335084   -0.335084         8.162357   -0.162357
    4 C             6.558463   -0.558463         6.472985   -0.472985
    5 H             0.794393    0.205607         0.816236    0.183764
    6 H             0.802281    0.197719         0.825187    0.174813
    7 H             0.802924    0.197076         0.824269    0.175731
    8 H             0.790420    0.209580         0.811228    0.188772
    9 H             0.795335    0.204665         0.818086    0.181914
   10 H             0.790850    0.209150         0.811263    0.188737

          -------------------------------
          BOND ORDER AND VALENCE ANALYSIS     BOND ORDER THRESHOLD=0.050
          -------------------------------

                   BOND                       BOND                       BOND
  ATOM PAIR DIST  ORDER      ATOM PAIR DIST  ORDER      ATOM PAIR DIST  ORDER
    1   2  1.504  0.933        1   5  1.095  0.904        1   7  1.100  0.889
    1   8  1.094  0.900        2   3  1.357  0.891        2   4  1.504  0.933
    4   6  1.100  0.889        4   9  1.095  0.905        4  10  1.094  0.900

                       TOTAL       BONDED        FREE
      ATOM            VALENCE     VALENCE     VALENCE
    1 C                 3.891       3.614       0.277
    2 C                 3.728       2.707       1.021
    3 O                 2.148       0.902       1.246
    4 C                 3.892       3.615       0.277
    5 H                 0.925       0.884       0.040
    6 H                 0.924       0.858       0.066
    7 H                 0.924       0.859       0.066
    8 H                 0.925       0.884       0.042
    9 H                 0.925       0.885       0.040
   10 H                 0.925       0.884       0.041

          ----------------------------
          SOLUTE ELECTROSTATIC MOMENTS
          ----------------------------

 POINT   1           X           Y           Z (BOHR)    CHARGE
                -0.560075   -0.192373   -0.090391        0.00 (A.U.)
         DX          DY          DZ         /D/  (DEBYE)
     0.148033   -2.636690    0.204056    2.648714

          ----------------------------------------
          EFFECTIVE FRAGMENT ELECTROSTATIC MOMENTS
          ----------------------------------------

 FRAGMENT   1  H2ODFT
          X           Y           Z (BOHR)    CHARGE
    -1.546799    6.296039   -3.191681       -0.00 (A.U.)
         DX          DY          DZ         /D/  (DEBYE)
     1.027873   -2.103028   -0.420475    2.378245

 FRAGMENT   2  H2ODFT
          X           Y           Z (BOHR)    CHARGE
     1.190334    4.749114    4.418731       -0.00 (A.U.)
         DX          DY          DZ         /D/  (DEBYE)
    -1.694873    0.495109   -1.597859    2.381362


          ----------------------------
          SYSTEM ELECTROSTATIC MOMENTS
          ----------------------------

 POINT   1           X           Y           Z (BOHR)    CHARGE
                -0.560075   -0.192373   -0.090391        0.00 (A.U.)
         DX          DY          DZ         /D/  (DEBYE)
    -0.516830   -4.233947   -1.812791    4.634612
 INCLUDING PCM SURFACE CHARGES, TOTAL CHARGE=   -0.011582, AND TOTAL DIPOLE IS
         DX          DY          DZ         /D/  (DEBYE)
     0.351007    0.288215    0.088268    0.462672
 ...... END OF PROPERTY EVALUATION ......
 CPU     0: STEP CPU TIME=     0.02 TOTAL CPU TIME=       80.7 (    1.3 MIN)
 TOTAL WALL CLOCK TIME=       80.8 SECONDS, CPU UTILIZATION IS  99.96%
  $VIB   
          IVIB=   0 IATOM=   0 ICOORD=   0 E=     -192.4180573897
  9.876599938E-04-6.039994333E-04 1.368164925E-03 2.693540528E-04-3.490021881E-03
 -2.380051655E-03 6.462326850E-04 4.774676517E-03 1.043786198E-03-1.378653172E-03
 -1.883030384E-03 8.477205317E-04 1.288424239E-04 9.551023887E-04-6.157687326E-04
  1.088159604E-04-1.758053474E-04 1.057503518E-04-4.017426246E-04-7.224277497E-05
 -4.225711890E-04-3.182519226E-04-6.905899154E-04-1.784999955E-04-2.331379938E-04
  2.597282263E-04-9.044035881E-05 2.279314825E-04 3.673690589E-04 1.029247267E-04
-4.312346891E-05 3.418558155E-04 1.515176712E-05
-1.665822218E-03-7.193482987E-07-7.223219758E-04
 6.072583608E-06 2.169577301E-04 2.038334316E-04
 5.272315959E-05 2.533134728E-04-6.477672191E-05
 -5.168303104E-01-4.233946725E+00-1.812791049E+00
 ......END OF GEOMETRY SEARCH......
 CPU     0: STEP CPU TIME=     0.00 TOTAL CPU TIME=       80.7 (    1.3 MIN)
 TOTAL WALL CLOCK TIME=       80.8 SECONDS, CPU UTILIZATION IS  99.95%

             ----------------------------------------------
             -------   RESULTS OF PCM CALCULATION   -------
             ----------------------------------------------

 FREE ENERGY IN SOLVENT = <PSI| H(0)+V/2 |PSI>       =     -192.4180573897 A.U.
 INTERNAL ENERGY IN SOLVENT = <PSI| H(0) |PSI>       =     -192.3954587563 A.U.
 DELTA INTERNAL ENERGY =  <D-PSI| H(0) |D-PSI>       =        0.0000000000 A.U.
 ELECTROSTATIC INTERACTION                           =       -0.0225986335 A.U.
 PIEROTTI CAVITATION ENERGY                          =        0.0000000000 A.U.
 DISPERSION FREE ENERGY                              =        0.0000000000 A.U.
 REPULSION FREE ENERGY                               =        0.0000000000 A.U.
 TOTAL INTERACTION (DELTA + ES + CAV + DISP + REP)   =       -0.0225986335 A.U.
 TOTAL FREE ENERGY IN SOLVENT                        =     -192.4180573897 A.U.

           -------   EFP/PCM ELECTROSTATIC INTERATIONS   -------
           ----------------  ITERATIVE METHOD  -----------------

           ------------- TOTAL:     -14.18 KCAL/MOL-------------



 FREE ENERGY IN SOLVENT       =     -120744.17 KCAL/MOL
 INTERNAL ENERGY IN SOLVENT   =     -120729.99 KCAL/MOL
 DELTA INTERNAL ENERGY        =           0.00 KCAL/MOL
 ELECTROSTATIC INTERACTION    =         -14.18 KCAL/MOL
 PIEROTTI CAVITATION ENERGY   =           0.00 KCAL/MOL
 DISPERSION FREE ENERGY       =           0.00 KCAL/MOL
 REPULSION FREE ENERGY        =           0.00 KCAL/MOL
 TOTAL INTERACTION            =         -14.18 KCAL/MOL
 TOTAL FREE ENERGY IN SOLVENT =     -120744.17 KCAL/MOL

 -INTERNAL ENERGY IN SOLVENT-
    OMITS ES,CAV,DISP,REP (USES SOLVATED ORBITALS IN THE GAS PHASE HAMILTONIAN)
 -FREE ENERGY IN SOLVENT-
    INCLUDES ES+DISP+REP WHICH ARE IN THE SELF-CONSISTENT WAVEFUNCTION.
 -TOTAL FREE ENERGY IN SOLVENT-
    INCLUDES ES+DISP+REP+CAV, MEANING CAVITATION IS NOT IN THE SCF ENERGY.

 .... DONE PRINTING PCM SOLVENT SUMMARY ....
 CPU     0: STEP CPU TIME=     0.00 TOTAL CPU TIME=       80.7 (    1.3 MIN)
 TOTAL WALL CLOCK TIME=       80.8 SECONDS, CPU UTILIZATION IS  99.95%
               580000  WORDS OF DYNAMIC MEMORY USED
 EXECUTION OF GAMESS TERMINATED NORMALLY Fri Jun  2 05:09:03 2017
 DDI: 11543240 bytes (11.0 MB / 1 MWords) used by master data server.

 ----------------------------------------
 CPU timing information for all processes
 ========================================
 0: 80.544 + 0.194 = 80.739
 ----------------------------------------
 ddikick.x: exited gracefully.
unset echo
----- accounting info -----
Files used on the master node compute-0-1.local were:
-rw-rw-r-- 1 sarom sarom   33464 Jun  2 05:07 /scratch/pcm-efp-acetone.F05
-rw-rw-r-- 1 sarom sarom 3206560 Jun  2 05:09 /scratch/pcm-efp-acetone.F10
-rw-rw-r-- 1 sarom sarom  630960 Jun  2 05:08 /scratch/pcm-efp-acetone.F25
-rw-rw-r-- 1 sarom sarom       8 Jun  2 05:08 /scratch/pcm-efp-acetone.F26
-rw-rw-r-- 1 sarom sarom       0 Jun  2 05:07 /scratch/pcm-efp-acetone.F27
rm: cannot remove `/scratch/sarom': Is a directory
rm: cannot remove `/scratch/tmp': Is a directory
ls: No match.
ls: No match.
ls: No match.
Fri Jun  2 05:09:06 CDT 2017
0.258u 0.178s 1:24.29 0.4%	0+0k 72+416io 0pf+0w
/opt/gridengine/default/spool/compute-0-1/active_jobs/24031.1/pe_hostfile compute-0-1.local
