-catch_rsh /opt/gridengine/default/spool/compute-0-8/active_jobs/24046.1/pe_hostfile
compute-0-8
The primary node assigned by SGE to this run is compute-0-8
Warning: no access to tty (Bad file descriptor).
Thus no job control in this shell.
Deleting shmid=2785280.
Deleting shmid=2818049.
source /home/sarom/gamess.github.2017-05-31.14.06/install.info
setenv GMS_PATH /home/sarom/gamess.github.2017-05-31.14.06
setenv GMS_BUILD_DIR /home/sarom/gamess.github.2017-05-31.14.06
setenv GMS_TARGET linux64
setenv GMS_FORTRAN gfortran
setenv GMS_GFORTRAN_VERNO 4.4
setenv GMS_MATHLIB mkl-so
setenv GMS_MATHLIB_PATH /share/apps/intel/compilers_and_libraries_2017.1.132/linux/mkl/lib/intel64
setenv GMS_MKL_VERNO 12
setenv GMS_DDI_COMM sockets
setenv GMS_LIBCCHEM false
setenv GMS_EIGEN_PATH
setenv GMS_PHI false
setenv GMS_SHMTYPE sysv
setenv GMS_OPENMP false
unset echo
pcm-hetero
tests/solvent/pcm
----- GAMESS execution script 'rungms' -----
This job is running on host compute-0-8.local
under operating system Linux at Fri Jun 2 05:11:42 CDT 2017
Available scratch disk space (Kbyte units) at beginning of the job is
Filesystem           1K-blocks      Used Available Use% Mounted on
/dev/sda1             16126920   3867344  11440376  26% /
GAMESS temporary binary files will be written to /scratch
GAMESS supplementary output files will be written to /home/sarom/restart
Copying input file pcm-hetero.inp to your run's scratch directory...
cp tests/solvent/pcm/pcm-hetero.inp /scratch/pcm-hetero.F05
unset echo
The generated host list is
compute-0-8.local
/home/sarom/gamess.github.2017-05-31.14.06/ddikick.x /home/sarom/gamess.github.2017-05-31.14.06/gamess.00.x pcm-hetero -ddi 1 1 compute-0-8.local -scr /scratch

 Distributed Data Interface kickoff program.
 Initiating 1 compute processes on 1 nodes to run the following command:
 /home/sarom/gamess.github.2017-05-31.14.06/gamess.00.x pcm-hetero 

          ******************************************************
          *         GAMESS VERSION = 20 APR 2017 (R1)          *
          *             FROM IOWA STATE UNIVERSITY             *
          * M.W.SCHMIDT, K.K.BALDRIDGE, J.A.BOATZ, S.T.ELBERT, *
          *   M.S.GORDON, J.H.JENSEN, S.KOSEKI, N.MATSUNAGA,   *
          *          K.A.NGUYEN, S.J.SU, T.L.WINDUS,           *
          *       TOGETHER WITH M.DUPUIS, J.A.MONTGOMERY       *
          *         J.COMPUT.CHEM.  14, 1347-1363(1993)        *
          **************** 64 BIT LINUX VERSION ****************

  SINCE 1993, STUDENTS AND POSTDOCS WORKING AT IOWA STATE UNIVERSITY
  AND ALSO IN THEIR VARIOUS JOBS AFTER LEAVING ISU HAVE MADE IMPORTANT
  CONTRIBUTIONS TO THE CODE:
     IVANA ADAMOVIC, CHRISTINE AIKENS, YURI ALEXEEV, POOJA ARORA,
     ANDREY ASADCHEV, ROB BELL, PRADIPTA BANDYOPADHYAY, JONATHAN BENTZ,
     BRETT BODE, KURT BRORSEN, CALEB CARLIN, GALINA CHABAN, WEI CHEN,
     CHEOL HO CHOI, PAUL DAY, ALBERT DEFUSCO, NUWAN DESILVA, TIM DUDLEY,
     DMITRI FEDOROV, GRAHAM FLETCHER, MARK FREITAG, KURT GLAESEMANN,
     DAN KEMP, GRANT MERRILL, NORIYUKI MINEZAWA, JONATHAN MULLIN,
     TAKESHI NAGATA, SEAN NEDD, HEATHER NETZLOFF, BOSILJKA NJEGIC, RYAN OLSON,
     MIKE PAK, SPENCER PRUITT, LUKE ROSKOP, JIM SHOEMAKER, LYUDMILA SLIPCHENKO,
     TONY SMITH, SAROM SOK LEANG, JIE SONG, TETSUYA TAKETSUGU, SIMON WEBB,
     PENG XU, SOOHAENG YOO, FEDERICO ZAHARIEV

  ADDITIONAL CODE HAS BEEN PROVIDED BY COLLABORATORS IN OTHER GROUPS:
     IOWA STATE UNIVERSITY:
          JOE IVANIC, AARON WEST, LAIMUTIS BYTAUTAS, KLAUS RUEDENBERG
     UNIVERSITY OF TOKYO: KIMIHIKO HIRAO, TAKAHITO NAKAJIMA,
          TAKAO TSUNEDA, MUNEAKI KAMIYA, SUSUMU YANAGISAWA,
          KIYOSHI YAGI, MAHITO CHIBA, SEIKEN TOKURA, NAOAKI KAWAKAMI
     UNIVERSITY OF AARHUS: FRANK JENSEN
     UNIVERSITY OF IOWA: VISVALDAS KAIRYS, HUI LI
     NATIONAL INST. OF STANDARDS AND TECHNOLOGY: WALT STEVENS, DAVID GARMER
     UNIVERSITY OF PISA: BENEDETTA MENNUCCI, JACOPO TOMASI
     UNIVERSITY OF MEMPHIS: HENRY KURTZ, PRAKASHAN KORAMBATH
     UNIVERSITY OF ALBERTA: TOBY ZENG, MARIUSZ KLOBUKOWSKI
     UNIVERSITY OF NEW ENGLAND: MARK SPACKMAN
     MIE UNIVERSITY: HIROAKI UMEDA
     NAT. INST. OF ADVANCED INDUSTRIAL SCIENCE AND TECHNOLOGY: KAZUO KITAURA
     MICHIGAN STATE UNIVERSITY:
          KAROL KOWALSKI, MARTA WLOCH, JEFFREY GOUR, JESSE LUTZ,
          WEI LI, PIOTR PIECUCH
     UNIVERSITY OF SILESIA: MONIKA MUSIAL, STANISLAW KUCHARSKI
     FACULTES UNIVERSITAIRES NOTRE-DAME DE LA PAIX:
          OLIVIER QUINET, BENOIT CHAMPAGNE
     UNIVERSITY OF CALIFORNIA - SANTA BARBARA: BERNARD KIRTMAN
     INSTITUTE FOR MOLECULAR SCIENCE:
          KAZUYA ISHIMURA, MICHIO KATOUDA, AND SHIGERU NAGASE
     UNIVERSITY OF NOTRE DAME: ANNA POMOGAEVA, DAN CHIPMAN
     KYUSHU UNIVERSITY:
          HARUYUKI NAKANO,
          FENG LONG GU, JACEK KORCHOWIEC, MARCIN MAKOWSKI, AND YURIKO AOKI,
          HIROTOSHI MORI AND EISAKU MIYOSHI
     PENNSYLVANIA STATE UNIVERSITY:
          TZVETELIN IORDANOV, CHET SWALINA, JONATHAN SKONE,
          SHARON HAMMES-SCHIFFER
     WASEDA UNIVERSITY:
          MASATO KOBAYASHI, TOMOKO AKAMA, TSUGUKI TOUMA,
          TAKESHI YOSHIKAWA, YASUHIRO IKABATA, JUNJI SEINO,
          YUYA NAKAJIMA, HIROMI NAKAI
     NANJING UNIVERSITY: SHUHUA LI
     UNIVERSITY OF NEBRASKA:
          PEIFENG SU, DEJUN SI, NANDUN THELLAMUREGE, YALI WANG, HUI LI
     UNIVERSITY OF ZURICH: ROBERTO PEVERATI, KIM BALDRIDGE
     N. COPERNICUS UNIVERSITY AND JACKSON STATE UNIVERSITY:
          MARIA BARYSZ
     UNIVERSITY OF COPENHAGEN: Jimmy Kromann, CASPER STEINMANN
     TOKYO INSTITUTE OF TECHNOLOGY: HIROYA NAKATA
     NAGOYA UNIVERSITY: YOSHIO NISHIMOTO, STEPHAN IRLE
     MOSCOW STATE UNIVERSITY: VLADIMIR MIRONOV

 EXECUTION OF GAMESS BEGUN Fri Jun  2 05:11:42 2017

            ECHO OF THE FIRST FEW INPUT CARDS -
 INPUT CARD>!    acetate anion...heterogenous C-PCM test...from Hui and Dejun Si            
 INPUT CARD>!         D.Si, H.Li, J.Chem.Phys. 131, 044123/1-8 (2009)                       
 INPUT CARD>!    although the basis set (and other info???) differ from its Table 2         
 INPUT CARD>!                                                                               
 INPUT CARD>!    FINAL E= -227.3819259022, 11 iters, RMS grad= 0.005421193                  
 INPUT CARD>!    this run only has electrostatics, ES= -69.76 KCAL/MOL                      
 INPUT CARD>!                                                                               
 INPUT CARD>!    this run takes 57 seconds on 2.66 GHz Cloverton ( 2 Oct 2015)              
 INPUT CARD>!    results unchanged since 2009                                               
 INPUT CARD>!                                                                               
 INPUT CARD> $CONTRL SCFTYP=RHF RUNTYP=GRADIENT ICHARG=-1 ISPHER=1 $END                     
 INPUT CARD> $system mwords=2 $end                                                          
 INPUT CARD>                                                                                
 INPUT CARD> $PCM    SOLVNT=WATER  EPS=4.0  $END                                            
 INPUT CARD> $PCMCAV RADII=SUAHF EPSHET(5)=78.39, 78.39, 78.39 $END                         
 INPUT CARD>                                                                                
 INPUT CARD> $BASIS  GBASIS=ACCD $END                                                       
 INPUT CARD> $SCF    DIIS=.T. DIRSCF=.T. FDIFF=.F. $END                                     
 INPUT CARD> $DATA                                                                          
 INPUT CARD>acetate, Heterogenous-CPCM with EPS=4 for CH3, EPS=78.39 for COO-               
 INPUT CARD>C1                                                                              
 INPUT CARD>H           1.0  -0.1897245234   0.0620463581   0.0345182233                    
 INPUT CARD>C           6.0  -0.0247642785  -0.0319868016   1.1053140150                    
 INPUT CARD>H           1.0   1.0404873744  -0.1008593759   1.2977233752                    
 INPUT CARD>H           1.0  -0.4127598617   0.8728221541   1.5679707571                    
 INPUT CARD>C           6.0  -0.7870059993  -1.2516421130   1.6400407477                    
 INPUT CARD>O           8.0  -0.1350396308  -2.1247235241   2.2310184944                    
 INPUT CARD>O           8.0  -2.0111930008  -1.2576568275   1.4324142872                    
 INPUT CARD> $END                                                                           
    2000000 WORDS OF MEMORY AVAILABLE

     BASIS OPTIONS
     -------------
     GBASIS=ACCD         IGAUSS=       0      POLAR=NONE    
     NDFUNC=       0     NFFUNC=       0     DIFFSP=       F
     NPFUNC=       0      DIFFS=       F     BASNAM=        


     RUN TITLE
     ---------
 acetate, Heterogenous-CPCM with EPS=4 for CH3, EPS=78.39 for COO-               

 THE POINT GROUP OF THE MOLECULE IS C1      
 THE ORDER OF THE PRINCIPAL AXIS IS     0

 ATOM      ATOMIC                      COORDINATES (BOHR)
           CHARGE         X                   Y                   Z
 H           1.0    -0.3585273624        0.1172506153        0.0652299836
 C           6.0    -0.0467977006       -0.0604462902        2.0887406187
 H           1.0     1.9662360313       -0.1905965837        2.4523415870
 H           1.0    -0.7800030373        1.6493947073        2.9630350877
 C           6.0    -1.4872256894       -2.3652606283        3.0992276219
 O           8.0    -0.2551878997       -4.0151452602        4.2160136280
 O           8.0    -3.8006036799       -2.3766267906        2.7068705037

          INTERNUCLEAR DISTANCES (ANGS.)
          ------------------------------

                1 H          2 C          3 H          4 H          5 C     

   1 H       0.0000000    1.0875007 *  1.7707758 *  1.7488793 *  2.1587555 *
   2 C       1.0875007 *  0.0000000    1.0846778 *  1.0877826 *  1.5344394 *
   3 H       1.7707758 *  1.0846778 *  0.0000000    1.7700330 *  2.1865988 *
   4 H       1.7488793 *  1.0877826 *  1.7700330 *  0.0000000    2.1583796 *
   5 C       2.1587555 *  1.5344394 *  2.1865988 *  2.1583796 *  0.0000000  
   6 O       3.0999301    2.3788481 *  2.5197082 *  3.0825381    1.2395911 *
   7 O       2.6482971 *  2.3569388 *  3.2663550    2.6668905 *  1.2416838 *

                6 O          7 O     

   1 H       3.0999301    2.6482971 *
   2 C       2.3788481 *  2.3569388 *
   3 H       2.5197082 *  3.2663550  
   4 H       3.0825381    2.6668905 *
   5 C       1.2395911 *  1.2416838 *
   6 O       0.0000000    2.2157448 *
   7 O       2.2157448 *  0.0000000  

  * ... LESS THAN  3.000


     ATOMIC BASIS SET
     ----------------
 THE CONTRACTED PRIMITIVE FUNCTIONS HAVE BEEN UNNORMALIZED
 THE CONTRACTED BASIS FUNCTIONS ARE NOW NORMALIZED TO UNITY

  SHELL TYPE  PRIMITIVE        EXPONENT          CONTRACTION COEFFICIENT(S)

 H         

      1   S       1            13.0100000    0.033498726390
      1   S       2             1.9620000    0.234800801174
      1   S       3             0.4446000    0.813682957883

      2   S       4             0.1220000    1.000000000000

      3   P       5             0.7270000    1.000000000000

      4   S       6             0.0297400    1.000000000000

      5   P       7             0.1410000    1.000000000000

 C         

      6   S       8          6665.0000000    0.000691583963
      6   S       9          1000.0000000    0.005325796153
      6   S      10           228.0000000    0.027060721042
      6   S      11            64.7100000    0.101656846141
      6   S      12            21.0600000    0.274574823617
      6   S      13             7.4950000    0.448294318924
      6   S      14             2.7970000    0.284902610715
      6   S      15             0.5215000    0.015194859206

      7   S      16          6665.0000000   -0.000293269653
      7   S      17          1000.0000000   -0.002318035474
      7   S      18           228.0000000   -0.011499786039
      7   S      19            64.7100000   -0.046826727010
      7   S      20            21.0600000   -0.128466168750
      7   S      21             7.4950000   -0.301266272463
      7   S      22             2.7970000   -0.255630702330
      7   S      23             0.5215000    1.093793361012

      8   S      24             0.1596000    1.000000000000

      9   P      25             9.4390000    0.056979251590
      9   P      26             2.0020000    0.313207211501
      9   P      27             0.5456000    0.760376741738

     10   P      28             0.1517000    1.000000000000

     11   D      29             0.5500000    1.000000000000

     12   S      30             0.0469000    1.000000000000

     13   P      31             0.0404100    1.000000000000

     14   D      32             0.1510000    1.000000000000

 H         

     15   S      33            13.0100000    0.033498726390
     15   S      34             1.9620000    0.234800801174
     15   S      35             0.4446000    0.813682957883

     16   S      36             0.1220000    1.000000000000

     17   P      37             0.7270000    1.000000000000

     18   S      38             0.0297400    1.000000000000

     19   P      39             0.1410000    1.000000000000

 H         

     20   S      40            13.0100000    0.033498726390
     20   S      41             1.9620000    0.234800801174
     20   S      42             0.4446000    0.813682957883

     21   S      43             0.1220000    1.000000000000

     22   P      44             0.7270000    1.000000000000

     23   S      45             0.0297400    1.000000000000

     24   P      46             0.1410000    1.000000000000

 C         

     25   S      47          6665.0000000    0.000691583963
     25   S      48          1000.0000000    0.005325796153
     25   S      49           228.0000000    0.027060721042
     25   S      50            64.7100000    0.101656846141
     25   S      51            21.0600000    0.274574823617
     25   S      52             7.4950000    0.448294318924
     25   S      53             2.7970000    0.284902610715
     25   S      54             0.5215000    0.015194859206

     26   S      55          6665.0000000   -0.000293269653
     26   S      56          1000.0000000   -0.002318035474
     26   S      57           228.0000000   -0.011499786039
     26   S      58            64.7100000   -0.046826727010
     26   S      59            21.0600000   -0.128466168750
     26   S      60             7.4950000   -0.301266272463
     26   S      61             2.7970000   -0.255630702330
     26   S      62             0.5215000    1.093793361012

     27   S      63             0.1596000    1.000000000000

     28   P      64             9.4390000    0.056979251590
     28   P      65             2.0020000    0.313207211501
     28   P      66             0.5456000    0.760376741738

     29   P      67             0.1517000    1.000000000000

     30   D      68             0.5500000    1.000000000000

     31   S      69             0.0469000    1.000000000000

     32   P      70             0.0404100    1.000000000000

     33   D      71             0.1510000    1.000000000000

 O         

     34   S      72         11720.0000000    0.000709645947
     34   S      73          1759.0000000    0.005467272292
     34   S      74           400.8000000    0.027823118610
     34   S      75           113.7000000    0.104747739711
     34   S      76            37.0300000    0.282920846357
     34   S      77            13.2700000    0.448495238698
     34   S      78             5.0250000    0.270816885213
     34   S      79             1.0130000    0.015450291607

     35   S      80         11720.0000000   -0.000314443412
     35   S      81          1759.0000000   -0.002482137681
     35   S      82           400.8000000   -0.012316355382
     35   S      83           113.7000000   -0.050538917344
     35   S      84            37.0300000   -0.139384903316
     35   S      85            13.2700000   -0.325077494818
     35   S      86             5.0250000   -0.229848307588
     35   S      87             1.0130000    1.095379346788

     36   S      88             0.3023000    1.000000000000

     37   P      89            17.7000000    0.062679166282
     37   P      90             3.8540000    0.333536565879
     37   P      91             1.0460000    0.741239641640

     38   P      92             0.2753000    1.000000000000

     39   D      93             1.1850000    1.000000000000

     40   S      94             0.0789600    1.000000000000

     41   P      95             0.0685600    1.000000000000

     42   D      96             0.3320000    1.000000000000

 O         

     43   S      97         11720.0000000    0.000709645947
     43   S      98          1759.0000000    0.005467272292
     43   S      99           400.8000000    0.027823118610
     43   S     100           113.7000000    0.104747739711
     43   S     101            37.0300000    0.282920846357
     43   S     102            13.2700000    0.448495238698
     43   S     103             5.0250000    0.270816885213
     43   S     104             1.0130000    0.015450291607

     44   S     105         11720.0000000   -0.000314443412
     44   S     106          1759.0000000   -0.002482137681
     44   S     107           400.8000000   -0.012316355382
     44   S     108           113.7000000   -0.050538917344
     44   S     109            37.0300000   -0.139384903316
     44   S     110            13.2700000   -0.325077494818
     44   S     111             5.0250000   -0.229848307588
     44   S     112             1.0130000    1.095379346788

     45   S     113             0.3023000    1.000000000000

     46   P     114            17.7000000    0.062679166282
     46   P     115             3.8540000    0.333536565879
     46   P     116             1.0460000    0.741239641640

     47   P     117             0.2753000    1.000000000000

     48   D     118             1.1850000    1.000000000000

     49   S     119             0.0789600    1.000000000000

     50   P     120             0.0685600    1.000000000000

     51   D     121             0.3320000    1.000000000000

 TOTAL NUMBER OF BASIS SET SHELLS             =   51
 NUMBER OF CARTESIAN GAUSSIAN BASIS FUNCTIONS =  127
 NOTE: THIS RUN WILL RESTRICT THE MO VARIATION SPACE TO SPHERICAL HARMONICS.
 THE NUMBER OF ORBITALS KEPT IN THE VARIATIONAL SPACE WILL BE PRINTED LATER.
 NUMBER OF ELECTRONS                          =   32
 CHARGE OF MOLECULE                           =   -1
 SPIN MULTIPLICITY                            =    1
 NUMBER OF OCCUPIED ORBITALS (ALPHA)          =   16
 NUMBER OF OCCUPIED ORBITALS (BETA )          =   16
 TOTAL NUMBER OF ATOMS                        =    7
 THE NUCLEAR REPULSION ENERGY IS      113.0631940411

     $CONTRL OPTIONS
     ---------------
 SCFTYP=RHF          RUNTYP=GRADIENT     EXETYP=RUN     
 MPLEVL=       0     CITYP =NONE         CCTYP =NONE         VBTYP =NONE    
 DFTTYP=NONE         TDDFT =NONE    
 MULT  =       1     ICHARG=      -1     NZVAR =       0     COORD =UNIQUE  
 PP    =NONE         RELWFN=NONE         LOCAL =NONE         NUMGRD=       F
 ISPHER=       1     NOSYM =       0     MAXIT =      30     UNITS =ANGS    
 PLTORB=       F     MOLPLT=       F     AIMPAC=       F     FRIEND=        
 NPRINT=       7     IREST =       0     GEOM  =INPUT   
 NORMF =       0     NORMP =       0     ITOL  =      20     ICUT  =       9
 INTTYP=BEST         GRDTYP=BEST         QMTTOL= 1.0E-06

     $SYSTEM OPTIONS
     ---------------
  REPLICATED MEMORY=     2000000 WORDS (ON EVERY NODE).
 DISTRIBUTED MEMDDI=           0 MILLION WORDS IN AGGREGATE,
 MEMDDI DISTRIBUTED OVER   1 PROCESSORS IS           0 WORDS/PROCESSOR.
 TOTAL MEMORY REQUESTED ON EACH PROCESSOR=     2000000 WORDS.
 TIMLIM=      525600.00 MINUTES, OR     365.0 DAYS.
 PARALL= F  BALTYP=  DLB     KDIAG=    0  COREFL= F
 MXSEQ2=     300 MXSEQ3=     150  mem10=         0

 ** LOOKING UP INTERNALLY STORED DATA FOR SOLVENT=WATER    **
 OPTICAL AND PHYSICAL CONSTANTS:
 EPS= 78.390; EPSINF=  1.776; RSOLV=  1.385 A; VMOL=  18.070 ML/MOL;
 TCE= .25700E-03 1/K; STEN= 71.810 DYN/CM;  DSTEN=  0.6500; CMF=  1.2770


     -----------------------------------
     INPUT FOR PCM SOLVATION CALCULATION 
     -----------------------------------
     IEF   =     -10
     ICOMP =       0     IFIELD=       0     ICAV  =       0
     IDISP =       0     IREP  =       0     IDP   =       0

     SOLVNT=WATER        EPS   =  4.0000     EPSINF=  1.7760
     VMOL  = 18.0700     TCE   =  0.00025700 STEN  = 71.8100
     DSTEN =  0.6500     CMF   =  1.2770     RSOLV =  1.3850

     NESFP =       0
     OMEGA = 40.0000     RET   =100.0000     FRO   =  0.7000

     TABS  =298.0000     IPRINT=       0

     --------------------------------
     INPUT FOR ITERATIVE C-PCM METHOD 
     --------------------------------
     IPCMIT  =         1     MXDIIS  =        50
     MXITR1  =        50     MXITR2  =        50
     THRES   = 0.100E-09     IMUL    =         3
     RCUT(1) =   15.0000     RCUT(2) =   30.0000

     IDIRCT  =         1
     IMGABI  =         0     RABI    =    4.0000
     IMGASC  =         0     RASC    =   20.0000
     THRSLS  = 0.500E-03     DENSLS  =    0.0100
     IEFPOL  =         1     REFPOL  =    0.0000

     INPUT FOR ISOTROPIC DIELECTRICS
     -------------------------------
     EPS=     4.00

     This calculations uses heterogeneous PCM.

     INPUT FOR CAVITY DEFINITION 
     ---------------------------
   ATOM               COORDINATES                RADIUS       EPS
      1     -0.1897      0.0620      0.0345      0.0100      4.0000
      2     -0.0248     -0.0320      1.1053      1.7700      4.0000
      3      1.0405     -0.1009      1.2977      0.0100      4.0000
      4     -0.4128      0.8728      1.5680      0.0100      4.0000
      5     -0.7870     -1.2516      1.6400      1.7700     78.3900
      6     -0.1350     -2.1247      2.2310      1.5900     78.3900
      7     -2.0112     -1.2577      1.4324      1.5900     78.3900

     ----------------------------
     INPUT FOR TESSERA DEFINITION
     ----------------------------
     NTSALL  =        60     MTHALL  =         4
     MTHAUT  =         0     AUTFRE  =    2.0000
     NTSFRZ  =        60     KEEPSM  =         0
     AREAKP  =   10.0000     BONDRY  =    1.0000
     AREATL  =    0.0100

     SPHERE     INITS       METHOD
          1        60       FIXPVA
          2        60       FIXPVA
          3        60       FIXPVA
          4        60       FIXPVA
          5        60       FIXPVA
          6        60       FIXPVA
          7        60       FIXPVA

     ------------------------------
      FIXPVA TESSELLATION FOR PCM
         PEIFENG SU AND HUI LI
     UNIVERSITY OF NEBRASKA-LINCOLN
     ------------------------------


     -----------------------------
     INPUT FOR PCM GRADIENT METHOD
     -----------------------------
     IPCDER  =         3     IFAST   =         0
     FIXPVA GRADIENTS BY PEIFENG SU AND HUI LI
  

 PCM DIMENSIONS: MXSP=  2000, MXTS=       420, MEMORY=         37243

          ----------------
          PROPERTIES INPUT
          ----------------

     MOMENTS            FIELD           POTENTIAL          DENSITY
 IEMOM =       1   IEFLD =       0   IEPOT =       0   IEDEN =       0
 WHERE =COMASS     WHERE =NUCLEI     WHERE =NUCLEI     WHERE =NUCLEI  
 OUTPUT=BOTH       OUTPUT=BOTH       OUTPUT=BOTH       OUTPUT=BOTH    
 IEMINT=       0   IEFINT=       0                     IEDINT=       0
                                                       MORB  =       0
          EXTRAPOLATION IN EFFECT
          DIIS IN EFFECT
 ORBITAL PRINTING OPTION: NPREO=     1   127     2     1

     -------------------------------
     INTEGRAL TRANSFORMATION OPTIONS
     -------------------------------
     NWORD  =            0
     CUTOFF = 1.0E-09     MPTRAN =       0
     DIRTRF =       T     AOINTS =DUP     

          ----------------------
          INTEGRAL INPUT OPTIONS
          ----------------------
 NOPK  =       1 NORDER=       0 SCHWRZ=       T

     ------------------------------------------
     THE POINT GROUP IS C1 , NAXIS= 1, ORDER= 1
     ------------------------------------------

 -- VARIATIONAL SPACE WILL BE RESTRICTED TO PURE SPHERICAL HARMONICS ONLY --
 AFTER EXCLUDING CONTAMINANT COMBINATIONS FROM THE CARTESIAN GAUSSIAN BASIS
 SET, THE NUMBER OF SPHERICAL HARMONICS KEPT IN THE VARIATION SPACE IS  119

     DIMENSIONS OF THE SYMMETRY SUBSPACES ARE
 A   =  119

 ..... DONE SETTING UP THE RUN .....
 STEP CPU TIME =     0.02 TOTAL CPU TIME =        0.0 (    0.0 MIN)
 TOTAL WALL CLOCK TIME=        0.0 SECONDS, CPU UTILIZATION IS  66.67%

                    --------------------------------
                    SINGLE POINT ENERGY AND GRADIENT
                    --------------------------------

          ********************
          1 ELECTRON INTEGRALS
          ********************
 ...... END OF ONE-ELECTRON INTEGRALS ......
 STEP CPU TIME =     0.01 TOTAL CPU TIME =        0.0 (    0.0 MIN)
 TOTAL WALL CLOCK TIME=        0.0 SECONDS, CPU UTILIZATION IS  75.00%

          -------------
          GUESS OPTIONS
          -------------
          GUESS =HUCKEL            NORB  =       0          NORDER=       0
          MIX   =       F          PRTMO =       F          PUNMO =       F
          TOLZ  = 1.0E-08          TOLE  = 1.0E-05
          SYMDEN=       F          PURIFY=       F

 INITIAL GUESS ORBITALS GENERATED BY HUCKEL   ROUTINE.
 HUCKEL GUESS REQUIRES    123896 WORDS.

 STATISTICS FOR GENERATION OF SYMMETRY ORBITAL -Q- MATRIX
 NUMBER OF CARTESIAN ATOMIC ORBITALS=        127
 NUMBER OF SPHERICAL CONTAMINANTS DROPPED=     8
 NUMBER OF LINEARLY DEPENDENT MOS DROPPED=     0
 TOTAL NUMBER OF MOS IN VARIATION SPACE=     119

 SYMMETRIES FOR INITIAL GUESS ORBITALS FOLLOW.   BOTH SET(S).
    16 ORBITALS ARE OCCUPIED (    4 CORE ORBITALS).
     5=A        6=A        7=A        8=A        9=A       10=A       11=A   
    12=A       13=A       14=A       15=A       16=A       17=A       18=A   
    19=A       20=A       21=A       22=A       23=A       24=A       25=A   
    26=A   
 ...... END OF INITIAL ORBITAL SELECTION ......
 STEP CPU TIME =     0.02 TOTAL CPU TIME =        0.0 (    0.0 MIN)
 TOTAL WALL CLOCK TIME=        0.1 SECONDS, CPU UTILIZATION IS  83.33%

                    ----------------------
                    AO INTEGRAL TECHNOLOGY
                    ----------------------
     S,P,L SHELL ROTATED AXIS INTEGRALS, REPROGRAMMED BY
        KAZUYA ISHIMURA (IMS) AND JOSE SIERRA (SYNSTAR).
     S,P,D,L SHELL ROTATED AXIS INTEGRALS PROGRAMMED BY
        KAZUYA ISHIMURA (INSTITUTE FOR MOLECULAR SCIENCE).
     S,P,D,F,G SHELL TO TOTAL QUARTET ANGULAR MOMENTUM SUM 5,
        ERIC PROGRAM BY GRAHAM FLETCHER (ELORET AND NASA ADVANCED
        SUPERCOMPUTING DIVISION, AMES RESEARCH CENTER).
     S,P,D,F,G,L SHELL GENERAL RYS QUADRATURE PROGRAMMED BY
        MICHEL DUPUIS (PACIFIC NORTHWEST NATIONAL LABORATORY).

          --------------------
          2 ELECTRON INTEGRALS
          --------------------

 DIRECT SCF METHOD SKIPS INTEGRAL STORAGE ON DISK.
 DIRECT TRANSFORMATION SKIPS AO INTEGRAL STORAGE ON DISK.
  ...... END OF TWO-ELECTRON INTEGRALS .....
 STEP CPU TIME =     0.01 TOTAL CPU TIME =        0.1 (    0.0 MIN)
 TOTAL WALL CLOCK TIME=        0.1 SECONDS, CPU UTILIZATION IS  85.71%

          -------------------------------------
          ---- POLARISABLE CONTINUUM MODEL ----
          ----      UNIVERSITY OF PISA     ----
          -------------------------------------

     ----------------------------
     INPUT FOR TESSERA DEFINITION
     ----------------------------
     NTSALL  =        60     MTHALL  =         4
     MTHAUT  =         0     AUTFRE  =    2.0000
     NTSFRZ  =        60     KEEPSM  =         0
     AREAKP  =   10.0000     BONDRY  =    1.0000
     AREATL  =    0.0100

     SPHERE     INITS       METHOD
          1        60       FIXPVA
          2        60       FIXPVA
          3        60       FIXPVA
          4        60       FIXPVA
          5        60       FIXPVA
          6        60       FIXPVA
          7        60       FIXPVA

     ------------------------------
      FIXPVA TESSELLATION FOR PCM
         PEIFENG SU AND HUI LI
     UNIVERSITY OF NEBRASKA-LINCOLN
     ------------------------------


     This calculations uses heterogeneous PCM.

     INPUT FOR CAVITY DEFINITION 
     ---------------------------
   ATOM               COORDINATES                RADIUS       EPS
      1     -0.1897      0.0620      0.0345      0.0100      4.0000
      2     -0.0248     -0.0320      1.1053      1.7700      4.0000
      3      1.0405     -0.1009      1.2977      0.0100      4.0000
      4     -0.4128      0.8728      1.5680      0.0100      4.0000
      5     -0.7870     -1.2516      1.6400      1.7700     78.3900
      6     -0.1350     -2.1247      2.2310      1.5900     78.3900
      7     -2.0112     -1.2577      1.4324      1.5900     78.3900

 MEMORY USED TO GENERATE CAVITY=    211102


 TOTAL NUMBER OF SPHERES=     7
 SPHERE           CENTER  (X,Y,Z) (A)               RADIUS (A)      AREA(A*A)
     1  -0.189724523   0.062046358   0.034518223   0.012000000   0.000000000
     2  -0.024764279  -0.031986802   1.105314015   2.124000000  35.197712130
     3   1.040487374  -0.100859376   1.297723375   0.012000000   0.000000000
     4  -0.412759862   0.872822154   1.567970757   0.012000000   0.000000000
     5  -0.787005999  -1.251642113   1.640040748   2.124000000   5.741141779
     6  -0.135039631  -2.124723524   2.231018494   1.908000000  22.279939504
     7  -2.011193001  -1.257656828   1.432414287   1.908000000  22.715567972

 TOTAL NUMBER OF TESSERAE=     118
 SURFACE AREA=    85.93436139(A**2)    CAVITY VOLUME=     73.26861143 (A**3)
 STEP CPU TIME =     0.00 TOTAL CPU TIME =        0.1 (    0.0 MIN)
 TOTAL WALL CLOCK TIME=        0.1 SECONDS, CPU UTILIZATION IS  85.71%

          THE SOLUTE IS ENCLOSED IN ONE CAVITY
 DONE CHECKING SEPARATION.
 STEP CPU TIME =     0.00 TOTAL CPU TIME =        0.1 (    0.0 MIN)
 TOTAL WALL CLOCK TIME=        0.1 SECONDS, CPU UTILIZATION IS  85.71%

 ..... DONE GENERATING CAVITY .....
 STEP CPU TIME =     0.00 TOTAL CPU TIME =        0.1 (    0.0 MIN)
 TOTAL WALL CLOCK TIME=        0.1 SECONDS, CPU UTILIZATION IS  85.71%
 NUCLEI-NUCLEAR CHARGE POLARIZATION ADJUSTMENT TO VNN=        0.0000000000

          --------------------------
                 RHF SCF CALCULATION
          --------------------------

     NUCLEAR ENERGY =       113.0631940411
     MAXIT =   30     NPUNCH=    2
     EXTRAP=T  DAMP=F  SHIFT=F  RSTRCT=F  DIIS=T  DEM=F  SOSCF=F
     DENSITY MATRIX CONV=  2.00E-05
     MEMORY REQUIRED FOR RHF ITERS=    244642 WORDS.

 DIRECT SCF CALCULATION, SCHWRZ=T   FDIFF=F,  DIRTHR=  0.00E+00 NITDIR=10
 SCHWARZ INEQUALITY OVERHEAD:      8128 INTEGRALS, T=        0.01

                                                                                   NONZERO     BLOCKS
 ITER EX DEM     TOTAL ENERGY        E CHANGE  DENSITY CHANGE    DIIS ERROR      INTEGRALS    SKIPPED
          * * *   INITIATING DIIS PROCEDURE   * * *
   1  0  0     -226.5971082501  -226.5971082501   0.396173694   0.473448775       32699216       3758
   2  1  0     -227.2780943904    -0.6809861403   0.131921472   0.095562686       32699766       4699
   3  2  0     -227.3586087096    -0.0805143193   0.047193615   0.050047166       32696765       4797
   4  3  0     -227.3807798937    -0.0221711841   0.011682957   0.005959134       32698025       4699
   5  4  0     -227.3818012219    -0.0010213282   0.003326397   0.002338627       32698319       4695
   6  5  0     -227.3819043302    -0.0001031083   0.001986917   0.000906421       32698246       4698
   7  6  0     -227.3819253597    -0.0000210294   0.000269873   0.000155444       32698300       4696
   8  7  0     -227.3819258698    -0.0000005102   0.000075496   0.000045615       32698308       4695
   9  8  0     -227.3819258967    -0.0000000269   0.000035951   0.000021948       32698308       4695
  10  9  0     -227.3819259017    -0.0000000049   0.000008401   0.000005058       32698308       4695
  11 10  0     -227.3819259022    -0.0000000005   0.000002658   0.000001405       32698308       4695

          -----------------
          DENSITY CONVERGED
          -----------------
     TIME TO FORM FOCK OPERATORS=      25.5 SECONDS (       2.3 SEC/ITER)
     FOCK TIME ON FIRST ITERATION=       2.3, LAST ITERATION=       2.3
     TIME TO SOLVE SCF EQUATIONS=       0.1 SECONDS (       0.0 SEC/ITER)

 FINAL RHF ENERGY IS     -227.3819259022 AFTER  11 ITERATIONS
  
   PCM ASC=      0.9269525318
   GCAVP  =      0.0000000000
   GDISP  =      0.0000000000
   GREP   =      0.0000000000

          ------------
          EIGENVECTORS
          ------------

                      1          2          3          4          5
                  -20.4790   -20.4763   -11.3110   -11.1894    -1.3619
                     A          A          A          A          A   
    1  H  1  S   -0.000015  -0.000057  -0.000082   0.000374   0.011340
    2  H  1  S    0.000531   0.000451   0.003554   0.007729  -0.039764
    3  H  1  X   -0.000036  -0.000033   0.000037  -0.000081   0.000065
    4  H  1  Y   -0.000005  -0.000009   0.000040  -0.000013  -0.000756
    5  H  1  Z    0.000060  -0.000015  -0.000019  -0.000313   0.001747
    6  H  1  S   -0.000297  -0.000640   0.000403   0.000687   0.003200
    7  H  1  X   -0.000278  -0.000205  -0.000064   0.000184   0.004217
    8  H  1  Y   -0.000111  -0.000110  -0.000227  -0.000519   0.004766
    9  H  1  Z    0.000410   0.000364   0.000897   0.002473  -0.013752
   10  C  2  S    0.000091   0.000058   0.002189   1.003768  -0.001211
   11  C  2  S    0.000118   0.000063  -0.000205   0.007402   0.041408
   12  C  2  S    0.000863   0.001465   0.005156  -0.032604  -0.064212
   13  C  2  X    0.000068   0.000095  -0.000057  -0.000007  -0.015940
   14  C  2  Y    0.000080   0.000094  -0.000092   0.000196  -0.024555
   15  C  2  Z   -0.000036  -0.000038   0.000042  -0.000097   0.010724
   16  C  2  X    0.000556   0.001345  -0.005472   0.001620   0.020469
   17  C  2  Y   -0.000078   0.000065  -0.007268   0.002440   0.065554
   18  C  2  Z    0.000087   0.000138   0.003055  -0.001068  -0.031023
   19  C  2 XX    0.000222  -0.000028  -0.000013   0.000023  -0.003637
   20  C  2 YY   -0.000194  -0.000041  -0.000030  -0.000104   0.005363
   21  C  2 ZZ   -0.000028   0.000069   0.000043   0.000081  -0.001726
   22  C  2 XY   -0.000060  -0.000191  -0.000067  -0.000153   0.006785
   23  C  2 XZ    0.000071   0.000087   0.000019   0.000062  -0.003795
   24  C  2 YZ    0.000121   0.000032   0.000052   0.000124  -0.004061
   25  C  2  S   -0.004854  -0.003062  -0.000625  -0.012481   0.067497
   26  C  2  X    0.000720   0.000044  -0.000299   0.000593  -0.002065
   27  C  2  Y    0.001248   0.001099  -0.000566   0.001079  -0.012948
   28  C  2  Z   -0.000548  -0.000590   0.000274  -0.000488   0.006719
   29  C  2 XX   -0.000746  -0.000526   0.000115   0.000062   0.013485
   30  C  2 YY    0.000220   0.000059   0.000811  -0.000391  -0.013132
   31  C  2 ZZ    0.000525   0.000467  -0.000926   0.000329  -0.000353
   32  C  2 XY    0.000167  -0.000336   0.001879  -0.000622  -0.014188
   33  C  2 XZ   -0.000381  -0.000067  -0.000732   0.000250   0.010231
   34  C  2 YZ    0.000402   0.000351  -0.001062   0.000465   0.006015
   35  H  3  S    0.000041   0.000009  -0.000066   0.000450   0.011345
   36  H  3  S   -0.000013  -0.001926   0.004677   0.007521  -0.007428
   37  H  3  X    0.000106   0.000042  -0.000014   0.000267  -0.003988
   38  H  3  Y   -0.000011   0.000031   0.000013  -0.000059  -0.000863
   39  H  3  Z    0.000022  -0.000008  -0.000009   0.000071  -0.000133
   40  H  3  S   -0.000383   0.000299   0.000311   0.000718  -0.003440
   41  H  3  X    0.000414   0.000857  -0.001512  -0.002366  -0.005538
   42  H  3  Y   -0.000173   0.000339  -0.000423  -0.000060  -0.001191
   43  H  3  Z    0.000182  -0.000032  -0.000012  -0.000313  -0.000525
   44  H  4  S   -0.000019  -0.000059  -0.000084   0.000367   0.011333
   45  H  4  S    0.000541   0.000423   0.003607   0.007737  -0.040735
   46  H  4  X   -0.000022  -0.000034   0.000036  -0.000152   0.000342
   47  H  4  Y   -0.000064  -0.000007   0.000050   0.000241  -0.001693
   48  H  4  Z   -0.000035   0.000006  -0.000013   0.000163  -0.000283
   49  H  4  S   -0.000308  -0.000613   0.000376   0.000696   0.002889
   50  H  4  X   -0.000192  -0.000108   0.000120   0.000671   0.001340
   51  H  4  Y   -0.000466  -0.000404  -0.000872  -0.002290   0.015207
   52  H  4  Z   -0.000179  -0.000130  -0.000344  -0.000868   0.004383
   53  C  5  S    0.000232   0.000215   1.003879  -0.002625  -0.012354
   54  C  5  S    0.000367   0.000337   0.007161  -0.000245   0.267278
   55  C  5  S    0.010456   0.011018  -0.015353   0.009091   0.136843
   56  C  5  X    0.000183  -0.000500  -0.000469   0.000113  -0.047876
   57  C  5  Y   -0.000406  -0.000102  -0.000725   0.000188  -0.078591
   58  C  5  Z    0.000255  -0.000029   0.000317  -0.000083   0.034821
   59  C  5  X    0.002171  -0.007128  -0.004131   0.002661   0.071389
   60  C  5  Y   -0.005823  -0.000811  -0.007828   0.003955   0.101954
   61  C  5  Z    0.003574  -0.000771   0.003526  -0.001714  -0.043510
   62  C  5 XX    0.000227  -0.000287   0.000698   0.000091   0.021588
   63  C  5 YY   -0.000073   0.000289  -0.000129  -0.000053  -0.007347
   64  C  5 ZZ   -0.000154  -0.000003  -0.000570  -0.000038  -0.014242
   65  C  5 XY    0.000323  -0.000003  -0.000403  -0.000086  -0.018024
   66  C  5 XZ   -0.000105  -0.000030   0.000543   0.000077   0.018794
   67  C  5 YZ    0.000024  -0.000257  -0.000572  -0.000017  -0.013229
   68  C  5  S    0.009721   0.007814  -0.002531   0.006329  -0.101444
   69  C  5  X    0.000905   0.000814  -0.000094   0.000784  -0.011776
   70  C  5  Y    0.001348   0.000958  -0.000402   0.000944  -0.010357
   71  C  5  Z   -0.000588  -0.000386   0.000193  -0.000390   0.003789
   72  C  5 XX    0.000454   0.003151  -0.000030   0.000105  -0.026431
   73  C  5 YY    0.000152  -0.001744  -0.001314   0.000345   0.019426
   74  C  5 ZZ   -0.000606  -0.001406   0.001343  -0.000450   0.007005
   75  C  5 XY   -0.002450  -0.000692  -0.001271   0.000764   0.032936
   76  C  5 XZ    0.001757   0.001332   0.000226  -0.000270  -0.025432
   77  C  5 YZ   -0.001528  -0.000040   0.002034  -0.000490   0.000599
   78  O  6  S    1.001941   0.006727   0.000000   0.000014  -0.010967
   79  O  6  S    0.003093   0.000235   0.000618   0.000002   0.270003
   80  O  6  S   -0.012865  -0.001567  -0.001216  -0.000500   0.301439
   81  O  6  X   -0.000845   0.000097  -0.000255   0.000010  -0.057611
   82  O  6  Y    0.001097  -0.000011   0.000308  -0.000060   0.065501
   83  O  6  Z   -0.000745   0.000023  -0.000214   0.000034  -0.045807
   84  O  6  X    0.002233   0.000439   0.001116  -0.000033  -0.023657
   85  O  6  Y   -0.003090  -0.000691  -0.001383  -0.000364   0.020170
   86  O  6  Z    0.002076   0.000455   0.000957   0.000200  -0.015041
   87  O  6 XX    0.000032  -0.000033  -0.000037   0.000018   0.000201
   88  O  6 YY    0.000032   0.000028   0.000039  -0.000018   0.002010
   89  O  6 ZZ   -0.000064   0.000005  -0.000002  -0.000000  -0.002211
   90  O  6 XY   -0.000052   0.000065  -0.000229  -0.000005  -0.008805
   91  O  6 XZ    0.000059  -0.000044   0.000133   0.000005   0.006134
   92  O  6 YZ   -0.000108   0.000001  -0.000113   0.000013  -0.006801
   93  O  6  S   -0.006936  -0.000442  -0.000912   0.000150   0.050251
   94  O  6  X    0.000765  -0.000617  -0.000053  -0.000101   0.003084
   95  O  6  Y   -0.001319   0.000045  -0.000412   0.000185   0.002017
   96  O  6  Z    0.000856  -0.000131   0.000223  -0.000113  -0.000588
   97  O  6 XX    0.000084  -0.000210   0.000251   0.000025   0.003084
   98  O  6 YY   -0.000161   0.000085  -0.000348  -0.000013  -0.004702
   99  O  6 ZZ    0.000077   0.000125   0.000097  -0.000012   0.001618
  100  O  6 XY    0.000499   0.000136   0.000889   0.000059   0.000772
  101  O  6 XZ   -0.000318  -0.000155  -0.000538  -0.000027  -0.000696
  102  O  6 YZ    0.000383   0.000092   0.000703   0.000026   0.006030
  103  O  7  S   -0.006458   1.001940  -0.000016  -0.000008  -0.010831
  104  O  7  S    0.000203   0.003091   0.000580  -0.000038   0.263406
  105  O  7  S   -0.001626  -0.012973  -0.001011  -0.000411   0.297855
  106  O  7  X   -0.000079   0.001541   0.000440  -0.000066   0.094489
  107  O  7  Y    0.000042  -0.000019  -0.000036  -0.000044  -0.005565
  108  O  7  Z   -0.000037   0.000276   0.000095   0.000012   0.019340
  109  O  7  X   -0.000929  -0.004261  -0.001838  -0.000305   0.033201
  110  O  7  Y    0.000091  -0.000030   0.000274  -0.000029  -0.008229
  111  O  7  Z   -0.000204  -0.000716  -0.000464  -0.000031   0.010203
  112  O  7 XX   -0.000049   0.000121   0.000267  -0.000004   0.011780
  113  O  7 YY    0.000036  -0.000041  -0.000180  -0.000006  -0.006252
  114  O  7 ZZ    0.000012  -0.000081  -0.000087   0.000010  -0.005527
  115  O  7 XY    0.000050   0.000001  -0.000042  -0.000019  -0.001377
  116  O  7 XZ   -0.000041   0.000046   0.000090   0.000007   0.004354
  117  O  7 YZ   -0.000004  -0.000043   0.000060   0.000008  -0.000255
  118  O  7  S   -0.001508  -0.007017  -0.000894  -0.000125   0.064441
  119  O  7  X   -0.000080  -0.001818  -0.000537  -0.000027   0.009665
  120  O  7  Y   -0.000558  -0.000180  -0.000058   0.000073   0.003690
  121  O  7  Z    0.000294  -0.000215  -0.000057  -0.000040  -0.000385
  122  O  7 XX   -0.000131  -0.000670  -0.001269  -0.000086  -0.005608
  123  O  7 YY    0.000049   0.000401   0.000745   0.000098   0.001162
  124  O  7 ZZ    0.000081   0.000268   0.000524  -0.000012   0.004446
  125  O  7 XY    0.000217   0.000035  -0.000023   0.000055  -0.005464
  126  O  7 XZ   -0.000174  -0.000204  -0.000337  -0.000037   0.000856
  127  O  7 YZ    0.000109  -0.000083  -0.000155  -0.000076   0.001475

                      6          7          8          9         10
                   -1.2545    -0.9450    -0.6867    -0.5973    -0.5935
                     A          A          A          A          A   
    1  H  1  S    0.003717   0.172684  -0.102126  -0.099250   0.073578
    2  H  1  S   -0.016813   0.029228  -0.059637  -0.013084   0.043597
    3  H  1  X    0.000055   0.003290  -0.004543  -0.005260  -0.003534
    4  H  1  Y    0.000404  -0.002034  -0.003005  -0.003936   0.000608
    5  H  1  Z    0.001043   0.023524  -0.009666  -0.007849   0.005390
    6  H  1  S   -0.002205  -0.000013  -0.005964   0.006493  -0.003208
    7  H  1  X   -0.001430   0.004121  -0.000081   0.000185   0.004770
    8  H  1  Y   -0.000417   0.004154   0.007190   0.005908  -0.008682
    9  H  1  Z   -0.005702   0.009513  -0.015641  -0.001988   0.004400
   10  C  2  S   -0.000046  -0.021139   0.005464   0.001034   0.000794
   11  C  2  S    0.002195   0.360310  -0.082156  -0.045985  -0.001491
   12  C  2  S   -0.002492   0.091279  -0.017069   0.077684  -0.035254
   13  C  2  X   -0.011519  -0.016250  -0.096332  -0.118904  -0.152294
   14  C  2  Y    0.003842  -0.020116  -0.155973  -0.198689   0.064965
   15  C  2  Z   -0.004102   0.008432   0.068593   0.086945  -0.061576
   16  C  2  X   -0.023480   0.005377  -0.026277  -0.085489  -0.028769
   17  C  2  Y    0.004446   0.000798  -0.037991  -0.162471   0.039612
   18  C  2  Z   -0.006428   0.000502   0.016248   0.072805  -0.026602
   19  C  2 XX    0.005253  -0.002266  -0.004514  -0.002085  -0.004525
   20  C  2 YY   -0.003650   0.003616   0.009693   0.009208  -0.000373
   21  C  2 ZZ   -0.001603  -0.001350  -0.005179  -0.007123   0.004897
   22  C  2 XY    0.003666   0.004972   0.014089   0.014580   0.002036
   23  C  2 XZ   -0.000932  -0.002694  -0.006912  -0.006147  -0.002890
   24  C  2 YZ    0.002873  -0.002832  -0.008941  -0.010387   0.005044
   25  C  2  S   -0.021187   0.015203  -0.027843  -0.023814   0.000665
   26  C  2  X   -0.004147  -0.002785   0.003367   0.010103   0.000201
   27  C  2  Y    0.006601  -0.006736   0.010337  -0.004399   0.000820
   28  C  2  Z   -0.004310   0.003220  -0.004943   0.003307  -0.000355
   29  C  2 XX   -0.006707  -0.002469   0.000404  -0.006530   0.011581
   30  C  2 YY    0.004462   0.001511  -0.005065   0.010037  -0.001007
   31  C  2 ZZ    0.002245   0.000958   0.004661  -0.003507  -0.010573
   32  C  2 XY    0.002156   0.000141  -0.006712   0.015630  -0.006692
   33  C  2 XZ   -0.002536  -0.000796   0.002281  -0.008915   0.007890
   34  C  2 YZ   -0.001449  -0.000598   0.006491  -0.007138  -0.009935
   35  H  3  S   -0.004687   0.169707  -0.106452  -0.098289  -0.139246
   36  H  3  S    0.051071   0.031027  -0.046922  -0.036557  -0.087768
   37  H  3  X    0.001076  -0.023483   0.008724   0.008140   0.008597
   38  H  3  Y   -0.000749   0.001973  -0.004915  -0.006563   0.001375
   39  H  3  Z    0.000529  -0.004464   0.003895   0.004681   0.000384
   40  H  3  S    0.003572   0.000892  -0.000324  -0.015905   0.006770
   41  H  3  X   -0.014873  -0.008832   0.012891   0.012195   0.012199
   42  H  3  Y   -0.002786   0.005018   0.002830   0.006254  -0.002251
   43  H  3  Z   -0.000579  -0.003852   0.000381  -0.001220   0.003272
   44  H  4  S    0.003456   0.172836  -0.101985  -0.100534   0.067634
   45  H  4  S   -0.014980   0.029357  -0.058812  -0.012607   0.040230
   46  H  4  X    0.000299   0.008178  -0.006908  -0.007250  -0.002319
   47  H  4  Y   -0.000575  -0.019898   0.005612   0.003560  -0.004078
   48  H  4  Z   -0.000830  -0.010272   0.006669   0.006248  -0.004200
   49  H  4  S   -0.002051  -0.000291  -0.006151   0.007685  -0.002974
   50  H  4  X   -0.002668   0.006718  -0.002498   0.000612   0.004263
   51  H  4  Y    0.003749  -0.004777   0.016442   0.004499  -0.007541
   52  H  4  Z    0.002776  -0.007761   0.002409  -0.003526   0.005706
   53  C  5  S    0.000099  -0.007272   0.004183  -0.004739  -0.000130
   54  C  5  S    0.003157   0.095169   0.302852  -0.012501   0.000052
   55  C  5  S   -0.004571   0.142370   0.250227  -0.095181   0.024036
   56  C  5  X   -0.224475   0.090818   0.011802   0.171431  -0.289147
   57  C  5  Y    0.103733   0.140711   0.014957   0.276393   0.128506
   58  C  5  Z   -0.095552  -0.061215  -0.006058  -0.121874  -0.120085
   59  C  5  X    0.009339   0.044685   0.023658   0.000086  -0.047547
   60  C  5  Y   -0.010587   0.075999   0.037794   0.002584   0.051817
   61  C  5  Z    0.007377  -0.033667  -0.016653  -0.001514  -0.036417
   62  C  5 XX    0.034075  -0.006406   0.008634   0.001227   0.009272
   63  C  5 YY   -0.024118   0.011185  -0.001527  -0.005078  -0.006535
   64  C  5 ZZ   -0.009957  -0.004779  -0.007107   0.003851  -0.002736
   65  C  5 XY    0.020930   0.017389  -0.005199  -0.007123   0.006058
   66  C  5 XZ   -0.004606  -0.009266   0.006894   0.002899  -0.001396
   67  C  5 YZ    0.018605  -0.008801  -0.007205   0.005907   0.005060
   68  C  5  S    0.024410   0.007754   0.092201  -0.004689  -0.007810
   69  C  5  X    0.008269  -0.002944  -0.000235  -0.003723  -0.020532
   70  C  5  Y    0.002881   0.003852   0.002145  -0.003992   0.009458
   71  C  5  Z   -0.000153  -0.002333  -0.001060   0.001467  -0.008778
   72  C  5 XX   -0.015916  -0.012079  -0.010411   0.006072  -0.016582
   73  C  5 YY    0.010744   0.020002   0.007201  -0.004928   0.011314
   74  C  5 ZZ    0.005172  -0.007923   0.003211  -0.001144   0.005267
   75  C  5 XY   -0.010478   0.028096   0.008887  -0.010166   0.003326
   76  C  5 XZ    0.002367  -0.015189  -0.007765   0.007257  -0.005353
   77  C  5 YZ   -0.007907  -0.016106  -0.000560  -0.000494  -0.004296
   78  O  6  S    0.010227   0.001728   0.001040  -0.001914  -0.001180
   79  O  6  S   -0.305685  -0.073511  -0.157342   0.055019   0.107789
   80  O  6  S   -0.329872  -0.090687  -0.243995   0.101555   0.203970
   81  O  6  X    0.027766   0.025457  -0.121622   0.296196   0.067379
   82  O  6  Y   -0.060508   0.034589   0.190466   0.009115  -0.279249
   83  O  6  Z    0.037927  -0.014495  -0.125375   0.046194   0.164999
   84  O  6  X    0.000298   0.020975  -0.065312   0.185640   0.023647
   85  O  6  Y   -0.015958   0.018233   0.104928   0.025296  -0.160185
   86  O  6  Z    0.008706  -0.006339  -0.068874   0.018280   0.091863
   87  O  6 XX    0.002766  -0.003027  -0.002073  -0.007884   0.005270
   88  O  6 YY   -0.004146   0.002752   0.003470   0.005164  -0.006991
   89  O  6 ZZ    0.001380   0.000275  -0.001397   0.002719   0.001721
   90  O  6 XY    0.005749   0.001356  -0.008007   0.009274   0.007919
   91  O  6 XZ   -0.003637  -0.001279   0.005065  -0.007522  -0.004776
   92  O  6 YZ    0.006903  -0.001718  -0.007041   0.001089   0.010481
   93  O  6  S   -0.050086  -0.017614  -0.096144   0.048199   0.131387
   94  O  6  X    0.004770   0.004355   0.000722   0.028697  -0.004853
   95  O  6  Y   -0.003975  -0.000473   0.005058   0.009894  -0.010190
   96  O  6  Z    0.003039   0.000884  -0.002803  -0.000244   0.004715
   97  O  6 XX    0.003390  -0.004745  -0.001517  -0.005638   0.004909
   98  O  6 YY   -0.001057   0.002143   0.000839   0.006253  -0.004037
   99  O  6 ZZ   -0.002333   0.002602   0.000678  -0.000614  -0.000873
  100  O  6 XY   -0.007569  -0.000908  -0.002867  -0.000878  -0.003959
  101  O  6 XZ    0.005755  -0.001056   0.001200   0.000204   0.003378
  102  O  6 YZ   -0.003881   0.000295  -0.001053  -0.006335   0.001361
  103  O  7  S   -0.010589   0.001918   0.001178  -0.001876   0.000795
  104  O  7  S    0.310040  -0.077847  -0.155536   0.051587  -0.110257
  105  O  7  S    0.336005  -0.096746  -0.239858   0.094641  -0.193406
  106  O  7  X    0.077060   0.021417   0.250154  -0.137136   0.316698
  107  O  7  Y    0.012690   0.037591   0.015435   0.213658   0.091975
  108  O  7  Z    0.006314  -0.016820   0.034709  -0.140765   0.004210
  109  O  7  X    0.016129   0.007572   0.136113  -0.068442   0.170992
  110  O  7  Y    0.008934   0.023429   0.007264   0.143764   0.061293
  111  O  7  Z   -0.002102  -0.011550   0.019509  -0.090564  -0.003843
  112  O  7 XX    0.010269   0.000625   0.011628  -0.006411   0.015085
  113  O  7 YY   -0.005119   0.000112  -0.006268   0.004308  -0.007452
  114  O  7 ZZ   -0.005150  -0.000737  -0.005360   0.002103  -0.007633
  115  O  7 XY    0.002311   0.003482   0.000801   0.009967   0.004454
  116  O  7 XZ    0.001826  -0.001711   0.002981  -0.007520   0.002082
  117  O  7 YZ    0.000299   0.000326   0.000617   0.001479   0.000665
  118  O  7  S    0.037974  -0.012834  -0.092986   0.044001  -0.120639
  119  O  7  X    0.002029   0.004112   0.006863  -0.006081   0.007856
  120  O  7  Y   -0.004092   0.001086   0.001726   0.026032   0.007896
  121  O  7  Z    0.002543  -0.000024   0.000186  -0.015228  -0.002832
  122  O  7 XX   -0.008481   0.001583   0.002923   0.006251  -0.003407
  123  O  7 YY    0.004629  -0.002223  -0.002723  -0.002468   0.001965
  124  O  7 ZZ    0.003852   0.000639  -0.000200  -0.003782   0.001441
  125  O  7 XY    0.004380   0.002822  -0.001051   0.006258   0.003846
  126  O  7 XZ   -0.005098  -0.001749   0.001037  -0.001486  -0.003187
  127  O  7 YZ    0.001102   0.003442   0.001887   0.000549   0.000824

                     11         12         13         14         15
                   -0.5732    -0.5166    -0.4865    -0.3844    -0.3789
                     A          A          A          A          A   
    1  H  1  S   -0.194639  -0.177762  -0.251026   0.058120   0.008334
    2  H  1  S   -0.090111  -0.126138  -0.217341  -0.037968  -0.003658
    3  H  1  X   -0.003968   0.007970  -0.004674  -0.000659   0.001284
    4  H  1  Y    0.005797  -0.001613   0.007242   0.002205   0.000871
    5  H  1  Z   -0.011075  -0.010935  -0.011944   0.003053  -0.000331
    6  H  1  S   -0.008838  -0.006386  -0.019344  -0.016181   0.017119
    7  H  1  X   -0.002211  -0.017253  -0.001784   0.001465   0.000987
    8  H  1  Y   -0.005368   0.014899  -0.001595  -0.004526   0.003830
    9  H  1  Z   -0.007300  -0.017857  -0.034114  -0.021985  -0.006773
   10  C  2  S    0.000102  -0.001264   0.000023   0.000317   0.000001
   11  C  2  S   -0.000205   0.001764  -0.000184  -0.001535   0.000442
   12  C  2  S   -0.004183   0.071009  -0.004189  -0.020423  -0.000831
   13  C  2  X   -0.042202   0.328645  -0.048185  -0.089198  -0.000277
   14  C  2  Y    0.132045  -0.136818   0.152288   0.044918  -0.008734
   15  C  2  Z    0.242750   0.130963   0.281055  -0.039789  -0.015545
   16  C  2  X   -0.013776   0.030192  -0.013768  -0.028115   0.002026
   17  C  2  Y    0.050449  -0.080879   0.049482   0.038441  -0.010299
   18  C  2  Z    0.087964   0.049157   0.085803  -0.025889  -0.018694
   19  C  2 XX    0.002786   0.027853   0.001108  -0.006406   0.000008
   20  C  2 YY    0.003332  -0.011043   0.017872   0.001539  -0.000498
   21  C  2 ZZ   -0.006118  -0.016809  -0.018981   0.004867   0.000489
   22  C  2 XY   -0.006736   0.005678  -0.006574   0.000573  -0.000118
   23  C  2 XZ   -0.011430   0.004567  -0.005459  -0.002297  -0.000506
   24  C  2 YZ    0.001988  -0.003039   0.013376   0.002952  -0.000535
   25  C  2  S   -0.000713  -0.069133   0.002259   0.043850  -0.000453
   26  C  2  X   -0.000047   0.014026   0.001536  -0.048097  -0.000490
   27  C  2  Y    0.000748   0.007654  -0.005368   0.010488   0.003991
   28  C  2  Z    0.000977  -0.001499  -0.008819  -0.013806   0.008829
   29  C  2 XX   -0.003055  -0.027015  -0.004338  -0.034293  -0.000710
   30  C  2 YY   -0.008176   0.005306  -0.017664   0.023693   0.006522
   31  C  2 ZZ    0.011232   0.021708   0.022003   0.010600  -0.005813
   32  C  2 XY    0.007929   0.030090   0.013257  -0.037147  -0.002301
   33  C  2 XZ    0.012144  -0.025514   0.019873   0.013330  -0.000288
   34  C  2 YZ   -0.005405   0.022289  -0.012143  -0.022567   0.003468
   35  H  3  S   -0.006124   0.338081  -0.007121  -0.102314  -0.002005
   36  H  3  S   -0.002810   0.305497  -0.005810   0.031773   0.002513
   37  H  3  X   -0.000703  -0.018117  -0.000849   0.005251   0.000225
   38  H  3  Y    0.003947  -0.003786   0.004358  -0.002438  -0.000696
   39  H  3  Z    0.007441  -0.000331   0.008181   0.002024  -0.001072
   40  H  3  S   -0.000434   0.011475  -0.000496   0.029349  -0.001462
   41  H  3  X    0.001410  -0.049581   0.002152  -0.031635  -0.001504
   42  H  3  Y   -0.005340  -0.001577  -0.006358   0.014140   0.000245
   43  H  3  Z   -0.009134  -0.006623  -0.011320  -0.011983   0.000029
   44  H  4  S    0.200391  -0.163426   0.258022   0.053519  -0.007264
   45  H  4  S    0.092155  -0.114376   0.221050  -0.034766   0.001712
   46  H  4  X    0.005415   0.005477   0.006063   0.000045  -0.001325
   47  H  4  Y   -0.012173   0.008091  -0.013631  -0.001099  -0.000950
   48  H  4  Z   -0.000808   0.009073   0.000138  -0.003540   0.000094
   49  H  4  S    0.009079  -0.006053   0.019861  -0.014866  -0.015521
   50  H  4  X    0.004096  -0.018526   0.010215  -0.002942  -0.000500
   51  H  4  Y   -0.002952   0.019013  -0.026734   0.014170  -0.006961
   52  H  4  Z   -0.007593  -0.007319  -0.018946   0.014717   0.000126
   53  C  5  S   -0.000039   0.000772  -0.000000   0.000024  -0.000045
   54  C  5  S   -0.000307   0.004482  -0.000023  -0.000658   0.000062
   55  C  5  S    0.002248  -0.060076   0.002629   0.019782   0.000533
   56  C  5  X   -0.038657  -0.149585   0.027462  -0.044048   0.000017
   57  C  5  Y    0.124207   0.065295  -0.086217   0.014941   0.001436
   58  C  5  Z    0.226364  -0.061073  -0.158960  -0.015941  -0.000245
   59  C  5  X   -0.011982  -0.048435   0.013374  -0.055477  -0.001226
   60  C  5  Y    0.047985  -0.067842  -0.032371   0.058332   0.003422
   61  C  5  Z    0.079767   0.028591  -0.068052  -0.041829   0.002027
   62  C  5 XX    0.000960   0.035086  -0.003185   0.040666   0.015137
   63  C  5 YY   -0.001652  -0.024589   0.021816  -0.029919   0.020830
   64  C  5 ZZ    0.000692  -0.010496  -0.018631  -0.010747  -0.035968
   65  C  5 XY   -0.001530   0.021360   0.002005   0.024199  -0.030145
   66  C  5 XZ   -0.003381  -0.004826   0.012618  -0.004211  -0.046137
   67  C  5 YZ   -0.001477   0.018787   0.017294   0.022856   0.011198
   68  C  5  S    0.000533   0.089317  -0.003479  -0.040578  -0.000671
   69  C  5  X    0.002034  -0.012857  -0.003067  -0.013045  -0.000449
   70  C  5  Y   -0.003986   0.021191   0.007366   0.000328   0.000012
   71  C  5  Z   -0.008668  -0.014119   0.013786  -0.002772  -0.002134
   72  C  5 XX    0.000095   0.032081   0.003103  -0.057649   0.000512
   73  C  5 YY    0.019018  -0.022761   0.003310   0.039755   0.006541
   74  C  5 ZZ   -0.019114  -0.009320  -0.006413   0.017894  -0.007054
   75  C  5 XY   -0.004712  -0.014639  -0.007344  -0.023905  -0.006737
   76  C  5 XZ   -0.001826   0.014789  -0.016388   0.001865  -0.008576
   77  C  5 YZ    0.013350   0.007397   0.000371  -0.027006   0.001552
   78  O  6  S   -0.000037   0.000972  -0.000052   0.000895   0.000016
   79  O  6  S   -0.000034   0.022733   0.000164  -0.003881   0.000042
   80  O  6  S    0.000718   0.040129   0.002048   0.011364   0.000509
   81  O  6  X   -0.034930   0.125797   0.039445   0.416561   0.068171
   82  O  6  Y    0.111651  -0.105079  -0.123667   0.165102  -0.198581
   83  O  6  Z    0.203863   0.079501  -0.224162  -0.011302  -0.363560
   84  O  6  X   -0.026513   0.067371   0.028098   0.324748   0.053343
   85  O  6  Y    0.083860  -0.058108  -0.088000   0.152784  -0.154088
   86  O  6  Z    0.153407   0.044186  -0.159643  -0.022254  -0.283813
   87  O  6 XX    0.001652   0.001868  -0.001762  -0.006871  -0.001455
   88  O  6 YY    0.007917  -0.002788  -0.006453   0.005612  -0.006905
   89  O  6 ZZ   -0.009569   0.000921   0.008215   0.001259   0.008360
   90  O  6 XY   -0.004501   0.005359   0.004408   0.005366   0.003861
   91  O  6 XZ   -0.004671  -0.003347   0.005001  -0.004634   0.003654
   92  O  6 YZ    0.005284   0.005149  -0.004209  -0.001700  -0.004729
   93  O  6  S    0.000971   0.009572   0.001312   0.016122  -0.001487
   94  O  6  X   -0.005257   0.014911   0.006518   0.115856   0.018140
   95  O  6  Y    0.016076  -0.018740  -0.019978   0.055814  -0.052072
   96  O  6  Z    0.029254   0.013447  -0.036043  -0.008407  -0.093435
   97  O  6 XX    0.002767   0.000319  -0.000755  -0.008511  -0.001678
   98  O  6 YY    0.008544   0.001730  -0.007777   0.007618  -0.005755
   99  O  6 ZZ   -0.011311  -0.002049   0.008533   0.000894   0.007434
  100  O  6 XY   -0.006391  -0.003921   0.003050   0.004440   0.004057
  101  O  6 XZ   -0.007615   0.003098   0.002190  -0.004016   0.004529
  102  O  6 YZ    0.005811  -0.004573  -0.005273  -0.004180  -0.004100
  103  O  7  S   -0.000035   0.000240  -0.000028  -0.001568  -0.000027
  104  O  7  S    0.000241  -0.025340   0.000066   0.003041  -0.000026
  105  O  7  S    0.001403  -0.080883   0.001312   0.002730   0.000542
  106  O  7  X   -0.036899   0.185052   0.035240   0.069824  -0.064784
  107  O  7  Y    0.115026  -0.031523  -0.112874  -0.378779   0.197860
  108  O  7  Z    0.210083   0.050237  -0.205925   0.211947   0.379322
  109  O  7  X   -0.025591   0.104832   0.027036   0.029753  -0.050735
  110  O  7  Y    0.079097  -0.010969  -0.087185  -0.311381   0.153811
  111  O  7  Z    0.145552   0.024445  -0.158903   0.170178   0.295823
  112  O  7 XX   -0.003416   0.008545   0.002814   0.002283  -0.003008
  113  O  7 YY    0.000418  -0.004722   0.000466  -0.002197   0.000637
  114  O  7 ZZ    0.002999  -0.003822  -0.003280  -0.000085   0.002372
  115  O  7 XY    0.006180   0.000458  -0.005234  -0.008445   0.005244
  116  O  7 XZ    0.011065   0.002254  -0.009137   0.005110   0.009894
  117  O  7 YZ    0.001372   0.000590  -0.000551  -0.000865   0.001387
  118  O  7  S    0.000725  -0.077827   0.002005   0.006563   0.002361
  119  O  7  X   -0.004559   0.015469   0.007610   0.016512  -0.015624
  120  O  7  Y    0.013376  -0.005121  -0.022416  -0.111938   0.050403
  121  O  7  Z    0.025186   0.005381  -0.041030   0.062389   0.097649
  122  O  7 XX   -0.003551  -0.002169   0.003356  -0.002701  -0.002875
  123  O  7 YY   -0.001165   0.001781  -0.001498  -0.000004  -0.000770
  124  O  7 ZZ    0.004716   0.000389  -0.001858   0.002705   0.003645
  125  O  7 XY    0.006228   0.005119  -0.006333  -0.013079   0.005101
  126  O  7 XZ    0.011030  -0.003516  -0.011447   0.006255   0.009121
  127  O  7 YZ    0.000187   0.000684  -0.002196  -0.001497   0.000404

                     16         17         18         19         20
                   -0.3746     0.0510     0.0711     0.0712     0.0864
                     A          A          A          A          A   
    1  H  1  S    0.057245   0.005318   0.001547  -0.011697   0.015576
    2  H  1  S    0.034030  -0.907021   0.023589   0.613648  -0.399448
    3  H  1  X    0.003533  -0.000957  -0.002819   0.001257  -0.002051
    4  H  1  Y    0.006216  -0.002408   0.001552   0.002726  -0.000163
    5  H  1  Z    0.001529  -0.000266  -0.000886  -0.003906  -0.001924
    6  H  1  S    0.001000  -1.617551  -0.436700   5.296250  -0.234241
    7  H  1  X   -0.002601  -0.033120   0.139853   0.036590   0.028556
    8  H  1  Y   -0.003518   0.034060  -0.101660   0.006369  -0.048891
    9  H  1  Z    0.006379  -0.197226  -0.006610   0.189642  -0.079017
   10  C  2  S    0.003135  -0.014194   0.004525  -0.002117  -0.023289
   11  C  2  S   -0.070201   0.029121   0.004753  -0.002322  -0.034327
   12  C  2  S   -0.134440   0.698965  -0.113337   0.051009   0.800135
   13  C  2  X    0.130215   0.009850  -0.044404   0.015145   0.013895
   14  C  2  Y    0.232154   0.021564   0.021787   0.016377   0.044341
   15  C  2  Z   -0.103044  -0.009561   0.009900   0.047817  -0.021003
   16  C  2  X    0.078868   0.234403  -0.401520   0.140221   0.030356
   17  C  2  Y    0.157878   0.577940   0.173356   0.118824  -0.161313
   18  C  2  Z   -0.070995  -0.266376   0.069347   0.365765   0.083471
   19  C  2 XX    0.003249  -0.003228  -0.005844   0.004730   0.004327
   20  C  2 YY   -0.006379  -0.001174   0.001038  -0.001812  -0.004503
   21  C  2 ZZ    0.003130   0.004403   0.004806  -0.002919   0.000175
   22  C  2 XY   -0.010464  -0.006851   0.000477  -0.003642  -0.001570
   23  C  2 XZ    0.005375   0.002068  -0.006070  -0.003717   0.001294
   24  C  2 YZ    0.005421   0.003478   0.003115  -0.003129   0.002912
   25  C  2  S    0.029708   1.607969  -1.916490   0.885204   9.875111
   26  C  2  X    0.022058   0.306925  -2.092952   0.771813  -1.504900
   27  C  2  Y    0.024666   0.931761   1.679260   0.323710  -2.104439
   28  C  2  Z   -0.009717  -0.437876  -0.012372   2.233518   0.897054
   29  C  2 XX    0.010208   0.021748  -0.064530   0.011591  -0.038370
   30  C  2 YY   -0.009103  -0.078003   0.083484   0.006748   0.072385
   31  C  2 ZZ   -0.001105   0.056254  -0.018954  -0.018339  -0.034015
   32  C  2 XY   -0.002056  -0.091711  -0.050196   0.070548  -0.044931
   33  C  2 XZ    0.002552   0.034547   0.068096   0.056610   0.036932
   34  C  2 YZ    0.004823   0.088259  -0.058644   0.078904  -0.101257
   35  H  3  S    0.058492   0.006911  -0.013199   0.007127   0.006191
   36  H  3  S    0.032680  -0.603854   0.801645  -0.399367  -0.612986
   37  H  3  X   -0.000853  -0.004389   0.000518  -0.000900   0.007369
   38  H  3  Y    0.005007  -0.000984   0.003536   0.000172  -0.000301
   39  H  3  Z   -0.002721  -0.000130   0.000167   0.003673   0.001326
   40  H  3  S   -0.009743  -0.950065   5.100532  -2.635498   0.495773
   41  H  3  X   -0.010435   0.122741  -0.200349   0.124118   0.119041
   42  H  3  Y   -0.008983  -0.045912   0.005415  -0.095599   0.080207
   43  H  3  Z    0.003347   0.043180  -0.119718  -0.107059  -0.029034
   44  H  4  S    0.057804   0.005386   0.009767   0.005441   0.015655
   45  H  4  S    0.034729  -0.915364  -0.499750  -0.353968  -0.377481
   46  H  4  X    0.004606  -0.001380  -0.002135   0.001939  -0.002265
   47  H  4  Y    0.002784  -0.001148  -0.003130  -0.003850   0.001008
   48  H  4  Z   -0.005125   0.001945  -0.000892   0.001043   0.000615
   49  H  4  S    0.000650  -1.662200  -4.567319  -2.697343  -0.240490
   50  H  4  X   -0.001056  -0.069277   0.008769  -0.145520   0.000075
   51  H  4  Y   -0.007011   0.179584   0.104382   0.109583   0.031365
   52  H  4  Z   -0.001505   0.070891   0.147943  -0.042678   0.087068
   53  C  5  S    0.002308  -0.013304  -0.000682   0.000503   0.006831
   54  C  5  S   -0.020296  -0.033056   0.001475  -0.000306   0.012431
   55  C  5  S    0.034038   0.576451   0.085180  -0.042009   0.052818
   56  C  5  X   -0.104383  -0.004354   0.009216  -0.012378  -0.016511
   57  C  5  Y   -0.162395  -0.008084   0.005867   0.019934  -0.030781
   58  C  5  Z    0.070838   0.004015   0.021840   0.030107   0.014657
   59  C  5  X   -0.043482   0.179224  -0.002285  -0.002788  -0.339849
   60  C  5  Y   -0.087993   0.269939  -0.008100   0.014336  -0.371682
   61  C  5  Z    0.039889  -0.117115   0.017021   0.020511   0.150834
   62  C  5 XX    0.039583   0.005856  -0.001225   0.000871   0.006551
   63  C  5 YY   -0.033916  -0.000065   0.003054   0.001911  -0.003065
   64  C  5 ZZ   -0.005667  -0.005791  -0.001830  -0.002782  -0.003486
   65  C  5 XY   -0.065315  -0.000554  -0.005250   0.002199  -0.009955
   66  C  5 XZ    0.045359   0.003290   0.003416  -0.000872   0.008058
   67  C  5 YZ    0.003790  -0.005832  -0.002272   0.003940  -0.003708
   68  C  5  S    0.012129   3.325795   2.182144  -1.012877  -8.720926
   69  C  5  X   -0.030153   0.536125   1.131947  -0.474443  -2.112362
   70  C  5  Y   -0.044212   1.003331   0.287778  -0.470127  -3.560319
   71  C  5  Z    0.019229  -0.449817  -0.339890  -0.517321   1.569696
   72  C  5 XX    0.019797   0.007312  -0.017366   0.017905  -0.091282
   73  C  5 YY   -0.017074   0.052542   0.012177   0.009542   0.029803
   74  C  5 ZZ   -0.002722  -0.059853   0.005190  -0.027447   0.061479
   75  C  5 XY   -0.021634   0.062800  -0.094122   0.036297  -0.050101
   76  C  5 XZ    0.015840  -0.013971   0.040311  -0.032407  -0.003737
   77  C  5 YZ    0.004672  -0.087380  -0.013171   0.023774   0.020553
   78  O  6  S    0.000416   0.002718   0.000795  -0.000405  -0.000035
   79  O  6  S    0.013994   0.028203  -0.009201   0.005028  -0.032709
   80  O  6  S   -0.022326   0.016371  -0.056140   0.029946  -0.091682
   81  O  6  X    0.196320   0.005268  -0.027315   0.014478   0.015450
   82  O  6  Y    0.280680  -0.001928   0.004004  -0.001806   0.049339
   83  O  6  Z   -0.123261   0.002138  -0.005866   0.004409  -0.024263
   84  O  6  X    0.159972   0.024374  -0.014746   0.005742   0.075244
   85  O  6  Y    0.185233  -0.018696  -0.024880   0.016713   0.015405
   86  O  6  Z   -0.076359   0.014191   0.016567   0.003020   0.004098
   87  O  6 XX   -0.003535  -0.000140  -0.000527   0.000185   0.001668
   88  O  6 YY    0.003371   0.000663   0.000964   0.001156  -0.001677
   89  O  6 ZZ    0.000164  -0.000524  -0.000437  -0.001341   0.000009
   90  O  6 XY   -0.002988  -0.000422   0.000216  -0.000284  -0.001168
   91  O  6 XZ    0.001361   0.000396  -0.000233   0.000358   0.000903
   92  O  6 YZ   -0.003954  -0.001104   0.000446   0.000954   0.001210
   93  O  6  S   -0.066018  -0.359048  -0.540716   0.264140  -0.310471
   94  O  6  X    0.064613   0.009220  -0.144133   0.065006   0.351704
   95  O  6  Y    0.057334  -0.279702  -0.061533   0.035893   0.386809
   96  O  6  Z   -0.020936   0.149828   0.034520   0.021071  -0.147360
   97  O  6 XX    0.004789   0.001482   0.012481  -0.004148  -0.018938
   98  O  6 YY   -0.004222  -0.005189  -0.008537   0.004683   0.015715
   99  O  6 ZZ   -0.000568   0.003707  -0.003944  -0.000535   0.003223
  100  O  6 XY    0.001526   0.004500  -0.005264  -0.000409   0.020523
  101  O  6 XZ    0.000032  -0.003665   0.002688  -0.006309  -0.015882
  102  O  6 YZ    0.003766   0.008995   0.004627  -0.001834  -0.004426
  103  O  7  S    0.000161   0.003115   0.000904  -0.000507   0.001093
  104  O  7  S    0.012415   0.029350   0.011893  -0.006782  -0.026093
  105  O  7  S   -0.020141   0.019089   0.018097  -0.010937  -0.083987
  106  O  7  X    0.174176  -0.006713  -0.021909   0.009047   0.033081
  107  O  7  Y    0.304721   0.002888   0.008351   0.004906   0.044440
  108  O  7  Z   -0.134208  -0.002880   0.001332   0.017962  -0.018226
  109  O  7  X    0.101985  -0.038326  -0.028487   0.015290  -0.038738
  110  O  7  Y    0.228112  -0.002948  -0.024040   0.006861   0.038944
  111  O  7  Z   -0.105306  -0.005762   0.003418  -0.011236  -0.027785
  112  O  7 XX    0.005632   0.000472  -0.000597  -0.000001  -0.000704
  113  O  7 YY   -0.003107   0.000376   0.000641  -0.000508   0.000285
  114  O  7 ZZ   -0.002525  -0.000848  -0.000044   0.000510   0.000420
  115  O  7 XY    0.003031   0.000908   0.001615  -0.000233  -0.001763
  116  O  7 XZ   -0.000091  -0.000122  -0.000370   0.001101   0.000870
  117  O  7 YZ    0.001275  -0.000841  -0.000330   0.000142  -0.000303
  118  O  7  S   -0.063023  -0.376065  -0.206137   0.074248  -0.152368
  119  O  7  X    0.024637  -0.192623  -0.242350   0.088067   0.178636
  120  O  7  Y    0.084616  -0.194442  -0.178108   0.199161   0.401467
  121  O  7  Z   -0.041358   0.070622   0.166102   0.128123  -0.188449
  122  O  7 XX   -0.004110  -0.008692  -0.006541   0.001175  -0.008862
  123  O  7 YY    0.002443   0.000671   0.001092  -0.000298   0.006571
  124  O  7 ZZ    0.001667   0.008022   0.005449  -0.000877   0.002290
  125  O  7 XY   -0.003098  -0.006766  -0.011825   0.009319   0.020086
  126  O  7 XZ    0.000828  -0.000372   0.008243   0.002685  -0.014077
  127  O  7 YZ   -0.001541   0.004976  -0.000897   0.001023   0.002306

                     21         22         23         24         25
                    0.1208     0.1301     0.1336     0.1700     0.1708
                     A          A          A          A          A   
    1  H  1  S   -0.000226   0.002537  -0.029465   0.040144  -0.083828
    2  H  1  S   -0.269793   0.009194  -0.322115   1.008865  -2.906308
    3  H  1  X    0.002946  -0.000462   0.002915   0.001452  -0.002096
    4  H  1  Y    0.000345   0.005196   0.006843  -0.007184  -0.000706
    5  H  1  Z   -0.000470  -0.006577   0.001769   0.006848  -0.019402
    6  H  1  S    1.175462   1.384680  -0.598030   2.205915  -4.546996
    7  H  1  X   -0.044257  -0.073787  -0.108048  -0.095195  -0.171817
    8  H  1  Y   -0.059114  -0.088667  -0.193266   0.154934   0.159820
    9  H  1  Z   -0.107313   0.079030  -0.051646   0.161789  -0.594844
   10  C  2  S    0.000584  -0.001031   0.013437  -0.006248  -0.000331
   11  C  2  S    0.001699  -0.001442   0.012609  -0.054933  -0.005064
   12  C  2  S    0.004502   0.019597  -0.247066   0.391176   0.041328
   13  C  2  X    0.018072  -0.002280  -0.015975  -0.071046  -0.018937
   14  C  2  Y   -0.006138   0.010657  -0.013323   0.023597   0.048576
   15  C  2  Z    0.006582   0.017803   0.007012  -0.033966   0.083259
   16  C  2  X   -0.139409  -0.039925   0.574513   1.254168   0.330679
   17  C  2  Y    0.064463  -0.026803   0.839422   0.084043  -0.718038
   18  C  2  Z   -0.056361   0.064614  -0.371426   0.301492  -1.351425
   19  C  2 XX    0.000173  -0.001638   0.006648  -0.003221   0.000984
   20  C  2 YY   -0.001719  -0.001877  -0.002130  -0.003398   0.001511
   21  C  2 ZZ    0.001546   0.003515  -0.004518   0.006619  -0.002495
   22  C  2 XY    0.000499   0.002519   0.004007  -0.003059  -0.003358
   23  C  2 XZ   -0.000608   0.004408   0.000380  -0.000321  -0.005193
   24  C  2 YZ    0.002791  -0.001312  -0.002203   0.007960   0.002022
   25  C  2  S   -0.348129  -0.001165   0.342117  -3.272459  -0.253797
   26  C  2  X   -0.561833   0.104975   1.507121   5.324621   1.081104
   27  C  2  Y    0.433587  -0.776648   2.468628   0.108471  -2.243382
   28  C  2  Z   -0.333716  -1.059407  -1.212048   1.273222  -4.098964
   29  C  2 XX   -0.162231   0.029806   0.019234   0.333471   0.018085
   30  C  2 YY    0.118423  -0.062562  -0.081136  -0.225354  -0.264084
   31  C  2 ZZ    0.043808   0.032756   0.061902  -0.108116   0.245999
   32  C  2 XY   -0.059761  -0.037633  -0.176022   0.046898   0.060468
   33  C  2 XZ    0.001792  -0.117539   0.078085   0.033942   0.032562
   34  C  2 YZ   -0.082429  -0.055733   0.067315   0.169471  -0.177971
   35  H  3  S   -0.003735   0.001750  -0.024843  -0.079788  -0.008083
   36  H  3  S    0.706817   0.016130  -0.531361  -3.249056  -0.320590
   37  H  3  X   -0.003530   0.000193   0.004864   0.025213   0.002728
   38  H  3  Y   -0.001352  -0.001054   0.005840  -0.003601  -0.001932
   39  H  3  Z    0.000152  -0.001122  -0.002393   0.005904  -0.002425
   40  H  3  S   -2.222107   0.087714  -0.627931  -5.995714  -0.538507
   41  H  3  X   -0.172070  -0.022263   0.091911   0.628237   0.038411
   42  H  3  Y    0.055029   0.065497  -0.116845  -0.102695   0.096882
   43  H  3  Z   -0.051817   0.107841   0.082330   0.120716   0.197488
   44  H  4  S   -0.000583   0.001376  -0.029224   0.024819   0.090924
   45  H  4  S   -0.248504   0.006495  -0.273895   0.451476   3.041888
   46  H  4  X    0.003007   0.000468   0.004348   0.000733   0.006518
   47  H  4  Y    0.000582  -0.008520   0.001366  -0.006333  -0.016852
   48  H  4  Z    0.000966   0.001815  -0.005820   0.004679  -0.009708
   49  H  4  S    1.032866  -1.373563  -0.713013   1.260053   4.879822
   50  H  4  X   -0.072555   0.083407  -0.129284  -0.096280   0.272466
   51  H  4  Y    0.046284   0.141355  -0.076320   0.043573  -0.555740
   52  H  4  Z    0.086981  -0.042515   0.153377  -0.204832  -0.184036
   53  C  5  S    0.000099   0.000843  -0.015821  -0.022956  -0.002664
   54  C  5  S   -0.001558  -0.000039   0.001082  -0.045410  -0.005918
   55  C  5  S   -0.066930  -0.058236   1.213889   0.804103   0.072341
   56  C  5  X    0.047686   0.003088   0.025532   0.005191  -0.000127
   57  C  5  Y   -0.020103  -0.019449   0.039521   0.000059   0.004089
   58  C  5  Z    0.018852  -0.029626  -0.019087  -0.000807   0.006447
   59  C  5  X    0.673525  -0.006076   0.293185   0.390939   0.029269
   60  C  5  Y   -0.327697  -0.081146   0.539209   0.072684   0.041146
   61  C  5  Z    0.294730  -0.085702  -0.250424   0.024619   0.034016
   62  C  5 XX   -0.016124  -0.000861   0.010394  -0.012814  -0.001520
   63  C  5 YY    0.011211   0.003382   0.003038   0.004199  -0.000216
   64  C  5 ZZ    0.004913  -0.002521  -0.013432   0.008615   0.001735
   65  C  5 XY   -0.008992   0.000373  -0.000336  -0.019933  -0.000877
   66  C  5 XZ    0.001471   0.001984   0.006865   0.006493   0.002725
   67  C  5 YZ   -0.007916   0.003808  -0.014852  -0.001778   0.000624
   68  C  5  S    0.199895  -0.125452   2.851012   9.188275   0.751498
   69  C  5  X    3.217006  -0.469179  -1.008080  -0.135812  -0.113731
   70  C  5  Y   -1.439138   1.757123  -1.634020   1.923500   0.517208
   71  C  5  Z    1.366127   2.917235   0.972332  -1.144134   0.591480
   72  C  5 XX   -0.262289   0.012572  -0.008680   0.131420  -0.020619
   73  C  5 YY    0.186497  -0.010767   0.061536   0.000247  -0.048516
   74  C  5 ZZ    0.075792  -0.001805  -0.052856  -0.131667   0.069136
   75  C  5 XY   -0.167244  -0.024958   0.136051  -0.034153   0.061019
   76  C  5 XZ    0.038735  -0.030977  -0.063771   0.066283   0.117083
   77  C  5 YZ   -0.145044  -0.002964  -0.061206  -0.115191  -0.040926
   78  O  6  S    0.006636  -0.000218   0.001941   0.006901   0.000766
   79  O  6  S   -0.023140  -0.000728   0.006896  -0.002181   0.000912
   80  O  6  S   -0.275957   0.001869  -0.003419  -0.184132  -0.018117
   81  O  6  X   -0.033171   0.008306   0.029577  -0.006754  -0.008525
   82  O  6  Y    0.020920  -0.033527   0.017834  -0.004196   0.032260
   83  O  6  Z   -0.018573  -0.058298  -0.009433  -0.007578   0.058344
   84  O  6  X    0.097349  -0.003199   0.034187   0.039628  -0.000062
   85  O  6  Y   -0.084354   0.004234  -0.048326  -0.114681   0.001098
   86  O  6  Z    0.062311   0.000437   0.033001   0.065174   0.029273
   87  O  6 XX   -0.002967  -0.000132  -0.001160  -0.001924   0.000794
   88  O  6 YY    0.001351  -0.001704   0.001283   0.000028   0.002800
   89  O  6 ZZ    0.001616   0.001836  -0.000123   0.001896  -0.003594
   90  O  6 XY    0.000069   0.000595   0.001369   0.002286  -0.002195
   91  O  6 XZ   -0.000944   0.000644  -0.000844  -0.001483  -0.003638
   92  O  6 YZ    0.000263  -0.001053  -0.001101   0.001415   0.001788
   93  O  6  S   -2.866874   0.009458  -0.110906  -2.239736  -0.188440
   94  O  6  X    0.025165   0.095203   0.350808   0.016944   0.006698
   95  O  6  Y   -0.368162  -0.408115   0.497640  -0.721247  -0.084289
   96  O  6  Z    0.202202  -0.665529  -0.269092   0.421453  -0.036606
   97  O  6 XX    0.010994   0.000110  -0.002565   0.013242   0.000300
   98  O  6 YY   -0.004795  -0.001488  -0.002449  -0.016145  -0.020000
   99  O  6 ZZ   -0.006200   0.001378   0.005014   0.002903   0.019701
  100  O  6 XY    0.007987   0.000267   0.010475   0.007077   0.005604
  101  O  6 XZ   -0.001212   0.000901  -0.008445  -0.005830   0.003510
  102  O  6 YZ    0.001207  -0.001443   0.010623   0.025022  -0.010356
  103  O  7  S   -0.006416  -0.000097   0.001960   0.002825   0.000477
  104  O  7  S    0.027848  -0.000938   0.005436   0.004817   0.001444
  105  O  7  S    0.283184  -0.000864  -0.030179  -0.047974  -0.007316
  106  O  7  X   -0.043332   0.008652   0.003905  -0.021602   0.000765
  107  O  7  Y    0.014610  -0.028061   0.023436   0.037076  -0.005842
  108  O  7  Z   -0.015227  -0.046815  -0.016771  -0.018394  -0.020118
  109  O  7  X    0.142086   0.003803  -0.065995  -0.077112  -0.009576
  110  O  7  Y   -0.020514  -0.008645   0.013845  -0.005168  -0.000441
  111  O  7  Z    0.036283  -0.011876  -0.020096  -0.007649   0.005727
  112  O  7 XX   -0.000244   0.000328   0.000970  -0.002823   0.000623
  113  O  7 YY    0.000677  -0.000604  -0.000523   0.001154  -0.000859
  114  O  7 ZZ   -0.000432   0.000277  -0.000447   0.001669   0.000236
  115  O  7 XY   -0.001779  -0.000584   0.001001   0.002487  -0.001434
  116  O  7 XZ    0.001214  -0.001186  -0.000444  -0.001760  -0.003888
  117  O  7 YZ   -0.001633  -0.000582   0.000204   0.001425  -0.000948
  118  O  7  S    2.990209  -0.031985  -0.255525  -0.977390  -0.077983
  119  O  7  X    0.421418   0.091303   0.145025   0.135249  -0.016473
  120  O  7  Y    0.219931  -0.399246   0.533031   0.064521   0.140503
  121  O  7  Z   -0.052906  -0.639440  -0.319417  -0.048990   0.262722
  122  O  7 XX    0.011155   0.002903  -0.019979   0.000814  -0.004548
  123  O  7 YY   -0.010242  -0.002075   0.013489  -0.007742   0.004278
  124  O  7 ZZ   -0.000913  -0.000828   0.006490   0.006928   0.000270
  125  O  7 XY    0.005184  -0.004933   0.009757  -0.018818   0.005356
  126  O  7 XZ   -0.001433  -0.007160  -0.010932   0.005709   0.018157
  127  O  7 YZ    0.009774  -0.001941  -0.002173   0.006297   0.006169

                     26         27         28         29         30
                    0.1801     0.2168     0.2392     0.2394     0.2523
                     A          A          A          A          A   
    1  H  1  S   -0.028387   0.007156  -0.070252   0.058516   0.061021
    2  H  1  S   -1.615832   3.085773   0.237588  -0.650654   0.939759
    3  H  1  X   -0.005343   0.010871  -0.004809  -0.007966  -0.000935
    4  H  1  Y   -0.001738   0.008774  -0.004225  -0.005595   0.001812
    5  H  1  Z   -0.020233   0.029434   0.005070   0.004488   0.001961
    6  H  1  S   -3.400562   0.491803   0.192189  -1.926673   2.570676
    7  H  1  X   -0.000572   0.045058   0.108309   0.109450   0.049395
    8  H  1  Y    0.052524   0.074800  -0.090449   0.136911   0.064791
[...]
  112  O  7 XX    0.341048  -0.187263   0.832317  -0.778971
  113  O  7 YY   -0.004035   0.099392  -0.464791   0.333095
  114  O  7 ZZ   -0.337013   0.087871  -0.367526   0.445875
  115  O  7 XY    0.671750   0.655623  -0.250653  -0.380883
  116  O  7 XZ   -0.237265  -0.447082   0.389817  -0.037525
  117  O  7 YZ   -0.108943   0.208983  -0.025383   0.008971
  118  O  7  S    0.867478  -1.444157   1.664971  -2.560646
  119  O  7  X    0.083823  -0.376208   0.102380  -0.328215
  120  O  7  Y   -0.290308  -0.354696   0.110301  -0.067219
  121  O  7  Z    0.174750   0.129426  -0.040324  -0.020297
  122  O  7 XX   -0.086491  -0.177357  -0.413971   0.104918
  123  O  7 YY   -0.073437   0.078831   0.174175  -0.032698
  124  O  7 ZZ    0.159928   0.098527   0.239796  -0.072219
  125  O  7 XY   -0.504193  -0.295725   0.100251   0.089298
  126  O  7 XZ    0.232842   0.118056  -0.200055  -0.012189
  127  O  7 YZ    0.059777  -0.068628   0.109760  -0.007439
 ...... END OF RHF CALCULATION ......
 STEP CPU TIME =    25.72 TOTAL CPU TIME =       25.8 (    0.4 MIN)
 TOTAL WALL CLOCK TIME=       25.9 SECONDS, CPU UTILIZATION IS  99.61%

     ----------------------------------------------------------------
     PROPERTY VALUES FOR THE RHF   SELF-CONSISTENT FIELD WAVEFUNCTION
     ----------------------------------------------------------------

          ---------------------------------------
          MULLIKEN AND LOWDIN POPULATION ANALYSES
          ---------------------------------------

     ATOMIC MULLIKEN POPULATION IN EACH MOLECULAR ORBITAL

                      1          2          3          4          5

                  2.000000   2.000000   2.000000   2.000000   2.000000

    1            -0.000003  -0.000007   0.000275   0.002247  -0.015894
    2            -0.000276  -0.000261   0.003483   1.990039  -0.027378
    3            -0.000014  -0.000002   0.000372   0.002193  -0.000435
    4            -0.000003  -0.000007   0.000276   0.002249  -0.016661
    5             0.003739   0.003719   1.998452   0.003255   0.436327
    6             1.996524   0.000096  -0.001445   0.000026   0.813939
    7             0.000033   1.996461  -0.001413  -0.000008   0.810101

                      6          7          8          9         10

                  2.000000   2.000000   2.000000   2.000000   2.000000

    1            -0.001535   0.213997   0.071356   0.040784   0.026774
    2             0.011836   0.778624   0.250252   0.432223   0.163213
    3            -0.007892   0.211320   0.070738   0.045758   0.105850
    4            -0.001226   0.214272   0.070751   0.041730   0.022332
    5             0.333764   0.468689   0.383719   0.415532   0.345964
    6             0.820456   0.051556   0.586547   0.527973   0.674084
    7             0.844597   0.061542   0.566638   0.496000   0.661783

                     11         12         13         14         15

                  2.000000   2.000000   2.000000   2.000000   2.000000

    1             0.193985   0.149773   0.318185   0.010728   0.000283
    2             0.448530   0.644788   0.468817   0.066127   0.003654
    3            -0.005649   0.635430  -0.005110   0.033059   0.000010
    4             0.205349   0.123735   0.335021   0.009110   0.000321
    5             0.405327   0.083153   0.169060  -0.024871   0.083970
    6             0.374201   0.157073   0.382110   0.967921   0.928749
    7             0.378256   0.206048   0.331918   0.937926   0.983013

                     16

                  2.000000

    1             0.017557
    2             0.422132
    3             0.014340
    4             0.018130
    5             0.158994
    6             0.656958
    7             0.711890

               ----- POPULATIONS IN EACH AO -----
                             MULLIKEN      LOWDIN
              1  H  1  S      0.76282     0.53705
              2  H  1  S      0.26863     0.15778
              3  H  1  X      0.00556     0.01397
              4  H  1  Y      0.00523     0.01382
              5  H  1  Z      0.02046     0.03551
              6  H  1  S      0.00698     0.02070
              7  H  1  X     -0.01368     0.05963
              8  H  1  Y     -0.01764     0.05780
              9  H  1  Z     -0.00985     0.08524
             10  C  2  S      2.00750     1.81563
             11  C  2  S      0.65358     0.42428
             12  C  2  S      0.11362     0.18621
             13  C  2  X      0.68562     0.58754
             14  C  2  Y      0.68315     0.58372
             15  C  2  Z      0.68546     0.58486
             16  C  2  X      0.13621     0.30723
             17  C  2  Y      0.30566     0.29113
             18  C  2  Z      0.25295     0.32097
             19  C  2 XX      0.01466     0.11971
             20  C  2 YY      0.01471     0.11347
             21  C  2 ZZ      0.01131     0.11753
             22  C  2 XY      0.00511     0.02147
             23  C  2 XZ      0.00826     0.00995
             24  C  2 YZ      0.00000     0.01718
             25  C  2  S      0.07953     0.04984
             26  C  2  X      0.00786     0.03441
             27  C  2  Y      0.01526     0.03220
             28  C  2  Z      0.00129     0.02897
             29  C  2 XX     -0.01497     0.08011
             30  C  2 YY      0.00009     0.06980
             31  C  2 ZZ      0.00172     0.05417
             32  C  2 XY     -0.00658     0.04992
             33  C  2 XZ     -0.00619     0.02493
             34  C  2 YZ      0.00000     0.05251
             35  H  3  S      0.77118     0.54347
             36  H  3  S      0.33195     0.16022
             37  H  3  X      0.02045     0.03593
             38  H  3  Y      0.00483     0.01265
             39  H  3  Z      0.00569     0.01391
             40  H  3  S      0.00210     0.02111
             41  H  3  X     -0.00822     0.08199
             42  H  3  Y     -0.01300     0.05672
             43  H  3  Z     -0.01501     0.06194
             44  H  4  S      0.76247     0.53214
             45  H  4  S      0.26602     0.15834
             46  H  4  X      0.00721     0.01589
             47  H  4  Y      0.01605     0.02908
             48  H  4  Z      0.00804     0.01718
             49  H  4  S      0.00659     0.02068
             50  H  4  X     -0.01063     0.06112
             51  H  4  Y     -0.01707     0.07029
             52  H  4  Z     -0.01330     0.06583
             53  C  5  S      2.00773     1.75373
             54  C  5  S      0.69271     0.46373
             55  C  5  S      0.37895     0.16126
             56  C  5  X      0.72732     0.61611
             57  C  5  Y      0.64818     0.53504
             58  C  5  Z      0.47524     0.39145
             59  C  5  X     -0.02279     0.20718
             60  C  5  Y      0.07922     0.21801
             61  C  5  Z      0.13379     0.21108
             62  C  5 XX      0.03235     0.20552
             63  C  5 YY      0.07709     0.15565
             64  C  5 ZZ      0.09280     0.09386
             65  C  5 XY      0.06546     0.17081
             66  C  5 XZ      0.02615     0.12297
             67  C  5 YZ      0.00000     0.04790
             68  C  5  S     -0.14162     0.04502
             69  C  5  X     -0.02821     0.04329
             70  C  5  Y     -0.02410     0.04495
             71  C  5  Z     -0.01490     0.03018
             72  C  5 XX      0.01481     0.18642
             73  C  5 YY      0.01701     0.14812
             74  C  5 ZZ      0.01979     0.07008
             75  C  5 XY      0.00858     0.25032
             76  C  5 XZ      0.00322     0.20008
             77  C  5 YZ      0.00000     0.11989
             78  O  6  S      2.00387     1.86772
             79  O  6  S      0.81870     0.60270
             80  O  6  S      1.00625     0.36895
             81  O  6  X      1.01053     0.95853
             82  O  6  Y      0.92355     0.86376
             83  O  6  Z      0.88053     0.82479
             84  O  6  X      0.67084     0.57943
             85  O  6  Y      0.57559     0.54976
             86  O  6  Z      0.63702     0.56674
             87  O  6 XX      0.00226     0.16440
             88  O  6 YY      0.00227     0.16715
             89  O  6 ZZ      0.00463     0.16337
             90  O  6 XY      0.00254     0.00569
             91  O  6 XZ      0.00381     0.00303
             92  O  6 YZ      0.00000     0.00465
             93  O  6  S      0.17488     0.08769
             94  O  6  X      0.08549     0.08392
             95  O  6  Y      0.04659     0.07896
             96  O  6  Z      0.07099     0.08227
             97  O  6 XX      0.00508     0.06323
             98  O  6 YY      0.00530     0.07605
             99  O  6 ZZ      0.00199     0.05124
            100  O  6 XY      0.00173     0.03006
            101  O  6 XZ      0.00232     0.01891
            102  O  6 YZ      0.00000     0.03127
            103  O  7  S      2.00386     1.86985
            104  O  7  S      0.81753     0.60756
            105  O  7  S      1.01054     0.37646
            106  O  7  X      0.86060     0.79966
            107  O  7  Y      1.02620     0.97197
            108  O  7  Z      0.92894     0.87483
            109  O  7  X      0.43132     0.50932
            110  O  7  Y      0.74982     0.58329
            111  O  7  Z      0.70939     0.57824
            112  O  7 XX      0.00208     0.18453
            113  O  7 YY      0.00650     0.16261
            114  O  7 ZZ      0.00280     0.16359
            115  O  7 XY      0.00391     0.00278
            116  O  7 XZ      0.00010     0.00383
            117  O  7 YZ      0.00000     0.00008
            118  O  7  S      0.19849     0.08780
            119  O  7  X      0.02071     0.07313
            120  O  7  Y      0.10564     0.08670
            121  O  7  Z      0.09244     0.08438
            122  O  7 XX      0.00001     0.10397
            123  O  7 YY      0.00083     0.04339
            124  O  7 ZZ      0.00593     0.04323
            125  O  7 XY      0.00727     0.05002
            126  O  7 XZ     -0.00013     0.03203
            127  O  7 YZ      0.00000     0.00210

          ----- MULLIKEN ATOMIC OVERLAP POPULATIONS -----
          (OFF-DIAGONAL ELEMENTS NEED TO BE MULTIPLIED BY 2)

             1           2           3           4           5

    1    0.8941196
    2    0.3563486   4.3275075
    3   -0.1018060   0.3517011   0.9976962
    4   -0.1039433   0.3526375  -0.1005724   0.8897011
    5   -0.0249714   0.3549982  -0.0258086  -0.0207851   4.5193775
    6    0.0033076  -0.0453390  -0.0207627   0.0029406   0.2422994
    7    0.0054497  -0.0420517  -0.0004806   0.0053999   0.2236821

             6           7

    6    8.8451701
    7   -0.0908461   8.8836321

          TOTAL MULLIKEN AND LOWDIN ATOMIC POPULATIONS
       ATOM         MULL.POP.    CHARGE          LOW.POP.     CHARGE
    1 H             1.028505   -0.028505         0.981497    0.018503
    2 C             5.655802    0.344198         5.977746    0.022254
    3 H             1.099967   -0.099967         0.987926    0.012074
    4 H             1.025378   -0.025378         0.970542    0.029458
    5 C             5.268792    0.731208         6.492655   -0.492655
    6 O             8.936770   -0.936770         8.294284   -0.294284
    7 O             8.984785   -0.984785         8.295351   -0.295351

          MULLIKEN SPHERICAL HARMONIC POPULATIONS
       ATOM           S       P       D      F      G      H      I    TOTAL
    1 H             1.04   -0.01    0.00   0.00   0.00   0.00   0.00    1.03
    2 C             2.85    2.77    0.03   0.00   0.00   0.00   0.00    5.66
    3 H             1.11   -0.01    0.00   0.00   0.00   0.00   0.00    1.10
    4 H             1.04   -0.01    0.00   0.00   0.00   0.00   0.00    1.03
    5 C             2.94    1.97    0.36   0.00   0.00   0.00   0.00    5.27
    6 O             4.00    4.90    0.03   0.00   0.00   0.00   0.00    8.94
    7 O             4.03    4.93    0.03   0.00   0.00   0.00   0.00    8.98

          -------------------------------
          BOND ORDER AND VALENCE ANALYSIS     BOND ORDER THRESHOLD=0.050
          -------------------------------

                   BOND                       BOND                       BOND
  ATOM PAIR DIST  ORDER      ATOM PAIR DIST  ORDER      ATOM PAIR DIST  ORDER
    1   2  1.088  0.932        1   4  1.749 -0.061        2   3  1.085  0.939
    2   4  1.088  0.929        2   5  1.534  1.063        5   6  1.240  1.195
    5   7  1.242  1.183        6   7  2.216  0.054

                       TOTAL       BONDED        FREE
      ATOM            VALENCE     VALENCE     VALENCE
    1 H                 0.861       0.861       0.000
    2 C                 3.936       3.936       0.000
    3 H                 0.875       0.875      -0.000
    4 H                 0.859       0.859      -0.000
    5 C                 3.513       3.513       0.000
    6 O                 1.275       1.275       0.000
    7 O                 1.289       1.289       0.000

    **** A SOLVENT MODEL IS IN USE IN THIS RUN ****
 ELECTRICAL PROPERTIES (MOMENTS, DENSITY, FIELD/GRADIENT, AND/OR POTENTIAL)
 ARE COMPUTED USING THE SOLVATED SYSTEM'S DENSITY MATRIX, BUT
 ONLY WITH AO INTEGRAL CONTRIBUTIONS FROM THE QUANTUM SOLUTE.
 THE ONE EXCEPTION IS THE DIPOLE, WHICH IS ALSO PRINTED FOR THE TOTAL SYSTEM.

          ----------------------------
          SOLUTE ELECTROSTATIC MOMENTS
          ----------------------------

 POINT   1           X           Y           Z (BOHR)    CHARGE
                -1.397077   -2.198757    3.024912       -1.00 (A.U.)
         DX          DY          DZ         /D/  (DEBYE)
     2.660109    4.172487   -1.830424    5.276010

          ----------------------------
          SYSTEM ELECTROSTATIC MOMENTS
          ----------------------------

 POINT   1           X           Y           Z (BOHR)    CHARGE
                -1.397077   -2.198757    3.024912       -1.00 (A.U.)
         DX          DY          DZ         /D/  (DEBYE)
     2.660109    4.172487   -1.830424    5.276010
 INCLUDING PCM SURFACE CHARGES, TOTAL CHARGE=   -0.073047, AND TOTAL DIPOLE IS
         DX          DY          DZ         /D/  (DEBYE)
    -0.316957   -0.486452    0.226966    0.623387
 ...... END OF PROPERTY EVALUATION ......
 STEP CPU TIME =     0.03 TOTAL CPU TIME =       25.8 (    0.4 MIN)
 TOTAL WALL CLOCK TIME=       25.9 SECONDS, CPU UTILIZATION IS  99.65%

 .... DONE WITH PCM CONTRIBUTION TO GRADIENT ....
 STEP CPU TIME =     0.28 TOTAL CPU TIME =       26.1 (    0.4 MIN)
 TOTAL WALL CLOCK TIME=       26.2 SECONDS, CPU UTILIZATION IS  99.62%

 BEGINNING ONE ELECTRON GRADIENT...
 ..... END OF 1-ELECTRON GRADIENT ......
 STEP CPU TIME =     0.05 TOTAL CPU TIME =       26.1 (    0.4 MIN)
 TOTAL WALL CLOCK TIME=       26.2 SECONDS, CPU UTILIZATION IS  99.66%

          ----------------------
          GRADIENT OF THE ENERGY
          ----------------------

 THE MINIMUM MEMORY REQUIRED FOR THIS RUN IS     193947 WORDS.
 USING    1169467 WORDS FOR 2E- DERIVATIVE INTEGRAL CONTRIBUTIONS.
 THE COARSE/FINE SCHWARZ SCREENINGS SKIPPED         2668/       47546 BLOCKS.
 THE NUMBER OF GRADIENT INTEGRAL BLOCKS COMPUTED WAS    825087
 ...... END OF 2-ELECTRON GRADIENT ......
 STEP CPU TIME =     6.07 TOTAL CPU TIME =       32.2 (    0.5 MIN)
 TOTAL WALL CLOCK TIME=       32.3 SECONDS, CPU UTILIZATION IS  99.63%

                         ----------------------
                         GRADIENT OF THE ENERGY
                         ----------------------

 UNITS ARE HARTREE/BOHR    E'X               E'Y               E'Z 
    1 H                0.001136562       0.000748516       0.003455582
    2 C                0.001256085       0.003124564      -0.001078519
    3 H               -0.003174960       0.001106797      -0.001323358
    4 H                0.002227352      -0.002178540      -0.002187103
    5 C               -0.009524981      -0.015505903       0.006838749
    6 O               -0.000457732       0.008511174      -0.004585238
    7 O                0.008537674       0.004193391      -0.001120111

                   MAXIMUM GRADIENT =    0.015505903
                       RMS GRADIENT =    0.005421193
  $VIB   
          IVIB=   0 IATOM=   0 ICOORD=   0 E=     -227.3819259022
  1.136562016E-03 7.485163451E-04 3.455581765E-03 1.256085315E-03 3.124563937E-03
 -1.078518665E-03-3.174960012E-03 1.106797073E-03-1.323358395E-03 2.227352375E-03
 -2.178539906E-03-2.187103401E-03-9.524981467E-03-1.550590327E-02 6.838748637E-03
 -4.577319350E-04 8.511174493E-03-4.585238446E-03 8.537673707E-03 4.193391331E-03
 -1.120111495E-03
  2.660109247E+00 4.172486578E+00-1.830424349E+00

..... END OF SINGLE POINT GRADIENT .....
 STEP CPU TIME =     0.00 TOTAL CPU TIME =       32.2 (    0.5 MIN)
 TOTAL WALL CLOCK TIME=       32.3 SECONDS, CPU UTILIZATION IS  99.63%

             ----------------------------------------------
             -------   RESULTS OF PCM CALCULATION   -------
             ----------------------------------------------

 FREE ENERGY IN SOLVENT = <PSI| H(0)+V/2 |PSI>       =     -227.3819259022 A.U.
 INTERNAL ENERGY IN SOLVENT = <PSI| H(0) |PSI>       =     -227.2707504462 A.U.
 DELTA INTERNAL ENERGY =  <D-PSI| H(0) |D-PSI>       =        0.0000000000 A.U.
 ELECTROSTATIC INTERACTION                           =       -0.1111754559 A.U.
 PIEROTTI CAVITATION ENERGY                          =        0.0000000000 A.U.
 DISPERSION FREE ENERGY                              =        0.0000000000 A.U.
 REPULSION FREE ENERGY                               =        0.0000000000 A.U.
 TOTAL INTERACTION (DELTA + ES + CAV + DISP + REP)   =       -0.1111754559 A.U.
 TOTAL FREE ENERGY IN SOLVENT                        =     -227.3819259022 A.U.

 FREE ENERGY IN SOLVENT       =     -142684.33 KCAL/MOL
 INTERNAL ENERGY IN SOLVENT   =     -142614.56 KCAL/MOL
 DELTA INTERNAL ENERGY        =           0.00 KCAL/MOL
 ELECTROSTATIC INTERACTION    =         -69.76 KCAL/MOL
 PIEROTTI CAVITATION ENERGY   =           0.00 KCAL/MOL
 DISPERSION FREE ENERGY       =           0.00 KCAL/MOL
 REPULSION FREE ENERGY        =           0.00 KCAL/MOL
 TOTAL INTERACTION            =         -69.76 KCAL/MOL
 TOTAL FREE ENERGY IN SOLVENT =     -142684.33 KCAL/MOL

 -INTERNAL ENERGY IN SOLVENT-
    OMITS ES,CAV,DISP,REP (USES SOLVATED ORBITALS IN THE GAS PHASE HAMILTONIAN)
 -FREE ENERGY IN SOLVENT-
    INCLUDES ES+DISP+REP WHICH ARE IN THE SELF-CONSISTENT WAVEFUNCTION.
 -TOTAL FREE ENERGY IN SOLVENT-
    INCLUDES ES+DISP+REP+CAV, MEANING CAVITATION IS NOT IN THE SCF ENERGY.

 .... DONE PRINTING PCM SOLVENT SUMMARY ....
 STEP CPU TIME =     0.00 TOTAL CPU TIME =       32.2 (    0.5 MIN)
 TOTAL WALL CLOCK TIME=       32.3 SECONDS, CPU UTILIZATION IS  99.63%
              1206794  WORDS OF DYNAMIC MEMORY USED
 EXECUTION OF GAMESS TERMINATED NORMALLY Fri Jun  2 05:12:15 2017
 DDI: 263640 bytes (0.3 MB / 0 MWords) used by master data server.

 ----------------------------------------
 CPU timing information for all processes
 ========================================
 0: 32.192 + 0.24 = 32.217
 ----------------------------------------
 ddikick.x: exited gracefully.
unset echo
----- accounting info -----
Files used on the master node compute-0-8.local were:
-rw-rw-r-- 1 sarom sarom    1185 Jun  2 05:11 /scratch/pcm-hetero.F05
-rw-rw-r-- 1 sarom sarom 2519440 Jun  2 05:12 /scratch/pcm-hetero.F10
-rw-rw-r-- 1 sarom sarom       8 Jun  2 05:11 /scratch/pcm-hetero.F26
-rw-rw-r-- 1 sarom sarom       0 Jun  2 05:11 /scratch/pcm-hetero.F27
rm: cannot remove `/scratch/sarom': Is a directory
rm: cannot remove `/scratch/tmp': Is a directory
ls: No match.
ls: No match.
ls: No match.
Fri Jun  2 05:12:18 CDT 2017
0.253u 0.242s 0:35.91 1.3%	0+0k 8+368io 0pf+0w
Deleting shmid=2785280.
Deleting shmid=2818049.
/opt/gridengine/default/spool/compute-0-8/active_jobs/24046.1/pe_hostfile compute-0-8.local
