-catch_rsh /opt/gridengine/default/spool/compute-0-7/active_jobs/24044.1/pe_hostfile
compute-0-7
The primary node assigned by SGE to this run is compute-0-7
Warning: no access to tty (Bad file descriptor).
Thus no job control in this shell.
Deleting shmid=2523136.
Deleting shmid=2555905.
Deleting shmid=2785282.
source /home/sarom/gamess.github.2017-05-31.14.06/install.info
setenv GMS_PATH /home/sarom/gamess.github.2017-05-31.14.06
setenv GMS_BUILD_DIR /home/sarom/gamess.github.2017-05-31.14.06
setenv GMS_TARGET linux64
setenv GMS_FORTRAN gfortran
setenv GMS_GFORTRAN_VERNO 4.4
setenv GMS_MATHLIB mkl-so
setenv GMS_MATHLIB_PATH /share/apps/intel/compilers_and_libraries_2017.1.132/linux/mkl/lib/intel64
setenv GMS_MKL_VERNO 12
setenv GMS_DDI_COMM sockets
setenv GMS_LIBCCHEM false
setenv GMS_EIGEN_PATH
setenv GMS_PHI false
setenv GMS_SHMTYPE sysv
setenv GMS_OPENMP false
unset echo
pcm-hcn-hess
tests/solvent/pcm
----- GAMESS execution script 'rungms' -----
This job is running on host compute-0-7.local
under operating system Linux at Fri Jun 2 05:11:27 CDT 2017
Available scratch disk space (Kbyte units) at beginning of the job is
Filesystem           1K-blocks      Used Available Use% Mounted on
/dev/sda1             16126920   3867340  11440380  26% /
GAMESS temporary binary files will be written to /scratch
GAMESS supplementary output files will be written to /home/sarom/restart
Copying input file pcm-hcn-hess.inp to your run's scratch directory...
cp tests/solvent/pcm/pcm-hcn-hess.inp /scratch/pcm-hcn-hess.F05
unset echo
The generated host list is
compute-0-7.local
/home/sarom/gamess.github.2017-05-31.14.06/ddikick.x /home/sarom/gamess.github.2017-05-31.14.06/gamess.00.x pcm-hcn-hess -ddi 1 1 compute-0-7.local -scr /scratch

 Distributed Data Interface kickoff program.
 Initiating 1 compute processes on 1 nodes to run the following command:
 /home/sarom/gamess.github.2017-05-31.14.06/gamess.00.x pcm-hcn-hess 

          ******************************************************
          *         GAMESS VERSION = 20 APR 2017 (R1)          *
          *             FROM IOWA STATE UNIVERSITY             *
          * M.W.SCHMIDT, K.K.BALDRIDGE, J.A.BOATZ, S.T.ELBERT, *
          *   M.S.GORDON, J.H.JENSEN, S.KOSEKI, N.MATSUNAGA,   *
          *          K.A.NGUYEN, S.J.SU, T.L.WINDUS,           *
          *       TOGETHER WITH M.DUPUIS, J.A.MONTGOMERY       *
          *         J.COMPUT.CHEM.  14, 1347-1363(1993)        *
          **************** 64 BIT LINUX VERSION ****************

  SINCE 1993, STUDENTS AND POSTDOCS WORKING AT IOWA STATE UNIVERSITY
  AND ALSO IN THEIR VARIOUS JOBS AFTER LEAVING ISU HAVE MADE IMPORTANT
  CONTRIBUTIONS TO THE CODE:
     IVANA ADAMOVIC, CHRISTINE AIKENS, YURI ALEXEEV, POOJA ARORA,
     ANDREY ASADCHEV, ROB BELL, PRADIPTA BANDYOPADHYAY, JONATHAN BENTZ,
     BRETT BODE, KURT BRORSEN, CALEB CARLIN, GALINA CHABAN, WEI CHEN,
     CHEOL HO CHOI, PAUL DAY, ALBERT DEFUSCO, NUWAN DESILVA, TIM DUDLEY,
     DMITRI FEDOROV, GRAHAM FLETCHER, MARK FREITAG, KURT GLAESEMANN,
     DAN KEMP, GRANT MERRILL, NORIYUKI MINEZAWA, JONATHAN MULLIN,
     TAKESHI NAGATA, SEAN NEDD, HEATHER NETZLOFF, BOSILJKA NJEGIC, RYAN OLSON,
     MIKE PAK, SPENCER PRUITT, LUKE ROSKOP, JIM SHOEMAKER, LYUDMILA SLIPCHENKO,
     TONY SMITH, SAROM SOK LEANG, JIE SONG, TETSUYA TAKETSUGU, SIMON WEBB,
     PENG XU, SOOHAENG YOO, FEDERICO ZAHARIEV

  ADDITIONAL CODE HAS BEEN PROVIDED BY COLLABORATORS IN OTHER GROUPS:
     IOWA STATE UNIVERSITY:
          JOE IVANIC, AARON WEST, LAIMUTIS BYTAUTAS, KLAUS RUEDENBERG
     UNIVERSITY OF TOKYO: KIMIHIKO HIRAO, TAKAHITO NAKAJIMA,
          TAKAO TSUNEDA, MUNEAKI KAMIYA, SUSUMU YANAGISAWA,
          KIYOSHI YAGI, MAHITO CHIBA, SEIKEN TOKURA, NAOAKI KAWAKAMI
     UNIVERSITY OF AARHUS: FRANK JENSEN
     UNIVERSITY OF IOWA: VISVALDAS KAIRYS, HUI LI
     NATIONAL INST. OF STANDARDS AND TECHNOLOGY: WALT STEVENS, DAVID GARMER
     UNIVERSITY OF PISA: BENEDETTA MENNUCCI, JACOPO TOMASI
     UNIVERSITY OF MEMPHIS: HENRY KURTZ, PRAKASHAN KORAMBATH
     UNIVERSITY OF ALBERTA: TOBY ZENG, MARIUSZ KLOBUKOWSKI
     UNIVERSITY OF NEW ENGLAND: MARK SPACKMAN
     MIE UNIVERSITY: HIROAKI UMEDA
     NAT. INST. OF ADVANCED INDUSTRIAL SCIENCE AND TECHNOLOGY: KAZUO KITAURA
     MICHIGAN STATE UNIVERSITY:
          KAROL KOWALSKI, MARTA WLOCH, JEFFREY GOUR, JESSE LUTZ,
          WEI LI, PIOTR PIECUCH
     UNIVERSITY OF SILESIA: MONIKA MUSIAL, STANISLAW KUCHARSKI
     FACULTES UNIVERSITAIRES NOTRE-DAME DE LA PAIX:
          OLIVIER QUINET, BENOIT CHAMPAGNE
     UNIVERSITY OF CALIFORNIA - SANTA BARBARA: BERNARD KIRTMAN
     INSTITUTE FOR MOLECULAR SCIENCE:
          KAZUYA ISHIMURA, MICHIO KATOUDA, AND SHIGERU NAGASE
     UNIVERSITY OF NOTRE DAME: ANNA POMOGAEVA, DAN CHIPMAN
     KYUSHU UNIVERSITY:
          HARUYUKI NAKANO,
          FENG LONG GU, JACEK KORCHOWIEC, MARCIN MAKOWSKI, AND YURIKO AOKI,
          HIROTOSHI MORI AND EISAKU MIYOSHI
     PENNSYLVANIA STATE UNIVERSITY:
          TZVETELIN IORDANOV, CHET SWALINA, JONATHAN SKONE,
          SHARON HAMMES-SCHIFFER
     WASEDA UNIVERSITY:
          MASATO KOBAYASHI, TOMOKO AKAMA, TSUGUKI TOUMA,
          TAKESHI YOSHIKAWA, YASUHIRO IKABATA, JUNJI SEINO,
          YUYA NAKAJIMA, HIROMI NAKAI
     NANJING UNIVERSITY: SHUHUA LI
     UNIVERSITY OF NEBRASKA:
          PEIFENG SU, DEJUN SI, NANDUN THELLAMUREGE, YALI WANG, HUI LI
     UNIVERSITY OF ZURICH: ROBERTO PEVERATI, KIM BALDRIDGE
     N. COPERNICUS UNIVERSITY AND JACKSON STATE UNIVERSITY:
          MARIA BARYSZ
     UNIVERSITY OF COPENHAGEN: Jimmy Kromann, CASPER STEINMANN
     TOKYO INSTITUTE OF TECHNOLOGY: HIROYA NAKATA
     NAGOYA UNIVERSITY: YOSHIO NISHIMOTO, STEPHAN IRLE
     MOSCOW STATE UNIVERSITY: VLADIMIR MIRONOV

 EXECUTION OF GAMESS BEGUN Fri Jun  2 05:11:27 2017

            ECHO OF THE FIRST FEW INPUT CARDS -
 INPUT CARD>!   HCN in water, closed shell, using a very tightly optimized geometry         
 INPUT CARD>!                                                                               
 INPUT CARD>!   seminumerical frequencies look OK,                                          
 INPUT CARD>!   residual FREQ= 0.11        0.11        0.02        8.10        8.13         
 INPUT CARD>!    genuine FREQ= 892.68      892.91     2431.27     3652.16                   
 INPUT CARD>!                                                                               
 INPUT CARD>!   This run takes 5 seconds on 2.66 GHz Cloverton (22 Oct 2015)                
 INPUT CARD>!                                                                               
 INPUT CARD>!   fully numerical ones not so hot, 20 cm-1 shift in the pi mode.              
 INPUT CARD>!   omega:   126.17      125.89        0.70        0.27        0.26             
 INPUT CARD>!   omega:   877.71      878.03     2431.46     3652.49                         
 INPUT CARD>!                                                                               
 INPUT CARD> $contrl scftyp=rhf runtyp=hessian $end                                         
 INPUT CARD> $system mwords=1 $end                                                          
 INPUT CARD> $basis  gbasis=n31 ngauss=6 ndfunc=1 $end                                      
 INPUT CARD> $guess  guess=huckel $end                                                      
 INPUT CARD> $pcm    solvnt=water $end                                                      
 INPUT CARD> $statpt opttol=1d-5 $end                                                       
 INPUT CARD> $force  method=seminum $end                                                    
 INPUT CARD>x$force  method=fullnum $end                                                    
 INPUT CARD> $data                                                                          
 INPUT CARD>HCN in PCM water                                                                
 INPUT CARD>C1                                                                              
 INPUT CARD>H    1.0   0.0000000000   0.0000000000  -1.0454979790                           
 INPUT CARD>C    6.0   0.0000000000   0.0000000000   0.0161813254                           
 INPUT CARD>N    7.0   0.0000000000   0.0000000000   1.1493166537                           
 INPUT CARD> $end                                                                           
    1000000 WORDS OF MEMORY AVAILABLE

     BASIS OPTIONS
     -------------
     GBASIS=N31          IGAUSS=       6      POLAR=POPN31  
     NDFUNC=       1     NFFUNC=       0     DIFFSP=       F
     NPFUNC=       0      DIFFS=       F     BASNAM=        


     RUN TITLE
     ---------
 HCN in PCM water                                                                

 THE POINT GROUP OF THE MOLECULE IS C1      
 THE ORDER OF THE PRINCIPAL AXIS IS     0

 ATOM      ATOMIC                      COORDINATES (BOHR)
           CHARGE         X                   Y                   Z
 H           1.0     0.0000000000        0.0000000000       -1.9757047010
 C           6.0     0.0000000000        0.0000000000        0.0305782711
 N           7.0     0.0000000000        0.0000000000        2.1718935486

          INTERNUCLEAR DISTANCES (ANGS.)
          ------------------------------

                1 H          2 C          3 N     

   1 H       0.0000000    1.0616793 *  2.1948146 *
   2 C       1.0616793 *  0.0000000    1.1331353 *
   3 N       2.1948146 *  1.1331353 *  0.0000000  

  * ... LESS THAN  3.000


     ATOMIC BASIS SET
     ----------------
 THE CONTRACTED PRIMITIVE FUNCTIONS HAVE BEEN UNNORMALIZED
 THE CONTRACTED BASIS FUNCTIONS ARE NOW NORMALIZED TO UNITY

  SHELL TYPE  PRIMITIVE        EXPONENT          CONTRACTION COEFFICIENT(S)

 H         

      1   S       1            18.7311370    0.033494604338
      1   S       2             2.8253944    0.234726953484
      1   S       3             0.6401217    0.813757326146

      2   S       4             0.1612778    1.000000000000

 C         

      3   S       5          3047.5248800    0.001834737132
      3   S       6           457.3695180    0.014037322813
      3   S       7           103.9486850    0.068842622264
      3   S       8            29.2101553    0.232184443216
      3   S       9             9.2866630    0.467941348435
      3   S      10             3.1639270    0.362311985337

      4   L      11             7.8682723   -0.119332419775    0.068999066591
      4   L      12             1.8812885   -0.160854151696    0.316423960957
      4   L      13             0.5442493    1.143456437840    0.744308290898

      5   L      14             0.1687145    1.000000000000    1.000000000000

      6   D      15             0.8000000    1.000000000000

 N         

      7   S      16          4173.5114600    0.001834772160
      7   S      17           627.4579110    0.013994627002
      7   S      18           142.9020930    0.068586551812
      7   S      19            40.2343293    0.232240873040
      7   S      20            12.8202129    0.469069948082
      7   S      21             4.3904370    0.360455199063

      8   L      22            11.6263619   -0.114961181702    0.067579743878
      8   L      23             2.7162798   -0.169117478561    0.323907295893
      8   L      24             0.7722184    1.145851947027    0.740895139755

      9   L      25             0.2120315    1.000000000000    1.000000000000

     10   D      26             0.8000000    1.000000000000

 TOTAL NUMBER OF BASIS SET SHELLS             =   10
 NUMBER OF CARTESIAN GAUSSIAN BASIS FUNCTIONS =   32
 NUMBER OF ELECTRONS                          =   14
 CHARGE OF MOLECULE                           =    0
 SPIN MULTIPLICITY                            =    1
 NUMBER OF OCCUPIED ORBITALS (ALPHA)          =    7
 NUMBER OF OCCUPIED ORBITALS (BETA )          =    7
 TOTAL NUMBER OF ATOMS                        =    3
 THE NUCLEAR REPULSION ENERGY IS       24.2924418721

 THIS MOLECULE IS RECOGNIZED AS BEING LINEAR,
 ORBITAL LZ DEGENERACY TOLERANCE ETOLLZ= 1.00E-06

     $CONTRL OPTIONS
     ---------------
 SCFTYP=RHF          RUNTYP=HESSIAN      EXETYP=RUN     
 MPLEVL=       0     CITYP =NONE         CCTYP =NONE         VBTYP =NONE    
 DFTTYP=NONE         TDDFT =NONE    
 MULT  =       1     ICHARG=       0     NZVAR =       0     COORD =UNIQUE  
 PP    =NONE         RELWFN=NONE         LOCAL =NONE         NUMGRD=       F
 ISPHER=      -1     NOSYM =       0     MAXIT =      30     UNITS =ANGS    
 PLTORB=       F     MOLPLT=       F     AIMPAC=       F     FRIEND=        
 NPRINT=       7     IREST =       0     GEOM  =INPUT   
 NORMF =       0     NORMP =       0     ITOL  =      20     ICUT  =       9
 INTTYP=BEST         GRDTYP=BEST         QMTTOL= 1.0E-06

     $SYSTEM OPTIONS
     ---------------
  REPLICATED MEMORY=     1000000 WORDS (ON EVERY NODE).
 DISTRIBUTED MEMDDI=           0 MILLION WORDS IN AGGREGATE,
 MEMDDI DISTRIBUTED OVER   1 PROCESSORS IS           0 WORDS/PROCESSOR.
 TOTAL MEMORY REQUESTED ON EACH PROCESSOR=     1000000 WORDS.
 TIMLIM=      525600.00 MINUTES, OR     365.0 DAYS.
 PARALL= F  BALTYP=  DLB     KDIAG=    0  COREFL= F
 MXSEQ2=     300 MXSEQ3=     150  mem10=         0

 ** LOOKING UP INTERNALLY STORED DATA FOR SOLVENT=WATER    **
 OPTICAL AND PHYSICAL CONSTANTS:
 EPS= 78.390; EPSINF=  1.776; RSOLV=  1.385 A; VMOL=  18.070 ML/MOL;
 TCE= .25700E-03 1/K; STEN= 71.810 DYN/CM;  DSTEN=  0.6500; CMF=  1.2770


     -----------------------------------
     INPUT FOR PCM SOLVATION CALCULATION 
     -----------------------------------
     IEF   =     -10
     ICOMP =       0     IFIELD=       0     ICAV  =       0
     IDISP =       0     IREP  =       0     IDP   =       0

     SOLVNT=WATER        EPS   = 78.3900     EPSINF=  1.7760
     VMOL  = 18.0700     TCE   =  0.00025700 STEN  = 71.8100
     DSTEN =  0.6500     CMF   =  1.2770     RSOLV =  1.3850

     NESFP =       0
     OMEGA = 40.0000     RET   =100.0000     FRO   =  0.7000

     TABS  =298.0000     IPRINT=       0

     --------------------------------
     INPUT FOR ITERATIVE C-PCM METHOD 
     --------------------------------
     IPCMIT  =         1     MXDIIS  =        50
     MXITR1  =        50     MXITR2  =        50
     THRES   = 0.100E-09     IMUL    =         3
     RCUT(1) =   15.0000     RCUT(2) =   30.0000

     IDIRCT  =         1
     IMGABI  =         0     RABI    =    4.0000
     IMGASC  =         0     RASC    =   20.0000
     THRSLS  = 0.500E-03     DENSLS  =    0.0100
     IEFPOL  =         1     REFPOL  =    0.0000

     INPUT FOR ISOTROPIC DIELECTRICS
     -------------------------------
     EPS=    78.39

     INPUT FOR CAVITY DEFINITION 
     ---------------------------
   ATOM               COORDINATES                RADIUS       EPS
      1      0.0000      0.0000     -1.0455      1.2000     78.3900
      2      0.0000      0.0000      0.0162      1.7000     78.3900
      3      0.0000      0.0000      1.1493      1.6000     78.3900

     ----------------------------
     INPUT FOR TESSERA DEFINITION
     ----------------------------
     NTSALL  =        60     MTHALL  =         4
     MTHAUT  =         0     AUTFRE  =    2.0000
     NTSFRZ  =        60     KEEPSM  =         0
     AREAKP  =   10.0000     BONDRY  =    1.0000
     AREATL  =    0.0100

     SPHERE     INITS       METHOD
          1        60       FIXPVA
          2        60       FIXPVA
          3        60       FIXPVA

     ------------------------------
      FIXPVA TESSELLATION FOR PCM
         PEIFENG SU AND HUI LI
     UNIVERSITY OF NEBRASKA-LINCOLN
     ------------------------------


     -----------------------------
     INPUT FOR PCM GRADIENT METHOD
     -----------------------------
     IPCDER  =         3     IFAST   =         0
     FIXPVA GRADIENTS BY PEIFENG SU AND HUI LI
  

 PCM DIMENSIONS: MXSP=  2000, MXTS=       180, MEMORY=         31963

          ----------------
          PROPERTIES INPUT
          ----------------

     MOMENTS            FIELD           POTENTIAL          DENSITY
 IEMOM =       1   IEFLD =       0   IEPOT =       0   IEDEN =       0
 WHERE =COMASS     WHERE =NUCLEI     WHERE =NUCLEI     WHERE =NUCLEI  
 OUTPUT=BOTH       OUTPUT=BOTH       OUTPUT=BOTH       OUTPUT=BOTH    
 IEMINT=       0   IEFINT=       0                     IEDINT=       0
                                                       MORB  =       0
          EXTRAPOLATION IN EFFECT
          SOSCF IN EFFECT
 ORBITAL PRINTING OPTION: NPREO=     1    32     2     1

     -------------------------------
     INTEGRAL TRANSFORMATION OPTIONS
     -------------------------------
     NWORD  =            0
     CUTOFF = 1.0E-09     MPTRAN =       0
     DIRTRF =       F     AOINTS =DUP     

          ----------------------
          INTEGRAL INPUT OPTIONS
          ----------------------
 NOPK  =       1 NORDER=       0 SCHWRZ=       F

     ------------------------------------------
     THE POINT GROUP IS C1 , NAXIS= 1, ORDER= 1
     ------------------------------------------

     DIMENSIONS OF THE SYMMETRY SUBSPACES ARE
 A   =   32

 ..... DONE SETTING UP THE RUN .....
 STEP CPU TIME =     0.02 TOTAL CPU TIME =        0.0 (    0.0 MIN)
 TOTAL WALL CLOCK TIME=        0.0 SECONDS, CPU UTILIZATION IS  66.67%

     ---------------------------------
     HESSIAN MATRIX CONTROL PARAMETERS
     ---------------------------------
     METHOD=SEMINUM    NVIB  =       2   VIBSIZ= 0.01000
     RDHESS=       F   PURIFY=       F   PRTIFC=       F
     VIBANL=       T   DECOMP=       F   PROJCT=       F
     SCLFAC= 1.00000   PRTSCN=       F   NPRT  =       0
     PULCOR=       F   NPUN  =       0   REDOVB=       T
     HSSTYP=GENERAL 
     THERMOCHEMISTRY WILL BE PRINTED FOR    1 TEMPERATURES:
      298.15000

               * * * EFFICIENCY NOTE * * *
 THIS CALCULATION CAN BE RUN WITH DIFFERENTIATION METHOD=ANALYTIC
 THIS MIGHT BE MORE ACCURATE AND/OR FASTER THAN YOUR CHOICE,
 BUT THE REQUESTED CALCULATION METHOD=SEMINUM  IS PROCEEDING.

1   ATOM  0
                                        -------------------
   COORD  0                             NUCLEAR COORDINATES
                                        -------------------
     VIB  0

                       ATOM             X              Y              Z

                 1  H                0.000000       0.000000      -1.975705
                 2  C                0.000000       0.000000       0.030578
                 3  N                0.000000       0.000000       2.171894

          ********************
          1 ELECTRON INTEGRALS
          ********************
 ...... END OF ONE-ELECTRON INTEGRALS ......
 STEP CPU TIME =     0.00 TOTAL CPU TIME =        0.0 (    0.0 MIN)
 TOTAL WALL CLOCK TIME=        0.0 SECONDS, CPU UTILIZATION IS  66.67%

          -------------
          GUESS OPTIONS
          -------------
          GUESS =HUCKEL            NORB  =       0          NORDER=       0
          MIX   =       F          PRTMO =       F          PUNMO =       F
          TOLZ  = 1.0E-08          TOLE  = 1.0E-05
          SYMDEN=       F          PURIFY=       F

 INITIAL GUESS ORBITALS GENERATED BY HUCKEL   ROUTINE.
 HUCKEL GUESS REQUIRES     10362 WORDS.

 SYMMETRIES FOR INITIAL GUESS ORBITALS FOLLOW.   BOTH SET(S).
     7 ORBITALS ARE OCCUPIED (    2 CORE ORBITALS).
     3=A        4=A        5=A        6=A        7=A        8=A        9=A   
    10=A       11=A       12=A       13=A       14=A       15=A       16=A   
    17=A   
 ...... END OF INITIAL ORBITAL SELECTION ......
 STEP CPU TIME =     0.00 TOTAL CPU TIME =        0.0 (    0.0 MIN)
 TOTAL WALL CLOCK TIME=        0.0 SECONDS, CPU UTILIZATION IS  66.67%

                    ----------------------
                    AO INTEGRAL TECHNOLOGY
                    ----------------------
     S,P,L SHELL ROTATED AXIS INTEGRALS, REPROGRAMMED BY
        KAZUYA ISHIMURA (IMS) AND JOSE SIERRA (SYNSTAR).
     S,P,D,L SHELL ROTATED AXIS INTEGRALS PROGRAMMED BY
        KAZUYA ISHIMURA (INSTITUTE FOR MOLECULAR SCIENCE).
     S,P,D,F,G SHELL TO TOTAL QUARTET ANGULAR MOMENTUM SUM 5,
        ERIC PROGRAM BY GRAHAM FLETCHER (ELORET AND NASA ADVANCED
        SUPERCOMPUTING DIVISION, AMES RESEARCH CENTER).
     S,P,D,F,G,L SHELL GENERAL RYS QUADRATURE PROGRAMMED BY
        MICHEL DUPUIS (PACIFIC NORTHWEST NATIONAL LABORATORY).

          --------------------
          2 ELECTRON INTEGRALS
          --------------------

 THE -PK- OPTION IS OFF, THE INTEGRALS ARE NOT IN SUPERMATRIX FORM.
 STORING   15000 INTEGRALS/RECORD ON DISK, USING 12 BYTES/INTEGRAL.
 TWO ELECTRON INTEGRAL EVALUATION REQUIRES   90451 WORDS OF MEMORY.
 II,JST,KST,LST =  1  1  1  1 NREC =         1 INTLOC =    1
 II,JST,KST,LST =  2  1  1  1 NREC =         1 INTLOC =    2
 II,JST,KST,LST =  3  1  1  1 NREC =         1 INTLOC =    7
 II,JST,KST,LST =  4  1  1  1 NREC =         1 INTLOC =   22
 II,JST,KST,LST =  5  1  1  1 NREC =         1 INTLOC =  169
 II,JST,KST,LST =  6  1  1  1 NREC =         1 INTLOC =  678
 II,JST,KST,LST =  7  1  1  1 NREC =         1 INTLOC = 2713
 II,JST,KST,LST =  8  1  1  1 NREC =         1 INTLOC = 3755
 II,JST,KST,LST =  9  1  1  1 NREC =         1 INTLOC = 8992
 II,JST,KST,LST = 10  1  1  1 NREC =         2 INTLOC = 2691
 TOTAL NUMBER OF NONZERO TWO-ELECTRON INTEGRALS =               38690
          3 INTEGRAL RECORDS WERE STORED ON DISK FILE  8.
  ...... END OF TWO-ELECTRON INTEGRALS .....
 STEP CPU TIME =     0.02 TOTAL CPU TIME =        0.0 (    0.0 MIN)
 TOTAL WALL CLOCK TIME=        0.0 SECONDS, CPU UTILIZATION IS  80.00%

          -------------------------------------
          ---- POLARISABLE CONTINUUM MODEL ----
          ----      UNIVERSITY OF PISA     ----
          -------------------------------------

     ----------------------------
     INPUT FOR TESSERA DEFINITION
     ----------------------------
     NTSALL  =        60     MTHALL  =         4
     MTHAUT  =         0     AUTFRE  =    2.0000
     NTSFRZ  =        60     KEEPSM  =         0
     AREAKP  =   10.0000     BONDRY  =    1.0000
     AREATL  =    0.0100

     SPHERE     INITS       METHOD
          1        60       FIXPVA
          2        60       FIXPVA
          3        60       FIXPVA

     ------------------------------
      FIXPVA TESSELLATION FOR PCM
         PEIFENG SU AND HUI LI
     UNIVERSITY OF NEBRASKA-LINCOLN
     ------------------------------


     INPUT FOR CAVITY DEFINITION 
     ---------------------------
   ATOM               COORDINATES                RADIUS       EPS
      1      0.0000      0.0000     -1.0455      1.2000     78.3900
      2      0.0000      0.0000      0.0162      1.7000     78.3900
      3      0.0000      0.0000      1.1493      1.6000     78.3900

 MEMORY USED TO GENERATE CAVITY=    176782


 TOTAL NUMBER OF SPHERES=     3
 SPHERE           CENTER  (X,Y,Z) (A)               RADIUS (A)      AREA(A*A)
     1   0.000000000   0.000000000  -1.045497979   1.440000000   8.685875369
     2   0.000000000   0.000000000   0.016181325   2.040000000  26.148103976
     3   0.000000000   0.000000000   1.149316654   1.920000000  23.163005010

 TOTAL NUMBER OF TESSERAE=      95
 SURFACE AREA=    57.99698435(A**2)    CAVITY VOLUME=     43.27001982 (A**3)
 STEP CPU TIME =     0.00 TOTAL CPU TIME =        0.0 (    0.0 MIN)
 TOTAL WALL CLOCK TIME=        0.0 SECONDS, CPU UTILIZATION IS  80.00%

          THE SOLUTE IS ENCLOSED IN ONE CAVITY
 DONE CHECKING SEPARATION.
 STEP CPU TIME =     0.00 TOTAL CPU TIME =        0.0 (    0.0 MIN)
 TOTAL WALL CLOCK TIME=        0.0 SECONDS, CPU UTILIZATION IS  80.00%

 ..... DONE GENERATING CAVITY .....
 STEP CPU TIME =     0.00 TOTAL CPU TIME =        0.0 (    0.0 MIN)
 TOTAL WALL CLOCK TIME=        0.0 SECONDS, CPU UTILIZATION IS  80.00%
 NUCLEI-NUCLEAR CHARGE POLARIZATION ADJUSTMENT TO VNN=        0.0000000000

          --------------------------
                 RHF SCF CALCULATION
          --------------------------

     NUCLEAR ENERGY =        24.2924418721
     MAXIT =   30     NPUNCH=    2
     EXTRAP=T  DAMP=F  SHIFT=F  RSTRCT=F  DIIS=F  DEM=F  SOSCF=T
     DENSITY MATRIX CONV=  1.00E-05
     SOSCF WILL OPTIMIZE     175 ORBITAL ROTATIONS, SOGTOL=   0.250
     MEMORY REQUIRED FOR RHF ITERS=    101696 WORDS.

 ITER EX DEM     TOTAL ENERGY        E CHANGE  DENSITY CHANGE     ORB. GRAD
   1  0  0      -92.5948891457   -92.5948891457   0.210973978   0.000000000
          ---------------START SECOND ORDER SCF---------------
   2  1  0      -92.8567011897    -0.2618120440   0.133427690   0.050057821
   3  2  0      -92.8719631287    -0.0152619390   0.046961287   0.032776915
   4  3  0      -92.8843080905    -0.0123449618   0.009937192   0.006754903
   5  4  0      -92.8845135182    -0.0002054277   0.003845084   0.001090995
   6  5  0      -92.8845337274    -0.0000202092   0.000717288   0.000163071
   7  6  0      -92.8845341856    -0.0000004582   0.000193735   0.000047167
   8  7  0      -92.8845342121    -0.0000000265   0.000027757   0.000008516
   9  8  0      -92.8845342133    -0.0000000012   0.000009418   0.000002844
  10  9  0      -92.8845342134    -0.0000000001   0.000002578   0.000000550

          -----------------
          DENSITY CONVERGED
          -----------------
     TIME TO FORM FOCK OPERATORS=       0.1 SECONDS (       0.0 SEC/ITER)
     TIME TO SOLVE SCF EQUATIONS=       0.0 SECONDS (       0.0 SEC/ITER)

 FINAL RHF ENERGY IS      -92.8845342134 AFTER  10 ITERATIONS
  
   PCM ASC=     -0.0053911591
   GCAVP  =      0.0000000000
   GDISP  =      0.0000000000
   GREP   =      0.0000000000

 LZ VALUE ANALYSIS FOR THE MOS
 ----------------------------------------
 MO     1 (    1) HAS LZ(WEIGHT)= 0.00(100.0%) 
 MO     2 (    2) HAS LZ(WEIGHT)= 0.00(100.0%) 
 MO     3 (    3) HAS LZ(WEIGHT)= 0.00(100.0%) 
 MO     4 (    4) HAS LZ(WEIGHT)= 0.00(100.0%) 
 MO     5 (    5) HAS LZ(WEIGHT)= 0.00(100.0%) 
 MO     6 (    6) HAS LZ(WEIGHT)=-1.00( 50.0%)  1.00( 50.0%) 
 MO     7 (    6) HAS LZ(WEIGHT)=-1.00( 50.0%)  1.00( 50.0%) 
 MO     8 (    7) HAS LZ(WEIGHT)=-1.00( 50.0%)  1.00( 50.0%) 
 MO     9 (    7) HAS LZ(WEIGHT)=-1.00( 50.0%)  1.00( 50.0%) 
 MO    10 (    8) HAS LZ(WEIGHT)= 0.00(100.0%) 
 MO    11 (    9) HAS LZ(WEIGHT)= 0.00(100.0%) 
 MO    12 (   10) HAS LZ(WEIGHT)=-1.00( 50.0%)  1.00( 50.0%) 
 MO    13 (   10) HAS LZ(WEIGHT)=-1.00( 50.0%)  1.00( 50.0%) 
 MO    14 (   11) HAS LZ(WEIGHT)= 0.00(100.0%) 
 MO    15 (   12) HAS LZ(WEIGHT)= 0.00(100.0%) 
 MO    16 (   13) HAS LZ(WEIGHT)=-1.00( 50.0%)  1.00( 50.0%) 
 MO    17 (   13) HAS LZ(WEIGHT)=-1.00( 50.0%)  1.00( 50.0%) 
 MO    18 (   14) HAS LZ(WEIGHT)= 0.00(100.0%) 
 MO    19 (   15) HAS LZ(WEIGHT)= 0.00(100.0%) 
 MO    20 (   16) HAS LZ(WEIGHT)= 0.00(100.0%) 
 MO    21 (   17) HAS LZ(WEIGHT)=-2.00( 50.0%)  2.00( 50.0%) 
 MO    22 (   17) HAS LZ(WEIGHT)=-2.00( 50.0%)  2.00( 50.0%) 
 MO    23 (   18) HAS LZ(WEIGHT)=-1.00( 50.0%)  1.00( 50.0%) 
 MO    24 (   18) HAS LZ(WEIGHT)=-1.00( 50.0%)  1.00( 50.0%) 
 MO    25 (   19) HAS LZ(WEIGHT)=-2.00( 50.0%)  2.00( 50.0%) 
 MO    26 (   19) HAS LZ(WEIGHT)=-2.00( 50.0%)  2.00( 50.0%) 
 MO    27 (   20) HAS LZ(WEIGHT)=-1.00( 50.0%)  1.00( 50.0%) 
 MO    28 (   20) HAS LZ(WEIGHT)=-1.00( 50.0%)  1.00( 50.0%) 
 MO    29 (   21) HAS LZ(WEIGHT)= 0.00(100.0%) 
 MO    30 (   22) HAS LZ(WEIGHT)= 0.00(100.0%) 
 MO    31 (   23) HAS LZ(WEIGHT)= 0.00(100.0%) 
 MO    32 (   24) HAS LZ(WEIGHT)= 0.00(100.0%) 

          ------------
          EIGENVECTORS
          ------------

                      1          2          3          4          5
                  -15.5943   -11.2909    -1.2441    -0.7951    -0.5813
                     A          A          A          A          A   
    1  H  1  S    0.000344  -0.000601   0.029016  -0.291484   0.085057
    2  H  1  S    0.000875   0.003825  -0.038806  -0.097492   0.091145
    3  C  2  S    0.000055   0.995348  -0.151908   0.128158   0.060535
    4  C  2  S   -0.000175   0.027264   0.281366  -0.265112  -0.128896
    5  C  2  X   -0.000000   0.000000   0.000000   0.000000   0.000000
    6  C  2  Y   -0.000000   0.000000   0.000000   0.000000   0.000000
    7  C  2  Z   -0.000960   0.000047   0.213215   0.340532  -0.260798
    8  C  2  S    0.003045  -0.004220   0.087685  -0.263259  -0.005677
    9  C  2  X   -0.000000   0.000000   0.000000   0.000000   0.000000
   10  C  2  Y   -0.000000   0.000000   0.000000   0.000000   0.000000
   11  C  2  Z    0.002859   0.004326  -0.068512   0.157571  -0.000806
   12  C  2 XX    0.000100  -0.003205  -0.016526   0.008181   0.004206
   13  C  2 YY    0.000100  -0.003205  -0.016526   0.008181   0.004206
   14  C  2 ZZ   -0.001118  -0.000889   0.027457  -0.041602   0.012456
   15  C  2 XY   -0.000000   0.000000   0.000000   0.000000   0.000000
   16  C  2 XZ   -0.000000   0.000000   0.000000   0.000000   0.000000
   17  C  2 YZ   -0.000000   0.000000   0.000000   0.000000   0.000000
   18  N  3  S    0.995264  -0.001098  -0.183770  -0.069558  -0.104131
   19  N  3  S    0.024622   0.000041   0.362281   0.161999   0.228444
   20  N  3  X   -0.000000   0.000000   0.000000   0.000000   0.000000
   21  N  3  Y   -0.000000   0.000000   0.000000   0.000000   0.000000
   22  N  3  Z   -0.002623  -0.000270  -0.189745   0.010382   0.511441
   23  N  3  S   -0.004752  -0.003554   0.377308   0.113204   0.413367
   24  N  3  X   -0.000000   0.000000   0.000000   0.000000   0.000000
   25  N  3  Y   -0.000000   0.000000   0.000000   0.000000   0.000000
   26  N  3  Z    0.001909   0.001562  -0.066288   0.036054   0.302829
   27  N  3 XX   -0.003375  -0.000109  -0.013832  -0.003733   0.008066
   28  N  3 YY   -0.003375  -0.000109  -0.013832  -0.003733   0.008066
   29  N  3 ZZ   -0.001765   0.000501   0.018817   0.011056  -0.038898
   30  N  3 XY   -0.000000   0.000000   0.000000   0.000000   0.000000
   31  N  3 XZ   -0.000000   0.000000   0.000000   0.000000   0.000000
   32  N  3 YZ   -0.000000   0.000000   0.000000   0.000000   0.000000

                      6          7          8          9         10
                   -0.4994    -0.4994     0.2052     0.2052     0.2661
                     A          A          A          A          A   
    1  H  1  S   -0.000000  -0.000000  -0.000000   0.000000   0.116155
    2  H  1  S   -0.000000  -0.000000  -0.000000   0.000000   2.199305
    3  C  2  S   -0.000000  -0.000000  -0.000000   0.000000   0.110735
    4  C  2  S   -0.000000  -0.000000  -0.000000   0.000000  -0.099398
    5  C  2  X    0.003872   0.387556   0.289876   0.212253  -0.000000
    6  C  2  Y    0.387556  -0.003872  -0.212253   0.289876  -0.000000
    7  C  2  Z   -0.000000  -0.000000  -0.000000   0.000000   0.238254
    8  C  2  S   -0.000000  -0.000000  -0.000000   0.000000  -1.679497
    9  C  2  X    0.002224   0.222647   0.658360   0.482064  -0.000000
   10  C  2  Y    0.222647  -0.002224  -0.482064   0.658360  -0.000000
   11  C  2  Z   -0.000000  -0.000000  -0.000000   0.000000   0.964190
   12  C  2 XX   -0.000000  -0.000000  -0.000000   0.000000  -0.002039
   13  C  2 YY   -0.000000  -0.000000  -0.000000   0.000000  -0.002039
   14  C  2 ZZ   -0.000000  -0.000000  -0.000000   0.000000   0.021763
   15  C  2 XY   -0.000000  -0.000000  -0.000000   0.000000  -0.000000
   16  C  2 XZ    0.000326   0.032648  -0.032103  -0.023506  -0.000000
   17  C  2 YZ    0.032648  -0.000326   0.023506  -0.032103  -0.000000
   18  N  3  S   -0.000000  -0.000000  -0.000000   0.000000  -0.028457
   19  N  3  S   -0.000000  -0.000000  -0.000000   0.000000   0.131685
   20  N  3  X    0.004445   0.444913  -0.309209  -0.226408  -0.000000
   21  N  3  Y    0.444913  -0.004445   0.226408  -0.309209  -0.000000
   22  N  3  Z   -0.000000  -0.000000  -0.000000   0.000000  -0.141365
   23  N  3  S   -0.000000  -0.000000  -0.000000   0.000000  -0.229765
   24  N  3  X    0.002919   0.292153  -0.575052  -0.421064  -0.000000
   25  N  3  Y    0.292153  -0.002919   0.421064  -0.575052  -0.000000
   26  N  3  Z   -0.000000  -0.000000  -0.000000   0.000000  -0.090587
   27  N  3 XX   -0.000000  -0.000000  -0.000000   0.000000   0.009113
   28  N  3 YY   -0.000000  -0.000000  -0.000000   0.000000   0.009113
   29  N  3 ZZ   -0.000000  -0.000000  -0.000000   0.000000   0.022667
   30  N  3 XY   -0.000000  -0.000000  -0.000000   0.000000  -0.000000
   31  N  3 XZ   -0.000425  -0.042520  -0.005094  -0.003730  -0.000000
   32  N  3 YZ   -0.042520   0.000425   0.003730  -0.005094  -0.000000

                     11         12         13         14         15
                    0.4263     0.7405     0.7405     0.8167     0.9134
                     A          A          A          A          A   
    1  H  1  S    0.256815  -0.000000   0.000000   0.302419   0.576239
    2  H  1  S   -2.187486  -0.000000   0.000000   0.238211   1.491702
    3  C  2  S    0.012557  -0.000000   0.000000   0.039377   0.046425
    4  C  2  S    0.238070  -0.000000   0.000000   0.773478   0.105211
    5  C  2  X    0.000000  -0.901971  -0.436226   0.000000  -0.000000
    6  C  2  Y    0.000000   0.436226  -0.901971   0.000000  -0.000000
    7  C  2  Z   -0.108054  -0.000000   0.000000   0.290889  -0.706538
    8  C  2  S   -3.260189  -0.000000   0.000000   0.902668  -0.871362
    9  C  2  X    0.000000   0.921366   0.445606   0.000000  -0.000000
   10  C  2  Y    0.000000  -0.445606   0.921366   0.000000  -0.000000
   11  C  2  Z   -4.009541  -0.000000   0.000000   1.106878   2.761607
   12  C  2 XX    0.016542  -0.000000   0.000000   0.004079  -0.034909
   13  C  2 YY    0.016542  -0.000000   0.000000   0.004079  -0.034909
   14  C  2 ZZ    0.028972  -0.000000   0.000000   0.201240   0.191217
   15  C  2 XY    0.000000  -0.000000   0.000000   0.000000  -0.000000
   16  C  2 XZ    0.000000  -0.028148  -0.013613   0.000000  -0.000000
   17  C  2 YZ    0.000000   0.013613  -0.028148   0.000000  -0.000000
   18  N  3  S   -0.126978  -0.000000   0.000000   0.054083  -0.026699
   19  N  3  S    0.068373  -0.000000   0.000000  -0.190078  -0.233997
   20  N  3  X    0.000000  -0.168035  -0.081268   0.000000  -0.000000
   21  N  3  Y    0.000000   0.081268  -0.168035   0.000000  -0.000000
   22  N  3  Z   -0.037682  -0.000000   0.000000  -0.515529  -0.090635
   23  N  3  S    4.800016  -0.000000   0.000000  -1.538047  -0.949293
   24  N  3  X    0.000000   0.109580   0.052997   0.000000  -0.000000
   25  N  3  Y    0.000000  -0.052997   0.109580   0.000000  -0.000000
   26  N  3  Z   -1.939375  -0.000000   0.000000   1.908468  -0.183368
   27  N  3 XX   -0.059273  -0.000000   0.000000  -0.055254  -0.002038
   28  N  3 YY   -0.059273  -0.000000   0.000000  -0.055254  -0.002038
   29  N  3 ZZ    0.039486  -0.000000   0.000000  -0.105608  -0.214473
   30  N  3 XY    0.000000  -0.000000   0.000000   0.000000  -0.000000
   31  N  3 XZ    0.000000   0.089170   0.043126   0.000000  -0.000000
   32  N  3 YZ    0.000000  -0.043126   0.089170   0.000000  -0.000000

                     16         17         18         19         20
                    1.0340     1.0340     1.0604     1.4687     1.6792
                     A          A          A          A          A   
    1  H  1  S    0.000000  -0.000000  -0.447005  -1.096213  -0.150573
    2  H  1  S    0.000000  -0.000000   2.226356  -0.090232  -2.073160
    3  C  2  S    0.000000  -0.000000  -0.049513   0.030244  -0.045281
    4  C  2  S    0.000000  -0.000000   1.421617  -0.078031  -0.184486
    5  C  2  X    0.129975   0.337224   0.000000   0.000000  -0.000000
    6  C  2  Y    0.337224  -0.129975   0.000000   0.000000  -0.000000
    7  C  2  Z    0.000000  -0.000000  -0.292195  -0.735331   0.238608
    8  C  2  S    0.000000  -0.000000  -2.065330  -1.211033  -5.069476
    9  C  2  X   -0.277247  -0.719328   0.000000   0.000000  -0.000000
   10  C  2  Y   -0.719328   0.277247   0.000000   0.000000  -0.000000
   11  C  2  Z    0.000000  -0.000000   1.870918  -1.623606  -5.629393
   12  C  2 XX    0.000000  -0.000000   0.180309  -0.039969   0.175878
   13  C  2 YY    0.000000  -0.000000   0.180309  -0.039969   0.175878
   14  C  2 ZZ    0.000000  -0.000000  -0.059255   0.111913  -0.322440
   15  C  2 XY    0.000000  -0.000000   0.000000   0.000000  -0.000000
   16  C  2 XZ   -0.041141  -0.106742   0.000000   0.000000  -0.000000
   17  C  2 YZ   -0.106742   0.041141   0.000000   0.000000  -0.000000
   18  N  3  S    0.000000  -0.000000   0.044233  -0.069772  -0.093108
   19  N  3  S    0.000000  -0.000000   0.082809   0.034641  -1.934101
   20  N  3  X   -0.351054  -0.910821   0.000000   0.000000  -0.000000
   21  N  3  Y   -0.910821   0.351054   0.000000   0.000000  -0.000000
   22  N  3  Z    0.000000  -0.000000   0.372359  -0.663297   0.079589
   23  N  3  S    0.000000  -0.000000  -1.139955   2.258830   9.430338
   24  N  3  X    0.471159   1.222439   0.000000   0.000000  -0.000000
   25  N  3  Y    1.222439  -0.471159   0.000000   0.000000  -0.000000
   26  N  3  Z    0.000000  -0.000000   0.093936  -0.414911  -3.161017
   27  N  3 XX    0.000000  -0.000000   0.002561   0.060535  -0.230840
   28  N  3 YY    0.000000  -0.000000   0.002561   0.060535  -0.230840
   29  N  3 ZZ    0.000000  -0.000000   0.161412  -0.295083  -0.240580
   30  N  3 XY    0.000000  -0.000000   0.000000   0.000000  -0.000000
   31  N  3 XZ   -0.001155  -0.002997   0.000000   0.000000  -0.000000
   32  N  3 YZ   -0.002997   0.001155   0.000000   0.000000  -0.000000

                     21         22         23         24         25
                    1.7682     1.7682     1.8412     1.8412     2.2751
                     A          A          A          A          A   
    1  H  1  S   -0.000000  -0.000000  -0.000000  -0.000000  -0.000000
    2  H  1  S   -0.000000  -0.000000  -0.000000  -0.000000  -0.000000
    3  C  2  S   -0.000000  -0.000000  -0.000000  -0.000000  -0.000000
    4  C  2  S   -0.000000  -0.000000  -0.000000  -0.000000  -0.000000
    5  C  2  X   -0.000000  -0.000000   0.057926  -0.244964  -0.000000
    6  C  2  Y   -0.000000  -0.000000  -0.244964  -0.057926  -0.000000
    7  C  2  Z   -0.000000  -0.000000  -0.000000  -0.000000  -0.000000
    8  C  2  S   -0.000000  -0.000000  -0.000000  -0.000000  -0.000000
    9  C  2  X   -0.000000  -0.000000  -0.028059   0.118659  -0.000000
   10  C  2  Y   -0.000000  -0.000000   0.118659   0.028059  -0.000000
   11  C  2  Z   -0.000000  -0.000000  -0.000000  -0.000000  -0.000000
   12  C  2 XX    0.612841  -0.001697  -0.000000  -0.000000   0.627739
   13  C  2 YY   -0.612841   0.001697  -0.000000  -0.000000  -0.627739
   14  C  2 ZZ   -0.000000  -0.000000  -0.000000  -0.000000  -0.000000
   15  C  2 XY    0.001959   0.707647  -0.000000  -0.000000   0.003687
   16  C  2 XZ   -0.000000  -0.000000  -0.151819   0.642034  -0.000000
   17  C  2 YZ   -0.000000  -0.000000   0.642034   0.151819  -0.000000
   18  N  3  S   -0.000000  -0.000000  -0.000000  -0.000000  -0.000000
   19  N  3  S   -0.000000  -0.000000  -0.000000  -0.000000  -0.000000
   20  N  3  X   -0.000000  -0.000000   0.065605  -0.277439  -0.000000
   21  N  3  Y   -0.000000  -0.000000  -0.277439  -0.065605  -0.000000
   22  N  3  Z   -0.000000  -0.000000  -0.000000  -0.000000  -0.000000
   23  N  3  S   -0.000000  -0.000000  -0.000000  -0.000000  -0.000000
   24  N  3  X   -0.000000  -0.000000  -0.005087   0.021512  -0.000000
   25  N  3  Y   -0.000000  -0.000000   0.021512   0.005087  -0.000000
   26  N  3  Z   -0.000000  -0.000000  -0.000000  -0.000000  -0.000000
   27  N  3 XX    0.521776  -0.001445  -0.000000  -0.000000  -0.705250
   28  N  3 YY   -0.521776   0.001445  -0.000000  -0.000000   0.705250
   29  N  3 ZZ   -0.000000  -0.000000  -0.000000  -0.000000  -0.000000
   30  N  3 XY    0.001668   0.602495  -0.000000  -0.000000  -0.004142
   31  N  3 XZ   -0.000000  -0.000000   0.124004  -0.524405  -0.000000
   32  N  3 YZ   -0.000000  -0.000000  -0.524405  -0.124004  -0.000000

                     26         27         28         29         30
                    2.2751     2.9187     2.9187     2.9773     3.4353
                     A          A          A          A          A   
    1  H  1  S   -0.000000  -0.000000  -0.000000  -0.591043   0.451176
    2  H  1  S   -0.000000  -0.000000  -0.000000  -0.590618  -0.241301
    3  C  2  S   -0.000000  -0.000000  -0.000000  -0.186835   0.028939
    4  C  2  S   -0.000000  -0.000000  -0.000000  -0.400650  -1.708561
    5  C  2  X   -0.000000   0.155367   0.342764  -0.000000  -0.000000
    6  C  2  Y   -0.000000   0.342764  -0.155367  -0.000000  -0.000000
    7  C  2  Z   -0.000000  -0.000000  -0.000000  -0.615487  -1.270121
    8  C  2  S   -0.000000  -0.000000  -0.000000  -2.017283  -1.536621
    9  C  2  X   -0.000000   0.125980   0.277931  -0.000000  -0.000000
   10  C  2  Y   -0.000000   0.277931  -0.125980  -0.000000  -0.000000
   11  C  2  Z   -0.000000  -0.000000  -0.000000  -2.091294  -0.708129
   12  C  2 XX    0.003193  -0.000000  -0.000000  -0.600209   0.846574
   13  C  2 YY   -0.003193  -0.000000  -0.000000  -0.600209   0.846574
   14  C  2 ZZ   -0.000000  -0.000000  -0.000000   0.368855  -1.044887
   15  C  2 XY   -0.724851  -0.000000  -0.000000  -0.000000  -0.000000
   16  C  2 XZ   -0.000000   0.428088   0.944429  -0.000000  -0.000000
   17  C  2 YZ   -0.000000   0.944429  -0.428088  -0.000000  -0.000000
   18  N  3  S   -0.000000  -0.000000  -0.000000  -0.081466  -0.018669
   19  N  3  S   -0.000000  -0.000000  -0.000000  -1.110226   0.480747
   20  N  3  X   -0.000000  -0.084276  -0.185927  -0.000000  -0.000000
   21  N  3  Y   -0.000000  -0.185927   0.084276  -0.000000  -0.000000
   22  N  3  Z   -0.000000  -0.000000  -0.000000   0.163113  -1.071833
   23  N  3  S   -0.000000  -0.000000  -0.000000   4.362944   2.050206
   24  N  3  X   -0.000000  -0.178895  -0.394670  -0.000000  -0.000000
   25  N  3  Y   -0.000000  -0.394670   0.178895  -0.000000  -0.000000
   26  N  3  Z   -0.000000  -0.000000  -0.000000  -2.089560  -1.085553
   27  N  3 XX   -0.003587  -0.000000  -0.000000  -0.531020  -0.508941
   28  N  3 YY    0.003587  -0.000000  -0.000000  -0.531020  -0.508941
   29  N  3 ZZ   -0.000000  -0.000000  -0.000000   0.921992   1.239006
   30  N  3 XY    0.814353  -0.000000  -0.000000  -0.000000  -0.000000
   31  N  3 XZ   -0.000000   0.458031   1.010488  -0.000000  -0.000000
   32  N  3 YZ   -0.000000   1.010488  -0.458031  -0.000000  -0.000000

                     31         32
                    4.2829     4.5382
                     A          A   
    1  H  1  S   -0.195029   0.441448
    2  H  1  S   -1.156211  -0.650260
    3  C  2  S   -0.025224  -0.445713
    4  C  2  S    0.292304   2.867035
    5  C  2  X   -0.000000   0.000000
    6  C  2  Y   -0.000000   0.000000
    7  C  2  Z    0.374403  -0.421410
    8  C  2  S   -3.382707   0.879111
    9  C  2  X   -0.000000   0.000000
   10  C  2  Y   -0.000000   0.000000
   11  C  2  Z   -3.363654  -0.421105
   12  C  2 XX   -0.142337  -1.526776
   13  C  2 YY   -0.142337  -1.526776
   14  C  2 ZZ    0.082782  -2.494925
   15  C  2 XY   -0.000000   0.000000
   16  C  2 XZ   -0.000000   0.000000
   17  C  2 YZ   -0.000000   0.000000
   18  N  3  S   -0.541024   0.057800
   19  N  3  S    0.612777   0.418693
   20  N  3  X   -0.000000   0.000000
   21  N  3  Y   -0.000000   0.000000
   22  N  3  Z    0.349099  -0.636283
   23  N  3  S    7.253867   0.099334
   24  N  3  X   -0.000000   0.000000
   25  N  3  Y   -0.000000   0.000000
   26  N  3  Z   -2.097107  -0.188122
   27  N  3 XX   -1.663683   0.040221
   28  N  3 YY   -1.663683   0.040221
   29  N  3 ZZ   -1.629283   0.392576
   30  N  3 XY   -0.000000   0.000000
   31  N  3 XZ   -0.000000   0.000000
   32  N  3 YZ   -0.000000   0.000000
 ...... END OF RHF CALCULATION ......
 STEP CPU TIME =     0.11 TOTAL CPU TIME =        0.2 (    0.0 MIN)
 TOTAL WALL CLOCK TIME=        0.2 SECONDS, CPU UTILIZATION IS  88.24%

     ----------------------------------------------------------------
     PROPERTY VALUES FOR THE RHF   SELF-CONSISTENT FIELD WAVEFUNCTION
     ----------------------------------------------------------------

          ---------------------------------------
          MULLIKEN AND LOWDIN POPULATION ANALYSES
          ---------------------------------------

     ATOMIC MULLIKEN POPULATION IN EACH MOLECULAR ORBITAL

                      1          2          3          4          5

                  2.000000   2.000000   2.000000   2.000000   2.000000

    1             0.000018   0.000733  -0.016188   0.593250   0.055247
    2             0.000753   2.000273   0.654621   1.267922   0.216977
    3             1.999229  -0.001006   1.361568   0.138828   1.727776

                      6          7

                  2.000000   2.000000

    1             0.000000   0.000000
    2             0.879042   0.879042
    3             1.120958   1.120958

               ----- POPULATIONS IN EACH AO -----
                             MULLIKEN      LOWDIN
              1  H  1  S      0.48223     0.43078
              2  H  1  S      0.15084     0.31123
              3  C  2  S      1.99658     1.97573
              4  C  2  S      0.70845     0.37981
              5  C  2  X      0.53472     0.48525
              6  C  2  Y      0.53472     0.48525
              7  C  2  Z      0.83732     0.74885
              8  C  2  S      0.40927     0.34123
              9  C  2  X      0.32899     0.38460
             10  C  2  Y      0.32899     0.38460
             11  C  2  Z      0.16027     0.35922
             12  C  2 XX     -0.02225     0.10506
             13  C  2 YY     -0.02225     0.10506
             14  C  2 ZZ      0.07316     0.27819
             15  C  2 XY      0.00000     0.00000
             16  C  2 XZ      0.01533     0.02639
             17  C  2 YZ      0.01533     0.02639
             18  N  3  S      1.99659     1.97865
             19  N  3  S      0.82480     0.55505
             20  N  3  X      0.63676     0.58471
             21  N  3  Y      0.63676     0.58471
             22  N  3  Z      0.95360     0.87824
             23  N  3  S      1.00488     0.47987
             24  N  3  X      0.46605     0.49593
             25  N  3  Y      0.46605     0.49593
             26  N  3  Z      0.45752     0.51598
             27  N  3 XX     -0.01155     0.16913
             28  N  3 YY     -0.01155     0.16913
             29  N  3 ZZ      0.01209     0.21881
             30  N  3 XY      0.00000     0.00000
             31  N  3 XZ      0.01815     0.02313
             32  N  3 YZ      0.01815     0.02313

          ----- MULLIKEN ATOMIC OVERLAP POPULATIONS -----
          (OFF-DIAGONAL ELEMENTS NEED TO BE MULTIPLIED BY 2)

             1           2           3

    1    0.3170189
    2    0.3412133   4.6045568
    3   -0.0251717   0.9528598   6.5406215

          TOTAL MULLIKEN AND LOWDIN ATOMIC POPULATIONS
       ATOM         MULL.POP.    CHARGE          LOW.POP.     CHARGE
    1 H             0.633060    0.366940         0.742004    0.257996
    2 C             5.898630    0.101370         6.085602   -0.085602
    3 N             7.468310   -0.468310         7.172393   -0.172393

          -------------------------------
          BOND ORDER AND VALENCE ANALYSIS     BOND ORDER THRESHOLD=0.050
          -------------------------------

                   BOND                       BOND                       BOND
  ATOM PAIR DIST  ORDER      ATOM PAIR DIST  ORDER      ATOM PAIR DIST  ORDER
    1   2  1.062  0.829        2   3  1.133  2.952

                       TOTAL       BONDED        FREE
      ATOM            VALENCE     VALENCE     VALENCE
    1 H                 0.840       0.840       0.000
    2 C                 3.782       3.782       0.000
    3 N                 2.963       2.963       0.000

    **** A SOLVENT MODEL IS IN USE IN THIS RUN ****
 ELECTRICAL PROPERTIES (MOMENTS, DENSITY, FIELD/GRADIENT, AND/OR POTENTIAL)
 ARE COMPUTED USING THE SOLVATED SYSTEM'S DENSITY MATRIX, BUT
 ONLY WITH AO INTEGRAL CONTRIBUTIONS FROM THE QUANTUM SOLUTE.
 THE ONE EXCEPTION IS THE DIPOLE, WHICH IS ALSO PRINTED FOR THE TOTAL SYSTEM.

          ----------------------------
          SOLUTE ELECTROSTATIC MOMENTS
          ----------------------------

 POINT   1           X           Y           Z (BOHR)    CHARGE
                 0.000000    0.000000    1.065827       -0.00 (A.U.)
         DX          DY          DZ         /D/  (DEBYE)
     0.000000    0.000000   -3.923555    3.923555

          ----------------------------
          SYSTEM ELECTROSTATIC MOMENTS
          ----------------------------

 POINT   1           X           Y           Z (BOHR)    CHARGE
                 0.000000    0.000000    1.065827       -0.00 (A.U.)
         DX          DY          DZ         /D/  (DEBYE)
     0.000000    0.000000   -3.923555    3.923555
 INCLUDING PCM SURFACE CHARGES, TOTAL CHARGE=   -0.005391, AND TOTAL DIPOLE IS
         DX          DY          DZ         /D/  (DEBYE)
    -0.000000   -0.000000   -0.114128    0.114128
 ...... END OF PROPERTY EVALUATION ......
 STEP CPU TIME =     0.00 TOTAL CPU TIME =        0.2 (    0.0 MIN)
 TOTAL WALL CLOCK TIME=        0.2 SECONDS, CPU UTILIZATION IS  88.24%

 .... DONE WITH PCM CONTRIBUTION TO GRADIENT ....
 STEP CPU TIME =     0.02 TOTAL CPU TIME =        0.2 (    0.0 MIN)
 TOTAL WALL CLOCK TIME=        0.2 SECONDS, CPU UTILIZATION IS  94.44%

 BEGINNING ONE ELECTRON GRADIENT...
 ..... END OF 1-ELECTRON GRADIENT ......
 STEP CPU TIME =     0.00 TOTAL CPU TIME =        0.2 (    0.0 MIN)
 TOTAL WALL CLOCK TIME=        0.2 SECONDS, CPU UTILIZATION IS  94.44%

          ----------------------
          GRADIENT OF THE ENERGY
          ----------------------

 THE MINIMUM MEMORY REQUIRED FOR THIS RUN IS      73994 WORDS.
 USING     964156 WORDS FOR 2E- DERIVATIVE INTEGRAL CONTRIBUTIONS.
 THE COARSE/FINE SCHWARZ SCREENINGS SKIPPED            0/           0 BLOCKS.
 THE NUMBER OF GRADIENT INTEGRAL BLOCKS COMPUTED WAS      1424
 ...... END OF 2-ELECTRON GRADIENT ......
 STEP CPU TIME =     0.03 TOTAL CPU TIME =        0.2 (    0.0 MIN)
 TOTAL WALL CLOCK TIME=        0.2 SECONDS, CPU UTILIZATION IS  95.24%
 THE VIB 0 GRADIENT RMS = 8.48452235E-07

 THE VIB 0 GEOMETRY GRADIENT IS

 UNITS ARE HARTREE/BOHR    E'X               E'Y               E'Z 
    1 H                0.000000000       0.000000000      -0.000001574
    2 C                0.000000000       0.000000000      -0.000000388
    3 N                0.000000000       0.000000000       0.000001962
  $VIB   
          IVIB=   0 IATOM=   0 ICOORD=   0 E=      -92.8845342134
  0.000000000E+00 0.000000000E+00-1.573869646E-06 0.000000000E+00 0.000000000E+00
 -3.884889872E-07 0.000000000E+00 0.000000000E+00 1.962358633E-06
  0.000000000E+00 0.000000000E+00-3.923554673E+00
1   ATOM  1
                                        -------------------
   COORD  1                             NUCLEAR COORDINATES
                                        -------------------
     VIB  1

                       ATOM             X              Y              Z

                 1  H                0.010000       0.000000      -1.975705
                 2  C                0.000000       0.000000       0.030578
                 3  N                0.000000       0.000000       2.171894
 ...... END OF ONE-ELECTRON INTEGRALS ......
 STEP CPU TIME =     0.00 TOTAL CPU TIME =        0.2 (    0.0 MIN)
 TOTAL WALL CLOCK TIME=        0.2 SECONDS, CPU UTILIZATION IS  95.24%
 TOTAL NUMBER OF NONZERO TWO-ELECTRON INTEGRALS =               46319
          4 INTEGRAL RECORDS WERE STORED ON DISK FILE  8.
  ...... END OF TWO-ELECTRON INTEGRALS .....
 STEP CPU TIME =     0.01 TOTAL CPU TIME =        0.2 (    0.0 MIN)
 TOTAL WALL CLOCK TIME=        0.2 SECONDS, CPU UTILIZATION IS  95.45%

     ----------------------------
     INPUT FOR TESSERA DEFINITION
     ----------------------------
     NTSALL  =        60     MTHALL  =         4
     MTHAUT  =         0     AUTFRE  =    2.0000
     NTSFRZ  =        60     KEEPSM  =         0
     AREAKP  =   10.0000     BONDRY  =    1.0000
     AREATL  =    0.0100

     SPHERE     INITS       METHOD
          1        60       FIXPVA
          2        60       FIXPVA
          3        60       FIXPVA

     ------------------------------
      FIXPVA TESSELLATION FOR PCM
         PEIFENG SU AND HUI LI
     UNIVERSITY OF NEBRASKA-LINCOLN
     ------------------------------


     INPUT FOR CAVITY DEFINITION 
     ---------------------------
   ATOM               COORDINATES                RADIUS       EPS
      1      0.0053      0.0000     -1.0455      1.2000     78.3900
      2      0.0000      0.0000      0.0162      1.7000     78.3900
      3      0.0000      0.0000      1.1493      1.6000     78.3900

 MEMORY USED TO GENERATE CAVITY=    176782


 TOTAL NUMBER OF SPHERES=     3
 SPHERE           CENTER  (X,Y,Z) (A)               RADIUS (A)      AREA(A*A)
     1   0.005291772   0.000000000  -1.045497979   1.440000000   8.685875369
     2   0.000000000   0.000000000   0.016181325   2.040000000  26.148106192
     3   0.000000000   0.000000000   1.149316654   1.920000000  23.163005010

 TOTAL NUMBER OF TESSERAE=      93
 SURFACE AREA=    57.99698657(A**2)    CAVITY VOLUME=     43.27002132 (A**3)
 STEP CPU TIME =     0.00 TOTAL CPU TIME =        0.2 (    0.0 MIN)
 TOTAL WALL CLOCK TIME=        0.2 SECONDS, CPU UTILIZATION IS  95.45%

          THE SOLUTE IS ENCLOSED IN ONE CAVITY
 DONE CHECKING SEPARATION.
 STEP CPU TIME =     0.00 TOTAL CPU TIME =        0.2 (    0.0 MIN)
 TOTAL WALL CLOCK TIME=        0.2 SECONDS, CPU UTILIZATION IS  95.45%

 ..... DONE SETTING UP PCM CALCULATION .....
 STEP CPU TIME =     0.00 TOTAL CPU TIME =        0.2 (    0.0 MIN)
 TOTAL WALL CLOCK TIME=        0.2 SECONDS, CPU UTILIZATION IS  95.45%
 NUCLEI-NUCLEAR CHARGE POLARIZATION ADJUSTMENT TO VNN=        0.0000000000

          --------------------------
                 RHF SCF CALCULATION
          --------------------------
     DENSITY MATRIX CONV=  1.00E-05

 ITER EX DEM     TOTAL ENERGY        E CHANGE  DENSITY CHANGE     ORB. GRAD
   1  0  0      -92.8845311630   -92.8845311630   0.000624535   0.000000000
          ---------------START SECOND ORDER SCF---------------
   2  1  0      -92.8845329596    -0.0000017966   0.000260133   0.000162671
   3  2  0      -92.8845331618    -0.0000002023   0.000250589   0.000065828
   4  3  0      -92.8845332081    -0.0000000463   0.000021703   0.000010902
   5  4  0      -92.8845332092    -0.0000000010   0.000011038   0.000004699
   6  5  0      -92.8845332094    -0.0000000002   0.000002862   0.000000900
   7  6  0      -92.8845332094    -0.0000000000   0.000000882   0.000000589

          -----------------
          DENSITY CONVERGED
          -----------------
     TIME TO FORM FOCK OPERATORS=       0.1 SECONDS (       0.0 SEC/ITER)
     TIME TO SOLVE SCF EQUATIONS=       0.0 SECONDS (       0.0 SEC/ITER)

 FINAL RHF ENERGY IS      -92.8845332094 AFTER   7 ITERATIONS
  
   PCM ASC=     -0.0053921767
   GCAVP  =      0.0000000000
   GDISP  =      0.0000000000
   GREP   =      0.0000000000

 LZ VALUE ANALYSIS FOR THE MOS
 ----------------------------------------
 MO     1 (    1) HAS LZ(WEIGHT)= 0.00(100.0%) 
 MO     2 (    2) HAS LZ(WEIGHT)= 0.00(100.0%) 
 MO     3 (    3) HAS LZ(WEIGHT)= 0.00(100.0%) 
 MO     4 (    4) HAS LZ(WEIGHT)= 0.00(100.0%) 
 MO     5 (    5) HAS LZ(WEIGHT)= 0.00(100.0%) 
 MO     6 (    6) HAS LZ(WEIGHT)=-1.00( 50.0%)  1.00( 50.0%) 
 MO     7 (    6) HAS LZ(WEIGHT)=-1.00( 50.0%)  1.00( 50.0%) 
 MO     8 (    7) HAS LZ(WEIGHT)= 0.00(100.0%) 
 MO     9 (    8) HAS LZ(WEIGHT)= 0.00(100.0%) 
 MO    10 (    9) HAS LZ(WEIGHT)= 0.00(100.0%) 
 MO    11 (   10) HAS LZ(WEIGHT)= 0.00(100.0%) 
 MO    12 (   11) HAS LZ(WEIGHT)=-1.00( 50.0%)  1.00( 50.0%) 
 MO    13 (   11) HAS LZ(WEIGHT)=-1.00( 50.0%)  1.00( 50.0%) 
 MO    14 (   12) HAS LZ(WEIGHT)= 0.00(100.0%) 
 MO    15 (   13) HAS LZ(WEIGHT)= 0.00(100.0%) 
 MO    16 (   14) HAS LZ(WEIGHT)= 0.00(100.0%) 
 MO    17 (   15) HAS LZ(WEIGHT)= 0.00(100.0%) 
 MO    18 (   16) HAS LZ(WEIGHT)= 0.00(100.0%) 
 MO    19 (   17) HAS LZ(WEIGHT)= 0.00(100.0%) 
 MO    20 (   18) HAS LZ(WEIGHT)= 0.00(100.0%) 
 MO    21 (   19) HAS LZ(WEIGHT)=-2.00( 50.0%)  2.00( 50.0%) 
 MO    22 (   19) HAS LZ(WEIGHT)=-2.00( 50.0%)  2.00( 50.0%) 
 MO    23 (   20) HAS LZ(WEIGHT)= 0.00(100.0%) 
 MO    24 (   21) HAS LZ(WEIGHT)= 0.00(100.0%) 
 MO    25 (   22) HAS LZ(WEIGHT)=-2.00( 50.0%)  2.00( 50.0%) 
 MO    26 (   22) HAS LZ(WEIGHT)=-2.00( 50.0%)  2.00( 50.0%) 
 MO    27 (   23) HAS LZ(WEIGHT)= 0.00(100.0%) 
 MO    28 (   24) HAS LZ(WEIGHT)= 0.00(100.0%) 
 MO    29 (   25) HAS LZ(WEIGHT)= 0.00(100.0%) 
 MO    30 (   26) HAS LZ(WEIGHT)= 0.00(100.0%) 
 MO    31 (   27) HAS LZ(WEIGHT)= 0.00(100.0%) 
 MO    32 (   28) HAS LZ(WEIGHT)= 0.00(100.0%) 
 ...... END OF RHF CALCULATION ......
 STEP CPU TIME =     0.07 TOTAL CPU TIME =        0.3 (    0.0 MIN)
 TOTAL WALL CLOCK TIME=        0.3 SECONDS, CPU UTILIZATION IS  93.33%

 .... DONE WITH PCM CONTRIBUTION TO GRADIENT ....
 STEP CPU TIME =     0.02 TOTAL CPU TIME =        0.3 (    0.0 MIN)
 TOTAL WALL CLOCK TIME=        0.3 SECONDS, CPU UTILIZATION IS  96.77%
 ..... END OF 1-ELECTRON GRADIENT ......
 STEP CPU TIME =     0.00 TOTAL CPU TIME =        0.3 (    0.0 MIN)
 TOTAL WALL CLOCK TIME=        0.3 SECONDS, CPU UTILIZATION IS  96.77%
 ...... END OF 2-ELECTRON GRADIENT ......
 STEP CPU TIME =     0.03 TOTAL CPU TIME =        0.3 (    0.0 MIN)
 TOTAL WALL CLOCK TIME=        0.3 SECONDS, CPU UTILIZATION IS  97.06%

 UNITS ARE HARTREE/BOHR    E'X               E'Y               E'Z 
    1 H                0.000220124       0.000000000      -0.000016989
    2 C               -0.000426288       0.000000000       0.000016816
    3 N                0.000206164       0.000000000       0.000000173
  $VIB   
          IVIB=   1 IATOM=   1 ICOORD=   1 E=      -92.8845332094
  2.201243894E-04 0.000000000E+00-1.698850031E-05-4.262882990E-04 0.000000000E+00
  1.681577325E-05 2.061639096E-04 0.000000000E+00 1.727270654E-07
  7.540879339E-03 7.807031400E-11-3.923562591E+00
1   ATOM  1
                                        -------------------
   COORD  2                             NUCLEAR COORDINATES
                                        -------------------
     VIB  1

                       ATOM             X              Y              Z

                 1  H                0.000000       0.010000      -1.975705
                 2  C                0.000000       0.000000       0.030578
                 3  N                0.000000       0.000000       2.171894
 ...... END OF ONE-ELECTRON INTEGRALS ......
 STEP CPU TIME =     0.00 TOTAL CPU TIME =        0.3 (    0.0 MIN)
 TOTAL WALL CLOCK TIME=        0.3 SECONDS, CPU UTILIZATION IS  97.06%
 TOTAL NUMBER OF NONZERO TWO-ELECTRON INTEGRALS =               46319
          4 INTEGRAL RECORDS WERE STORED ON DISK FILE  8.
  ...... END OF TWO-ELECTRON INTEGRALS .....
 STEP CPU TIME =     0.01 TOTAL CPU TIME =        0.3 (    0.0 MIN)
 TOTAL WALL CLOCK TIME=        0.3 SECONDS, CPU UTILIZATION IS  97.14%

     ----------------------------
     INPUT FOR TESSERA DEFINITION
     ----------------------------
     NTSALL  =        60     MTHALL  =         4
     MTHAUT  =         0     AUTFRE  =    2.0000
     NTSFRZ  =        60     KEEPSM  =         0
     AREAKP  =   10.0000     BONDRY  =    1.0000
     AREATL  =    0.0100

     SPHERE     INITS       METHOD
          1        60       FIXPVA
          2        60       FIXPVA
          3        60       FIXPVA

     ------------------------------
      FIXPVA TESSELLATION FOR PCM
         PEIFENG SU AND HUI LI
     UNIVERSITY OF NEBRASKA-LINCOLN
     ------------------------------


     INPUT FOR CAVITY DEFINITION 
     ---------------------------
   ATOM               COORDINATES                RADIUS       EPS
      1      0.0000      0.0053     -1.0455      1.2000     78.3900
      2      0.0000      0.0000      0.0162      1.7000     78.3900
      3      0.0000      0.0000      1.1493      1.6000     78.3900

 MEMORY USED TO GENERATE CAVITY=    176782


 TOTAL NUMBER OF SPHERES=     3
 SPHERE           CENTER  (X,Y,Z) (A)               RADIUS (A)      AREA(A*A)
     1   0.000000000   0.005291772  -1.045497979   1.440000000   8.685875369
     2   0.000000000   0.000000000   0.016181325   2.040000000  26.148106129
     3   0.000000000   0.000000000   1.149316654   1.920000000  23.163005010

 TOTAL NUMBER OF TESSERAE=      93
 SURFACE AREA=    57.99698651(A**2)    CAVITY VOLUME=     43.27002127 (A**3)
 STEP CPU TIME =     0.00 TOTAL CPU TIME =        0.3 (    0.0 MIN)
 TOTAL WALL CLOCK TIME=        0.3 SECONDS, CPU UTILIZATION IS  97.14%

          THE SOLUTE IS ENCLOSED IN ONE CAVITY
 DONE CHECKING SEPARATION.
 STEP CPU TIME =     0.00 TOTAL CPU TIME =        0.3 (    0.0 MIN)
 TOTAL WALL CLOCK TIME=        0.3 SECONDS, CPU UTILIZATION IS  97.14%

 ..... DONE SETTING UP PCM CALCULATION .....
 STEP CPU TIME =     0.00 TOTAL CPU TIME =        0.3 (    0.0 MIN)
 TOTAL WALL CLOCK TIME=        0.3 SECONDS, CPU UTILIZATION IS  97.14%
 NUCLEI-NUCLEAR CHARGE POLARIZATION ADJUSTMENT TO VNN=        0.0000000000

          --------------------------
                 RHF SCF CALCULATION
          --------------------------
     DENSITY MATRIX CONV=  1.00E-05

 ITER EX DEM     TOTAL ENERGY        E CHANGE  DENSITY CHANGE     ORB. GRAD
   1  0  0      -92.8845311644   -92.8845311644   0.000624534   0.000000000
          ---------------START SECOND ORDER SCF---------------
   2  1  0      -92.8845329610    -0.0000017966   0.000260133   0.000162672
   3  2  0      -92.8845331633    -0.0000002023   0.000250590   0.000065829
   4  3  0      -92.8845332096    -0.0000000463   0.000021703   0.000010902
   5  4  0      -92.8845332106    -0.0000000010   0.000011038   0.000004699
   6  5  0      -92.8845332108    -0.0000000002   0.000002861   0.000000900
   7  6  0      -92.8845332108    -0.0000000000   0.000000881   0.000000589

          -----------------
          DENSITY CONVERGED
          -----------------
     TIME TO FORM FOCK OPERATORS=       0.1 SECONDS (       0.0 SEC/ITER)
     TIME TO SOLVE SCF EQUATIONS=       0.0 SECONDS (       0.0 SEC/ITER)

 FINAL RHF ENERGY IS      -92.8845332108 AFTER   7 ITERATIONS
  
   PCM ASC=     -0.0053921877
   GCAVP  =      0.0000000000
   GDISP  =      0.0000000000
   GREP   =      0.0000000000

 LZ VALUE ANALYSIS FOR THE MOS
 ----------------------------------------
 MO     1 (    1) HAS LZ(WEIGHT)= 0.00(100.0%) 
 MO     2 (    2) HAS LZ(WEIGHT)= 0.00(100.0%) 
 MO     3 (    3) HAS LZ(WEIGHT)= 0.00(100.0%) 
 MO     4 (    4) HAS LZ(WEIGHT)= 0.00(100.0%) 
 MO     5 (    5) HAS LZ(WEIGHT)= 0.00(100.0%) 
 MO     6 (    6) HAS LZ(WEIGHT)=-1.00( 50.0%)  1.00( 50.0%) 
 MO     7 (    6) HAS LZ(WEIGHT)=-1.00( 50.0%)  1.00( 50.0%) 
 MO     8 (    7) HAS LZ(WEIGHT)= 0.00(100.0%) 
 MO     9 (    8) HAS LZ(WEIGHT)= 0.00(100.0%) 
 MO    10 (    9) HAS LZ(WEIGHT)= 0.00(100.0%) 
 MO    11 (   10) HAS LZ(WEIGHT)= 0.00(100.0%) 
 MO    12 (   11) HAS LZ(WEIGHT)=-1.00( 50.0%)  1.00( 50.0%) 
 MO    13 (   11) HAS LZ(WEIGHT)=-1.00( 50.0%)  1.00( 50.0%) 
 MO    14 (   12) HAS LZ(WEIGHT)= 0.00(100.0%) 
 MO    15 (   13) HAS LZ(WEIGHT)= 0.00(100.0%) 
 MO    16 (   14) HAS LZ(WEIGHT)= 0.00(100.0%) 
 MO    17 (   15) HAS LZ(WEIGHT)= 0.00(100.0%) 
 MO    18 (   16) HAS LZ(WEIGHT)= 0.00(100.0%) 
 MO    19 (   17) HAS LZ(WEIGHT)= 0.00(100.0%) 
 MO    20 (   18) HAS LZ(WEIGHT)= 0.00(100.0%) 
 MO    21 (   19) HAS LZ(WEIGHT)=-2.00( 50.0%)  2.00( 50.0%) 
 MO    22 (   19) HAS LZ(WEIGHT)=-2.00( 50.0%)  2.00( 50.0%) 
 MO    23 (   20) HAS LZ(WEIGHT)= 0.00(100.0%) 
 MO    24 (   21) HAS LZ(WEIGHT)= 0.00(100.0%) 
 MO    25 (   22) HAS LZ(WEIGHT)=-2.00( 50.0%)  2.00( 50.0%) 
 MO    26 (   22) HAS LZ(WEIGHT)=-2.00( 50.0%)  2.00( 50.0%) 
 MO    27 (   23) HAS LZ(WEIGHT)= 0.00(100.0%) 
 MO    28 (   24) HAS LZ(WEIGHT)= 0.00(100.0%) 
 MO    29 (   25) HAS LZ(WEIGHT)= 0.00(100.0%) 
 MO    30 (   26) HAS LZ(WEIGHT)= 0.00(100.0%) 
 MO    31 (   27) HAS LZ(WEIGHT)= 0.00(100.0%) 
 MO    32 (   28) HAS LZ(WEIGHT)= 0.00(100.0%) 
 ...... END OF RHF CALCULATION ......
 STEP CPU TIME =     0.08 TOTAL CPU TIME =        0.4 (    0.0 MIN)
 TOTAL WALL CLOCK TIME=        0.4 SECONDS, CPU UTILIZATION IS  97.67%

 .... DONE WITH PCM CONTRIBUTION TO GRADIENT ....
 STEP CPU TIME =     0.01 TOTAL CPU TIME =        0.4 (    0.0 MIN)
 TOTAL WALL CLOCK TIME=        0.4 SECONDS, CPU UTILIZATION IS  97.73%
 ..... END OF 1-ELECTRON GRADIENT ......
 STEP CPU TIME =     0.00 TOTAL CPU TIME =        0.4 (    0.0 MIN)
 TOTAL WALL CLOCK TIME=        0.4 SECONDS, CPU UTILIZATION IS  97.73%
 ...... END OF 2-ELECTRON GRADIENT ......
 STEP CPU TIME =     0.04 TOTAL CPU TIME =        0.5 (    0.0 MIN)
 TOTAL WALL CLOCK TIME=        0.5 SECONDS, CPU UTILIZATION IS 100.00%

 UNITS ARE HARTREE/BOHR    E'X               E'Y               E'Z 
    1 H                0.000000000       0.000219898      -0.000016477
    2 C                0.000000000      -0.000425852       0.000016305
    3 N                0.000000000       0.000205954       0.000000172
  $VIB   
          IVIB=   1 IATOM=   1 ICOORD=   2 E=      -92.8845332108
  0.000000000E+00 2.198978221E-04-1.647682027E-05 0.000000000E+00-4.258518414E-04
  1.630515618E-05 0.000000000E+00 2.059540193E-04 1.716640984E-07
  7.572286404E-08 7.540839331E-03-3.923562687E+00
1   ATOM  1
                                        -------------------
   COORD  3                             NUCLEAR COORDINATES
                                        -------------------
     VIB  1

                       ATOM             X              Y              Z

                 1  H                0.000000       0.000000      -1.965705
                 2  C                0.000000       0.000000       0.030578
                 3  N                0.000000       0.000000       2.171894
 ...... END OF ONE-ELECTRON INTEGRALS ......
 STEP CPU TIME =     0.00 TOTAL CPU TIME =        0.5 (    0.0 MIN)
 TOTAL WALL CLOCK TIME=        0.5 SECONDS, CPU UTILIZATION IS 100.00%
 TOTAL NUMBER OF NONZERO TWO-ELECTRON INTEGRALS =               38690
          3 INTEGRAL RECORDS WERE STORED ON DISK FILE  8.
  ...... END OF TWO-ELECTRON INTEGRALS .....
 STEP CPU TIME =     0.00 TOTAL CPU TIME =        0.5 (    0.0 MIN)
 TOTAL WALL CLOCK TIME=        0.5 SECONDS, CPU UTILIZATION IS  97.92%

     ----------------------------
     INPUT FOR TESSERA DEFINITION
     ----------------------------
     NTSALL  =        60     MTHALL  =         4
     MTHAUT  =         0     AUTFRE  =    2.0000
     NTSFRZ  =        60     KEEPSM  =         0
     AREAKP  =   10.0000     BONDRY  =    1.0000
     AREATL  =    0.0100

     SPHERE     INITS       METHOD
          1        60       FIXPVA
          2        60       FIXPVA
          3        60       FIXPVA

     ------------------------------
      FIXPVA TESSELLATION FOR PCM
         PEIFENG SU AND HUI LI
     UNIVERSITY OF NEBRASKA-LINCOLN
     ------------------------------


     INPUT FOR CAVITY DEFINITION 
     ---------------------------
   ATOM               COORDINATES                RADIUS       EPS
      1      0.0000      0.0000     -1.0402      1.2000     78.3900
      2      0.0000      0.0000      0.0162      1.7000     78.3900
      3      0.0000      0.0000      1.1493      1.6000     78.3900

 MEMORY USED TO GENERATE CAVITY=    176782


 TOTAL NUMBER OF SPHERES=     3
 SPHERE           CENTER  (X,Y,Z) (A)               RADIUS (A)      AREA(A*A)
     1   0.000000000   0.000000000  -1.040206207   1.440000000   8.685875369
     2   0.000000000   0.000000000   0.016181325   2.040000000  26.148104362
     3   0.000000000   0.000000000   1.149316654   1.920000000  23.163005010

 TOTAL NUMBER OF TESSERAE=      95
 SURFACE AREA=    57.99698474(A**2)    CAVITY VOLUME=     43.25966789 (A**3)
 STEP CPU TIME =     0.00 TOTAL CPU TIME =        0.5 (    0.0 MIN)
 TOTAL WALL CLOCK TIME=        0.5 SECONDS, CPU UTILIZATION IS  97.92%

          THE SOLUTE IS ENCLOSED IN ONE CAVITY
 DONE CHECKING SEPARATION.
 STEP CPU TIME =     0.00 TOTAL CPU TIME =        0.5 (    0.0 MIN)
 TOTAL WALL CLOCK TIME=        0.5 SECONDS, CPU UTILIZATION IS  97.92%

 ..... DONE SETTING UP PCM CALCULATION .....
 STEP CPU TIME =     0.00 TOTAL CPU TIME =        0.5 (    0.0 MIN)
 TOTAL WALL CLOCK TIME=        0.5 SECONDS, CPU UTILIZATION IS  97.92%
 NUCLEI-NUCLEAR CHARGE POLARIZATION ADJUSTMENT TO VNN=        0.0000000000

          --------------------------
                 RHF SCF CALCULATION
          --------------------------
     DENSITY MATRIX CONV=  1.00E-05

 ITER EX DEM     TOTAL ENERGY        E CHANGE  DENSITY CHANGE     ORB. GRAD
   1  0  0      -92.8845064403   -92.8845064403   0.001329891   0.000000000
          ---------------START SECOND ORDER SCF---------------
   2  1  0      -92.8845111289    -0.0000046886   0.000451679   0.000233459
   3  2  0      -92.8845114380    -0.0000003090   0.000172565   0.000139192
   4  3  0      -92.8845116287    -0.0000001908   0.000047144   0.000025220
   5  4  0      -92.8845116328    -0.0000000040   0.000015109   0.000004662
   6  5  0      -92.8845116331    -0.0000000003   0.000002172   0.000001032
   7  6  0      -92.8845116331    -0.0000000000   0.000000661   0.000000248

          -----------------
          DENSITY CONVERGED
          -----------------
     TIME TO FORM FOCK OPERATORS=       0.1 SECONDS (       0.0 SEC/ITER)
     TIME TO SOLVE SCF EQUATIONS=       0.0 SECONDS (       0.0 SEC/ITER)

 FINAL RHF ENERGY IS      -92.8845116331 AFTER   7 ITERATIONS
  
   PCM ASC=     -0.0054177091
   GCAVP  =      0.0000000000
   GDISP  =      0.0000000000
   GREP   =      0.0000000000

 LZ VALUE ANALYSIS FOR THE MOS
 ----------------------------------------
 MO     1 (    1) HAS LZ(WEIGHT)= 0.00(100.0%) 
 MO     2 (    2) HAS LZ(WEIGHT)= 0.00(100.0%) 
 MO     3 (    3) HAS LZ(WEIGHT)= 0.00(100.0%) 
 MO     4 (    4) HAS LZ(WEIGHT)= 0.00(100.0%) 
 MO     5 (    5) HAS LZ(WEIGHT)= 0.00(100.0%) 
 MO     6 (    6) HAS LZ(WEIGHT)=-1.00( 50.0%)  1.00( 50.0%) 
 MO     7 (    6) HAS LZ(WEIGHT)=-1.00( 50.0%)  1.00( 50.0%) 
 MO     8 (    7) HAS LZ(WEIGHT)=-1.00( 50.0%)  1.00( 50.0%) 
 MO     9 (    7) HAS LZ(WEIGHT)=-1.00( 50.0%)  1.00( 50.0%) 
 MO    10 (    8) HAS LZ(WEIGHT)= 0.00(100.0%) 
 MO    11 (    9) HAS LZ(WEIGHT)= 0.00(100.0%) 
 MO    12 (   10) HAS LZ(WEIGHT)=-1.00( 50.0%)  1.00( 50.0%) 
 MO    13 (   10) HAS LZ(WEIGHT)=-1.00( 50.0%)  1.00( 50.0%) 
 MO    14 (   11) HAS LZ(WEIGHT)= 0.00(100.0%) 
 MO    15 (   12) HAS LZ(WEIGHT)= 0.00(100.0%) 
 MO    16 (   13) HAS LZ(WEIGHT)=-1.00( 50.0%)  1.00( 50.0%) 
 MO    17 (   13) HAS LZ(WEIGHT)=-1.00( 50.0%)  1.00( 50.0%) 
 MO    18 (   14) HAS LZ(WEIGHT)= 0.00(100.0%) 
 MO    19 (   15) HAS LZ(WEIGHT)= 0.00(100.0%) 
 MO    20 (   16) HAS LZ(WEIGHT)= 0.00(100.0%) 
 MO    21 (   17) HAS LZ(WEIGHT)=-2.00( 50.0%)  2.00( 50.0%) 
 MO    22 (   17) HAS LZ(WEIGHT)=-2.00( 50.0%)  2.00( 50.0%) 
 MO    23 (   18) HAS LZ(WEIGHT)=-1.00( 50.0%)  1.00( 50.0%) 
 MO    24 (   18) HAS LZ(WEIGHT)=-1.00( 50.0%)  1.00( 50.0%) 
 MO    25 (   19) HAS LZ(WEIGHT)=-2.00( 50.0%)  2.00( 50.0%) 
 MO    26 (   19) HAS LZ(WEIGHT)=-2.00( 50.0%)  2.00( 50.0%) 
 MO    27 (   20) HAS LZ(WEIGHT)=-1.00( 50.0%)  1.00( 50.0%) 
 MO    28 (   20) HAS LZ(WEIGHT)=-1.00( 50.0%)  1.00( 50.0%) 
 MO    29 (   21) HAS LZ(WEIGHT)= 0.00(100.0%) 
 MO    30 (   22) HAS LZ(WEIGHT)= 0.00(100.0%) 
 MO    31 (   23) HAS LZ(WEIGHT)= 0.00(100.0%) 
 MO    32 (   24) HAS LZ(WEIGHT)= 0.00(100.0%) 
 ...... END OF RHF CALCULATION ......
 STEP CPU TIME =     0.08 TOTAL CPU TIME =        0.5 (    0.0 MIN)
 TOTAL WALL CLOCK TIME=        0.6 SECONDS, CPU UTILIZATION IS  98.21%

 .... DONE WITH PCM CONTRIBUTION TO GRADIENT ....
 STEP CPU TIME =     0.01 TOTAL CPU TIME =        0.6 (    0.0 MIN)
 TOTAL WALL CLOCK TIME=        0.6 SECONDS, CPU UTILIZATION IS  98.25%
 ..... END OF 1-ELECTRON GRADIENT ......
 STEP CPU TIME =     0.00 TOTAL CPU TIME =        0.6 (    0.0 MIN)
 TOTAL WALL CLOCK TIME=        0.6 SECONDS, CPU UTILIZATION IS  98.25%
 ...... END OF 2-ELECTRON GRADIENT ......
 STEP CPU TIME =     0.03 TOTAL CPU TIME =        0.6 (    0.0 MIN)
 TOTAL WALL CLOCK TIME=        0.6 SECONDS, CPU UTILIZATION IS  98.33%

 UNITS ARE HARTREE/BOHR    E'X               E'Y               E'Z 
    1 H                0.000000000       0.000000000       0.004540375
    2 C                0.000000000       0.000000000      -0.004672145
    3 N                0.000000000       0.000000000       0.000131770
  $VIB   
          IVIB=   1 IATOM=   1 ICOORD=   3 E=      -92.8845116331
  0.000000000E+00 0.000000000E+00 4.540374973E-03 0.000000000E+00 0.000000000E+00
 -4.672145044E-03 0.000000000E+00 0.000000000E+00 1.317700706E-04
  0.000000000E+00 0.000000000E+00-3.914390038E+00
1   ATOM  2
                                        -------------------
   COORD  1                             NUCLEAR COORDINATES
                                        -------------------
     VIB  1

                       ATOM             X              Y              Z

                 1  H                0.000000       0.000000      -1.975705
                 2  C                0.010000       0.000000       0.030578
                 3  N                0.000000       0.000000       2.171894
 ...... END OF ONE-ELECTRON INTEGRALS ......
 STEP CPU TIME =     0.00 TOTAL CPU TIME =        0.6 (    0.0 MIN)
 TOTAL WALL CLOCK TIME=        0.6 SECONDS, CPU UTILIZATION IS  98.33%
 TOTAL NUMBER OF NONZERO TWO-ELECTRON INTEGRALS =               68582
          5 INTEGRAL RECORDS WERE STORED ON DISK FILE  8.
  ...... END OF TWO-ELECTRON INTEGRALS .....
 STEP CPU TIME =     0.01 TOTAL CPU TIME =        0.6 (    0.0 MIN)
 TOTAL WALL CLOCK TIME=        0.6 SECONDS, CPU UTILIZATION IS  98.36%

     ----------------------------
     INPUT FOR TESSERA DEFINITION
     ----------------------------
     NTSALL  =        60     MTHALL  =         4
     MTHAUT  =         0     AUTFRE  =    2.0000
     NTSFRZ  =        60     KEEPSM  =         0
     AREAKP  =   10.0000     BONDRY  =    1.0000
     AREATL  =    0.0100

     SPHERE     INITS       METHOD
          1        60       FIXPVA
          2        60       FIXPVA
          3        60       FIXPVA

     ------------------------------
      FIXPVA TESSELLATION FOR PCM
         PEIFENG SU AND HUI LI
     UNIVERSITY OF NEBRASKA-LINCOLN
     ------------------------------


     INPUT FOR CAVITY DEFINITION 
     ---------------------------
   ATOM               COORDINATES                RADIUS       EPS
      1      0.0000      0.0000     -1.0455      1.2000     78.3900
      2      0.0053      0.0000      0.0162      1.7000     78.3900
      3      0.0000      0.0000      1.1493      1.6000     78.3900

 MEMORY USED TO GENERATE CAVITY=    176782


 TOTAL NUMBER OF SPHERES=     3
 SPHERE           CENTER  (X,Y,Z) (A)               RADIUS (A)      AREA(A*A)
     1   0.000000000   0.000000000  -1.045497979   1.440000000   8.685875369
     2   0.005291772   0.000000000   0.016181325   2.040000000  26.148106059
     3   0.000000000   0.000000000   1.149316654   1.920000000  23.163261001

 TOTAL NUMBER OF TESSERAE=      92
 SURFACE AREA=    57.99724243(A**2)    CAVITY VOLUME=     43.27016923 (A**3)
 STEP CPU TIME =     0.00 TOTAL CPU TIME =        0.6 (    0.0 MIN)
 TOTAL WALL CLOCK TIME=        0.6 SECONDS, CPU UTILIZATION IS  98.36%

          THE SOLUTE IS ENCLOSED IN ONE CAVITY
 DONE CHECKING SEPARATION.
 STEP CPU TIME =     0.00 TOTAL CPU TIME =        0.6 (    0.0 MIN)
 TOTAL WALL CLOCK TIME=        0.6 SECONDS, CPU UTILIZATION IS  98.36%

 ..... DONE SETTING UP PCM CALCULATION .....
 STEP CPU TIME =     0.00 TOTAL CPU TIME =        0.6 (    0.0 MIN)
 TOTAL WALL CLOCK TIME=        0.6 SECONDS, CPU UTILIZATION IS  98.36%
 NUCLEI-NUCLEAR CHARGE POLARIZATION ADJUSTMENT TO VNN=        0.0000000000

          --------------------------
                 RHF SCF CALCULATION
          --------------------------
     DENSITY MATRIX CONV=  1.00E-05

 ITER EX DEM     TOTAL ENERGY        E CHANGE  DENSITY CHANGE     ORB. GRAD
   1  0  0      -92.8845162051   -92.8845162051   0.001933067   0.000000000
          ---------------START SECOND ORDER SCF---------------
   2  1  0      -92.8845286211    -0.0000124160   0.000632246   0.000319686
   3  2  0      -92.8845298304    -0.0000012093   0.000484197   0.000158687
   4  3  0      -92.8845300623    -0.0000002319   0.000047008   0.000027838
   5  4  0      -92.8845300694    -0.0000000071   0.000030166   0.000012417
   6  5  0      -92.8845300710    -0.0000000015   0.000008646   0.000001662
   7  6  0      -92.8845300710    -0.0000000000   0.000004648   0.000000697

          -----------------
          DENSITY CONVERGED
          -----------------
     TIME TO FORM FOCK OPERATORS=       0.1 SECONDS (       0.0 SEC/ITER)
     TIME TO SOLVE SCF EQUATIONS=       0.0 SECONDS (       0.0 SEC/ITER)

 FINAL RHF ENERGY IS      -92.8845300710 AFTER   7 ITERATIONS
  
   PCM ASC=     -0.0053906863
   GCAVP  =      0.0000000000
   GDISP  =      0.0000000000
   GREP   =      0.0000000000

 LZ VALUE ANALYSIS FOR THE MOS
 ----------------------------------------
 MO     1 (    1) HAS LZ(WEIGHT)= 0.00(100.0%) 
 MO     2 (    2) HAS LZ(WEIGHT)= 0.00(100.0%) 
 MO     3 (    3) HAS LZ(WEIGHT)= 0.00(100.0%) 
 MO     4 (    4) HAS LZ(WEIGHT)= 0.00(100.0%) 
 MO     5 (    5) HAS LZ(WEIGHT)= 0.00(100.0%) 
 MO     6 (    6) HAS LZ(WEIGHT)=-1.00( 50.0%)  1.00( 50.0%) 
 MO     7 (    6) HAS LZ(WEIGHT)=-1.00( 50.0%)  1.00( 50.0%) 
 MO     8 (    7) HAS LZ(WEIGHT)= 0.00(100.0%) 
 MO     9 (    8) HAS LZ(WEIGHT)= 0.00(100.0%) 
 MO    10 (    9) HAS LZ(WEIGHT)= 0.00(100.0%) 
 MO    11 (   10) HAS LZ(WEIGHT)= 0.00(100.0%) 
 MO    12 (   11) HAS LZ(WEIGHT)=-1.00( 50.0%)  1.00( 50.0%) 
 MO    13 (   11) HAS LZ(WEIGHT)=-1.00( 50.0%)  1.00( 50.0%) 
 MO    14 (   12) HAS LZ(WEIGHT)= 0.00(100.0%) 
 MO    15 (   13) HAS LZ(WEIGHT)= 0.00(100.0%) 
 MO    16 (   14) HAS LZ(WEIGHT)= 0.00(100.0%) 
 MO    17 (   15) HAS LZ(WEIGHT)= 0.00(100.0%) 
 MO    18 (   16) HAS LZ(WEIGHT)= 0.00(100.0%) 
 MO    19 (   17) HAS LZ(WEIGHT)= 0.00(100.0%) 
 MO    20 (   18) HAS LZ(WEIGHT)= 0.00(100.0%) 
 MO    21 (   19) HAS LZ(WEIGHT)=-2.00( 50.0%)  2.00( 50.0%) 
 MO    22 (   19) HAS LZ(WEIGHT)=-2.00( 50.0%)  2.00( 50.0%) 
 MO    23 (   20) HAS LZ(WEIGHT)= 0.00(100.0%) 
 MO    24 (   21) HAS LZ(WEIGHT)= 0.00(100.0%) 
 MO    25 (   22) HAS LZ(WEIGHT)=-2.00( 50.0%)  2.00( 50.0%) 
 MO    26 (   22) HAS LZ(WEIGHT)=-2.00( 50.0%)  2.00( 50.0%) 
 MO    27 (   23) HAS LZ(WEIGHT)= 0.00(100.0%) 
 MO    28 (   24) HAS LZ(WEIGHT)= 0.00(100.0%) 
 MO    29 (   25) HAS LZ(WEIGHT)= 0.00(100.0%) 
 MO    30 (   26) HAS LZ(WEIGHT)= 0.00(100.0%) 
 MO    31 (   27) HAS LZ(WEIGHT)= 0.00(100.0%) 
 MO    32 (   28) HAS LZ(WEIGHT)= 0.00(100.0%) 
 ...... END OF RHF CALCULATION ......
 STEP CPU TIME =     0.08 TOTAL CPU TIME =        0.7 (    0.0 MIN)
 TOTAL WALL CLOCK TIME=        0.7 SECONDS, CPU UTILIZATION IS  98.55%

 .... DONE WITH PCM CONTRIBUTION TO GRADIENT ....
 STEP CPU TIME =     0.01 TOTAL CPU TIME =        0.7 (    0.0 MIN)
 TOTAL WALL CLOCK TIME=        0.7 SECONDS, CPU UTILIZATION IS  98.57%
 ..... END OF 1-ELECTRON GRADIENT ......
 STEP CPU TIME =     0.00 TOTAL CPU TIME =        0.7 (    0.0 MIN)
 TOTAL WALL CLOCK TIME=        0.7 SECONDS, CPU UTILIZATION IS  98.57%
 ...... END OF 2-ELECTRON GRADIENT ......
 STEP CPU TIME =     0.03 TOTAL CPU TIME =        0.7 (    0.0 MIN)
 TOTAL WALL CLOCK TIME=        0.7 SECONDS, CPU UTILIZATION IS  98.63%

 UNITS ARE HARTREE/BOHR    E'X               E'Y               E'Z 
    1 H               -0.000429816       0.000000000      -0.000013493
    2 C                0.000832612       0.000000000      -0.000018130
    3 N               -0.000402796       0.000000000       0.000031623
  $VIB   
[...]
   COORD  3                             NUCLEAR COORDINATES
                                        -------------------
     VIB  2

                       ATOM             X              Y              Z

                 1  H                0.000000       0.000000      -1.975705
                 2  C                0.000000       0.000000       0.030578
                 3  N                0.000000       0.000000       2.161894
 ...... END OF ONE-ELECTRON INTEGRALS ......
 STEP CPU TIME =     0.00 TOTAL CPU TIME =        2.4 (    0.0 MIN)
 TOTAL WALL CLOCK TIME=        2.4 SECONDS, CPU UTILIZATION IS  99.18%
 TOTAL NUMBER OF NONZERO TWO-ELECTRON INTEGRALS =               38690
          3 INTEGRAL RECORDS WERE STORED ON DISK FILE  8.
  ...... END OF TWO-ELECTRON INTEGRALS .....
 STEP CPU TIME =     0.00 TOTAL CPU TIME =        2.4 (    0.0 MIN)
 TOTAL WALL CLOCK TIME=        2.4 SECONDS, CPU UTILIZATION IS  98.77%

     ----------------------------
     INPUT FOR TESSERA DEFINITION
     ----------------------------
     NTSALL  =        60     MTHALL  =         4
     MTHAUT  =         0     AUTFRE  =    2.0000
     NTSFRZ  =        60     KEEPSM  =         0
     AREAKP  =   10.0000     BONDRY  =    1.0000
     AREATL  =    0.0100

     SPHERE     INITS       METHOD
          1        60       FIXPVA
          2        60       FIXPVA
          3        60       FIXPVA

     ------------------------------
      FIXPVA TESSELLATION FOR PCM
         PEIFENG SU AND HUI LI
     UNIVERSITY OF NEBRASKA-LINCOLN
     ------------------------------


     INPUT FOR CAVITY DEFINITION 
     ---------------------------
   ATOM               COORDINATES                RADIUS       EPS
      1      0.0000      0.0000     -1.0455      1.2000     78.3900
      2      0.0000      0.0000      0.0162      1.7000     78.3900
      3      0.0000      0.0000      1.1440      1.6000     78.3900

 MEMORY USED TO GENERATE CAVITY=    176782


 TOTAL NUMBER OF SPHERES=     3
 SPHERE           CENTER  (X,Y,Z) (A)               RADIUS (A)      AREA(A*A)
     1   0.000000000   0.000000000  -1.045497979   1.440000000   8.685875369
     2   0.000000000   0.000000000   0.016181325   2.040000000  26.148103976
     3   0.000000000   0.000000000   1.144024881   1.920000000  23.162704361

 TOTAL NUMBER OF TESSERAE=      95
 SURFACE AREA=    57.99668371(A**2)    CAVITY VOLUME=     43.24924295 (A**3)
 STEP CPU TIME =     0.00 TOTAL CPU TIME =        2.4 (    0.0 MIN)
 TOTAL WALL CLOCK TIME=        2.4 SECONDS, CPU UTILIZATION IS  98.77%

          THE SOLUTE IS ENCLOSED IN ONE CAVITY
 DONE CHECKING SEPARATION.
 STEP CPU TIME =     0.00 TOTAL CPU TIME =        2.4 (    0.0 MIN)
 TOTAL WALL CLOCK TIME=        2.4 SECONDS, CPU UTILIZATION IS  98.77%

 ..... DONE SETTING UP PCM CALCULATION .....
 STEP CPU TIME =     0.00 TOTAL CPU TIME =        2.4 (    0.0 MIN)
 TOTAL WALL CLOCK TIME=        2.4 SECONDS, CPU UTILIZATION IS  98.77%
 NUCLEI-NUCLEAR CHARGE POLARIZATION ADJUSTMENT TO VNN=        0.0000000000

          --------------------------
                 RHF SCF CALCULATION
          --------------------------
     DENSITY MATRIX CONV=  1.00E-05

 ITER EX DEM     TOTAL ENERGY        E CHANGE  DENSITY CHANGE     ORB. GRAD
   1  0  0      -92.8844340821   -92.8844340821   0.002310903   0.000000000
          ---------------START SECOND ORDER SCF---------------
   2  1  0      -92.8844521015    -0.0000180194   0.001842425   0.000533727
   3  2  0      -92.8844537680    -0.0000016665   0.000400034   0.000250669
   4  3  0      -92.8844542682    -0.0000005002   0.000184636   0.000067178
   5  4  0      -92.8844542949    -0.0000000267   0.000061155   0.000012325
   6  5  0      -92.8844542970    -0.0000000020   0.000006144   0.000002424
   7  6  0      -92.8844542970    -0.0000000001   0.000002174   0.000000673

          -----------------
          DENSITY CONVERGED
          -----------------
     TIME TO FORM FOCK OPERATORS=       0.1 SECONDS (       0.0 SEC/ITER)
     TIME TO SOLVE SCF EQUATIONS=       0.0 SECONDS (       0.0 SEC/ITER)

 FINAL RHF ENERGY IS      -92.8844542970 AFTER   7 ITERATIONS
  
   PCM ASC=     -0.0053340050
   GCAVP  =      0.0000000000
   GDISP  =      0.0000000000
   GREP   =      0.0000000000

 LZ VALUE ANALYSIS FOR THE MOS
 ----------------------------------------
 MO     1 (    1) HAS LZ(WEIGHT)= 0.00(100.0%) 
 MO     2 (    2) HAS LZ(WEIGHT)= 0.00(100.0%) 
 MO     3 (    3) HAS LZ(WEIGHT)= 0.00(100.0%) 
 MO     4 (    4) HAS LZ(WEIGHT)= 0.00(100.0%) 
 MO     5 (    5) HAS LZ(WEIGHT)= 0.00(100.0%) 
 MO     6 (    6) HAS LZ(WEIGHT)=-1.00( 50.0%)  1.00( 50.0%) 
 MO     7 (    6) HAS LZ(WEIGHT)=-1.00( 50.0%)  1.00( 50.0%) 
 MO     8 (    7) HAS LZ(WEIGHT)=-1.00( 50.0%)  1.00( 50.0%) 
 MO     9 (    7) HAS LZ(WEIGHT)=-1.00( 50.0%)  1.00( 50.0%) 
 MO    10 (    8) HAS LZ(WEIGHT)= 0.00(100.0%) 
 MO    11 (    9) HAS LZ(WEIGHT)= 0.00(100.0%) 
 MO    12 (   10) HAS LZ(WEIGHT)=-1.00( 50.0%)  1.00( 50.0%) 
 MO    13 (   10) HAS LZ(WEIGHT)=-1.00( 50.0%)  1.00( 50.0%) 
 MO    14 (   11) HAS LZ(WEIGHT)= 0.00(100.0%) 
 MO    15 (   12) HAS LZ(WEIGHT)= 0.00(100.0%) 
 MO    16 (   13) HAS LZ(WEIGHT)=-1.00( 50.0%)  1.00( 50.0%) 
 MO    17 (   13) HAS LZ(WEIGHT)=-1.00( 50.0%)  1.00( 50.0%) 
 MO    18 (   14) HAS LZ(WEIGHT)= 0.00(100.0%) 
 MO    19 (   15) HAS LZ(WEIGHT)= 0.00(100.0%) 
 MO    20 (   16) HAS LZ(WEIGHT)= 0.00(100.0%) 
 MO    21 (   17) HAS LZ(WEIGHT)=-2.00( 50.0%)  2.00( 50.0%) 
 MO    22 (   17) HAS LZ(WEIGHT)=-2.00( 50.0%)  2.00( 50.0%) 
 MO    23 (   18) HAS LZ(WEIGHT)=-1.00( 50.0%)  1.00( 50.0%) 
 MO    24 (   18) HAS LZ(WEIGHT)=-1.00( 50.0%)  1.00( 50.0%) 
 MO    25 (   19) HAS LZ(WEIGHT)=-2.00( 50.0%)  2.00( 50.0%) 
 MO    26 (   19) HAS LZ(WEIGHT)=-2.00( 50.0%)  2.00( 50.0%) 
 MO    27 (   20) HAS LZ(WEIGHT)=-1.00( 50.0%)  1.00( 50.0%) 
 MO    28 (   20) HAS LZ(WEIGHT)=-1.00( 50.0%)  1.00( 50.0%) 
 MO    29 (   21) HAS LZ(WEIGHT)= 0.00(100.0%) 
 MO    30 (   22) HAS LZ(WEIGHT)= 0.00(100.0%) 
 MO    31 (   23) HAS LZ(WEIGHT)= 0.00(100.0%) 
 MO    32 (   24) HAS LZ(WEIGHT)= 0.00(100.0%) 
 ...... END OF RHF CALCULATION ......
 STEP CPU TIME =     0.08 TOTAL CPU TIME =        2.5 (    0.0 MIN)
 TOTAL WALL CLOCK TIME=        2.5 SECONDS, CPU UTILIZATION IS  99.20%

 .... DONE WITH PCM CONTRIBUTION TO GRADIENT ....
 STEP CPU TIME =     0.01 TOTAL CPU TIME =        2.5 (    0.0 MIN)
 TOTAL WALL CLOCK TIME=        2.5 SECONDS, CPU UTILIZATION IS  98.81%
 ..... END OF 1-ELECTRON GRADIENT ......
 STEP CPU TIME =     0.00 TOTAL CPU TIME =        2.5 (    0.0 MIN)
 TOTAL WALL CLOCK TIME=        2.5 SECONDS, CPU UTILIZATION IS  98.81%
 ...... END OF 2-ELECTRON GRADIENT ......
 STEP CPU TIME =     0.03 TOTAL CPU TIME =        2.5 (    0.0 MIN)
 TOTAL WALL CLOCK TIME=        2.6 SECONDS, CPU UTILIZATION IS  98.83%

 UNITS ARE HARTREE/BOHR    E'X               E'Y               E'Z 
    1 H                0.000000000       0.000000000      -0.000130995
    2 C                0.000000000       0.000000000       0.016203683
    3 N                0.000000000       0.000000000      -0.016072688
  $VIB   
          IVIB=   2 IATOM=   3 ICOORD=   3 E=      -92.8844542970
  0.000000000E+00 0.000000000E+00-1.309949905E-04 0.000000000E+00 0.000000000E+00
  1.620368318E-02 0.000000000E+00 0.000000000E+00-1.607268819E-02
  0.000000000E+00 0.000000000E+00-3.914472065E+00
 ...... END OF NUMERICAL HESSIAN CALCULATION ......
 STEP CPU TIME =     0.00 TOTAL CPU TIME =        2.5 (    0.0 MIN)
 TOTAL WALL CLOCK TIME=        2.6 SECONDS, CPU UTILIZATION IS  98.83%

          ---------------
          ENERGY GRADIENT
          ---------------

 UNITS ARE HARTREE/BOHR    E'X               E'Y               E'Z 
    1 H                0.000000000       0.000000000      -0.000001574
    2 C                0.000000000       0.000000000      -0.000000388
    3 N                0.000000000       0.000000000       0.000001962

          -------------------------------
          CARTESIAN FORCE CONSTANT MATRIX
          -------------------------------

                                   1                          2
                               H                          C         
                          X        Y        Z        X        Y        Z
  1   H            X 0.021976 0.000000-0.000028-0.042788 0.000000 0.000028
                   Y 0.000000 0.021990 0.000000 0.000000-0.042808-0.000000
                   Z-0.000028 0.000000 0.447726 0.000028-0.000000-0.460682
  2   C            X-0.042788 0.000000 0.000028 0.083331 0.000000-0.000028
                   Y 0.000000-0.042808-0.000000 0.000000 0.083357 0.000000
                   Z 0.000028-0.000000-0.460682-0.000028 0.000000 2.055196
  3   N            X 0.020812 0.000000 0.000000-0.040543 0.000000-0.000000
                   Y 0.000000 0.020818-0.000000 0.000000-0.040549 0.000000
                   Z 0.000000 0.000000 0.012955-0.000000-0.000000-1.594534

                                   3
                               N         
                          X        Y        Z
  3   N            X 0.019731 0.000000 0.000000
                   Y 0.000000 0.019731-0.000000
                   Z 0.000000-0.000000 1.581598

          ------------------------          ----------------
          DIPOLE DERIVATIVE TENSOR          (DEBYE/ANGSTROM)
          ------------------------          ----------------

        ATOM                 MU-X           MU-Y           MU-Z
     H          D/DX     1.425013076    0.000000014    0.000040972
                D/DY    -0.000000001    1.425012006    0.000000001
                D/DZ     0.000000000    0.000000000    1.734339885
     C          D/DX     0.711995067    0.000000002   -0.000044339
                D/DY    -0.000000000    0.711995840   -0.000000004
                D/DZ     0.000000000    0.000000000   -0.020385007
     N          D/DX    -2.137102009    0.000000022   -0.000000008
                D/DY    -0.000000000   -2.137102042   -0.000000000
                D/DZ     0.000000000    0.000000000   -1.713789817

          --------------------------------------------------------
          NORMAL COORDINATE ANALYSIS IN THE HARMONIC APPROXIMATION
          --------------------------------------------------------

          ATOMIC WEIGHTS (AMU)

    1     H                 1.00782
    2     C                12.00000
    3     N                14.00307

 MODES    1 TO    5 ARE TAKEN AS ROTATIONS AND TRANSLATIONS.

 ANALYZING SYMMETRY OF NORMAL MODES...

     FREQUENCIES IN CM**-1, IR INTENSITIES IN DEBYE**2/AMU-ANGSTROM**2,
     REDUCED MASSES IN AMU.

                            1           2           3           4           5
       FREQUENCY:         0.11        0.11        0.02        8.10        8.13  
        SYMMETRY:         A           A           A           A           A   
    REDUCED MASS:      8.81008     8.81154     9.00358     3.40709     3.40763
    IR INTENSITY:      0.00024     0.00024     0.00000     1.41284     1.41264

  1   H            X  0.19880457 -0.00000001 -0.00002529 -0.48503980 -0.00000000
                   Y  0.00000001  0.19875612 -0.00000000  0.00000000 -0.48498656
                   Z  0.00002523  0.00000000  0.19241279 -0.00001923  0.00000000
  2   C            X  0.19455904 -0.00000001 -0.00002507 -0.16215024 -0.00000000
                   Y  0.00000001  0.19454330 -0.00000000  0.00000000 -0.16218120
                   Z  0.00002495  0.00000000  0.19241252  0.00000085 -0.00000000
  3   N            X  0.19007853 -0.00000001 -0.00002483  0.17874263  0.00000000
                   Y  0.00000001  0.19009599 -0.00000000 -0.00000000  0.17872895
                   Z  0.00002494  0.00000000  0.19241009  0.00000104 -0.00000000

 TRANS. SAYVETZ    X  5.19675174 -0.00000035 -0.00067403  0.06830748  0.00000000
                   Y  0.00000035  5.19675845 -0.00000004  0.00000000  0.06779805
                   Z  0.00067402  0.00000004  5.19720065  0.00000532 -0.00000000
               TOTAL  5.19675178  5.19675845  5.19720069  0.06830748  0.06779805

   ROT. SAYVETZ    X  0.00000001  0.08179496 -0.00000000  0.00000001 -6.26963172
                   Y -0.08240954  0.00000001  0.00000427  6.26962209  0.00000001
                   Z  0.00000000  0.00000000  0.00000000  0.00000000  0.00000000
               TOTAL  0.08240954  0.08179496  0.00000427  6.26962209  6.26963172

                            6           7           8           9
       FREQUENCY:       892.68      892.91     2431.27     3652.16  
        SYMMETRY:         A           A           A           A   
    REDUCED MASS:      1.35141     1.35129     4.70359     1.21461
    IR INTENSITY:      0.97021     0.97041     0.94723     2.24713

  1   H            X  0.84702355  0.00000000  0.00002863 -0.00005854
                   Y -0.00000000  0.84706540 -0.00000000  0.00000000
                   Z  0.00006390 -0.00000000 -0.38359874  0.89892440
  2   C            X -0.13851863 -0.00000000 -0.00000266  0.00000515
                   Y  0.00000000 -0.13850450  0.00000000 -0.00000000
                   Z -0.00000170  0.00000000 -0.17997278 -0.11798541
  3   N            X  0.05774197  0.00000000  0.00000023 -0.00000020
                   Y -0.00000000  0.05772683 -0.00000000 -0.00000000
                   Z -0.00000314 -0.00000000  0.18183915  0.03641141

 TRANS. SAYVETZ    X -0.00000729  0.00000000  0.00000010 -0.00000007
                   Y -0.00000000 -0.00000755 -0.00000000 -0.00000000
                   Z -0.00000000 -0.00000000  0.00003260  0.00000514
               TOTAL  0.00000729  0.00000755  0.00003260  0.00000514

   ROT. SAYVETZ    X  0.00000000 -0.01819493 -0.00000000  0.00000000
                   Y  0.01873326  0.00000000 -0.00005120  0.00011236
                   Z  0.00000000  0.00000000  0.00000000  0.00000000
               TOTAL  0.01873326  0.01819493  0.00005120  0.00011236

 REFERENCE ON SAYVETZ CONDITIONS - A. SAYVETZ, J.CHEM.PHYS., 7, 383-389(1939).

 NOTE - THE MODES J,K ARE ORTHONORMALIZED ACCORDING TO
 SUM ON I   M(I) * (X(I,J)*X(I,K) + Y(I,J)*Y(I,K) + Z(I,J)*Z(I,K)) = DELTA(J,K)

  MODE FREQ(CM**-1)  SYMMETRY  RED. MASS  IR INTENS.
     1       0.106    A        8.810081    0.000244
     2       0.106    A        8.811537    0.000240
     3       0.016    A        9.003582    0.000000
     4       8.098    A        3.407094    1.412840
     5       8.126    A        3.407634    1.412642
     6     892.676    A        1.351405    0.970214
     7     892.908    A        1.351286    0.970413
     8    2431.273    A        4.703588    0.947227
     9    3652.157    A        1.214607    2.247133

     -------------------------------
     THERMOCHEMISTRY AT T=  298.15 K
     -------------------------------

 USING IDEAL GAS, RIGID ROTOR, HARMONIC NORMAL MODE APPROXIMATIONS.
 P=  1.01325E+05 PASCAL.
 ALL FREQUENCIES ARE SCALED BY   1.00000
 THE MOMENTS OF INERTIA ARE (IN AMU*BOHR**2)
      0.00000    39.31530    39.31530
 THE ROTATIONAL SYMMETRY NUMBER IS  1.0
 THE ROTATIONAL CONSTANTS ARE (IN GHZ)
      0.00000    45.86225    45.86225
      6 -      9 VIBRATIONAL MODES ARE USED IN THERMOCHEMISTRY.
 THE HARMONIC ZERO POINT ENERGY IS (SCALED BY   1.000)
        0.017927 HARTREE/MOLECULE     3934.507233 CM**-1/MOLECULE 
       11.249332 KCAL/MOL               47.067205 KJ/MOL

               Q               LN Q
 ELEC.     1.00000E+00       0.000000
 TRANS.    5.51775E+06      15.523481
 ROT.      1.35334E+02       4.907744
 VIB.      1.02747E+00       0.027102
 TOT.      7.67253E+08      20.458327

              E         H         G         CV        CP        S
           KJ/MOL    KJ/MOL    KJ/MOL   J/MOL-K   J/MOL-K   J/MOL-K
 ELEC.      0.000     0.000     0.000     0.000     0.000     0.000
 TRANS.     3.718     6.197   -38.482    12.472    20.786   149.855
 ROT.       2.479     2.479   -12.166     8.314     8.314    49.119
 VIB.      47.359    47.359    47.000     4.277     4.277     1.203
 TOTAL     53.556    56.035    -3.648    25.063    33.377   200.177
 VIB. THERMAL CORRECTION E(T)-E(0) = H(T)-H(0) =   291.571 J/MOL

              E         H         G         CV        CP        S
         KCAL/MOL  KCAL/MOL  KCAL/MOL CAL/MOL-K CAL/MOL-K CAL/MOL-K
 ELEC.      0.000     0.000     0.000     0.000     0.000     0.000
 TRANS.     0.889     1.481    -9.197     2.981     4.968    35.816
 ROT.       0.592     0.592    -2.908     1.987     1.987    11.740
 VIB.      11.319    11.319    11.233     1.022     1.022     0.288
 TOTAL     12.800    13.393    -0.872     5.990     7.977    47.844
 VIB. THERMAL CORRECTION E(T)-E(0) = H(T)-H(0) =    69.687 CAL/MOL
 ......END OF NORMAL COORDINATE ANALYSIS......
 STEP CPU TIME =     0.00 TOTAL CPU TIME =        2.5 (    0.0 MIN)
 TOTAL WALL CLOCK TIME=        2.6 SECONDS, CPU UTILIZATION IS  98.83%

             ----------------------------------------------
             -------   RESULTS OF PCM CALCULATION   -------
             ----------------------------------------------

 FREE ENERGY IN SOLVENT = <PSI| H(0)+V/2 |PSI>       =      -92.8844542970 A.U.
 INTERNAL ENERGY IN SOLVENT = <PSI| H(0) |PSI>       =      -92.8731294141 A.U.
 DELTA INTERNAL ENERGY =  <D-PSI| H(0) |D-PSI>       =        0.0000000000 A.U.
 ELECTROSTATIC INTERACTION                           =       -0.0113248829 A.U.
 PIEROTTI CAVITATION ENERGY                          =        0.0000000000 A.U.
 DISPERSION FREE ENERGY                              =        0.0000000000 A.U.
 REPULSION FREE ENERGY                               =        0.0000000000 A.U.
 TOTAL INTERACTION (DELTA + ES + CAV + DISP + REP)   =       -0.0113248829 A.U.
 TOTAL FREE ENERGY IN SOLVENT                        =      -92.8844542970 A.U.

 FREE ENERGY IN SOLVENT       =      -58285.88 KCAL/MOL
 INTERNAL ENERGY IN SOLVENT   =      -58278.77 KCAL/MOL
 DELTA INTERNAL ENERGY        =           0.00 KCAL/MOL
 ELECTROSTATIC INTERACTION    =          -7.11 KCAL/MOL
 PIEROTTI CAVITATION ENERGY   =           0.00 KCAL/MOL
 DISPERSION FREE ENERGY       =           0.00 KCAL/MOL
 REPULSION FREE ENERGY        =           0.00 KCAL/MOL
 TOTAL INTERACTION            =          -7.11 KCAL/MOL
 TOTAL FREE ENERGY IN SOLVENT =      -58285.88 KCAL/MOL

 -INTERNAL ENERGY IN SOLVENT-
    OMITS ES,CAV,DISP,REP (USES SOLVATED ORBITALS IN THE GAS PHASE HAMILTONIAN)
 -FREE ENERGY IN SOLVENT-
    INCLUDES ES+DISP+REP WHICH ARE IN THE SELF-CONSISTENT WAVEFUNCTION.
 -TOTAL FREE ENERGY IN SOLVENT-
    INCLUDES ES+DISP+REP+CAV, MEANING CAVITATION IS NOT IN THE SCF ENERGY.

 .... DONE PRINTING PCM SOLVENT SUMMARY ....
 STEP CPU TIME =     0.00 TOTAL CPU TIME =        2.5 (    0.0 MIN)
 TOTAL WALL CLOCK TIME=        2.6 SECONDS, CPU UTILIZATION IS  98.83%
               997395  WORDS OF DYNAMIC MEMORY USED
 EXECUTION OF GAMESS TERMINATED NORMALLY Fri Jun  2 05:11:30 2017
 DDI: 263640 bytes (0.3 MB / 0 MWords) used by master data server.

 ----------------------------------------
 CPU timing information for all processes
 ========================================
 0: 2.509 + 0.39 = 2.549
 ----------------------------------------
 ddikick.x: exited gracefully.
unset echo
----- accounting info -----
Files used on the master node compute-0-7.local were:
-rw-rw-r-- 1 sarom sarom     950 Jun  2 05:11 /scratch/pcm-hcn-hess.F05
-rw-rw-r-- 1 sarom sarom  540048 Jun  2 05:11 /scratch/pcm-hcn-hess.F08
-rw-rw-r-- 1 sarom sarom 2028640 Jun  2 05:11 /scratch/pcm-hcn-hess.F10
-rw-rw-r-- 1 sarom sarom       8 Jun  2 05:11 /scratch/pcm-hcn-hess.F26
-rw-rw-r-- 1 sarom sarom       0 Jun  2 05:11 /scratch/pcm-hcn-hess.F27
rm: cannot remove `/scratch/sarom': Is a directory
rm: cannot remove `/scratch/tmp': Is a directory
ls: No match.
ls: No match.
ls: No match.
Fri Jun  2 05:11:33 CDT 2017
0.250u 0.216s 0:06.10 7.5%	0+0k 8+376io 0pf+0w
Deleting shmid=2523136.
Deleting shmid=2555905.
Deleting shmid=2785282.
/opt/gridengine/default/spool/compute-0-7/active_jobs/24044.1/pe_hostfile compute-0-7.local
