-catch_rsh /opt/gridengine/default/spool/compute-0-8/active_jobs/24053.1/pe_hostfile
compute-0-8
The primary node assigned by SGE to this run is compute-0-8
Warning: no access to tty (Bad file descriptor).
Thus no job control in this shell.
Deleting shmid=2785280.
Deleting shmid=2818049.
source /home/sarom/gamess.github.2017-05-31.14.06/install.info
setenv GMS_PATH /home/sarom/gamess.github.2017-05-31.14.06
setenv GMS_BUILD_DIR /home/sarom/gamess.github.2017-05-31.14.06
setenv GMS_TARGET linux64
setenv GMS_FORTRAN gfortran
setenv GMS_GFORTRAN_VERNO 4.4
setenv GMS_MATHLIB mkl-so
setenv GMS_MATHLIB_PATH /share/apps/intel/compilers_and_libraries_2017.1.132/linux/mkl/lib/intel64
setenv GMS_MKL_VERNO 12
setenv GMS_DDI_COMM sockets
setenv GMS_LIBCCHEM false
setenv GMS_EIGEN_PATH
setenv GMS_PHI false
setenv GMS_SHMTYPE sysv
setenv GMS_OPENMP false
unset echo
pcm-tddft-co
tests/solvent/pcm
----- GAMESS execution script 'rungms' -----
This job is running on host compute-0-8.local
under operating system Linux at Fri Jun 2 05:12:57 CDT 2017
Available scratch disk space (Kbyte units) at beginning of the job is
Filesystem           1K-blocks      Used Available Use% Mounted on
/dev/sda1             16126920   3867344  11440376  26% /
GAMESS temporary binary files will be written to /scratch
GAMESS supplementary output files will be written to /home/sarom/restart
Copying input file pcm-tddft-co.inp to your run's scratch directory...
cp tests/solvent/pcm/pcm-tddft-co.inp /scratch/pcm-tddft-co.F05
unset echo
The generated host list is
compute-0-8.local
/home/sarom/gamess.github.2017-05-31.14.06/ddikick.x /home/sarom/gamess.github.2017-05-31.14.06/gamess.00.x pcm-tddft-co -ddi 1 1 compute-0-8.local -scr /scratch

 Distributed Data Interface kickoff program.
 Initiating 1 compute processes on 1 nodes to run the following command:
 /home/sarom/gamess.github.2017-05-31.14.06/gamess.00.x pcm-tddft-co 

          ******************************************************
          *         GAMESS VERSION = 20 APR 2017 (R1)          *
          *             FROM IOWA STATE UNIVERSITY             *
          * M.W.SCHMIDT, K.K.BALDRIDGE, J.A.BOATZ, S.T.ELBERT, *
          *   M.S.GORDON, J.H.JENSEN, S.KOSEKI, N.MATSUNAGA,   *
          *          K.A.NGUYEN, S.J.SU, T.L.WINDUS,           *
          *       TOGETHER WITH M.DUPUIS, J.A.MONTGOMERY       *
          *         J.COMPUT.CHEM.  14, 1347-1363(1993)        *
          **************** 64 BIT LINUX VERSION ****************

  SINCE 1993, STUDENTS AND POSTDOCS WORKING AT IOWA STATE UNIVERSITY
  AND ALSO IN THEIR VARIOUS JOBS AFTER LEAVING ISU HAVE MADE IMPORTANT
  CONTRIBUTIONS TO THE CODE:
     IVANA ADAMOVIC, CHRISTINE AIKENS, YURI ALEXEEV, POOJA ARORA,
     ANDREY ASADCHEV, ROB BELL, PRADIPTA BANDYOPADHYAY, JONATHAN BENTZ,
     BRETT BODE, KURT BRORSEN, CALEB CARLIN, GALINA CHABAN, WEI CHEN,
     CHEOL HO CHOI, PAUL DAY, ALBERT DEFUSCO, NUWAN DESILVA, TIM DUDLEY,
     DMITRI FEDOROV, GRAHAM FLETCHER, MARK FREITAG, KURT GLAESEMANN,
     DAN KEMP, GRANT MERRILL, NORIYUKI MINEZAWA, JONATHAN MULLIN,
     TAKESHI NAGATA, SEAN NEDD, HEATHER NETZLOFF, BOSILJKA NJEGIC, RYAN OLSON,
     MIKE PAK, SPENCER PRUITT, LUKE ROSKOP, JIM SHOEMAKER, LYUDMILA SLIPCHENKO,
     TONY SMITH, SAROM SOK LEANG, JIE SONG, TETSUYA TAKETSUGU, SIMON WEBB,
     PENG XU, SOOHAENG YOO, FEDERICO ZAHARIEV

  ADDITIONAL CODE HAS BEEN PROVIDED BY COLLABORATORS IN OTHER GROUPS:
     IOWA STATE UNIVERSITY:
          JOE IVANIC, AARON WEST, LAIMUTIS BYTAUTAS, KLAUS RUEDENBERG
     UNIVERSITY OF TOKYO: KIMIHIKO HIRAO, TAKAHITO NAKAJIMA,
          TAKAO TSUNEDA, MUNEAKI KAMIYA, SUSUMU YANAGISAWA,
          KIYOSHI YAGI, MAHITO CHIBA, SEIKEN TOKURA, NAOAKI KAWAKAMI
     UNIVERSITY OF AARHUS: FRANK JENSEN
     UNIVERSITY OF IOWA: VISVALDAS KAIRYS, HUI LI
     NATIONAL INST. OF STANDARDS AND TECHNOLOGY: WALT STEVENS, DAVID GARMER
     UNIVERSITY OF PISA: BENEDETTA MENNUCCI, JACOPO TOMASI
     UNIVERSITY OF MEMPHIS: HENRY KURTZ, PRAKASHAN KORAMBATH
     UNIVERSITY OF ALBERTA: TOBY ZENG, MARIUSZ KLOBUKOWSKI
     UNIVERSITY OF NEW ENGLAND: MARK SPACKMAN
     MIE UNIVERSITY: HIROAKI UMEDA
     NAT. INST. OF ADVANCED INDUSTRIAL SCIENCE AND TECHNOLOGY: KAZUO KITAURA
     MICHIGAN STATE UNIVERSITY:
          KAROL KOWALSKI, MARTA WLOCH, JEFFREY GOUR, JESSE LUTZ,
          WEI LI, PIOTR PIECUCH
     UNIVERSITY OF SILESIA: MONIKA MUSIAL, STANISLAW KUCHARSKI
     FACULTES UNIVERSITAIRES NOTRE-DAME DE LA PAIX:
          OLIVIER QUINET, BENOIT CHAMPAGNE
     UNIVERSITY OF CALIFORNIA - SANTA BARBARA: BERNARD KIRTMAN
     INSTITUTE FOR MOLECULAR SCIENCE:
          KAZUYA ISHIMURA, MICHIO KATOUDA, AND SHIGERU NAGASE
     UNIVERSITY OF NOTRE DAME: ANNA POMOGAEVA, DAN CHIPMAN
     KYUSHU UNIVERSITY:
          HARUYUKI NAKANO,
          FENG LONG GU, JACEK KORCHOWIEC, MARCIN MAKOWSKI, AND YURIKO AOKI,
          HIROTOSHI MORI AND EISAKU MIYOSHI
     PENNSYLVANIA STATE UNIVERSITY:
          TZVETELIN IORDANOV, CHET SWALINA, JONATHAN SKONE,
          SHARON HAMMES-SCHIFFER
     WASEDA UNIVERSITY:
          MASATO KOBAYASHI, TOMOKO AKAMA, TSUGUKI TOUMA,
          TAKESHI YOSHIKAWA, YASUHIRO IKABATA, JUNJI SEINO,
          YUYA NAKAJIMA, HIROMI NAKAI
     NANJING UNIVERSITY: SHUHUA LI
     UNIVERSITY OF NEBRASKA:
          PEIFENG SU, DEJUN SI, NANDUN THELLAMUREGE, YALI WANG, HUI LI
     UNIVERSITY OF ZURICH: ROBERTO PEVERATI, KIM BALDRIDGE
     N. COPERNICUS UNIVERSITY AND JACKSON STATE UNIVERSITY:
          MARIA BARYSZ
     UNIVERSITY OF COPENHAGEN: Jimmy Kromann, CASPER STEINMANN
     TOKYO INSTITUTE OF TECHNOLOGY: HIROYA NAKATA
     NAGOYA UNIVERSITY: YOSHIO NISHIMOTO, STEPHAN IRLE
     MOSCOW STATE UNIVERSITY: VLADIMIR MIRONOV

 EXECUTION OF GAMESS BEGUN Fri Jun  2 05:12:57 2017

            ECHO OF THE FIRST FEW INPUT CARDS -
 INPUT CARD>!   Carbon monoxide in water...excited states by TD-DFT                         
 INPUT CARD>!                                                                               
 INPUT CARD>!   STATE        ENERGY     EXCITATION  TRANSITION DIPOLE, A.U.  OSCILLATOR     
 INPUT CARD>!               HARTREE          EV         X       Y       Z     STRENGTH      
 INPUT CARD>!   0  A    -113.2695486560     .000                                            
 INPUT CARD>!   1  A    -112.9956669508    7.453      .0000   .4878   .0000     .043        
 INPUT CARD>!   2  A    -112.9956669013    7.453     -.4878   .0000   .0000     .043        
 INPUT CARD>!                                                                               
 INPUT CARD>!   note, gas phase results are E(sigma)= -113.2783086306,                      
 INPUT CARD>!   E(pi)=-113.0031433234, del-E=7.488 eV, mu(x/y)=-0.4611                      
 INPUT CARD>!                                                                               
 INPUT CARD>!   the solvent run is asked to compute cavitation energies, 3rd set is         
 INPUT CARD>!   CLAVERIE-PIEROTTI (SPHERE BY SPHERE, SURFACE):    5.95417  KCAL/MOL         
 INPUT CARD>!   CAVITATION ENERGY (ENTHALPY) =    0.57882 KCAL/MOL                          
 INPUT CARD>!                                                                               
 INPUT CARD>!   this run requires 5 seconds on 2.66 GHz Cloverton (10 Dec 2008)             
 INPUT CARD>!   results unchanged since 2008                                                
 INPUT CARD>!                                                                               
 INPUT CARD> $contrl scftyp=rhf dfttyp=blyp runtyp=energy TDDFT=excite ispher=1 $end        
 INPUT CARD> $system mwords=1 $end                                                          
 INPUT CARD> $scf    dirscf=.t. soscf=.t. $end                                              
 INPUT CARD> $tddft  nstate=2  $end                                                         
 INPUT CARD> $pcm    solvnt=water ief=-10 icomp=2 icav=1  $end                              
 INPUT CARD> $basis  gbasis=n31 ngauss=6 ndfunc=1 $end                                      
 INPUT CARD> $data                                                                          
 INPUT CARD>CO in water                                                                     
 INPUT CARD>C1                                                                              
 INPUT CARD>C  6.   0.0   0.0   0.0                                                         
 INPUT CARD>O  8.   0.0   0.0   1.236                                                       
 INPUT CARD> $end                                                                           
    1000000 WORDS OF MEMORY AVAILABLE

     BASIS OPTIONS
     -------------
     GBASIS=N31          IGAUSS=       6      POLAR=POPN31  
     NDFUNC=       1     NFFUNC=       0     DIFFSP=       F
     NPFUNC=       0      DIFFS=       F     BASNAM=        


     RUN TITLE
     ---------
 CO in water                                                                     

 THE POINT GROUP OF THE MOLECULE IS C1      
 THE ORDER OF THE PRINCIPAL AXIS IS     0

 ATOM      ATOMIC                      COORDINATES (BOHR)
           CHARGE         X                   Y                   Z
 C           6.0     0.0000000000        0.0000000000        0.0000000000
 O           8.0     0.0000000000        0.0000000000        2.3357013208

          INTERNUCLEAR DISTANCES (ANGS.)
          ------------------------------

                1 C          2 O     

   1 C       0.0000000    1.2360000 *
   2 O       1.2360000 *  0.0000000  

  * ... LESS THAN  3.000


     ATOMIC BASIS SET
     ----------------
 THE CONTRACTED PRIMITIVE FUNCTIONS HAVE BEEN UNNORMALIZED
 THE CONTRACTED BASIS FUNCTIONS ARE NOW NORMALIZED TO UNITY

  SHELL TYPE  PRIMITIVE        EXPONENT          CONTRACTION COEFFICIENT(S)

 C         

      1   S       1          3047.5248800    0.001834737132
      1   S       2           457.3695180    0.014037322813
      1   S       3           103.9486850    0.068842622264
      1   S       4            29.2101553    0.232184443216
      1   S       5             9.2866630    0.467941348435
      1   S       6             3.1639270    0.362311985337

      2   L       7             7.8682723   -0.119332419775    0.068999066591
      2   L       8             1.8812885   -0.160854151696    0.316423960957
      2   L       9             0.5442493    1.143456437840    0.744308290898

      3   L      10             0.1687145    1.000000000000    1.000000000000

      4   D      11             0.8000000    1.000000000000

 O         

      5   S      12          5484.6716600    0.001831074430
      5   S      13           825.2349460    0.013950172200
      5   S      14           188.0469580    0.068445078098
      5   S      15            52.9645000    0.232714335992
      5   S      16            16.8975704    0.470192897984
      5   S      17             5.7996353    0.358520852987

      6   L      18            15.5396162   -0.110777549525    0.070874268231
      6   L      19             3.5999336   -0.148026262701    0.339752839147
      6   L      20             1.0137618    1.130767015354    0.727158577316

      7   L      21             0.2700058    1.000000000000    1.000000000000

      8   D      22             0.8000000    1.000000000000

 TOTAL NUMBER OF BASIS SET SHELLS             =    8
 NUMBER OF CARTESIAN GAUSSIAN BASIS FUNCTIONS =   30
 NOTE: THIS RUN WILL RESTRICT THE MO VARIATION SPACE TO SPHERICAL HARMONICS.
 THE NUMBER OF ORBITALS KEPT IN THE VARIATIONAL SPACE WILL BE PRINTED LATER.
 NUMBER OF ELECTRONS                          =   14
 CHARGE OF MOLECULE                           =    0
 SPIN MULTIPLICITY                            =    1
 NUMBER OF OCCUPIED ORBITALS (ALPHA)          =    7
 NUMBER OF OCCUPIED ORBITALS (BETA )          =    7
 TOTAL NUMBER OF ATOMS                        =    2
 THE NUCLEAR REPULSION ENERGY IS       20.5505727860

 THIS MOLECULE IS RECOGNIZED AS BEING LINEAR,
 ORBITAL LZ DEGENERACY TOLERANCE ETOLLZ= 1.00E-06

     LEBEDEV GRID-BASED DFT OPTIONS
     ------------------------------
     DFTTYP=BLYP    
     NRAD  =      96     NLEB  =     302
     NRAD0 =      24     NLEB0 =     110
     SWOFF =    5.00E-03 (PURE SCF -> DFT)
     SWITCH=    3.00E-04 (COARSE -> TIGHT GRID)
     THRESH=    0.00E+00 GTHRE=    1.00E+00

 GRIMME'S EMPIRICAL DISPERSION CORRECTION= F

     $CONTRL OPTIONS
     ---------------
 SCFTYP=RHF          RUNTYP=ENERGY       EXETYP=RUN     
 MPLEVL=       0     CITYP =NONE         CCTYP =NONE         VBTYP =NONE    
 DFTTYP=BLYP         TDDFT =EXCITE  
 MULT  =       1     ICHARG=       0     NZVAR =       0     COORD =UNIQUE  
 PP    =NONE         RELWFN=NONE         LOCAL =NONE         NUMGRD=       F
 ISPHER=       1     NOSYM =       0     MAXIT =      30     UNITS =ANGS    
 PLTORB=       F     MOLPLT=       F     AIMPAC=       F     FRIEND=        
 NPRINT=       7     IREST =       0     GEOM  =INPUT   
 NORMF =       0     NORMP =       0     ITOL  =      20     ICUT  =       9
 INTTYP=BEST         GRDTYP=BEST         QMTTOL= 1.0E-06

     $SYSTEM OPTIONS
     ---------------
  REPLICATED MEMORY=     1000000 WORDS (ON EVERY NODE).
 DISTRIBUTED MEMDDI=           0 MILLION WORDS IN AGGREGATE,
 MEMDDI DISTRIBUTED OVER   1 PROCESSORS IS           0 WORDS/PROCESSOR.
 TOTAL MEMORY REQUESTED ON EACH PROCESSOR=     1000000 WORDS.
 TIMLIM=      525600.00 MINUTES, OR     365.0 DAYS.
 PARALL= F  BALTYP=  DLB     KDIAG=    0  COREFL= F
 MXSEQ2=     300 MXSEQ3=     150  mem10=         0

 ** LOOKING UP INTERNALLY STORED DATA FOR SOLVENT=WATER    **
 OPTICAL AND PHYSICAL CONSTANTS:
 EPS= 78.390; EPSINF=  1.776; RSOLV=  1.385 A; VMOL=  18.070 ML/MOL;
 TCE= .25700E-03 1/K; STEN= 71.810 DYN/CM;  DSTEN=  0.6500; CMF=  1.2770


     -----------------------------------
     INPUT FOR PCM SOLVATION CALCULATION 
     -----------------------------------
     IEF   =     -10
     ICOMP =       2     IFIELD=       0     ICAV  =       1
     IDISP =       0     IREP  =       0     IDP   =       0

     SOLVNT=WATER        EPS   = 78.3900     EPSINF=  1.7760
     VMOL  = 18.0700     TCE   =  0.00025700 STEN  = 71.8100
     DSTEN =  0.6500     CMF   =  1.2770     RSOLV =  1.3850

     NESFP =       0
     OMEGA = 40.0000     RET   =100.0000     FRO   =  0.7000

     TABS  =298.0000     IPRINT=       0

     --------------------------------
     INPUT FOR ITERATIVE C-PCM METHOD 
     --------------------------------
     IPCMIT  =         1     MXDIIS  =        50
     MXITR1  =        50     MXITR2  =        50
     THRES   = 0.100E-09     IMUL    =         3
     RCUT(1) =   15.0000     RCUT(2) =   30.0000

     IDIRCT  =         1
     IMGABI  =         0     RABI    =    4.0000
     IMGASC  =         0     RASC    =   20.0000
     THRSLS  = 0.500E-03     DENSLS  =    0.0100
     IEFPOL  =         1     REFPOL  =    0.0000

     INPUT FOR ISOTROPIC DIELECTRICS
     -------------------------------
     EPS=    78.39

     INPUT FOR CAVITY DEFINITION 
     ---------------------------
   ATOM               COORDINATES                RADIUS       EPS
      1      0.0000      0.0000      0.0000      1.7000     78.3900
      2      0.0000      0.0000      1.2360      1.5000     78.3900

     ----------------------------
     INPUT FOR TESSERA DEFINITION
     ----------------------------
     NTSALL  =        60     MTHALL  =         4
     MTHAUT  =         0     AUTFRE  =    2.0000
     NTSFRZ  =        60     KEEPSM  =         0
     AREAKP  =   10.0000     BONDRY  =    1.0000
     AREATL  =    0.0100

     SPHERE     INITS       METHOD
          1        60       FIXPVA
          2        60       FIXPVA

     ------------------------------
      FIXPVA TESSELLATION FOR PCM
         PEIFENG SU AND HUI LI
     UNIVERSITY OF NEBRASKA-LINCOLN
     ------------------------------


 PCM DIMENSIONS: MXSP=  2000, MXTS=       120, MEMORY=         24643

          ----------------
          PROPERTIES INPUT
          ----------------

     MOMENTS            FIELD           POTENTIAL          DENSITY
 IEMOM =       1   IEFLD =       0   IEPOT =       0   IEDEN =       0
 WHERE =COMASS     WHERE =NUCLEI     WHERE =NUCLEI     WHERE =NUCLEI  
 OUTPUT=BOTH       OUTPUT=BOTH       OUTPUT=BOTH       OUTPUT=BOTH    
 IEMINT=       0   IEFINT=       0                     IEDINT=       0
                                                       MORB  =       0
          EXTRAPOLATION IN EFFECT
          SOSCF IN EFFECT
 ORBITAL PRINTING OPTION: NPREO=     1    30     2     1

     -------------------------------
     INTEGRAL TRANSFORMATION OPTIONS
     -------------------------------
     NWORD  =            0
     CUTOFF = 1.0E-09     MPTRAN =       0
     DIRTRF =       T     AOINTS =DUP     

          ----------------------
          INTEGRAL INPUT OPTIONS
          ----------------------
 NOPK  =       1 NORDER=       0 SCHWRZ=       T

          ----------------------
          TDDFT INPUT PARAMETERS
          ----------------------
 NSTATE=       2  IROOT=       1   MULT=       1
 MAXVEC=      50 NTRIAL=       5 CNVTOL=  1.00E-07
 TDPRP =       F  TAMMD=       F    TPA=       F
 ALPHA =       F   BETA=       F  PFREQ=    0.00    0.00
   NRAD=      48   NLEB=     110

     ------------------------------------------
     THE POINT GROUP IS C1 , NAXIS= 1, ORDER= 1
     ------------------------------------------

 -- VARIATIONAL SPACE WILL BE RESTRICTED TO PURE SPHERICAL HARMONICS ONLY --
 AFTER EXCLUDING CONTAMINANT COMBINATIONS FROM THE CARTESIAN GAUSSIAN BASIS
 SET, THE NUMBER OF SPHERICAL HARMONICS KEPT IN THE VARIATION SPACE IS   28

     DIMENSIONS OF THE SYMMETRY SUBSPACES ARE
 A   =   28

 ..... DONE SETTING UP THE RUN .....
 STEP CPU TIME =     0.03 TOTAL CPU TIME =        0.0 (    0.0 MIN)
 TOTAL WALL CLOCK TIME=        0.0 SECONDS, CPU UTILIZATION IS 100.00%

          ********************
          1 ELECTRON INTEGRALS
          ********************
 ...... END OF ONE-ELECTRON INTEGRALS ......
 STEP CPU TIME =     0.00 TOTAL CPU TIME =        0.0 (    0.0 MIN)
 TOTAL WALL CLOCK TIME=        0.0 SECONDS, CPU UTILIZATION IS 100.00%

          -------------
          GUESS OPTIONS
          -------------
          GUESS =HUCKEL            NORB  =       0          NORDER=       0
          MIX   =       F          PRTMO =       F          PUNMO =       F
          TOLZ  = 1.0E-08          TOLE  = 1.0E-05
          SYMDEN=       F          PURIFY=       F

 INITIAL GUESS ORBITALS GENERATED BY HUCKEL   ROUTINE.
 HUCKEL GUESS REQUIRES      8706 WORDS.

 STATISTICS FOR GENERATION OF SYMMETRY ORBITAL -Q- MATRIX
 NUMBER OF CARTESIAN ATOMIC ORBITALS=         30
 NUMBER OF SPHERICAL CONTAMINANTS DROPPED=     2
 NUMBER OF LINEARLY DEPENDENT MOS DROPPED=     0
 TOTAL NUMBER OF MOS IN VARIATION SPACE=      28

 SYMMETRIES FOR INITIAL GUESS ORBITALS FOLLOW.   BOTH SET(S).
     7 ORBITALS ARE OCCUPIED (    2 CORE ORBITALS).
     3=A        4=A        5=A        6=A        7=A        8=A        9=A   
    10=A       11=A       12=A       13=A       14=A       15=A       16=A   
    17=A   
 ...... END OF INITIAL ORBITAL SELECTION ......
 STEP CPU TIME =     0.00 TOTAL CPU TIME =        0.0 (    0.0 MIN)
 TOTAL WALL CLOCK TIME=        0.0 SECONDS, CPU UTILIZATION IS 100.00%

                    ----------------------
                    AO INTEGRAL TECHNOLOGY
                    ----------------------
     S,P,L SHELL ROTATED AXIS INTEGRALS, REPROGRAMMED BY
        KAZUYA ISHIMURA (IMS) AND JOSE SIERRA (SYNSTAR).
     S,P,D,L SHELL ROTATED AXIS INTEGRALS PROGRAMMED BY
        KAZUYA ISHIMURA (INSTITUTE FOR MOLECULAR SCIENCE).
     S,P,D,F,G SHELL TO TOTAL QUARTET ANGULAR MOMENTUM SUM 5,
        ERIC PROGRAM BY GRAHAM FLETCHER (ELORET AND NASA ADVANCED
        SUPERCOMPUTING DIVISION, AMES RESEARCH CENTER).
     S,P,D,F,G,L SHELL GENERAL RYS QUADRATURE PROGRAMMED BY
        MICHEL DUPUIS (PACIFIC NORTHWEST NATIONAL LABORATORY).

          --------------------
          2 ELECTRON INTEGRALS
          --------------------

 DIRECT SCF METHOD SKIPS INTEGRAL STORAGE ON DISK.
 DIRECT TRANSFORMATION SKIPS AO INTEGRAL STORAGE ON DISK.
  ...... END OF TWO-ELECTRON INTEGRALS .....
 STEP CPU TIME =     0.01 TOTAL CPU TIME =        0.0 (    0.0 MIN)
 TOTAL WALL CLOCK TIME=        0.0 SECONDS, CPU UTILIZATION IS 100.00%
  
 DONE CAVITATION ENERGY
 STEP CPU TIME =     0.00 TOTAL CPU TIME =        0.0 (    0.0 MIN)
 TOTAL WALL CLOCK TIME=        0.0 SECONDS, CPU UTILIZATION IS 100.00%

          -------------------------------------
          ---- POLARISABLE CONTINUUM MODEL ----
          ----      UNIVERSITY OF PISA     ----
          -------------------------------------

     ----------------------------
     INPUT FOR TESSERA DEFINITION
     ----------------------------
     NTSALL  =        60     MTHALL  =         4
     MTHAUT  =         0     AUTFRE  =    2.0000
     NTSFRZ  =        60     KEEPSM  =         0
     AREAKP  =   10.0000     BONDRY  =    1.0000
     AREATL  =    0.0100

     SPHERE     INITS       METHOD
          1        60       FIXPVA
          2        60       FIXPVA

     ------------------------------
      FIXPVA TESSELLATION FOR PCM
         PEIFENG SU AND HUI LI
     UNIVERSITY OF NEBRASKA-LINCOLN
     ------------------------------


     INPUT FOR CAVITY DEFINITION 
     ---------------------------
   ATOM               COORDINATES                RADIUS       EPS
      1      0.0000      0.0000      0.0000      1.7000     78.3900
      2      0.0000      0.0000      1.2360      1.5000     78.3900

 MEMORY USED TO GENERATE CAVITY=    168202


 TOTAL NUMBER OF SPHERES=     2
 SPHERE           CENTER  (X,Y,Z) (A)               RADIUS (A)      AREA(A*A)
     1   0.000000000   0.000000000   0.000000000   2.040000000  34.864138632
     2   0.000000000   0.000000000   1.236000000   1.800000000  20.357520395

 TOTAL NUMBER OF TESSERAE=      70
 SURFACE AREA=    55.22165903(A**2)    CAVITY VOLUME=     40.15167144 (A**3)
 STEP CPU TIME =     0.00 TOTAL CPU TIME =        0.0 (    0.0 MIN)
 TOTAL WALL CLOCK TIME=        0.0 SECONDS, CPU UTILIZATION IS 100.00%

          THE SOLUTE IS ENCLOSED IN ONE CAVITY
 DONE CHECKING SEPARATION.
 STEP CPU TIME =     0.00 TOTAL CPU TIME =        0.0 (    0.0 MIN)
 TOTAL WALL CLOCK TIME=        0.0 SECONDS, CPU UTILIZATION IS 100.00%

 ..... DONE GENERATING CAVITY .....
 STEP CPU TIME =     0.00 TOTAL CPU TIME =        0.0 (    0.0 MIN)
 TOTAL WALL CLOCK TIME=        0.0 SECONDS, CPU UTILIZATION IS 100.00%
 NUCLEI-NUCLEAR CHARGE POLARIZATION ADJUSTMENT TO VNN=        0.0000000000

          --------------------------
              R-BLYP SCF CALCULATION
          --------------------------

     NUCLEAR ENERGY =        20.5505727860
     MAXIT =   30     NPUNCH=    2
     EXTRAP=T  DAMP=F  SHIFT=F  RSTRCT=F  DIIS=F  DEM=F  SOSCF=T
         DENSITY MATRIX CONVERGENCE THRESHOLD=  2.00E-06
     COARSE -> FINE DFT GRID SWITCH THRESHOLD=  3.00E-04 (SWITCH IN $DFT)
                   HF -> DFT SWITCH THRESHOLD=  5.00E-03 (SWOFF IN $DFT)
     SOSCF WILL OPTIMIZE     147 ORBITAL ROTATIONS, SOGTOL=   0.250
     MEMORY REQUIRED FOR RHF ITERS=    216798 WORDS.

 DIRECT SCF CALCULATION, SCHWRZ=T   FDIFF=F,  DIRTHR=  0.00E+00 NITDIR=10
 SCHWARZ INEQUALITY OVERHEAD:       465 INTEGRALS, T=        0.00

     EXCHANGE FUNCTIONAL   =BECKE88   
     CORRELATION FUNCTIONAL=LYP88     
     DFT THRESHOLD         =.172E-07
     GRID CHANGE THRESHOLD =.300E-03
 FOR AN EULER-MACLAURIN QUADRATURE USING  96 RADIAL POINTS:
 SMALLEST GAUSSIAN PRIMITIVE EXPONENT=        0.1687144782 OF TYPE -P-
 ON ATOM NUMBER   1 HAS RADIAL NORMALIZATION=  1.000000
  LARGEST GAUSSIAN PRIMITIVE EXPONENT=     5484.6716600000 OF TYPE -S-
 ON ATOM NUMBER   2 HAS RADIAL NORMALIZATION=  1.000000
 DFT IS SWITCHED OFF, PERFORMING PURE SCF UNTIL SWOFF THRESHOLD IS REACHED.

                                                                                   NONZERO     BLOCKS
 ITER EX DEM     TOTAL ENERGY        E CHANGE  DENSITY CHANGE     ORB. GRAD      INTEGRALS    SKIPPED
   1  0  0     -112.3254788205  -112.3254788205   0.374707358   0.000000000          28696          1
          ---------------START SECOND ORDER SCF---------------
   2  1  0     -112.6424450215    -0.3169662010   0.201451296   0.101793909          28696          1
   3  2  0     -112.6664449428    -0.0239999213   0.086440201   0.069614718          28696          1
   4  3  0     -112.6978131534    -0.0313682107   0.007773575   0.008535623          28696          1
   5  4  0     -112.6981168767    -0.0003037233   0.005666795   0.002770942          28696          1
   6  5  0     -112.6981618651    -0.0000449884   0.001135050   0.000439928          28696          1
 CONVERGED TO SWOFF, SO DFT CALCULATION IS NOW SWITCHED ON.
          ---------------START SECOND ORDER SCF---------------
   7  6  0     -113.2509947328    -0.5528328677   0.052595427   0.059833389          28696          1
   8  7  0     -113.2672391379    -0.0162444051   0.073042072   0.013937334          28696          1
   9  8  0     -113.2693041961    -0.0020650583   0.012501735   0.006429988          28696          1
  10  9  0     -113.2695336928    -0.0002294967   0.003020392   0.001480921          28696          1
  11 10  0     -113.2695471240    -0.0000134312   0.000972597   0.000436772          28696          1
  12 11  0     -113.2695486145    -0.0000014906   0.000213035   0.000135158          28696          1
  13 12  0     -113.2695486529    -0.0000000384   0.000076460   0.000024734          28696          1
  14 13  0     -113.2695486558    -0.0000000029   0.000017808   0.000005385          28696          1
  15 14  0     -113.2695486559    -0.0000000001   0.000007634   0.000002374          28696          1
  16 15  0     -113.2695486560    -0.0000000000   0.000000756   0.000000212          28696          1
  17 16  0     -113.2695486560    -0.0000000000   0.000000159   0.000000057          28696          1

          -----------------
          DENSITY CONVERGED
          -----------------
     TIME TO FORM FOCK OPERATORS=       1.5 SECONDS (       0.1 SEC/ITER)
     FOCK TIME ON FIRST ITERATION=       0.0, LAST ITERATION=       0.1
     TIME TO SOLVE SCF EQUATIONS=       0.0 SECONDS (       0.0 SEC/ITER)

 FINAL R-BLYP ENERGY IS     -113.2695486560 AFTER  17 ITERATIONS
 DFT EXCHANGE + CORRELATION ENERGY =       -13.7969724740
 TOTAL ELECTRON NUMBER             =        14.0000004579
  
  PCM ASC=      0.0000000000 ( UNNORMALIZED=     -0.0017210377 )
   GCAVP  =      0.0094885696
   GDISP  =      0.0000000000
   GREP   =      0.0000000000

 LZ VALUE ANALYSIS FOR THE MOS
 ----------------------------------------
 MO     1 (    1) HAS LZ(WEIGHT)= 0.00(100.0%) 
 MO     2 (    2) HAS LZ(WEIGHT)= 0.00(100.0%) 
 MO     3 (    3) HAS LZ(WEIGHT)= 0.00(100.0%) 
 MO     4 (    4) HAS LZ(WEIGHT)= 0.00(100.0%) 
 MO     5 (    5) HAS LZ(WEIGHT)=-1.00( 50.0%)  1.00( 50.0%) 
 MO     6 (    5) HAS LZ(WEIGHT)=-1.00( 50.0%)  1.00( 50.0%) 
 MO     7 (    6) HAS LZ(WEIGHT)= 0.00(100.0%) 
 MO     8 (    7) HAS LZ(WEIGHT)=-1.00( 50.0%)  1.00( 50.0%) 
 MO     9 (    7) HAS LZ(WEIGHT)=-1.00( 50.0%)  1.00( 50.0%) 
 MO    10 (    8) HAS LZ(WEIGHT)= 0.00(100.0%) 
 MO    11 (    9) HAS LZ(WEIGHT)=-1.00( 50.0%)  1.00( 50.0%) 
 MO    12 (    9) HAS LZ(WEIGHT)=-1.00( 50.0%)  1.00( 50.0%) 
 MO    13 (   10) HAS LZ(WEIGHT)= 0.00(100.0%) 
 MO    14 (   11) HAS LZ(WEIGHT)= 0.00(100.0%) 
 MO    15 (   12) HAS LZ(WEIGHT)= 0.00(100.0%) 
 MO    16 (   13) HAS LZ(WEIGHT)=-1.00( 50.0%)  1.00( 50.0%) 
 MO    17 (   13) HAS LZ(WEIGHT)=-1.00( 50.0%)  1.00( 50.0%) 
 MO    18 (   14) HAS LZ(WEIGHT)=-1.00( 50.0%)  1.00( 50.0%) 
 MO    19 (   14) HAS LZ(WEIGHT)=-1.00( 50.0%)  1.00( 50.0%) 
 MO    20 (   15) HAS LZ(WEIGHT)= 0.00(100.0%) 
 MO    21 (   16) HAS LZ(WEIGHT)=-2.00( 50.0%)  2.00( 50.0%) 
 MO    22 (   16) HAS LZ(WEIGHT)=-2.00( 50.0%)  2.00( 50.0%) 
 MO    23 (   17) HAS LZ(WEIGHT)= 0.00(100.0%) 
 MO    24 (   18) HAS LZ(WEIGHT)= 0.00(100.0%) 
 MO    25 (   19) HAS LZ(WEIGHT)= 0.00(100.0%) 
 MO    26 (   20) HAS LZ(WEIGHT)=-1.00( 50.0%)  1.00( 50.0%) 
 MO    27 (   20) HAS LZ(WEIGHT)=-1.00( 50.0%)  1.00( 50.0%) 
 MO    28 (   21) HAS LZ(WEIGHT)= 0.00(100.0%) 

          ------------
          EIGENVECTORS
          ------------

                      1          2          3          4          5
                  -18.8969   -10.0554    -1.0007    -0.4982    -0.3802
                     A          A          A          A          A   
    1  C  1  S    0.000240   0.994902  -0.101878   0.149113   0.000000
    2  C  1  S   -0.000040   0.034502   0.201423  -0.327846   0.000000
    3  C  1  X    0.000000  -0.000000   0.000000  -0.000000   0.000043
    4  C  1  Y    0.000000  -0.000000   0.000000  -0.000000   0.314406
    5  C  1  Z    0.000066   0.005143   0.194255  -0.094768   0.000000
    6  C  1  S    0.007905  -0.006579   0.055019  -0.278096   0.000000
    7  C  1  X    0.000000  -0.000000   0.000000  -0.000000   0.000020
    8  C  1  Y    0.000000  -0.000000   0.000000  -0.000000   0.146614
    9  C  1  Z    0.005207   0.001694  -0.011139   0.020844   0.000000
   10  C  1 XX    0.000410  -0.001166  -0.015748   0.001819   0.000000
   11  C  1 YY    0.000410  -0.001166  -0.015748   0.001819   0.000000
   12  C  1 ZZ   -0.000819   0.002331   0.031495  -0.003638   0.000000
   13  C  1 XY    0.000000  -0.000000   0.000000  -0.000000   0.000000
   14  C  1 XZ    0.000000  -0.000000   0.000000  -0.000000   0.000005
   15  C  1 YZ    0.000000  -0.000000   0.000000  -0.000000   0.033215
   16  O  2  S    0.994970   0.000099  -0.201928  -0.113601   0.000000
   17  O  2  S    0.029928   0.000392   0.456466   0.265653   0.000000
   18  O  2  X    0.000000  -0.000000   0.000000  -0.000000   0.000077
   19  O  2  Y    0.000000  -0.000000   0.000000  -0.000000   0.567144
   20  O  2  Z   -0.001997   0.001473  -0.161772   0.439206   0.000000
   21  O  2  S   -0.017932  -0.006248   0.390328   0.394094   0.000000
   22  O  2  X    0.000000  -0.000000   0.000000  -0.000000   0.000047
   23  O  2  Y    0.000000  -0.000000   0.000000  -0.000000   0.346536
   24  O  2  Z    0.005227   0.005872  -0.046023   0.217635   0.000000
   25  O  2 XX    0.000148   0.001439  -0.004352   0.010295   0.000000
   26  O  2 YY    0.000148   0.001439  -0.004352   0.010295   0.000000
   27  O  2 ZZ   -0.000296  -0.002878   0.008704  -0.020589   0.000000
   28  O  2 XY    0.000000  -0.000000   0.000000  -0.000000   0.000000
   29  O  2 XZ    0.000000  -0.000000   0.000000  -0.000000  -0.000004
   30  O  2 YZ    0.000000  -0.000000   0.000000  -0.000000  -0.029480

                      6          7          8          9         10
                   -0.3802    -0.3184    -0.0843    -0.0843     0.2188
                     A          A          A          A          A   
    1  C  1  S    0.000000  -0.135994  -0.000000   0.000000   0.060597
    2  C  1  S    0.000000   0.245423  -0.000000   0.000000   0.004111
    3  C  1  X    0.314406  -0.000000   0.000017   0.590957  -0.000000
    4  C  1  Y   -0.000043  -0.000000   0.590957  -0.000017  -0.000000
    5  C  1  Z    0.000000  -0.437025  -0.000000   0.000000  -0.276498
    6  C  1  S    0.000000   0.573617  -0.000000   0.000000  -1.631914
    7  C  1  X    0.146614  -0.000000   0.000014   0.510278  -0.000000
    8  C  1  Y   -0.000020  -0.000000   0.510278  -0.000014  -0.000000
    9  C  1  Z    0.000000  -0.138705  -0.000000   0.000000  -1.662768
   10  C  1 XX    0.000000   0.015580  -0.000000   0.000000  -0.006839
   11  C  1 YY    0.000000   0.015580  -0.000000   0.000000  -0.006839
   12  C  1 ZZ    0.000000  -0.031159  -0.000000   0.000000   0.013677
   13  C  1 XY    0.000000  -0.000000  -0.000000   0.000000  -0.000000
   14  C  1 XZ    0.033215  -0.000000  -0.000000  -0.008893  -0.000000
   15  C  1 YZ   -0.000005  -0.000000  -0.008893   0.000000  -0.000000
   16  O  2  S    0.000000   0.000646  -0.000000   0.000000  -0.102558
   17  O  2  S    0.000000  -0.019317  -0.000000   0.000000   0.213819
   18  O  2  X    0.567144  -0.000000  -0.000012  -0.413735  -0.000000
   19  O  2  Y   -0.000077  -0.000000  -0.413735   0.000012  -0.000000
   20  O  2  Z    0.000000   0.341548  -0.000000   0.000000  -0.236030
   21  O  2  S    0.000000   0.021731  -0.000000   0.000000   1.721105
   22  O  2  X    0.346536  -0.000000  -0.000010  -0.373582  -0.000000
   23  O  2  Y   -0.000047  -0.000000  -0.373582   0.000010  -0.000000
   24  O  2  Z    0.000000   0.193064  -0.000000   0.000000  -0.860668
   25  O  2 XX    0.000000   0.002382  -0.000000   0.000000  -0.018387
   26  O  2 YY    0.000000   0.002382  -0.000000   0.000000  -0.018387
   27  O  2 ZZ    0.000000  -0.004763  -0.000000   0.000000   0.036774
   28  O  2 XY    0.000000  -0.000000  -0.000000   0.000000  -0.000000
   29  O  2 XZ   -0.029480  -0.000000  -0.000000  -0.009690  -0.000000
   30  O  2 YZ    0.000004  -0.000000  -0.009690   0.000000  -0.000000

                     11         12         13         14         15
                    0.4795     0.4795     0.5424     0.5702     0.7968
                     A          A          A          A          A   
    1  C  1  S    0.000000   0.000000   0.035038   0.084282   0.029183
    2  C  1  S    0.000000   0.000000  -0.852526  -1.303690   0.586494
    3  C  1  X   -0.000007  -0.993223   0.000000  -0.000000   0.000000
    4  C  1  Y   -0.993223   0.000007   0.000000  -0.000000   0.000000
    5  C  1  Z    0.000000   0.000000   0.942954  -0.538471   0.178003
    6  C  1  S    0.000000   0.000000   1.043512   1.478797   0.274831
    7  C  1  X    0.000009   1.181431   0.000000  -0.000000   0.000000
    8  C  1  Y    1.181431  -0.000009   0.000000  -0.000000   0.000000
    9  C  1  Z    0.000000   0.000000  -0.775790   0.670457   0.172735
   10  C  1 XX    0.000000   0.000000   0.019689  -0.056951  -0.086664
   11  C  1 YY    0.000000   0.000000   0.019689  -0.056951  -0.086664
   12  C  1 ZZ    0.000000   0.000000  -0.039378   0.113902   0.173328
   13  C  1 XY    0.000000   0.000000   0.000000  -0.000000   0.000000
   14  C  1 XZ   -0.000000  -0.031175   0.000000  -0.000000   0.000000
   15  C  1 YZ   -0.031175   0.000000   0.000000  -0.000000   0.000000
   16  O  2  S    0.000000   0.000000   0.031292  -0.015005   0.060030
   17  O  2  S    0.000000   0.000000  -0.168092   0.062685  -0.335404
   18  O  2  X   -0.000001  -0.092638   0.000000  -0.000000   0.000000
   19  O  2  Y   -0.092638   0.000001   0.000000  -0.000000   0.000000
   20  O  2  Z    0.000000   0.000000   0.127814  -0.465080  -0.753208
   21  O  2  S    0.000000   0.000000   0.064904  -0.559690  -0.207221
   22  O  2  X   -0.000001  -0.095592   0.000000  -0.000000   0.000000
   23  O  2  Y   -0.095592   0.000001   0.000000  -0.000000   0.000000
   24  O  2  Z    0.000000   0.000000   0.269847   0.115884   1.437146
   25  O  2 XX    0.000000   0.000000  -0.021277   0.087829  -0.001971
   26  O  2 YY    0.000000   0.000000  -0.021277   0.087829  -0.001971
   27  O  2 ZZ    0.000000   0.000000   0.042553  -0.175657   0.003942
   28  O  2 XY    0.000000   0.000000   0.000000  -0.000000   0.000000
   29  O  2 XZ    0.000000   0.065360   0.000000  -0.000000   0.000000
   30  O  2 YZ    0.065360  -0.000000   0.000000  -0.000000   0.000000

                     16         17         18         19         20
                    0.8574     0.8574     1.4259     1.4259     1.4321
                     A          A          A          A          A   
    1  C  1  S    0.000000  -0.000000   0.000000  -0.000000  -0.012012
    2  C  1  S    0.000000  -0.000000   0.000000  -0.000000   0.096251
    3  C  1  X    0.000003   0.081431  -0.000077  -0.224886   0.000000
    4  C  1  Y    0.081431  -0.000003  -0.224886   0.000077   0.000000
    5  C  1  Z    0.000000  -0.000000   0.000000  -0.000000  -0.166557
    6  C  1  S    0.000000  -0.000000   0.000000  -0.000000  -2.216918
    7  C  1  X   -0.000020  -0.519294   0.000040   0.116101   0.000000
    8  C  1  Y   -0.519294   0.000020   0.116101  -0.000040   0.000000
    9  C  1  Z    0.000000  -0.000000   0.000000  -0.000000  -1.465661
   10  C  1 XX    0.000000  -0.000000   0.000000  -0.000000   0.096517
   11  C  1 YY    0.000000  -0.000000   0.000000  -0.000000   0.096517
   12  C  1 ZZ    0.000000  -0.000000   0.000000  -0.000000  -0.193034
   13  C  1 XY    0.000000  -0.000000   0.000000  -0.000000   0.000000
   14  C  1 XZ   -0.000000  -0.010999   0.000217   0.634025   0.000000
   15  C  1 YZ   -0.010999   0.000000   0.634025  -0.000217   0.000000
   16  O  2  S    0.000000  -0.000000   0.000000  -0.000000   0.039677
   17  O  2  S    0.000000  -0.000000   0.000000  -0.000000  -1.675107
   18  O  2  X   -0.000036  -0.926858  -0.000035  -0.103134   0.000000
   19  O  2  Y   -0.926858   0.000036  -0.103134   0.000035   0.000000
   20  O  2  Z    0.000000  -0.000000   0.000000  -0.000000   0.167865
   21  O  2  S    0.000000  -0.000000   0.000000  -0.000000   3.693541
   22  O  2  X    0.000049   1.259447  -0.000038  -0.111807   0.000000
   23  O  2  Y    1.259447  -0.000049  -0.111807   0.000038   0.000000
   24  O  2  Z    0.000000  -0.000000   0.000000  -0.000000  -1.367154
   25  O  2 XX    0.000000  -0.000000   0.000000  -0.000000   0.107464
   26  O  2 YY    0.000000  -0.000000   0.000000  -0.000000   0.107464
   27  O  2 ZZ    0.000000  -0.000000   0.000000  -0.000000  -0.214928
   28  O  2 XY    0.000000  -0.000000   0.000000  -0.000000   0.000000
   29  O  2 XZ    0.000001   0.030106  -0.000200  -0.586145   0.000000
   30  O  2 YZ    0.030106  -0.000001  -0.586145   0.000200   0.000000

                     21         22         23         24         25
                    1.4626     1.4626     1.8344     1.8344     2.1660
                     A          A          A          A          A   
    1  C  1  S   -0.000000  -0.000000  -0.000000   0.000000  -0.048660
    2  C  1  S   -0.000000   0.000000  -0.000000   0.000000  -0.272512
    3  C  1  X   -0.000000   0.000000  -0.000000  -0.000000   0.000000
    4  C  1  Y   -0.000000   0.000000  -0.000000  -0.000000   0.000000
    5  C  1  Z   -0.000000  -0.000000  -0.000000   0.000000  -0.007282
    6  C  1  S    0.000000  -0.000000  -0.000000  -0.000000   0.449672
    7  C  1  X   -0.000000   0.000000  -0.000000  -0.000000   0.000000
    8  C  1  Y   -0.000000   0.000000  -0.000000  -0.000000   0.000000
    9  C  1  Z    0.000000  -0.000000  -0.000000  -0.000000   0.433192
   10  C  1 XX   -0.000000  -0.640549   0.000000  -0.591068  -0.532510
   11  C  1 YY    0.000000   0.640549  -0.000000   0.591068  -0.532510
   12  C  1 ZZ   -0.000000  -0.000000  -0.000000   0.000000   1.065020
   13  C  1 XY    0.739640  -0.000000  -0.682509  -0.000000   0.000000
   14  C  1 XZ   -0.000000   0.000000  -0.000000  -0.000000   0.000000
   15  C  1 YZ   -0.000000   0.000000  -0.000000  -0.000000   0.000000
   16  O  2  S   -0.000000   0.000000  -0.000000   0.000000   0.040743
   17  O  2  S    0.000000  -0.000000  -0.000000  -0.000000  -0.499835
   18  O  2  X   -0.000000   0.000000  -0.000000  -0.000000   0.000000
   19  O  2  Y   -0.000000   0.000000  -0.000000  -0.000000   0.000000
   20  O  2  Z   -0.000000   0.000000  -0.000000   0.000000   0.569026
   21  O  2  S   -0.000000   0.000001  -0.000000   0.000000  -0.202204
   22  O  2  X   -0.000000   0.000000  -0.000000  -0.000000   0.000000
   23  O  2  Y   -0.000000   0.000000  -0.000000  -0.000000   0.000000
   24  O  2  Z    0.000000  -0.000000  -0.000000  -0.000000  -0.227495
   25  O  2 XX   -0.000000  -0.515046  -0.000000   0.703130  -0.102991
   26  O  2 YY    0.000000   0.515047   0.000000  -0.703130  -0.102991
   27  O  2 ZZ   -0.000000  -0.000000  -0.000000  -0.000000   0.205983
   28  O  2 XY    0.594727  -0.000000   0.811903   0.000000   0.000000
   29  O  2 XZ   -0.000000   0.000000  -0.000000  -0.000000   0.000000
   30  O  2 YZ   -0.000000   0.000000  -0.000000  -0.000000   0.000000

                     26         27         28
                    2.4268     2.4268     2.7519
                     A          A          A   
    1  C  1  S    0.000000  -0.000000  -0.022284
    2  C  1  S    0.000000  -0.000000  -1.231735
    3  C  1  X    0.000026   0.215918   0.000000
    4  C  1  Y    0.215918  -0.000026   0.000000
    5  C  1  Z    0.000000  -0.000000  -1.275044
    6  C  1  S    0.000000  -0.000000  -1.430431
    7  C  1  X    0.000035   0.288272   0.000000
    8  C  1  Y    0.288272  -0.000035   0.000000
    9  C  1  Z    0.000000  -0.000000  -0.857638
   10  C  1 XX    0.000000  -0.000000   0.397434
   11  C  1 YY    0.000000  -0.000000   0.397434
   12  C  1 ZZ    0.000000  -0.000000  -0.794869
   13  C  1 XY    0.000000  -0.000000   0.000000
   14  C  1 XZ    0.000120   0.976910   0.000000
   15  C  1 YZ    0.976910  -0.000120   0.000000
   16  O  2  S    0.000000  -0.000000  -0.060519
   17  O  2  S    0.000000  -0.000000  -0.686670
   18  O  2  X    0.000002   0.015462   0.000000
   19  O  2  Y    0.015462  -0.000002   0.000000
   20  O  2  Z    0.000000  -0.000000  -0.260671
   21  O  2  S    0.000000  -0.000000   2.912733
   22  O  2  X   -0.000058  -0.471629   0.000000
   23  O  2  Y   -0.471629   0.000058   0.000000
   24  O  2  Z    0.000000  -0.000000  -1.738443
   25  O  2 XX    0.000000  -0.000000  -0.715055
   26  O  2 YY    0.000000  -0.000000  -0.715055
   27  O  2 ZZ    0.000000  -0.000000   1.430110
   28  O  2 XY    0.000000  -0.000000   0.000000
   29  O  2 XZ    0.000122   0.993739   0.000000
   30  O  2 YZ    0.993739  -0.000122   0.000000
 ...... END OF RHF CALCULATION ......
 STEP CPU TIME =     1.52 TOTAL CPU TIME =        1.6 (    0.0 MIN)
 TOTAL WALL CLOCK TIME=        1.6 SECONDS, CPU UTILIZATION IS  99.36%

     ---------------------------------------------------------------------
     PROPERTIES FOR THE BLYP     DFT FUNCTIONAL (RHF  TYPE) DENSITY MATRIX
     ---------------------------------------------------------------------

          ---------------------------------------
          MULLIKEN AND LOWDIN POPULATION ANALYSES
          ---------------------------------------

     ATOMIC MULLIKEN POPULATION IN EACH MOLECULAR ORBITAL

                      1          2          3          4          5

                  2.000000   2.000000   2.000000   2.000000   2.000000

    1             0.001758   2.003278   0.457319   0.619480   0.534234
    2             1.998242  -0.003278   1.542681   1.380520   1.465766

                      6          7

                  2.000000   2.000000

    1             0.534234   1.653073
    2             1.465766   0.346927

               ----- POPULATIONS IN EACH AO -----
                             MULLIKEN      LOWDIN
              1  C  1  S      1.99741     1.98263
              2  C  1  S      0.82787     0.48432
              3  C  1  X      0.34347     0.30703
              4  C  1  Y      0.34347     0.30703
              5  C  1  Z      0.78037     0.73250
              6  C  1  S      0.98518     0.65842
              7  C  1  X      0.17599     0.23481
              8  C  1  Y      0.17599     0.23481
              9  C  1  Z      0.11852     0.32555
             10  C  1 XX      0.02554     0.19636
             11  C  1 YY      0.00000     0.19636
             12  C  1 ZZ      0.00000     0.22889
             13  C  1 XY      0.01477     0.00000
             14  C  1 XZ      0.01477     0.02555
             15  C  1 YZ      0.00000     0.02555
             16  O  2  S      1.99724     1.97824
             17  O  2  S      0.96235     0.75035
             18  O  2  X      0.90130     0.84633
             19  O  2  Y      0.90130     0.84633
             20  O  2  Z      0.99251     0.92845
             21  O  2  S      0.90976     0.48559
             22  O  2  X      0.55604     0.57657
             23  O  2  Y      0.55604     0.57657
             24  O  2  Z      0.39539     0.51789
             25  O  2 XX      0.00783     0.17190
             26  O  2 YY      0.00000     0.17190
             27  O  2 ZZ      0.00000     0.19064
             28  O  2 XY      0.00843     0.00000
             29  O  2 XZ      0.00843     0.00971
             30  O  2 YZ      0.00000     0.00971

          ----- MULLIKEN ATOMIC OVERLAP POPULATIONS -----
          (OFF-DIAGONAL ELEMENTS NEED TO BE MULTIPLIED BY 2)

             1           2

    1    5.2954755
    2    0.5079004   7.6887237

          TOTAL MULLIKEN AND LOWDIN ATOMIC POPULATIONS
       ATOM         MULL.POP.    CHARGE          LOW.POP.     CHARGE
    1 C             5.803376    0.196624         5.939821    0.060179
    2 O             8.196624   -0.196624         8.060179   -0.060179

          MULLIKEN SPHERICAL HARMONIC POPULATIONS
       ATOM           S       P       D      F      G      H      I    TOTAL
    1 C             3.81    1.94    0.06   0.00   0.00   0.00   0.00    5.80
    2 O             3.87    4.30    0.02   0.00   0.00   0.00   0.00    8.20

          -------------------------------
          BOND ORDER AND VALENCE ANALYSIS     BOND ORDER THRESHOLD=0.050
          -------------------------------

                   BOND                       BOND                       BOND
  ATOM PAIR DIST  ORDER      ATOM PAIR DIST  ORDER      ATOM PAIR DIST  ORDER
    1   2  1.236  2.393

                       TOTAL       BONDED        FREE
      ATOM            VALENCE     VALENCE     VALENCE
    1 C                 2.393       2.393       0.000
    2 O                 2.393       2.393       0.000

    **** A SOLVENT MODEL IS IN USE IN THIS RUN ****
 ELECTRICAL PROPERTIES (MOMENTS, DENSITY, FIELD/GRADIENT, AND/OR POTENTIAL)
 ARE COMPUTED USING THE SOLVATED SYSTEM'S DENSITY MATRIX, BUT
 ONLY WITH AO INTEGRAL CONTRIBUTIONS FROM THE QUANTUM SOLUTE.
 THE ONE EXCEPTION IS THE DIPOLE, WHICH IS ALSO PRINTED FOR THE TOTAL SYSTEM.

          ----------------------------
          SOLUTE ELECTROSTATIC MOMENTS
          ----------------------------

 POINT   1           X           Y           Z (BOHR)    CHARGE
                 0.000000    0.000000    1.334504        0.00 (A.U.)
         DX          DY          DZ         /D/  (DEBYE)
     0.000000    0.000000   -0.137473    0.137473

          ----------------------------
          SYSTEM ELECTROSTATIC MOMENTS
          ----------------------------

 POINT   1           X           Y           Z (BOHR)    CHARGE
                 0.000000    0.000000    1.334504        0.00 (A.U.)
         DX          DY          DZ         /D/  (DEBYE)
     0.000000    0.000000   -0.137473    0.137473
 INCLUDING PCM SURFACE CHARGES, TOTAL CHARGE=    0.000000, AND TOTAL DIPOLE IS
         DX          DY          DZ         /D/  (DEBYE)
     0.000000   -0.000000    0.022657    0.022657
 ...... END OF PROPERTY EVALUATION ......
 STEP CPU TIME =     0.00 TOTAL CPU TIME =        1.6 (    0.0 MIN)
 TOTAL WALL CLOCK TIME=        1.6 SECONDS, CPU UTILIZATION IS  99.36%

 -----------------------------------------------------------------------
                    TDDFT CALCULATION FOR SCFTYP=RHF 
                          CODED BY MAHITO CHIBA
 NATIONAL INSTITUTE OF ADVANCED INDUSTRIAL SCIENCE AND TECHNOLOGY, JAPAN
 -----------------------------------------------------------------------
  
 -TDDFT RUNTIME PARAMETERS-
    TRIPLET  = F
    NONEQ    = T
    NSTATE   =                    2
    IROOT    =                    1
    NTRIAL   =                    5
    MAXVEC   =                   50
    ILENG    =                  200
    MAXGRD   =                10389
    NRAD     =                   48
    NLEB     =                  110
 SOLVENT SPECTRUM MODELED BY NON-EQUILIBRIUM TDDFT/PCM
 EPS=  78.390 EPSINF=   1.776
  
 FOR AN EULER-MACLAURIN QUADRATURE USING  48 RADIAL POINTS:
 SMALLEST GAUSSIAN PRIMITIVE EXPONENT=        0.1687144782 OF TYPE -P-
 ON ATOM NUMBER   1 HAS RADIAL NORMALIZATION=  1.000000
  LARGEST GAUSSIAN PRIMITIVE EXPONENT=     5484.6716600000 OF TYPE -S-
 ON ATOM NUMBER   2 HAS RADIAL NORMALIZATION=  1.000000
  
 PCM REQUESTED WITH OPTICAL DIELECTRIC CONSTANT =           1.7760000
 MEM1  =      140057 MEM2  =        3219 MEMGRID=      132442
 MEMPCM=       63294 MEMEFP=           0
 TOTAL MEMORY REQUIRED FOR TD-DFT ITERATIONS IS      339013 WORDS.

 INITIAL VECTORS / MXVEC                     5 /                  100
 ITERATION #                     1
    CURRENT VECTORS    1 TO   5 (   5 VECTORS)
    STATE NUMBER   1  ENERGY =    7.815189 EV
    STATE NUMBER   2  ENERGY =    7.815190 EV
    MAX ERROR =  3.597E-02 / 1.000E-07
 ITERATION #                     2
    CURRENT VECTORS    6 TO   7 (   2 VECTORS)
    STATE NUMBER   1  ENERGY =    7.494480 EV
    STATE NUMBER   2  ENERGY =    7.494481 EV
    MAX ERROR =  5.864E-03 / 1.000E-07
 ITERATION #                     3
    CURRENT VECTORS    8 TO  11 (   4 VECTORS)
    STATE NUMBER   1  ENERGY =    7.454729 EV
    STATE NUMBER   2  ENERGY =    7.454730 EV
    MAX ERROR =  1.728E-04 / 1.000E-07
 ITERATION #                     4
    CURRENT VECTORS   12 TO  15 (   4 VECTORS)
    STATE NUMBER   1  ENERGY =    7.452822 EV
    STATE NUMBER   2  ENERGY =    7.452823 EV
    MAX ERROR =  1.042E-05 / 1.000E-07
 ITERATION #                     5
    CURRENT VECTORS   16 TO  19 (   4 VECTORS)
    STATE NUMBER   1  ENERGY =    7.452702 EV
    STATE NUMBER   2  ENERGY =    7.452704 EV
    MAX ERROR =  4.075E-07 / 1.000E-07
 ITERATION #                     6
    CURRENT VECTORS   20 TO  23 (   4 VECTORS)
    STATE NUMBER   1  ENERGY =    7.452700 EV
    STATE NUMBER   2  ENERGY =    7.452702 EV
    MAX ERROR =  5.491E-09 / 1.000E-07
  
   ---------------------------------  
     R-TDDFT CALCULATION CONVERGED
   ---------------------------------  
 NUMBER OF USED VECTORS / MAX =  23 / 100
 NUMBER OF ITERATIONS   / MAX =   6 / 100
 NUMBER OF SINGLE EXCITATIONS =   147
 NUMBER OF ATOMIC ORBITALS    =  30
 NUMBER OF ELECTRONS          =          13.9997378

          -------------------
          SINGLET EXCITATIONS
          -------------------

 STATE #   1  ENERGY =    7.452700 EV
 OSCILLATOR STRENGTH =    0.043450
 LAMBDA DIAGNOSTIC   =    0.707 (RYDBERG/CHARGE TRANSFER CHARACTER)
 SYMMETRY OF STATE   =    A   
                 EXCITATION  DE-EXCITATION
     OCC     VIR  AMPLITUDE      AMPLITUDE
      I       A     X(I->A)        Y(A->I)
     ---     ---   --------       --------
      4       8    0.152784       0.031095
      7       8    0.990614      -0.077573
      5      10   -0.034393      -0.012810

 STATE #   2  ENERGY =    7.452702 EV
 OSCILLATOR STRENGTH =    0.043450
 LAMBDA DIAGNOSTIC   =    0.707 (RYDBERG/CHARGE TRANSFER CHARACTER)
 SYMMETRY OF STATE   =    A   
                 EXCITATION  DE-EXCITATION
     OCC     VIR  AMPLITUDE      AMPLITUDE
      I       A     X(I->A)        Y(A->I)
     ---     ---   --------       --------
      4       9   -0.152784      -0.031095
      7       9   -0.990614       0.077573
      6      10   -0.034393      -0.012810

                          SUMMARY OF TDDFT RESULTS

   STATE             ENERGY     EXCITATION  TRANSITION DIPOLE, A.U.  OSCILLATOR
   0 ->             HARTREE          EV         X       Y       Z     STRENGTH
   0  A         -113.2695486560    0.000
   1  A         -112.9956669508    7.453    -0.0000 -0.4878  0.0000    0.0435
   2  A         -112.9956669013    7.453    -0.4878  0.0000 -0.0000    0.0435
  
 TRANSITION        EXCITATION            TRANSITION DIPOLE, A.U.     OSCILLATOR
                       EV              X       Y       Z       DIP    STRENGTH

  1  ->  2           0.000          0.0000 -0.0000 -0.0000   0.0000    0.0000

 SELECTING EXCITED STATE IROOT=   1 AT E=     -112.9956669508
 AS THE STATE OF INTEREST.

 ..... DONE WITH TD-DFT EXCITATION ENERGIES .....
 STEP CPU TIME =     1.04 TOTAL CPU TIME =        2.6 (    0.0 MIN)
 TOTAL WALL CLOCK TIME=        2.6 SECONDS, CPU UTILIZATION IS  99.24%

     INPUT FOR CAVITY DEFINITION 
     ---------------------------
   ATOM               COORDINATES                RADIUS       EPS
      1      0.0000      0.0000      0.0000      1.7000     78.3900
      2      0.0000      0.0000      1.2360      1.5000     78.3900

 CREATION OF A NEW CAVITY WITH THE ORIGINAL SPHERE
 SIZES FOR THE COMPUTATION OF THE CAVITATION ENERGY.

     INPUT FOR CAVITY DEFINITION 
     ---------------------------
   ATOM               COORDINATES                RADIUS       EPS
      1      0.0000      0.0000      0.0000      1.7000     78.3900
      2      0.0000      0.0000      1.2360      1.5000     78.3900

 MEMORY USED TO GENERATE CAVITY=    168202


 TOTAL NUMBER OF SPHERES=     2
 SPHERE           CENTER  (X,Y,Z) (A)               RADIUS (A)      AREA(A*A)
     1   0.000000000   0.000000000   0.000000000   1.700000000  27.820978063
     2   0.000000000   0.000000000   1.236000000   1.500000000  18.849555922

 TOTAL NUMBER OF TESSERAE=      90
 SURFACE AREA=    46.67053398(A**2)    CAVITY VOLUME=     27.81365606 (A**3)
 STEP CPU TIME =     0.00 TOTAL CPU TIME =        2.6 (    0.0 MIN)
 TOTAL WALL CLOCK TIME=        2.6 SECONDS, CPU UTILIZATION IS  99.24%

          THE SOLUTE IS ENCLOSED IN ONE CAVITY
 DONE CHECKING SEPARATION.
 STEP CPU TIME =     0.00 TOTAL CPU TIME =        2.6 (    0.0 MIN)
 TOTAL WALL CLOCK TIME=        2.6 SECONDS, CPU UTILIZATION IS  99.24%

  ************************************
         CAVITATION FREE ENERGY
  ************************************

 PIEROTTI (SINGLE SPHERE, RADIUS FROM TOTAL  VOLUME):    5.32945 KCAL/MOL
 CAVITATION ENERGY (ENTHALPY) =    0.84979 KCAL/MOL
 THERMAL EXPANSION COEF. =      0.000257
 NUMERAL DENSITY =              0.033330
 SOLVENT MOLECULE DIAMETER =    2.770000 ANG.
 CAVITY DIAMETER =              3.759123 ANG.

 PIEROTTI (SINGLE SPHERE, RADIUS FROM TOTAL SURFACE):    5.55180 KCAL/MOL
 CAVITATION ENERGY (ENTHALPY) =    0.88751 KCAL/MOL
 THERMAL EXPANSION COEF. =      0.000257
 NUMERAL DENSITY =              0.033330
 SOLVENT MOLECULE DIAMETER =    2.770000 ANG.
 CAVITY DIAMETER =              3.854308 ANG.

 CLAVERIE-PIEROTTI (SPHERE BY SPHERE, SURFACE):    5.95417  KCAL/MOL
 CAVITATION ENERGY (ENTHALPY) =    1.29381 KCAL/MOL
 THERMAL EXPANSION COEF. =      0.000257
 NUMERAL DENSITY =              0.033330
 SOLVENT MOLECULE DIAMETER =    2.770000 ANG.

 SINANOGLU (SINGLE SPHERE, RADIUS FROM TOTAL SURFACE):    5.51227 KCAL/MOL
 CAVITATION ENERGY (ENTHALPY) =      8.81381 KCAL/MOL
 MICROSCOPIC CAVITY FACTOR =    1.277000
 SURFACE TENSION =             71.810000
 SURFACE TENSION DERIVATIVE =   0.650000
 ABSOLUTE TEMPERATURE =       298.000000
 CAVITY DIAMETER =              3.854308 ANG.

             ----------------------------------------------
             -------   RESULTS OF PCM CALCULATION   -------
             ----------------------------------------------

                     COMPUTED FOR THE GROUND STATE         

 FREE ENERGY IN SOLVENT = <PSI| H(0)+V/2 |PSI>       =     -113.2790372255 A.U.
 INTERNAL ENERGY IN SOLVENT = <PSI| H(0) |PSI>       =     -113.2782713934 A.U.
 DELTA INTERNAL ENERGY =  <D-PSI| H(0) |D-PSI>       =        0.0000000000 A.U.
 ELECTROSTATIC INTERACTION                           =       -0.0007658321 A.U.
 PIEROTTI CAVITATION ENERGY                          =        0.0094885696 A.U.
 DISPERSION FREE ENERGY                              =        0.0000000000 A.U.
 REPULSION FREE ENERGY                               =        0.0000000000 A.U.
 TOTAL INTERACTION (DELTA + ES + CAV + DISP + REP)   =        0.0087227375 A.U.
 TOTAL FREE ENERGY IN SOLVENT                        =     -113.2695486560 A.U.

 FREE ENERGY IN SOLVENT       =      -71083.68 KCAL/MOL
 INTERNAL ENERGY IN SOLVENT   =      -71083.20 KCAL/MOL
 DELTA INTERNAL ENERGY        =           0.00 KCAL/MOL
 ELECTROSTATIC INTERACTION    =          -0.48 KCAL/MOL
 PIEROTTI CAVITATION ENERGY   =           5.95 KCAL/MOL
 DISPERSION FREE ENERGY       =           0.00 KCAL/MOL
 REPULSION FREE ENERGY        =           0.00 KCAL/MOL
 TOTAL INTERACTION            =           5.47 KCAL/MOL
 TOTAL FREE ENERGY IN SOLVENT =      -71077.72 KCAL/MOL

 -INTERNAL ENERGY IN SOLVENT-
    OMITS ES,CAV,DISP,REP (USES SOLVATED ORBITALS IN THE GAS PHASE HAMILTONIAN)
 -FREE ENERGY IN SOLVENT-
    INCLUDES ES+DISP+REP WHICH ARE IN THE SELF-CONSISTENT WAVEFUNCTION.
 -TOTAL FREE ENERGY IN SOLVENT-
    INCLUDES ES+DISP+REP+CAV, MEANING CAVITATION IS NOT IN THE SCF ENERGY.

 .... DONE PRINTING PCM SOLVENT SUMMARY ....
 STEP CPU TIME =     0.00 TOTAL CPU TIME =        2.6 (    0.0 MIN)
 TOTAL WALL CLOCK TIME=        2.6 SECONDS, CPU UTILIZATION IS  99.24%
               580000  WORDS OF DYNAMIC MEMORY USED
 EXECUTION OF GAMESS TERMINATED NORMALLY Fri Jun  2 05:13:00 2017
 DDI: 263640 bytes (0.3 MB / 0 MWords) used by master data server.

 ----------------------------------------
 CPU timing information for all processes
 ========================================
 0: 2.588 + 0.25 = 2.614
 ----------------------------------------
 ddikick.x: exited gracefully.
unset echo
----- accounting info -----
Files used on the master node compute-0-8.local were:
-rw-rw-r-- 1 sarom sarom    1146 Jun  2 05:12 /scratch/pcm-tddft-co.F05
-rw-rw-r-- 1 sarom sarom 1734160 Jun  2 05:13 /scratch/pcm-tddft-co.F10
-rw-rw-r-- 1 sarom sarom  415600 Jun  2 05:12 /scratch/pcm-tddft-co.F22
-rw-rw-r-- 1 sarom sarom       8 Jun  2 05:12 /scratch/pcm-tddft-co.F26
-rw-rw-r-- 1 sarom sarom       0 Jun  2 05:12 /scratch/pcm-tddft-co.F27
rm: cannot remove `/scratch/sarom': Is a directory
rm: cannot remove `/scratch/tmp': Is a directory
ls: No match.
ls: No match.
ls: No match.
Fri Jun  2 05:13:03 CDT 2017
0.247u 0.260s 0:06.20 8.0%	0+0k 8+376io 0pf+0w
Deleting shmid=2785280.
Deleting shmid=2818049.
/opt/gridengine/default/spool/compute-0-8/active_jobs/24053.1/pe_hostfile compute-0-8.local
