----- GAMESS execution script 'rungms' -----
This job is running on host compute-3-0
under operating system Linux at Tue Nov 29 00:15:18 CST 2016
Available scratch disk space (Kbyte units) at beginning of the job is
Filesystem            1K-blocks       Used  Available Use% Mounted on
bolt.local:/export/home/sarom
                     9590469632 1553394688 7549906944  18% /home/sarom
Copying input file pcm-efp-gly.inp to your run's scratch directory...
cp pcm-efp-gly.inp .//pcm-efp-gly.F05
unset echo
/home/sarom/gamessGH/ddikick.x /home/sarom/gamessGH/gamess.00.x pcm-efp-gly -ddi 1 1 localhost -scr ./

 Distributed Data Interface kickoff program.
 Initiating 1 compute processes on 1 nodes to run the following command:
 /home/sarom/gamessGH/gamess.00.x pcm-efp-gly 

          ******************************************************
          *         GAMESS VERSION = 18 AUG 2016 (R1)          *
          *             FROM IOWA STATE UNIVERSITY             *
          * M.W.SCHMIDT, K.K.BALDRIDGE, J.A.BOATZ, S.T.ELBERT, *
          *   M.S.GORDON, J.H.JENSEN, S.KOSEKI, N.MATSUNAGA,   *
          *          K.A.NGUYEN, S.J.SU, T.L.WINDUS,           *
          *       TOGETHER WITH M.DUPUIS, J.A.MONTGOMERY       *
          *         J.COMPUT.CHEM.  14, 1347-1363(1993)        *
          **************** 64 BIT LINUX VERSION ****************

  SINCE 1993, STUDENTS AND POSTDOCS WORKING AT IOWA STATE UNIVERSITY
  AND ALSO IN THEIR VARIOUS JOBS AFTER LEAVING ISU HAVE MADE IMPORTANT
  CONTRIBUTIONS TO THE CODE:
     IVANA ADAMOVIC, CHRISTINE AIKENS, YURI ALEXEEV, POOJA ARORA,
     ANDREY ASADCHEV, ROB BELL, PRADIPTA BANDYOPADHYAY, JONATHAN BENTZ,
     BRETT BODE, KURT BRORSEN, CALEB CARLIN, GALINA CHABAN, WEI CHEN,
     CHEOL HO CHOI, PAUL DAY, ALBERT DEFUSCO, NUWAN DESILVA, TIM DUDLEY,
     DMITRI FEDOROV, GRAHAM FLETCHER, MARK FREITAG, KURT GLAESEMANN,
     DAN KEMP, GRANT MERRILL, NORIYUKI MINEZAWA, JONATHAN MULLIN,
     TAKESHI NAGATA, SEAN NEDD, HEATHER NETZLOFF, BOSILJKA NJEGIC, RYAN OLSON,
     MIKE PAK, SPENCER PRUITT, LUKE ROSKOP, JIM SHOEMAKER, LYUDMILA SLIPCHENKO,
     TONY SMITH, SAROM SOK LEANG, JIE SONG, TETSUYA TAKETSUGU, SIMON WEBB,
     PENG XU, SOOHAENG YOO, FEDERICO ZAHARIEV

  ADDITIONAL CODE HAS BEEN PROVIDED BY COLLABORATORS IN OTHER GROUPS:
     IOWA STATE UNIVERSITY:
          JOE IVANIC, AARON WEST, LAIMUTIS BYTAUTAS, KLAUS RUEDENBERG
     UNIVERSITY OF TOKYO: KIMIHIKO HIRAO, TAKAHITO NAKAJIMA,
          TAKAO TSUNEDA, MUNEAKI KAMIYA, SUSUMU YANAGISAWA,
          KIYOSHI YAGI, MAHITO CHIBA, SEIKEN TOKURA, NAOAKI KAWAKAMI
     UNIVERSITY OF AARHUS: FRANK JENSEN
     UNIVERSITY OF IOWA: VISVALDAS KAIRYS, HUI LI
     NATIONAL INST. OF STANDARDS AND TECHNOLOGY: WALT STEVENS, DAVID GARMER
     UNIVERSITY OF PISA: BENEDETTA MENNUCCI, JACOPO TOMASI
     UNIVERSITY OF MEMPHIS: HENRY KURTZ, PRAKASHAN KORAMBATH
     UNIVERSITY OF ALBERTA: TOBY ZENG, MARIUSZ KLOBUKOWSKI
     UNIVERSITY OF NEW ENGLAND: MARK SPACKMAN
     MIE UNIVERSITY: HIROAKI UMEDA
     NAT. INST. OF ADVANCED INDUSTRIAL SCIENCE AND TECHNOLOGY: KAZUO KITAURA
     MICHIGAN STATE UNIVERSITY:
          KAROL KOWALSKI, MARTA WLOCH, JEFFREY GOUR, JESSE LUTZ,
          WEI LI, PIOTR PIECUCH
     UNIVERSITY OF SILESIA: MONIKA MUSIAL, STANISLAW KUCHARSKI
     FACULTES UNIVERSITAIRES NOTRE-DAME DE LA PAIX:
          OLIVIER QUINET, BENOIT CHAMPAGNE
     UNIVERSITY OF CALIFORNIA - SANTA BARBARA: BERNARD KIRTMAN
     INSTITUTE FOR MOLECULAR SCIENCE:
          KAZUYA ISHIMURA, MICHIO KATOUDA, AND SHIGERU NAGASE
     UNIVERSITY OF NOTRE DAME: ANNA POMOGAEVA, DAN CHIPMAN
     KYUSHU UNIVERSITY:
          HARUYUKI NAKANO,
          FENG LONG GU, JACEK KORCHOWIEC, MARCIN MAKOWSKI, AND YURIKO AOKI,
          HIROTOSHI MORI AND EISAKU MIYOSHI
     PENNSYLVANIA STATE UNIVERSITY:
          TZVETELIN IORDANOV, CHET SWALINA, JONATHAN SKONE,
          SHARON HAMMES-SCHIFFER
     WASEDA UNIVERSITY:
          MASATO KOBAYASHI, TOMOKO AKAMA, TSUGUKI TOUMA,
          TAKESHI YOSHIKAWA, YASUHIRO IKABATA, JUNJI SEINO,
          YUYA NAKAJIMA, HIROMI NAKAI
     NANJING UNIVERSITY: SHUHUA LI
     UNIVERSITY OF NEBRASKA:
          PEIFENG SU, DEJUN SI, NANDUN THELLAMUREGE, YALI WANG, HUI LI
     UNIVERSITY OF ZURICH: ROBERTO PEVERATI, KIM BALDRIDGE
     N. COPERNICUS UNIVERSITY AND JACKSON STATE UNIVERSITY:
          MARIA BARYSZ
     UNIVERSITY OF COPENHAGEN: Jimmy Kromann, CASPER STEINMANN
     TOKYO INSTITUTE OF TECHNOLOGY: HIROYA NAKATA
     NAGOYA UNIVERSITY: YOSHIO NISHIMOTO, STEPHAN IRLE
     MOSCOW STATE UNIVERSITY: VLADIMIR MIRONOV

 EXECUTION OF GAMESS BEGUN Tue Nov 29 00:15:18 2016

            ECHO OF THE FIRST FEW INPUT CARDS -
 INPUT CARD>!   Test of PCM with effective fragments, from Pradipta                         
 INPUT CARD>!   The system is glycine in a zwitterion form, 3 EFP waters, in PCM water      
 INPUT CARD>!                                                                               
 INPUT CARD>!   solute/EFP FINAL E= -282.8979599938, solute/EFP/PCM E= -282.9574074967      
 INPUT CARD>!                                                                               
 INPUT CARD>!   This job takes 28 seconds on a 2.66 GHz Cloverton (14 Nov 2008)             
 INPUT CARD>!                                                                               
 INPUT CARD>!   ------------ additional data from the run is -----------                    
 INPUT CARD>!   19 spheres, 634 tesserae, SURFACE AREA= 206.07491835, VOLUME= 174.17830293  
 INPUT CARD>!   PCM charges: CALCULATED 39.46969, THEORETICAL 39.48973 NOT RENORMALIZED     
 INPUT CARD>!   FREE ENERGY IN SOLVENT = <PSI| H(0)+V/2 |PSI>       =  -282.9574074967 A.U. 
 INPUT CARD>!   INTERNAL ENERGY IN SOLVENT = <PSI| H(0) |PSI>       =  -282.8908850443 A.U. 
 INPUT CARD>!   ELECTROSTATIC INTERACTION                           =    -0.0665224525 A.U. 
 INPUT CARD>!   TOTAL FREE ENERGY IN SOLVENT                        =  -282.9574074967 A.U. 
 INPUT CARD>!                                                                               
 INPUT CARD>!                            ELECTRON        NUCLEI     MULTIPOLE   POLARIZABLE 
 INPUT CARD>!                             INDUCED       INDUCED       INDUCED       INDUCED 
 INPUT CARD>!                              CHARGE        CHARGE        CHARGE        CHARGE 
 INPUT CARD>!    ELECTRONIC  POTENTIAL  -93363.22      93226.34        -87.97        -14.42 
 INPUT CARD>!    NUCLEAR     POTENTIAL   93226.50     -93140.93         99.50         16.86 
 INPUT CARD>!    MULTIPOLE   POTENTIAL     -88.72        100.26        -13.84         -2.11 
 INPUT CARD>!    POLARIZABLE POTENTIAL       0.00          0.00          0.00          0.00 
 INPUT CARD>!           ----------------- TOTAL:     -41.74 -----------------               
 INPUT CARD>!                                                                               
 INPUT CARD>!   dipole of the QM region only is                                             
 INPUT CARD>!        DX          DY          DZ         /D/  (DEBYE)                        
 INPUT CARD>!     9.710436    -.633746   -3.146366   10.227112                              
 INPUT CARD>!   including PCM surface charges, total CHARGE= -.009942, total dipole is      
 INPUT CARD>!         DX          DY          DZ         /D/  (DEBYE)                       
 INPUT CARD>!      .331658     .004106    -.184826     .379703                              
 INPUT CARD>!                                                                               
 INPUT CARD>!                                                                               
 INPUT CARD> $contrl scftyp=rhf runtyp=energy molplt=.true. $end                            
 INPUT CARD> $system mwords=5 $end                                                          
 INPUT CARD> $basis  gbasis=DH NDFUNC=1 NPFUNC=0 DIFFS=.F. DIFFSP=.T. $end                  
 INPUT CARD>                                                                                
 INPUT CARD> $pcm    solvnt=water ief=3 icomp=0 $END                                        
 INPUT CARD> $tescav mthall=1 $end                                                          
 INPUT CARD>                                                                                
 INPUT CARD> $data                                                                          
 INPUT CARD>glycine plus 3 explicit EFP waters solvated by PCM water                        
 INPUT CARD>C1                                                                              
 INPUT CARD>C           6.0    .8548532570    .6250395990    .7351601803                    
 INPUT CARD>H           1.0    .9177464011   1.6888530001    .5841407841                    
 INPUT CARD>C           6.0   -.5472080135    .0895694415    .3884733234                    
 INPUT CARD>N           7.0   1.8717761392   -.0235585665   -.1357743780                    
 INPUT CARD>H           1.0   1.0929293454    .3864564692   1.7639890758                    
 INPUT CARD>O           8.0  -1.4119855741    .9390419804    .1967096333                    
 INPUT CARD>O           8.0   -.6426013382  -1.1440413971    .3298826677                    
 INPUT CARD>H           1.0   1.9483553681  -1.0256390976    .0275149808                    
    5000000 WORDS OF MEMORY AVAILABLE

     BASIS OPTIONS
     -------------
     GBASIS=DH           IGAUSS=       0      POLAR=DUNNING 
     NDFUNC=       1     NFFUNC=       0     DIFFSP=       T
     NPFUNC=       0      DIFFS=       F     BASNAM=        


     RUN TITLE
     ---------
 glycine plus 3 explicit EFP waters solvated by PCM water                        

 THE POINT GROUP OF THE MOLECULE IS C1      
 THE ORDER OF THE PRINCIPAL AXIS IS     0

 ATOM      ATOMIC                      COORDINATES (BOHR)
           CHARGE         X                   Y                   Z
 C           6.0     1.6154384154        1.1811535736        1.3892512979
 H           1.0     1.7342892243        3.1914694037        1.1038660202
 C           6.0    -1.0340732038        0.1692617013        0.7341081348
 N           7.0     3.5371440134       -0.0445192353       -0.2565763706
 H           1.0     2.0653369867        0.7302968330        3.3334559986
 O           8.0    -2.6682658337        1.7745320339        0.3717273061
 O           8.0    -1.2143404485       -2.1619247591        0.6233878501
 H           1.0     3.6818577724       -1.9381768568        0.0519957743
 H           1.0     3.0945873980        0.1812545714       -2.1218975489
 H           1.0     5.2351251740        0.7642628652       -0.0026292449

          INTERNUCLEAR DISTANCES (ANGS.)
          ------------------------------

                1 C          2 H          3 C          4 N          5 H     

   1 C       0.0000000    1.0763184 *  1.5403558 *  1.4877294 *  1.0826315 *
   2 H       1.0763184 *  0.0000000    2.1776329 *  2.0882538 *  1.7660600 *
   3 C       1.5403558 *  2.1776329 *  0.0000000    2.4777243 *  2.1610729 *
   4 N       1.4877294 *  2.0882538 *  2.4777243 *  0.0000000    2.0937564 *
   5 H       1.0826315 *  1.7660600 *  2.1610729 *  2.0937564 *  0.0000000  
   6 O       2.3509753 *  2.4778964 *  1.2272804 *  3.4380571    3.0060463  
   7 O       2.3529275 *  3.2441675    1.2386801 *  2.7918475 *  2.7223430 *
   8 H       2.1026766 *  2.9564260 *  2.7571394 *  1.0181813 *  2.3960613 *
   9 H       2.0844376 *  2.4432495 *  2.6565937 *  1.0214976 *  2.9521113 *
  10 H       2.0640125 *  2.3290723 *  3.3551531    1.0042883 *  2.4352606 *

                6 O          7 O          8 H          9 H         10 H     

   1 C       2.3509753 *  2.3529275 *  2.1026766 *  2.0844376 *  2.0640125 *
   2 H       2.4778964 *  3.2441675    2.9564260 *  2.4432495 *  2.3290723 *
   3 C       1.2272804 *  1.2386801 *  2.7571394 *  2.6565937 *  3.3551531  
   4 N       3.4380571    2.7918475 *  1.0181813 *  1.0214976 *  1.0042883 *
   5 H       3.0060463    2.7223430 *  2.3960613 *  2.9521113 *  2.4352606 *
   6 O       0.0000000    2.2246176 *  3.8962148    3.4281201    4.2209765  
   7 O       2.2246176 *  0.0000000    2.6112261 *  2.9744253 *  3.7623750  
   8 H       3.8962148    2.6112261 *  0.0000000    1.6364064 *  1.6497099 *
   9 H       3.4281201    2.9744253 *  1.6364064 *  0.0000000    1.6235567 *
  10 H       4.2209765    3.7623750    1.6497099 *  1.6235567 *  0.0000000  

  * ... LESS THAN  3.000


     ATOMIC BASIS SET
     ----------------
 THE CONTRACTED PRIMITIVE FUNCTIONS HAVE BEEN UNNORMALIZED
 THE CONTRACTED BASIS FUNCTIONS ARE NOW NORMALIZED TO UNITY

  SHELL TYPE  PRIMITIVE        EXPONENT          CONTRACTION COEFFICIENT(S)

 C         

      1   S       1          4233.0000000    0.001219999687
      1   S       2           634.9000000    0.009341997607
      1   S       3           146.1000000    0.045451988358
      1   S       4            42.5000000    0.154656960385
      1   S       5            14.1900000    0.358865908077
      1   S       6             5.1480000    0.438631887645
      1   S       7             1.9670000    0.145917962623

      2   S       8             5.1480000   -0.168366956056
      2   S       9             0.4962000    1.060090723318

      3   S      10             0.1533000    1.000000000000

      4   P      11            18.1600000    0.018538999809
      4   P      12             3.9860000    0.115435998814
      4   P      13             1.1430000    0.386187996031
      4   P      14             0.3594000    0.640113993421

      5   P      15             0.1146000    1.000000000000

      6   L      16             0.0438000    1.000000000000    1.000000000000

      7   D      17             0.7500000    1.000000000000

 H         

      8   S      18            19.2384000    0.032827991019
      8   S      19             2.8987200    0.231203936751
      8   S      20             0.6534720    0.817225776436

      9   S      21             0.1630642    1.000000000000

 C         

     10   S      22          4233.0000000    0.001219999687
     10   S      23           634.9000000    0.009341997607
     10   S      24           146.1000000    0.045451988358
     10   S      25            42.5000000    0.154656960385
     10   S      26            14.1900000    0.358865908077
     10   S      27             5.1480000    0.438631887645
     10   S      28             1.9670000    0.145917962623

     11   S      29             5.1480000   -0.168366956056
     11   S      30             0.4962000    1.060090723318

     12   S      31             0.1533000    1.000000000000

     13   P      32            18.1600000    0.018538999809
     13   P      33             3.9860000    0.115435998814
     13   P      34             1.1430000    0.386187996031
     13   P      35             0.3594000    0.640113993421

     14   P      36             0.1146000    1.000000000000

     15   L      37             0.0438000    1.000000000000    1.000000000000

     16   D      38             0.7500000    1.000000000000

 N         

     17   S      39          5909.0000000    0.001189999548
     17   S      40           887.5000000    0.009098996542
     17   S      41           204.7000000    0.044144983225
     17   S      42            59.8400000    0.150463942825
     17   S      43            20.0000000    0.356740864442
     17   S      44             7.1930000    0.446532830321
     17   S      45             2.6860000    0.145602944672

     18   S      46             7.1930000   -0.160405033446
     18   S      47             0.7000000    1.058215220651

     19   S      48             0.2133000    1.000000000000

     20   P      49            26.7900000    0.018253998243
     20   P      50             5.9560000    0.116460988791
     20   P      51             1.7070000    0.390177962446
     20   P      52             0.5314000    0.637101938680

     21   P      53             0.1654000    1.000000000000

     22   L      54             0.0639000    1.000000000000    1.000000000000

     23   D      55             0.8000000    1.000000000000

 H         

     24   S      56            19.2384000    0.032827991019
     24   S      57             2.8987200    0.231203936751
     24   S      58             0.6534720    0.817225776436

     25   S      59             0.1630642    1.000000000000

 O         

     26   S      60          7817.0000000    0.001176000331
     26   S      61          1176.0000000    0.008968002523
     26   S      62           273.2000000    0.042868012059
     26   S      63            81.1700000    0.143930040487
     26   S      64            27.1800000    0.355630100037
     26   S      65             9.5320000    0.461248129747
     26   S      66             3.4140000    0.140206039439

     27   S      67             9.5320000   -0.154153073905
     27   S      68             0.9398000    1.056914506712

     28   S      69             0.2846000    1.000000000000

     29   P      70            35.1800000    0.019580000501
     29   P      71             7.9040000    0.124200003180
     29   P      72             2.3050000    0.394714010108
     29   P      73             0.7171000    0.627376016066

     30   P      74             0.2137000    1.000000000000

     31   L      75             0.0845000    1.000000000000    1.000000000000

     32   D      76             0.8500000    1.000000000000

 O         

     33   S      77          7817.0000000    0.001176000331
     33   S      78          1176.0000000    0.008968002523
     33   S      79           273.2000000    0.042868012059
     33   S      80            81.1700000    0.143930040487
     33   S      81            27.1800000    0.355630100037
     33   S      82             9.5320000    0.461248129747
     33   S      83             3.4140000    0.140206039439

     34   S      84             9.5320000   -0.154153073905
     34   S      85             0.9398000    1.056914506712

     35   S      86             0.2846000    1.000000000000

     36   P      87            35.1800000    0.019580000501
     36   P      88             7.9040000    0.124200003180
     36   P      89             2.3050000    0.394714010108
     36   P      90             0.7171000    0.627376016066

     37   P      91             0.2137000    1.000000000000

     38   L      92             0.0845000    1.000000000000    1.000000000000

     39   D      93             0.8500000    1.000000000000

 H         

     40   S      94            19.2384000    0.032827991019
     40   S      95             2.8987200    0.231203936751
     40   S      96             0.6534720    0.817225776436

     41   S      97             0.1630642    1.000000000000

 H         

     42   S      98            19.2384000    0.032827991019
     42   S      99             2.8987200    0.231203936751
     42   S     100             0.6534720    0.817225776436

     43   S     101             0.1630642    1.000000000000

 H         

     44   S     102            19.2384000    0.032827991019
     44   S     103             2.8987200    0.231203936751
     44   S     104             0.6534720    0.817225776436

     45   S     105             0.1630642    1.000000000000

 TOTAL NUMBER OF BASIS SET SHELLS             =   45
 NUMBER OF CARTESIAN GAUSSIAN BASIS FUNCTIONS =  105
 NUMBER OF ELECTRONS                          =   40
 CHARGE OF MOLECULE                           =    0
 SPIN MULTIPLICITY                            =    1
 NUMBER OF OCCUPIED ORBITALS (ALPHA)          =   20
 NUMBER OF OCCUPIED ORBITALS (BETA )          =   20
 TOTAL NUMBER OF ATOMS                        =   10
 THE NUCLEAR REPULSION ENERGY IS      180.6878541821

     $CONTRL OPTIONS
     ---------------
 SCFTYP=RHF          RUNTYP=ENERGY       EXETYP=RUN     
 MPLEVL=       0     CITYP =NONE         CCTYP =NONE         VBTYP =NONE    
 DFTTYP=NONE         TDDFT =NONE    
 MULT  =       1     ICHARG=       0     NZVAR =       0     COORD =UNIQUE  
 PP    =NONE         RELWFN=NONE         LOCAL =NONE         NUMGRD=       F
 ISPHER=      -1     NOSYM =       0     MAXIT =      30     UNITS =ANGS    
 PLTORB=       F     MOLPLT=       T     AIMPAC=       F     FRIEND=        
 NPRINT=       7     IREST =       0     GEOM  =INPUT   
 NORMF =       0     NORMP =       0     ITOL  =      20     ICUT  =       9
 INTTYP=BEST         GRDTYP=BEST         QMTTOL= 1.0E-06

     $SYSTEM OPTIONS
     ---------------
  REPLICATED MEMORY=     5000000 WORDS (ON EVERY NODE).
 DISTRIBUTED MEMDDI=           0 MILLION WORDS IN AGGREGATE,
 MEMDDI DISTRIBUTED OVER   1 PROCESSORS IS           0 WORDS/PROCESSOR.
 TOTAL MEMORY REQUESTED ON EACH PROCESSOR=     5000000 WORDS.
 TIMLIM=      525600.00 MINUTES, OR     365.0 DAYS.
 PARALL= F  BALTYP=  DLB     KDIAG=    0  COREFL= F
 MXSEQ2=     300 MXSEQ3=     150  mem10=         0

 READING $EFRAG GROUP
 COORD=CART      POSITION=OPTIMIZE  POLMETHD=FRGSCF   NBUFFMO=0
 READING COORDINATES OF FRAGMENT   1 NAMED   H2ORHF
 READING COORDINATES OF FRAGMENT   2 NAMED   H2ORHF
 READING COORDINATES OF FRAGMENT   3 NAMED   H2ORHF
 FINISHED READING $EFRAG GROUP,   3 FRAGMENTS WILL BE USED.



     SUMMARY OF THE EFFECTIVE FRAGMENT POTENTIAL MODEL CHOSEN
     --------------------------------------------------------
 TOTAL NUMBER OF MULTIPOLE POINTS   =        24  (EFP1/EFP2 ELECTROSTATICS)
 TOTAL NUMBER OF POLARIZABLE POINTS =        15  (EFP1/EFP2 INDUCTION)
 TOTAL NUMBER OF L-J POINTS         =         0  (REPULSION AND DISPERSION)
 TOTAL NUMBER OF REPULSIVE POINTS   =         9  (EFP1 REPULSION/ETC.)

 THIS IS A -EFP1- TYPE RUN, WITH PAULI REPULSION, CHARGE TRANSFER, AND
 HIGHER ORDER EFFECTS COLLECTED IN A FITTED REPULSIVE POTENTIAL.

 OPTIONS FOR EFP SCREENING:
     ELECTROSTATIC AB INITIO-EFP GAUSSIAN SCREENING IS ON
     ELECTROSTATIC EFP-EFP SCREENING CHOICE IS GAUSSIAN, FOR CHARGE/CHARGE

     $EWALD OPTIONS
     -----------

     IFEWLD   =        F         TINFOIL        =        T
     BETA    =    0.200         ELECTRIC CONST =     1.00
     EPSILON =     1.00         CUT_OFF        = 0.10E+04
     CUTLIST =  1000.00         LEVEL          =    1
     KMAX    =       10         EWLDPL         =        F

            MULTIPOLE COORDINATES, ELECTRONIC AND NUCLEAR CHARGES

                  X              Y              Z           ELEC.   NUC.
 ZO1        4.2616684231   4.9752087413  -2.8834554947    8.00000    0.0
 ZH2        5.3133337596   4.8453516682  -4.3182103209    1.00000    0.0
 ZH3        2.6128109912   5.2951344464  -3.4837062449    1.00000    0.0
 O1         4.2616684231   4.9752087413  -2.8834554947   -8.21083    0.0
 H2         5.3133337596   4.8453516682  -4.3182103209   -0.55665    0.0
 H3         2.6128109912   5.2951344464  -3.4837062449   -0.55665    0.0
 B12        4.7875012316   4.9102801601  -3.6008324300   -0.33793    0.0
 B13        3.4372398474   5.1351715492  -3.1835803920   -0.33793    0.0
 ZO1       -1.1795622571   4.3442611163  -4.2479393124    8.00000    0.0
 ZH2       -1.8350527391   3.8400934674  -2.6675812959    1.00000    0.0
 ZH3       -2.5732017004   4.8295860008  -5.2497442382    1.00000    0.0
 O1        -1.1795622571   4.3442611163  -4.2479393124   -8.21083    0.0
 H2        -1.8350527391   3.8400934674  -2.6675812959   -0.55665    0.0
 H3        -2.5732017004   4.8295860008  -5.2497442382   -0.55665    0.0
 B12       -1.5073070169   4.0921772963  -3.4577604400   -0.33793    0.0
 B13       -1.8763814975   4.5869235630  -4.7488419112   -0.33793    0.0
 ZO1        4.1808782847  -5.2682150935  -0.3782572552    8.00000    0.0
 ZH2        3.3224910680  -6.2247248157   0.8585308384    1.00000    0.0
 ZH3        3.3399235677  -5.5568926599  -1.9244929026    1.00000    0.0
 O1         4.1808782847  -5.2682150935  -0.3782572552   -8.21083    0.0
 H2         3.3224910680  -6.2247248157   0.8585308384   -0.55665    0.0
 H3         3.3399235677  -5.5568926599  -1.9244929026   -0.55665    0.0
 B12        3.7516850754  -5.7464696622   0.2401368643   -0.33793    0.0
 B13        3.7604013252  -5.4125535843  -1.1513750062   -0.33793    0.0

   CHARGE SCREENING PARAMETERS (COEF AND ZETA)
   ICHGP=   3 AI-FRAGMENT SCREENING= 1   FRAGMENT-FRAGMENT SCREENING= 1

             GAUSSIAN DAMPING    EXPONENTIAL DAMPING
 ZO1        3.17107   0.30798      3.17107   0.30798
 ZH2       -0.74355   0.22035     -0.74355   0.22035
 ZH3       -0.74355   0.22035     -0.74355   0.22035
 O1         3.06389   0.30817      3.06389   0.30817
 H2        -1.50149   0.23358     -1.50149   0.23358
 H3        -1.50149   0.23358     -1.50149   0.23358
 B12        1.99014   0.44003      1.99014   0.44003
 B13        1.99014   0.44003      1.99014   0.44003
 ZO1        3.17107   0.30798      3.17107   0.30798
 ZH2       -0.74355   0.22035     -0.74355   0.22035
 ZH3       -0.74355   0.22035     -0.74355   0.22035
 O1         3.06389   0.30817      3.06389   0.30817
 H2        -1.50149   0.23358     -1.50149   0.23358
 H3        -1.50149   0.23358     -1.50149   0.23358
 B12        1.99014   0.44003      1.99014   0.44003
 B13        1.99014   0.44003      1.99014   0.44003
 ZO1        3.17107   0.30798      3.17107   0.30798
 ZH2       -0.74355   0.22035     -0.74355   0.22035
 ZH3       -0.74355   0.22035     -0.74355   0.22035
 O1         3.06389   0.30817      3.06389   0.30817
 H2        -1.50149   0.23358     -1.50149   0.23358
 H3        -1.50149   0.23358     -1.50149   0.23358
 B12        1.99014   0.44003      1.99014   0.44003
 B13        1.99014   0.44003      1.99014   0.44003

   SCREENING FOR POLARIZATION WITH EXPONENTIAL FORMULA  OFF

   SCREENING FOR POLARIZATION WITH TANG-TOENNIS FORMULA  OFF

                  DIPOLE MOMENTS AND THE SECOND MOMENT TENSOR

                  X        Y        Z           XX/XY    YY/XZ    ZZ/YZ
 O1           -0.12215  0.03888 -0.41624     -3.66718 -4.52737 -4.03344
                                             -0.15359 -0.13339  0.00262
 H2            0.04300 -0.00603 -0.04109     -0.27840 -0.28466 -0.26870
                                             -0.00088 -0.00650  0.00051
 H3           -0.05796  0.01079 -0.00989     -0.26986 -0.28421 -0.27770
                                             -0.00295  0.00673 -0.00150
 B12          -0.10715  0.01331  0.14416     -0.13202 -0.15595 -0.12705
                                             -0.00384 -0.01381  0.00127
 B13           0.16691 -0.03233  0.05947     -0.11856 -0.15524 -0.14122
                                             -0.00710  0.00703 -0.00189
 O1           -0.41913 -0.00385  0.11834     -4.04496 -4.44067 -3.74236
                                             -0.08099  0.09605 -0.29885
 H2           -0.01187 -0.01873  0.05551     -0.27726 -0.28344 -0.27106
                                              0.00179 -0.00695 -0.00427
 H3           -0.03946  0.01826 -0.04102     -0.26925 -0.28354 -0.27898
                                             -0.00354  0.00594 -0.00262
 B12           0.06507  0.05115 -0.15997     -0.14079 -0.15253 -0.12170
                                              0.00142 -0.00802 -0.01172
 B13           0.13998 -0.04927  0.10208     -0.12817 -0.15269 -0.13416
                                             -0.00698  0.01227 -0.00913
 O1           -0.34758 -0.25469 -0.06329     -4.24778 -4.33801 -3.64220
                                              0.22629  0.05025 -0.17559
 H2           -0.02161 -0.02808  0.04814     -0.27728 -0.27801 -0.27648
                                              0.00700 -0.00497 -0.00581
 H3           -0.02096 -0.00311 -0.05590     -0.27744 -0.28241 -0.27191
                                              0.00394  0.00755  0.00282
 B12           0.08591  0.09619 -0.12573     -0.14278 -0.14396 -0.12828
                                              0.01248 -0.00756 -0.01252
 B13           0.08414  0.02841  0.15670     -0.14303 -0.15090 -0.12110
                                              0.00766  0.01215  0.00108

                  THE THIRD MOMENT TENSOR

               XXX/XYY  YYY/YYZ  ZZZ/XZZ  XXY/YZZ  XXZ/XYZ
 O1           -0.24770  0.08989 -0.94635  0.02229 -0.28822
              -0.09288 -0.32115 -0.11597  0.03312 -0.00517
 H2            0.04646 -0.00753 -0.02837 -0.00180 -0.00794
               0.01721 -0.01428  0.00856 -0.00155 -0.00080
 H3           -0.04747  0.01204 -0.00415  0.00037  0.00480
              -0.02145 -0.00190 -0.01852  0.00331 -0.00140
 B12          -0.33515  0.04189  0.41214  0.01530  0.13629
              -0.10960  0.13817 -0.11059  0.01428  0.00040
 B13           0.49909 -0.09552  0.15404 -0.03216  0.05046
               0.16560  0.05324  0.16778 -0.03200  0.00042
 O1           -0.95534 -0.00879  0.24293 -0.01102  0.10963
              -0.31880  0.08973 -0.29238  0.00541 -0.01302
 H2           -0.00605 -0.02138  0.04693 -0.00615  0.01726
              -0.00229  0.01952  0.00406 -0.00197 -0.00214
 H3           -0.02745  0.02097 -0.04482  0.00309 -0.00866
              -0.01238 -0.01548 -0.00808  0.00495 -0.00274
 B12           0.17103  0.15395 -0.47807  0.05244 -0.16056
               0.05839 -0.15910  0.05636  0.05223  0.00107
 B13           0.39931 -0.14865  0.31885 -0.04970  0.10553
               0.13382  0.10487  0.13199 -0.05153  0.00060
 O1           -0.80192 -0.58464 -0.12728 -0.19350 -0.04856
              -0.26422 -0.06072 -0.23298 -0.17378 -0.00813
 H2           -0.01730 -0.02560  0.04885 -0.00605  0.01513
              -0.00301  0.01435 -0.00185 -0.00395 -0.00428
 H3           -0.01670 -0.00016 -0.04907  0.00144 -0.01646
              -0.00600 -0.02069  0.00158  0.00260  0.00202
 B12           0.24059  0.27722 -0.38739  0.09138 -0.12859
               0.08005 -0.12733  0.07813  0.09192 -0.00052
 B13           0.23522  0.07224  0.47227  0.02282  0.15703
               0.07745  0.15762  0.07714  0.02225  0.00109

                  POLARIZABLE POINTS AND THE POLARIZABILITY TENSOR

              X       Y       Z       XX/YZ    YY/YX    ZZ/ZX    XY/ZY     XZ
 LMO1      4.2616  4.9752 -2.8836   0.00138  0.00132  0.00154 -0.00001  0.00005
                                   -0.00002 -0.00001  0.00005 -0.00002
 LMO2      3.3736  5.1489 -3.2405   2.60934  0.85685  0.95585 -0.35075  0.59299
                                   -0.11315 -0.36536  0.95085 -0.17726
 LMO3      4.8100  4.9097 -3.6843   1.40993  0.79327  2.21884 -0.07461 -0.90740
                                    0.10412 -0.06000 -1.26526  0.16824
 LMO4      4.2563  4.4680 -2.6273   1.30314  0.81378  1.05179 -0.28498 -0.11623
                                   -0.07684 -0.11914 -0.20562 -0.61351
 LMO5      4.4289  5.4309 -2.5880   1.37656  0.68336  1.10879  0.07406 -0.07217
                                    0.08198 -0.09178  0.01721  0.61865
 LMO1     -1.1798  4.3443 -4.2479   0.00154  0.00132  0.00138 -0.00000 -0.00005
                                   -0.00002 -0.00000 -0.00005 -0.00002
 LMO2     -1.9588  4.6020 -4.7700   2.13523  0.93610  1.35071 -0.54544  1.18178
                                   -0.30959 -0.42356  0.84039 -0.27832
 LMO3     -1.5662  4.0758 -3.3966   1.01032  0.94996  2.46176  0.32525 -0.96837
                                   -0.50929  0.20336 -0.62697 -0.54057
 LMO4     -0.8598  4.8061 -4.1624   1.13368  0.81447  1.22056  0.53637  0.27782
                                   -0.22585  0.02323  0.08118 -0.37254
 LMO5     -0.9439  3.8875 -4.4903   1.01081  0.80214  1.35576 -0.64800 -0.14091
                                   -0.18539 -0.13485  0.05573 -0.03870
 LMO1      4.1807 -5.2683 -0.3783   0.00147  0.00140  0.00137  0.00011  0.00003
                                    0.00001  0.00011  0.00003  0.00001
 LMO2      3.7021 -5.4449 -1.2064   1.25658  0.80684  2.35862  0.10588  1.09946
                                    0.48314  0.17234  0.81678  0.26390
 LMO3      3.6928 -5.8001  0.2738   1.27862  1.42529  1.71814  0.60242 -0.93984
                                   -0.94787  0.53596 -0.65716 -0.72864
 LMO4      4.1162 -4.7191 -0.2469   0.57813  1.21331  1.37727  0.52744  0.12150
                                   -0.04173 -0.02562 -0.01121 -0.03826
 LMO5      4.7061 -5.4798 -0.4257   1.29245  0.53843  1.33784 -0.22443 -0.05445
                                   -0.20146  0.32863  0.07827 -0.20492

                    --------------                     ------------------
                      REP POINTS                         REP PARAMETERS  
                    --------------                     ------------------

                X         Y         Z               COEF       N          ZETA

  O1         4.26167   4.97521  -2.88346        -0.00016       0       0.01886
                                                 1.24695       0       0.41986
  H2         5.31333   4.84535  -4.31821         0.00044       0       0.06432
                                                 0.11726       0       0.69633
  H3         2.61281   5.29513  -3.48371         0.00044       0       0.06432
                                                 0.11726       0       0.69633
  O1        -1.17956   4.34426  -4.24794        -0.00016       0       0.01886
                                                 1.24695       0       0.41986
  H2        -1.83505   3.84009  -2.66758         0.00044       0       0.06432
                                                 0.11726       0       0.69633
  H3        -2.57320   4.82959  -5.24974         0.00044       0       0.06432
                                                 0.11726       0       0.69633
  O1         4.18088  -5.26822  -0.37826        -0.00016       0       0.01886
                                                 1.24695       0       0.41986
  H2         3.32249  -6.22472   0.85853         0.00044       0       0.06432
                                                 0.11726       0       0.69633
  H3         3.33992  -5.55689  -1.92449         0.00044       0       0.06432
                                                 0.11726       0       0.69633

 THERE ARE   1 FRAGMENT TYPES, AND   1 FRAGMENT-FRAGMENT INTERACTIONS.

 REPULSIVE FIT FOR FRAGMENT PAIR H2ORHF-H2ORHF (COEF,EXPONENT)
 O1      -O1         -24.26976500    1.43620410
 O1      -H2           3.70228520    1.66183490
 O1      -H3           3.70228520    1.66183490
 O1      -CENTER       4.26456410    1.25780170
 H2      -O1           3.70228520    1.66183490
 H2      -H2           6.23169300    3.52648490
 H2      -H3           6.23169300    3.52648490
 H2      -CENTER      -0.42798437    1.13356290
 H3      -O1           3.70228520    1.66183490
 H3      -H2           6.23169300    3.52648490
 H3      -H3           6.23169300    3.52648490
 H3      -CENTER      -0.42798437    1.13356290
 CENTER  -O1           4.26456410    1.25780170
 CENTER  -H2          -0.42798437    1.13356290
 CENTER  -H3          -0.42798437    1.13356290
 CENTER  -CENTER     128.74969000    1.87124510

 ** LOOKING UP INTERNALLY STORED DATA FOR SOLVENT=WATER    **
 OPTICAL AND PHYSICAL CONSTANTS:
 EPS= 78.390; EPSINF=  1.776; RSOLV=  1.385 A; VMOL=  18.070 ML/MOL;
 TCE= .25700E-03 1/K; STEN= 71.810 DYN/CM;  DSTEN=  0.6500; CMF=  1.2770


     -----------------------------------
     INPUT FOR PCM SOLVATION CALCULATION 
     -----------------------------------
     IEF   =       3
     ICOMP =       0     IFIELD=       0     ICAV  =       0
     IDISP =       0     IREP  =       0     IDP   =       0

     SOLVNT=WATER        EPS   = 78.3900     EPSINF=  1.7760
     VMOL  = 18.0700     TCE   =  0.00025700 STEN  = 71.8100
     DSTEN =  0.6500     CMF   =  1.2770     RSOLV =  1.3850

     NESFP =       0
     OMEGA = 40.0000     RET   =100.0000     FRO   =  0.7000

     TABS  =298.0000     IPRINT=       0

     INPUT FOR ISOTROPIC DIELECTRICS
     -------------------------------
     EPS=    78.39

     INPUT FOR CAVITY DEFINITION 
     ---------------------------
   ATOM               COORDINATES                RADIUS       EPS
      1      0.8549      0.6250      0.7352      1.7000     78.3900
      2      0.9177      1.6889      0.5841      1.2000     78.3900
      3     -0.5472      0.0896      0.3885      1.7000     78.3900
      4      1.8718     -0.0236     -0.1358      1.6000     78.3900
      5      1.0929      0.3865      1.7640      1.2000     78.3900
      6     -1.4120      0.9390      0.1967      1.5000     78.3900
      7     -0.6426     -1.1440      0.3299      1.5000     78.3900
      8      1.9484     -1.0256      0.0275      1.2000     78.3900
      9      1.6376      0.0959     -1.1229      1.2000     78.3900
     10      2.7703      0.4044     -0.0014      1.2000     78.3900
     11      2.2552      2.6328     -1.5259      1.5000     78.3900
     12      2.8117      2.5640     -2.2851      1.2000     78.3900
     13      1.3826      2.8021     -1.8435      1.2000     78.3900
     14     -0.6242      2.2989     -2.2479      1.5000     78.3900
     15     -0.9711      2.0321     -1.4116      1.2000     78.3900
     16     -1.3617      2.5557     -2.7780      1.2000     78.3900
     17      2.2124     -2.7878     -0.2002      1.5000     78.3900
     18      1.7582     -3.2940      0.4543      1.2000     78.3900
     19      1.7674     -2.9406     -1.0184      1.2000     78.3900

     ----------------------------
     INPUT FOR TESSERA DEFINITION
     ----------------------------
     NTSALL  =        60     MTHALL  =         1
     MTHAUT  =         0     AUTFRE  =    2.0000
     NTSFRZ  =        60     KEEPSM  =         0
     AREAKP  =   10.0000     BONDRY  =    1.0000
     AREATL  =    0.0100

     SPHERE     INITS       METHOD
          1        60     GEPOL-GB
          2        60     GEPOL-GB
          3        60     GEPOL-GB
          4        60     GEPOL-GB
          5        60     GEPOL-GB
          6        60     GEPOL-GB
          7        60     GEPOL-GB
          8        60     GEPOL-GB
          9        60     GEPOL-GB
         10        60     GEPOL-GB
         11        60     GEPOL-GB
         12        60     GEPOL-GB
         13        60     GEPOL-GB
         14        60     GEPOL-GB
         15        60     GEPOL-GB
         16        60     GEPOL-GB
         17        60     GEPOL-GB
         18        60     GEPOL-GB
         19        60     GEPOL-GB

 PCM DIMENSIONS: MXSP=  2000, MXTS=      1140, MEMORY=         47083

          ----------------
          PROPERTIES INPUT
          ----------------

     MOMENTS            FIELD           POTENTIAL          DENSITY
 IEMOM =       1   IEFLD =       0   IEPOT =       0   IEDEN =       0
 WHERE =COMASS     WHERE =NUCLEI     WHERE =NUCLEI     WHERE =NUCLEI  
 OUTPUT=BOTH       OUTPUT=BOTH       OUTPUT=BOTH       OUTPUT=BOTH    
 IEMINT=       0   IEFINT=       0                     IEDINT=       0
                                                       MORB  =       0
          EXTRAPOLATION IN EFFECT
          SOSCF IN EFFECT
 ORBITAL PRINTING OPTION: NPREO=     1   105     2     1

     -------------------------------
     INTEGRAL TRANSFORMATION OPTIONS
     -------------------------------
     NWORD  =            0
     CUTOFF = 1.0E-09     MPTRAN =       0
     DIRTRF =       F     AOINTS =DUP     

          ----------------------
          INTEGRAL INPUT OPTIONS
          ----------------------
 NOPK  =       1 NORDER=       0 SCHWRZ=       T

     ------------------------------------------
     THE POINT GROUP IS C1 , NAXIS= 1, ORDER= 1
     ------------------------------------------

     DIMENSIONS OF THE SYMMETRY SUBSPACES ARE
 A   =  105

 ..... DONE SETTING UP THE RUN .....
 STEP CPU TIME =     0.03 TOTAL CPU TIME =        0.0 (    0.0 MIN)
 TOTAL WALL CLOCK TIME=        0.1 SECONDS, CPU UTILIZATION IS  42.86%

          ********************
          1 ELECTRON INTEGRALS
          ********************
 TIME TO DO ORDINARY INTEGRALS=      0.01
 TIME TO DO FRAGMENT INTEGRALS=      0.28
 ...... END OF ONE-ELECTRON INTEGRALS ......
 STEP CPU TIME =     0.29 TOTAL CPU TIME =        0.3 (    0.0 MIN)
 TOTAL WALL CLOCK TIME=        0.4 SECONDS, CPU UTILIZATION IS  88.89%

          -------------
          GUESS OPTIONS
          -------------
          GUESS =HUCKEL            NORB  =       0          NORDER=       0
          MIX   =       F          PRTMO =       F          PUNMO =       F
          TOLZ  = 1.0E-08          TOLE  = 1.0E-05
          SYMDEN=       F          PURIFY=       F

 INITIAL GUESS ORBITALS GENERATED BY HUCKEL   ROUTINE.
 HUCKEL GUESS REQUIRES     91185 WORDS.

 SYMMETRIES FOR INITIAL GUESS ORBITALS FOLLOW.   BOTH SET(S).
    20 ORBITALS ARE OCCUPIED (    5 CORE ORBITALS).
     6=A        7=A        8=A        9=A       10=A       11=A       12=A   
    13=A       14=A       15=A       16=A       17=A       18=A       19=A   
    20=A       21=A       22=A       23=A       24=A       25=A       26=A   
    27=A       28=A       29=A       30=A   
 ...... END OF INITIAL ORBITAL SELECTION ......
 STEP CPU TIME =     0.02 TOTAL CPU TIME =        0.3 (    0.0 MIN)
 TOTAL WALL CLOCK TIME=        0.4 SECONDS, CPU UTILIZATION IS  89.47%

                    ----------------------
                    AO INTEGRAL TECHNOLOGY
                    ----------------------
     S,P,L SHELL ROTATED AXIS INTEGRALS, REPROGRAMMED BY
        KAZUYA ISHIMURA (IMS) AND JOSE SIERRA (SYNSTAR).
     S,P,D,L SHELL ROTATED AXIS INTEGRALS PROGRAMMED BY
        KAZUYA ISHIMURA (INSTITUTE FOR MOLECULAR SCIENCE).
     S,P,D,F,G SHELL TO TOTAL QUARTET ANGULAR MOMENTUM SUM 5,
        ERIC PROGRAM BY GRAHAM FLETCHER (ELORET AND NASA ADVANCED
        SUPERCOMPUTING DIVISION, AMES RESEARCH CENTER).
     S,P,D,F,G,L SHELL GENERAL RYS QUADRATURE PROGRAMMED BY
        MICHEL DUPUIS (PACIFIC NORTHWEST NATIONAL LABORATORY).

          --------------------
          2 ELECTRON INTEGRALS
          --------------------

 THE -PK- OPTION IS OFF, THE INTEGRALS ARE NOT IN SUPERMATRIX FORM.
 STORING   15000 INTEGRALS/RECORD ON DISK, USING 12 BYTES/INTEGRAL.
 TWO ELECTRON INTEGRAL EVALUATION REQUIRES   91431 WORDS OF MEMORY.
 SCHWARZ INEQUALITY OVERHEAD:      5563 INTEGRALS, T=        0.00
 II,JST,KST,LST =  1  1  1  1 NREC =         1 INTLOC =    1
 II,JST,KST,LST =  2  1  1  1 NREC =         1 INTLOC =    2
 II,JST,KST,LST =  3  1  1  1 NREC =         1 INTLOC =    7
 II,JST,KST,LST =  4  1  1  1 NREC =         1 INTLOC =   22
 II,JST,KST,LST =  5  1  1  1 NREC =         1 INTLOC =   67
 II,JST,KST,LST =  6  1  1  1 NREC =         1 INTLOC =  214
 II,JST,KST,LST =  7  1  1  1 NREC =         1 INTLOC =  776
 II,JST,KST,LST =  8  1  1  1 NREC =         1 INTLOC = 2864
 II,JST,KST,LST =  9  1  1  1 NREC =         1 INTLOC = 6874
 II,JST,KST,LST = 10  1  1  1 NREC =         1 INTLOC =11515
 II,JST,KST,LST = 11  1  1  1 NREC =         2 INTLOC = 1848
 II,JST,KST,LST = 12  1  1  1 NREC =         2 INTLOC = 7943
 II,JST,KST,LST = 13  1  1  1 NREC =         2 INTLOC =14867
 II,JST,KST,LST = 14  1  1  1 NREC =         4 INTLOC =11183
 II,JST,KST,LST = 15  1  1  1 NREC =         7 INTLOC = 2240
 II,JST,KST,LST = 16  1  1  1 NREC =        11 INTLOC = 8616
 II,JST,KST,LST = 17  1  1  1 NREC =        21 INTLOC = 6043
 II,JST,KST,LST = 18  1  1  1 NREC =        23 INTLOC = 8820
 II,JST,KST,LST = 19  1  1  1 NREC =        26 INTLOC =  747
 II,JST,KST,LST = 20  1  1  1 NREC =        28 INTLOC =10456
 II,JST,KST,LST = 21  1  1  1 NREC =        37 INTLOC =11746
 II,JST,KST,LST = 22  1  1  1 NREC =        48 INTLOC =11941
 II,JST,KST,LST = 23  1  1  1 NREC =        66 INTLOC =12642
 II,JST,KST,LST = 24  1  1  1 NREC =       102 INTLOC = 1119
 II,JST,KST,LST = 25  1  1  1 NREC =       109 INTLOC = 3911
 II,JST,KST,LST = 26  1  1  1 NREC =       116 INTLOC =12343
 II,JST,KST,LST = 27  1  1  1 NREC =       122 INTLOC =14097
 II,JST,KST,LST = 28  1  1  1 NREC =       130 INTLOC = 7530
 II,JST,KST,LST = 29  1  1  1 NREC =       139 INTLOC = 1835
 II,JST,KST,LST = 30  1  1  1 NREC =       166 INTLOC = 2082
 II,JST,KST,LST = 31  1  1  1 NREC =       198 INTLOC = 7147
 II,JST,KST,LST = 32  1  1  1 NREC =       248 INTLOC = 9027
 II,JST,KST,LST = 33  1  1  1 NREC =       334 INTLOC =14743
 II,JST,KST,LST = 34  1  1  1 NREC =       349 INTLOC = 4881
 II,JST,KST,LST = 35  1  1  1 NREC =       366 INTLOC =10919
 II,JST,KST,LST = 36  1  1  1 NREC =       385 INTLOC = 6277
 II,JST,KST,LST = 37  1  1  1 NREC =       444 INTLOC = 2797
 II,JST,KST,LST = 38  1  1  1 NREC =       511 INTLOC = 1838
 II,JST,KST,LST = 39  1  1  1 NREC =       611 INTLOC =10847
 II,JST,KST,LST = 40  1  1  1 NREC =       784 INTLOC = 3134
 II,JST,KST,LST = 41  1  1  1 NREC =       813 INTLOC = 2626
 II,JST,KST,LST = 42  1  1  1 NREC =       846 INTLOC =13231
 II,JST,KST,LST = 43  1  1  1 NREC =       879 INTLOC =10324
 II,JST,KST,LST = 44  1  1  1 NREC =       915 INTLOC = 8068
 II,JST,KST,LST = 45  1  1  1 NREC =       944 INTLOC = 3558
 SCHWARZ INEQUALITY TEST SKIPPED       32020 INTEGRAL BLOCKS.
 TOTAL NUMBER OF NONZERO TWO-ELECTRON INTEGRALS =            14710564
        981 INTEGRAL RECORDS WERE STORED ON DISK FILE  8.
  ...... END OF TWO-ELECTRON INTEGRALS .....
 STEP CPU TIME =     1.28 TOTAL CPU TIME =        1.6 (    0.0 MIN)
 TOTAL WALL CLOCK TIME=        1.9 SECONDS, CPU UTILIZATION IS  84.82%

 EFP ADDITIVE CONTRIBUTIONS TO THE "NUCLEAR ENERGY":
   -- NUCLEAR CHARGE - NUCLEAR CHARGE   =      180.6878541821
   -- NUCLEAR CHARGE - EFP CHARGE       =       -0.2630444910
   -- NUCLEAR CHARGE - EFP DIPOLE       =       -0.0926344142
   -- NUCLEAR CHARGE - EFP QUADRUPOLE   =       -0.0540508572
   -- NUCLEAR CHARGE - EFP OCTUPOLE     =       -0.0019538107
   -- EFP CHARGE     - EFP CHARGE       =       -0.0034059952
   -- EFP CHARGE     - EFP DIPOLE       =       -0.0028604662
   -- EFP CHARGE     - EFP QUADRUPOLE   =       -0.0008146659
   -- EFP CHARGE     - EFP OCTUPOLE     =        0.0000030010
   -- EFP DIPOLE     - EFP DIPOLE       =       -0.0004811922
   -- EFP DIPOLE     - EFP QUADRUPOLE   =       -0.0003612216
   -- EFP QUADRUPOLE - EFP QUADRUPOLE   =       -0.0000029258
   -- EFP-EFP EXCHANGE REPULSION ENERGY =        0.0028544516
   -- EFP-EFP DISPERSION ENERGY (C6)    =        0.0000000000
   -- EFP-EFP DISPERSION ENERGY (C8)    =        0.0000000000
   -- TOTAL INTERFRAGMENT INTERACTION   =       -0.0050690142
 THE TOTAL NUCLEAR CHARGE/EFP ENERGY    =      180.2711015947

          --------------------------
                 RHF SCF CALCULATION
          --------------------------

     NUCLEAR ENERGY =       180.2711015947
     MAXIT =   30     NPUNCH=    2
     EXTRAP=T  DAMP=F  SHIFT=F  RSTRCT=F  DIIS=F  DEM=F  SOSCF=T
     DENSITY MATRIX CONV=  1.00E-05
     SOSCF WILL OPTIMIZE    1700 ORBITAL ROTATIONS, SOGTOL=   0.250
     MEMORY REQUIRED FOR RHF ITERS=    132275 WORDS.

 ITER EX DEM     TOTAL ENERGY        E CHANGE  DENSITY CHANGE     ORB. GRAD
   1  0  0     -281.7546663043  -281.7546663043   0.373548214   0.000000000
          ---------------START SECOND ORDER SCF---------------
   2  1  0     -282.7112157336    -0.9565494293   0.260733504   0.090399179
   3  2  0     -282.8142349303    -0.1030191967   0.149782681   0.076148046
   4  3  0     -282.8964656589    -0.0822307286   0.019773313   0.007147618
   5  4  0     -282.8977440523    -0.0012783934   0.007170777   0.002434230
   6  5  0     -282.8979412202    -0.0001971679   0.004661165   0.000701346
   7  6  0     -282.8979581140    -0.0000168938   0.001432634   0.000242923
   8  7  0     -282.8979597112    -0.0000015972   0.000399513   0.000091521
   9  8  0     -282.8979599463    -0.0000002351   0.000108743   0.000040488
  10  9  0     -282.8979599903    -0.0000000440   0.000049873   0.000007996
  11 10  0     -282.8979599935    -0.0000000032   0.000016259   0.000001583
  12 11  0     -282.8979599938    -0.0000000003   0.000010897   0.000000667
  13 12  0     -282.8979599938    -0.0000000000   0.000003170   0.000000200

          -----------------
          DENSITY CONVERGED
          -----------------
     TIME TO FORM FOCK OPERATORS=       2.5 SECONDS (       0.2 SEC/ITER)
     TIME TO SOLVE SCF EQUATIONS=       0.0 SECONDS (       0.0 SEC/ITER)

 FINAL RHF ENERGY IS     -282.8979599938 AFTER  13 ITERATIONS

          INDUCED DIPOLE     ATOMIC UNITS          DEBYE
                X(IND)           -0.34152         -0.86806
                Y(IND)           -0.13518         -0.34360
                Z(IND)            0.03462          0.08800

          ------------
          EIGENVECTORS
          ------------

                      1          2          3          4          5
                  -20.4646   -20.4621   -15.6948   -11.3212   -11.2843
                     A          A          A          A          A   
    1  C  1  S   -0.000005  -0.000008   0.000018   0.007639   0.998637
    2  C  1  S   -0.000076  -0.000085   0.000056   0.000276   0.005522
    3  C  1  S    0.000237   0.000348  -0.000316  -0.000817   0.001165
    4  C  1  X    0.000007   0.000001   0.000197  -0.000361   0.001059
    5  C  1  Y   -0.000013   0.000012  -0.000130  -0.000149  -0.000378
    6  C  1  Z   -0.000005  -0.000002  -0.000167  -0.000098  -0.000386
    7  C  1  X    0.000051  -0.000176  -0.000243   0.000196  -0.000505
    8  C  1  Y   -0.000162   0.000058   0.000149   0.000148   0.000197
    9  C  1  Z    0.000010  -0.000016   0.000097   0.000055   0.000222
   10  C  1  S    0.000239  -0.000079  -0.000644   0.000055   0.000782
   11  C  1  X    0.000168  -0.000173  -0.000040  -0.000053  -0.000184
   12  C  1  Y   -0.000192   0.000229   0.000091  -0.000033  -0.000111
   13  C  1  Z   -0.000035   0.000005   0.000110   0.000020  -0.000109
   14  C  1 XX    0.000014   0.000020   0.000121   0.000244  -0.000875
   15  C  1 YY    0.000010  -0.000007   0.000043   0.000024  -0.000701
   16  C  1 ZZ   -0.000018  -0.000023   0.000082   0.000028  -0.000713
   17  C  1 XY    0.000013   0.000001  -0.000100   0.000120  -0.000011
   18  C  1 XZ    0.000007   0.000011  -0.000130   0.000076   0.000032
   19  C  1 YZ    0.000006   0.000002   0.000087   0.000029  -0.000071
   20  H  2  S   -0.000024   0.000002   0.000020   0.000043   0.000622
   21  H  2  S    0.000049  -0.000099  -0.000056   0.000044  -0.000491
   22  C  3  S   -0.000069  -0.000064   0.000006   0.998840  -0.007791
   23  C  3  S    0.000208   0.000230   0.000017   0.003950   0.000036
   24  C  3  S    0.000115   0.000045  -0.000024   0.000196   0.000603
   25  C  3  X    0.000177   0.000080   0.000007   0.000295   0.000441
   26  C  3  Y   -0.000080   0.000149  -0.000002   0.000144   0.000190
   27  C  3  Z    0.000042   0.000026   0.000005   0.000083   0.000119
   28  C  3  X   -0.000304   0.000051  -0.000122   0.000265  -0.000608
   29  C  3  Y    0.000647  -0.000860  -0.000124   0.000145   0.000238
   30  C  3  Z   -0.000071  -0.000014  -0.000015   0.000038  -0.000175
   31  C  3  S    0.000101   0.000228   0.000224  -0.000355  -0.000881
   32  C  3  X   -0.000350   0.000163   0.000046  -0.000117  -0.000344
   33  C  3  Y    0.000528  -0.000641  -0.000028  -0.000001  -0.000095
   34  C  3  Z   -0.000007  -0.000013  -0.000001  -0.000036  -0.000015
   35  C  3 XX   -0.000323  -0.000110   0.000006  -0.000506   0.000393
   36  C  3 YY   -0.000419  -0.000622   0.000013  -0.000299   0.000030
   37  C  3 ZZ   -0.000042  -0.000026   0.000011  -0.000755  -0.000008
   38  C  3 XY    0.000290   0.000018   0.000003  -0.000129   0.000241
   39  C  3 XZ   -0.000079  -0.000025   0.000008   0.000059   0.000143
   40  C  3 YZ    0.000064  -0.000016  -0.000007  -0.000017   0.000068
   41  N  4  S    0.000004   0.000001   0.999100   0.000002  -0.000123
   42  N  4  S    0.000019   0.000002   0.002789  -0.000012   0.000425
   43  N  4  S   -0.000106  -0.000050   0.001189   0.000139  -0.000927
   44  N  4  X   -0.000005   0.000013   0.000197  -0.000004  -0.000250
   45  N  4  Y   -0.000001   0.000005   0.000049   0.000004   0.000154
   46  N  4  Z    0.000003  -0.000000  -0.000166   0.000008   0.000202
   47  N  4  X    0.000038   0.000007  -0.000072  -0.000019   0.000384
   48  N  4  Y   -0.000004  -0.000033  -0.000124   0.000067  -0.000252
   49  N  4  Z   -0.000048  -0.000044   0.000067   0.000080  -0.000321
   50  N  4  S   -0.000275   0.000373   0.001217   0.000034   0.000776
   51  N  4  X   -0.000025  -0.000046  -0.000123   0.000044  -0.000430
   52  N  4  Y   -0.000063   0.000040   0.000086   0.000021   0.000210
   53  N  4  Z   -0.000062   0.000123   0.000072  -0.000039   0.000330
   54  N  4 XX    0.000007  -0.000005  -0.000155  -0.000002   0.000086
   55  N  4 YY    0.000012   0.000000  -0.000089   0.000002   0.000082
   56  N  4 ZZ    0.000010  -0.000001  -0.000148   0.000003   0.000071
   57  N  4 XY    0.000002  -0.000001   0.000033  -0.000004   0.000001
   58  N  4 XZ    0.000003  -0.000000   0.000042  -0.000005   0.000002
   59  N  4 YZ    0.000001  -0.000000  -0.000036  -0.000002  -0.000003
   60  H  5  S    0.000003  -0.000006   0.000020   0.000030   0.000561
   61  H  5  S   -0.000070  -0.000085  -0.000008   0.000144  -0.000470
   62  O  6  S    0.999915   0.006723  -0.000002  -0.000333   0.000030
   63  O  6  S   -0.000099  -0.000079  -0.000007   0.000482   0.000115
   64  O  6  S    0.000147   0.000382   0.000034  -0.000018  -0.000529
   65  O  6  X    0.001173   0.000053  -0.000003   0.000620  -0.000017
   66  O  6  Y   -0.001006  -0.000010   0.000001  -0.000635  -0.000008
   67  O  6  Z    0.000200   0.000014   0.000003   0.000134  -0.000001
   68  O  6  X   -0.000547   0.000272   0.000026   0.000053  -0.000229
   69  O  6  Y    0.000419  -0.000156   0.000010  -0.000209   0.000158
   70  O  6  Z   -0.000081   0.000059   0.000008   0.000006  -0.000046
   71  O  6  S   -0.001117   0.000663  -0.000029   0.000259  -0.000953
   72  O  6  X    0.000166  -0.000005  -0.000022   0.000064  -0.000185
   73  O  6  Y   -0.000160   0.000118   0.000021   0.000030   0.000245
   74  O  6  Z   -0.000003   0.000020  -0.000027   0.000022  -0.000051
   75  O  6 XX    0.000900   0.000074  -0.000003   0.000144   0.000048
   76  O  6 YY    0.000875  -0.000033  -0.000009   0.000235   0.000033
   77  O  6 ZZ    0.000581  -0.000063  -0.000006  -0.000023   0.000089
   78  O  6 XY   -0.000180  -0.000060   0.000001  -0.000356   0.000009
   79  O  6 XZ    0.000084   0.000040   0.000002   0.000038  -0.000015
   80  O  6 YZ   -0.000036  -0.000014  -0.000002  -0.000074  -0.000002
   81  O  7  S   -0.006737   0.999927   0.000004  -0.000314   0.000022
   82  O  7  S   -0.000068  -0.000140   0.000011   0.000449   0.000059
   83  O  7  S    0.000313   0.000100  -0.000057   0.000021  -0.000280
   84  O  7  X    0.000031   0.000232   0.000000   0.000043  -0.000022
   85  O  7  Y    0.000023   0.001522   0.000001   0.000868  -0.000019
   86  O  7  Z    0.000010   0.000072  -0.000001   0.000038  -0.000000
   87  O  7  X    0.000068  -0.000135  -0.000009  -0.000078   0.000046
   88  O  7  Y    0.000295  -0.000724  -0.000030   0.000247  -0.000172
   89  O  7  Z    0.000031  -0.000037   0.000004  -0.000014  -0.000003
   90  O  7  S    0.000701  -0.001416  -0.000184   0.000424   0.000192
   91  O  7  X    0.000076  -0.000014   0.000013   0.000097   0.000005
   92  O  7  Y   -0.000066   0.000162  -0.000040   0.000020   0.000146
   93  O  7  Z    0.000006   0.000003   0.000030   0.000031   0.000012
   94  O  7 XX   -0.000030   0.000741   0.000010  -0.000118   0.000038
   95  O  7 YY    0.000067   0.001041   0.000002   0.000510  -0.000003
   96  O  7 ZZ   -0.000069   0.000604   0.000011  -0.000037   0.000056
   97  O  7 XY    0.000067   0.000041   0.000001  -0.000008   0.000033
   98  O  7 XZ    0.000014   0.000046   0.000003  -0.000025  -0.000012
   99  O  7 YZ    0.000023   0.000024  -0.000001   0.000015   0.000005
  100  H  8  S    0.000009   0.000000   0.000376  -0.000012   0.000043
  101  H  8  S    0.000020  -0.000055  -0.000519   0.000047  -0.000027
  102  H  9  S    0.000008   0.000001   0.000358  -0.000008   0.000052
  103  H  9  S   -0.000002  -0.000073  -0.000411   0.000040  -0.000037
  104  H 10  S   -0.000004   0.000010   0.000357   0.000000   0.000036
  105  H 10  S    0.000052  -0.000018  -0.000364  -0.000065   0.000026

                      6          7          8          9         10
                   -1.3666    -1.3251    -1.2542    -0.9890    -0.8000
                     A          A          A          A          A   
    1  C  1  S   -0.045719  -0.053382   0.004926  -0.177210  -0.009143
    2  C  1  S    0.085451   0.098523  -0.009681   0.351191   0.018001
    3  C  1  S    0.048210   0.059694  -0.005030   0.319743   0.006300
    4  C  1  X   -0.014504   0.076469  -0.004260  -0.023126   0.153100
    5  C  1  Y   -0.026913  -0.030802  -0.013210   0.012063   0.085947
    6  C  1  Z   -0.027232  -0.045255   0.006189   0.022107   0.092682
    7  C  1  X    0.009812  -0.030928   0.003667   0.001058   0.022526
    8  C  1  Y    0.003695   0.007219  -0.006278   0.004975   0.026327
    9  C  1  Z    0.003016   0.011372   0.002244  -0.005515   0.003489
   10  C  1  S   -0.026796  -0.094177   0.001339   0.060604   0.037803
   11  C  1  X    0.006598  -0.003623  -0.012664   0.002679   0.039291
   12  C  1  Y    0.003951   0.016730   0.010625  -0.009547  -0.007011
   13  C  1  Z   -0.002009   0.015235  -0.001234  -0.008180  -0.008611
   14  C  1 XX    0.011375   0.004679  -0.000706   0.007920   0.002576
   15  C  1 YY    0.002231   0.002343  -0.000260   0.015299   0.001603
   16  C  1 ZZ    0.002956   0.006447  -0.000489   0.014672   0.000308
   17  C  1 XY    0.001458  -0.009143   0.001539   0.003868  -0.004230
   18  C  1 XZ   -0.000680  -0.011098   0.000868   0.005845  -0.002444
   19  C  1 YZ    0.003285   0.005480  -0.000073  -0.005326  -0.008782
   20  H  2  S    0.017262   0.020683  -0.007572   0.118901   0.040277
   21  H  2  S   -0.009650  -0.005988  -0.000209   0.021508   0.011055
   22  C  3  S   -0.134548   0.047969  -0.005952  -0.034541   0.035449
   23  C  3  S    0.262927  -0.092264   0.011155   0.071479  -0.076804
   24  C  3  S    0.072047  -0.028865   0.005767   0.051510  -0.067113
   25  C  3  X   -0.069182   0.069630   0.101888   0.164504  -0.104506
   26  C  3  Y   -0.020218  -0.005681  -0.290649   0.061435  -0.036833
   27  C  3  Z   -0.020779   0.013291   0.017412   0.042549   0.000540
   28  C  3  X    0.035302  -0.046586  -0.026961  -0.036584   0.047415
   29  C  3  Y    0.007103  -0.003000   0.078717  -0.016885  -0.021068
   30  C  3  Z    0.007912  -0.010534  -0.006257  -0.009982   0.005391
   31  C  3  S    0.026801   0.037990   0.002426  -0.005560  -0.012226
   32  C  3  X    0.013174   0.001760   0.012733  -0.011302  -0.008726
   33  C  3  Y    0.004394  -0.004252  -0.017786  -0.004282   0.010565
   34  C  3  Z    0.005074  -0.000001  -0.001522  -0.002160   0.009962
   35  C  3 XX   -0.000911   0.003639  -0.017775   0.015623  -0.007168
   36  C  3 YY    0.022556  -0.008722   0.020003  -0.006397   0.002971
   37  C  3 ZZ   -0.014531   0.005750  -0.001510   0.000411  -0.000268
   38  C  3 XY   -0.013048   0.009665   0.022547   0.011211  -0.001347
   39  C  3 XZ    0.003354  -0.000640  -0.004520   0.004432  -0.000455
   40  C  3 YZ   -0.001864   0.001846   0.006516   0.002322  -0.001089
   41  N  4  S   -0.072896  -0.193410   0.017527   0.050687   0.004211
   42  N  4  S    0.156355   0.411478  -0.037966  -0.109213  -0.006769
   43  N  4  S    0.120625   0.359513  -0.034295  -0.145701  -0.032264
   44  N  4  X   -0.009553   0.010961  -0.008139  -0.180382   0.355265
   45  N  4  Y    0.003216   0.003240  -0.003867   0.105981   0.266492
   46  N  4  Z    0.004151  -0.004787   0.003429   0.151696   0.285512
   47  N  4  X    0.007961   0.014831  -0.007197  -0.054620   0.135995
   48  N  4  Y   -0.006749  -0.015118  -0.001916   0.035589   0.107216
   49  N  4  Z   -0.006664  -0.008108  -0.001500   0.043820   0.118645
   50  N  4  S    0.014727   0.160301  -0.002389  -0.090160  -0.110950
   51  N  4  X   -0.002774  -0.025818   0.004928   0.020294   0.000696
   52  N  4  Y   -0.004968   0.009033   0.002825  -0.007002  -0.021653
   53  N  4  Z    0.001933   0.019701   0.003041  -0.015868  -0.026704
   54  N  4 XX    0.006296   0.014765  -0.000857   0.000473   0.024750
   55  N  4 YY    0.006581   0.016990  -0.001448  -0.007506  -0.005015
   56  N  4 ZZ    0.006314   0.015351  -0.001606  -0.003051  -0.019600
   57  N  4 XY    0.000270   0.001911   0.000244  -0.009676   0.016384
   58  N  4 XZ    0.000206   0.002552  -0.000638  -0.012150  -0.002117
   59  N  4 YZ   -0.000050  -0.001093  -0.000116   0.007901   0.008707
   60  H  5  S    0.016937   0.021579   0.000027   0.122118   0.050124
   61  H  5  S   -0.011321  -0.005313  -0.002636   0.041394   0.032803
   62  O  6  S   -0.130429   0.070286   0.151402   0.036978  -0.018690
   63  O  6  S    0.277781  -0.149839  -0.323519  -0.079948   0.038746
   64  O  6  S    0.211744  -0.115532  -0.244268  -0.078727   0.057774
   65  O  6  X    0.074239  -0.035177  -0.074718   0.030047  -0.044776
   66  O  6  Y   -0.075400   0.038157   0.046145   0.023208  -0.002429
   67  O  6  Z    0.013860  -0.007440  -0.014517   0.009471  -0.000390
   68  O  6  X    0.012079  -0.004886   0.006255   0.007381  -0.014127
   69  O  6  Y   -0.004750   0.001651  -0.014381   0.000847  -0.002394
   70  O  6  Z   -0.000019   0.001018   0.005081   0.002830   0.002274
   71  O  6  S    0.017403  -0.044326  -0.115257  -0.032462   0.065126
   72  O  6  X   -0.006168  -0.005812  -0.043036   0.002756   0.013460
   73  O  6  Y   -0.008487   0.015595   0.034491   0.013277  -0.014562
   74  O  6  Z   -0.001385  -0.004084  -0.007837   0.000722   0.002207
   75  O  6 XX    0.006628  -0.003218  -0.007755   0.002744  -0.004198
   76  O  6 YY    0.007014  -0.003662  -0.002427  -0.003310   0.001200
   77  O  6 ZZ   -0.000555   0.000321   0.000790   0.000211  -0.000221
   78  O  6 XY   -0.010662   0.005113   0.007256   0.000644   0.001355
   79  O  6 XZ    0.001541  -0.000975  -0.002113   0.000684   0.000199
   80  O  6 YZ   -0.002685   0.001321   0.002217   0.000160  -0.000484
   81  O  7  S   -0.123755   0.042382  -0.166561   0.035878  -0.027475
   82  O  7  S    0.264986  -0.089952   0.355447  -0.077401   0.062108
   83  O  7  S    0.198206  -0.073459   0.274464  -0.077692   0.057164
   84  O  7  X    0.007350   0.006661   0.024941   0.034546  -0.054396
   85  O  7  Y    0.101615  -0.034586   0.095220   0.004376  -0.030275
   86  O  7  Z    0.002953  -0.001230   0.007901   0.010473   0.006319
   87  O  7  X    0.005223  -0.001156   0.007295   0.004661  -0.017766
   88  O  7  Y    0.012100  -0.008175  -0.011787   0.003460  -0.009215
   89  O  7  Z    0.000335  -0.000517  -0.000619   0.002242   0.002221
   90  O  7  S    0.006580  -0.012445   0.110096  -0.031544   0.036774
   91  O  7  X   -0.010412   0.007273   0.003791   0.011125   0.000862
   92  O  7  Y   -0.000364   0.001351   0.052205  -0.006834   0.006598
   93  O  7  Z   -0.002333   0.004903   0.003373   0.001653  -0.002938
   94  O  7 XX   -0.001403   0.001391  -0.000828   0.000431   0.000040
   95  O  7 YY    0.016266  -0.005804   0.012640  -0.000781  -0.000906
   96  O  7 ZZ   -0.000785   0.000707  -0.001927   0.000293   0.000499
   97  O  7 XY    0.001247   0.000483   0.004189   0.002978  -0.003936
   98  O  7 XZ   -0.000513   0.000153   0.000092   0.000286   0.000145
   99  O  7 YZ    0.000678  -0.000247   0.001408   0.000794   0.000444
  100  H  8  S    0.036502   0.098128  -0.007862  -0.063907  -0.078917
  101  H  8  S   -0.016608  -0.050417   0.002707   0.018762   0.012960
  102  H  9  S    0.038800   0.105914  -0.010590  -0.069477  -0.151770
  103  H  9  S   -0.009314  -0.024121  -0.001130   0.000136  -0.034783
  104  H 10  S    0.037781   0.111577  -0.012639  -0.072096   0.214653
  105  H 10  S   -0.006974  -0.023761   0.002540  -0.004783   0.092083

                     11         12         13         14         15
                   -0.7829    -0.7099    -0.6614    -0.6102    -0.6035
                     A          A          A          A          A   
    1  C  1  S   -0.002331   0.003695   0.036702  -0.002644   0.007383
    2  C  1  S    0.005086  -0.003693  -0.071096   0.003637  -0.013813
    3  C  1  S    0.002124   0.025614  -0.175954   0.005697  -0.031472
    4  C  1  X   -0.011339  -0.304812   0.033741   0.143150  -0.129540
    5  C  1  Y    0.141121   0.014999  -0.231959  -0.187433  -0.287508
    6  C  1  Z   -0.117974   0.088534  -0.276384   0.311195   0.033921
    7  C  1  X    0.035092  -0.028593  -0.028454   0.062405  -0.058829
    8  C  1  Y   -0.012370   0.000433  -0.012480  -0.075795  -0.080330
    9  C  1  Z    0.015954  -0.012824  -0.028935   0.094465   0.018186
   10  C  1  S    0.010020   0.018436  -0.050694  -0.000825   0.061233
   11  C  1  X    0.040590   0.009104   0.021874   0.006254   0.000131
   12  C  1  Y   -0.000766  -0.005116   0.004393   0.010246   0.002420
   13  C  1  Z   -0.022175  -0.006545  -0.003743  -0.021251  -0.014451
   14  C  1 XX   -0.001456   0.008839   0.018239  -0.005640   0.010497
   15  C  1 YY    0.002779  -0.002161  -0.015766  -0.017277  -0.020316
   16  C  1 ZZ   -0.000439  -0.005795  -0.011565   0.025943   0.005144
   17  C  1 XY    0.007965   0.018673  -0.007578  -0.005385   0.002697
   18  C  1 XZ   -0.006972   0.017869  -0.015775   0.003935   0.002708
   19  C  1 YZ   -0.001002  -0.007730   0.018300  -0.005793   0.003812
   20  H  2  S    0.065470  -0.007061  -0.126922  -0.109580  -0.153837
   21  H  2  S    0.053226  -0.006863  -0.083074  -0.064844  -0.094639
   22  C  3  S   -0.001639  -0.107041  -0.074229  -0.018535   0.026457
   23  C  3  S    0.001399   0.235486   0.167453   0.050364  -0.072309
   24  C  3  S    0.016585   0.188534   0.171404   0.071387  -0.075828
   25  C  3  X   -0.006064   0.120343  -0.001183  -0.177642   0.322507
   26  C  3  Y    0.003526   0.068912  -0.048828  -0.195686  -0.053171
   27  C  3  Z   -0.021436   0.069039  -0.074772   0.081645   0.112821
   28  C  3  X    0.025910   0.047699   0.042403  -0.011754   0.001509
   29  C  3  Y    0.041209  -0.031439  -0.005548   0.039486  -0.018203
   30  C  3  Z   -0.009853   0.004499  -0.007835   0.001296   0.005148
   31  C  3  S    0.062490   0.025267   0.068941   0.052602  -0.086374
   32  C  3  X    0.013710   0.005270   0.016765   0.007612  -0.019857
   33  C  3  Y    0.020287   0.003087   0.005385  -0.003144  -0.014149
   34  C  3  Z    0.007090   0.005235   0.005695   0.012275   0.010279
   35  C  3 XX   -0.001900   0.004919   0.005009   0.001021   0.004720
   36  C  3 YY    0.001707   0.002647  -0.000462  -0.004856  -0.000015
   37  C  3 ZZ   -0.001177  -0.003100  -0.004683  -0.000754   0.002727
   38  C  3 XY    0.003383   0.005100  -0.004125  -0.003664  -0.001171
   39  C  3 XZ   -0.001768   0.003563  -0.000784   0.002324  -0.000158
   40  C  3 YZ    0.000096   0.001104  -0.001088  -0.000254  -0.000642
   41  N  4  S    0.006900   0.015474  -0.020291   0.000076   0.001898
   42  N  4  S   -0.011059  -0.038501   0.048985   0.003937  -0.005683
   43  N  4  S   -0.056465  -0.032064   0.058987  -0.018822  -0.006721
   44  N  4  X   -0.033962   0.380274  -0.130828  -0.076887   0.056892
   45  N  4  Y    0.444997  -0.075362   0.212051   0.077348   0.152667
   46  N  4  Z   -0.346359  -0.139631   0.276989  -0.143053  -0.018974
   47  N  4  X   -0.028110   0.159362  -0.066821  -0.024907   0.007545
   48  N  4  Y    0.193054  -0.036315   0.108328   0.048231   0.077012
   49  N  4  Z   -0.143899  -0.052052   0.130456  -0.075375  -0.004733
   50  N  4  S   -0.171196  -0.050422  -0.023493  -0.048427  -0.000927
   51  N  4  X    0.026158   0.002864   0.001691   0.014155  -0.010895
   52  N  4  Y   -0.038409  -0.006471  -0.008171  -0.008676  -0.009172
   53  N  4  Z   -0.012100  -0.004154  -0.007544   0.003079  -0.001695
   54  N  4 XX    0.007322   0.011137   0.014987  -0.008023   0.012639
   55  N  4 YY   -0.029528  -0.001684  -0.005935  -0.011852  -0.015863
   56  N  4 ZZ    0.023817  -0.008988  -0.009366   0.021974   0.001868
   57  N  4 XY    0.005432   0.013378   0.000093   0.002053   0.009109
   58  N  4 XZ    0.006604   0.007574  -0.006531  -0.000225  -0.001563
   59  N  4 YZ    0.002938  -0.005207   0.004650  -0.000108  -0.001092
   60  H  5  S   -0.059752   0.007103  -0.137716   0.194167   0.027319
   61  H  5  S   -0.045464   0.013523  -0.086165   0.131222   0.027696
   62  O  6  S    0.008033   0.066028   0.034992  -0.001489  -0.063645
   63  O  6  S   -0.015912  -0.146750  -0.075658   0.008976   0.134801
   64  O  6  S   -0.030177  -0.182389  -0.113342  -0.013220   0.247617
   65  O  6  X    0.014898   0.178416   0.081817  -0.146638  -0.162691
   66  O  6  Y   -0.002965  -0.074268  -0.137616  -0.163838   0.342019
   67  O  6  Z   -0.008086   0.068184  -0.027756   0.061281  -0.012288
   68  O  6  X   -0.000874   0.056280   0.017785  -0.067248  -0.025064
   69  O  6  Y   -0.000004  -0.027162  -0.046279  -0.060255   0.102865
   70  O  6  Z   -0.002509   0.028013  -0.010052   0.028391   0.000225
   71  O  6  S   -0.015338  -0.013034  -0.036650  -0.058772   0.104283
   72  O  6  X    0.002751   0.002363  -0.010025  -0.015107   0.007172
   73  O  6  Y   -0.004843  -0.008534  -0.005068   0.001933   0.020129
   74  O  6  Z    0.003698   0.005765  -0.000423  -0.000820  -0.005857
   75  O  6 XX    0.001489   0.008758   0.003093  -0.010172  -0.004871
   76  O  6 YY    0.000825  -0.001205   0.004637   0.011436  -0.014360
   77  O  6 ZZ   -0.000134  -0.002505  -0.002591   0.003117   0.004965
   78  O  6 XY   -0.000389  -0.008692  -0.008652  -0.002111   0.018248
   79  O  6 XZ   -0.000609   0.004750  -0.002203   0.003348  -0.000523
   80  O  6 YZ    0.000337  -0.002614   0.001005  -0.004165   0.001082
   81  O  7  S   -0.007809   0.052781   0.056501   0.047427  -0.004989
   82  O  7  S    0.014598  -0.113881  -0.120888  -0.100931   0.007778
   83  O  7  S    0.028730  -0.163426  -0.193251  -0.173376   0.020111
   84  O  7  X   -0.022051   0.050755   0.026154  -0.086234   0.229104
   85  O  7  Y    0.000651   0.145831   0.213909   0.249376  -0.062469
   86  O  7  Z   -0.013909   0.044224  -0.031268   0.083180   0.085321
   87  O  7  X   -0.007561   0.010230   0.005107  -0.042111   0.092336
   88  O  7  Y    0.003596   0.047443   0.056241   0.060107  -0.019294
   89  O  7  Z   -0.002940   0.016058  -0.013287   0.035506   0.033421
   90  O  7  S    0.044511  -0.077476  -0.065967  -0.034819   0.006605
   91  O  7  X   -0.005645  -0.003161  -0.014453  -0.010057   0.008965
   92  O  7  Y    0.011811  -0.015318   0.001636   0.022541  -0.003981
   93  O  7  Z    0.000028  -0.001971  -0.000663  -0.001096   0.002177
   94  O  7 XX   -0.001546  -0.002342  -0.002685  -0.005244   0.004154
   95  O  7 YY   -0.000343   0.010629   0.015608   0.017697  -0.006796
   96  O  7 ZZ   -0.000843  -0.001619  -0.002977  -0.001778  -0.000455
   97  O  7 XY   -0.000973   0.004770   0.003532  -0.003696   0.012328
   98  O  7 XZ   -0.000591   0.000527  -0.000796   0.000985   0.001821
   99  O  7 YZ   -0.000900   0.003519  -0.002348   0.006831   0.005007
  100  H  8  S   -0.210193   0.019390  -0.062891  -0.053986  -0.073220
  101  H  8  S    0.007088  -0.005239   0.008964  -0.010419  -0.022062
  102  H  9  S    0.175775   0.002526  -0.090431   0.092206   0.009975
  103  H  9  S    0.082004   0.003313  -0.038381   0.062994   0.006549
  104  H 10  S    0.045593   0.131364   0.025951  -0.031931   0.062136
  105  H 10  S    0.045326   0.063410   0.028462  -0.030295   0.056261

                     16         17         18         19         20
                   -0.5596    -0.5212    -0.3864    -0.3798    -0.3674
                     A          A          A          A          A   
    1  C  1  S   -0.009490   0.004809   0.009715   0.043862  -0.002201
    2  C  1  S    0.018692  -0.012055  -0.019284  -0.109665   0.000398
    3  C  1  S    0.051198   0.001391  -0.056647  -0.197704   0.039485
    4  C  1  X   -0.011407  -0.017982   0.045746   0.301108  -0.008675
    5  C  1  Y    0.225994   0.121468  -0.056570   0.132553   0.000728
    6  C  1  Z   -0.068994  -0.184398   0.042504   0.105441  -0.018788
    7  C  1  X    0.018191  -0.034576   0.004314   0.165613   0.033021
    8  C  1  Y    0.071770   0.023014   0.007156   0.011383  -0.039761
    9  C  1  Z   -0.038963  -0.020625  -0.011720   0.072538  -0.063375
   10  C  1  S   -0.035947   0.023914  -0.000749   0.002975   0.350516
   11  C  1  X   -0.001659  -0.017001  -0.020321   0.021113  -0.040950
   12  C  1  Y    0.005998  -0.009302   0.017401  -0.014128  -0.056313
   13  C  1  Z    0.016907  -0.005507  -0.005965  -0.012461  -0.052151
   14  C  1 XX   -0.009098   0.003300   0.002748  -0.009348  -0.001630
   15  C  1 YY    0.021270   0.012215  -0.008063   0.002252   0.000993
   16  C  1 ZZ   -0.009437  -0.018083   0.004469  -0.003112  -0.000269
   17  C  1 XY    0.008416   0.001761  -0.007488  -0.006336   0.000736
   18  C  1 XZ    0.002496  -0.015279  -0.000436  -0.003070  -0.000099
   19  C  1 YZ   -0.002566   0.003150   0.000749  -0.002380  -0.002408
   20  H  2  S    0.136636   0.074123  -0.043962   0.038211   0.005024
   21  H  2  S    0.092292   0.072968  -0.058272   0.074807   0.019003
   22  C  3  S   -0.002881  -0.001743  -0.000785  -0.001512   0.000148
   23  C  3  S    0.008304   0.007425   0.003593   0.013829   0.001228
   24  C  3  S    0.007867  -0.023176  -0.002318  -0.096076  -0.041982
   25  C  3  X    0.103949  -0.052820   0.000874  -0.152978  -0.006113
   26  C  3  Y   -0.358683  -0.067700  -0.062968  -0.054915   0.009242
   27  C  3  Z   -0.101766   0.348201   0.003113  -0.037000   0.006846
   28  C  3  X    0.034217  -0.019903  -0.039074   0.041040   0.035703
   29  C  3  Y   -0.076895  -0.020188   0.111560   0.068630  -0.020925
   30  C  3  Z   -0.004773   0.075052   0.002216   0.007476   0.019547
   31  C  3  S    0.026479  -0.029135  -0.009264  -0.030434  -0.233090
   32  C  3  X    0.020370  -0.006137   0.002534   0.059000  -0.045170
   33  C  3  Y   -0.021634  -0.003207   0.002467   0.047964  -0.040876
   34  C  3  Z   -0.009227   0.022597   0.001187   0.021765  -0.006348
   35  C  3 XX   -0.009577   0.002873  -0.032242  -0.041159  -0.003467
   36  C  3 YY    0.008604   0.006446   0.032555   0.041190  -0.003238
   37  C  3 ZZ    0.000283  -0.008185  -0.000458  -0.006251   0.006366
   38  C  3 XY    0.012226   0.005478   0.030355  -0.047802   0.010183
   39  C  3 XZ    0.000072  -0.015352  -0.004505  -0.009660   0.020214
   40  C  3 YZ    0.003867  -0.002958   0.001912  -0.010898  -0.055794
   41  N  4  S    0.009647  -0.012062  -0.010295  -0.002602  -0.000236
   42  N  4  S   -0.023477   0.029255   0.026653   0.007991   0.010247
   43  N  4  S   -0.031343   0.051208   0.045673  -0.007542  -0.036045
   44  N  4  X    0.074727  -0.061827  -0.048734  -0.062162  -0.004362
   45  N  4  Y   -0.112846  -0.022829   0.000857   0.019461  -0.013914
   46  N  4  Z   -0.012558   0.069949   0.018732   0.000246  -0.007260
   47  N  4  X    0.035788  -0.018972  -0.007210  -0.047663   0.047389
   48  N  4  Y   -0.069081   0.008304   0.001322   0.011322   0.002490
   49  N  4  Z   -0.010711   0.034227   0.030233  -0.004820  -0.009503
   50  N  4  S    0.013839   0.010967  -0.003814  -0.073363  -0.242755
   51  N  4  X   -0.002270   0.005956   0.019840  -0.008601   0.055768
   52  N  4  Y    0.003649   0.015977  -0.002594  -0.016906   0.005450
   53  N  4  Z   -0.000837   0.003287   0.012492  -0.017097  -0.014834
   54  N  4 XX   -0.001987  -0.001359  -0.002269  -0.012180   0.000914
   55  N  4 YY    0.009661   0.009002   0.000295   0.004670   0.003540
   56  N  4 ZZ   -0.008241  -0.005926   0.005487   0.008034   0.002943
   57  N  4 XY   -0.002500  -0.005155  -0.002154  -0.000033  -0.001530
   58  N  4 XZ    0.002237  -0.000575  -0.000267   0.001516  -0.000224
   59  N  4 YZ   -0.000225   0.000571   0.000194   0.003186  -0.000908
   60  H  5  S   -0.054163  -0.126658   0.028440   0.036649  -0.007818
   61  H  5  S   -0.045060  -0.140313   0.064889   0.007443   0.016668
   62  O  6  S   -0.039493  -0.007960   0.006243  -0.001790   0.002519
   63  O  6  S    0.080595   0.015560  -0.012431  -0.003434  -0.008755
   64  O  6  S    0.192138   0.048023  -0.034843   0.012150  -0.002388
   65  O  6  X   -0.273504  -0.124781   0.311731   0.369651   0.074425
   66  O  6  Y    0.151075   0.050756   0.461364   0.124651  -0.060586
   67  O  6  Z   -0.175688   0.347546   0.017465   0.075619  -0.474640
   68  O  6  X   -0.068902  -0.044340   0.173748   0.199804   0.049419
   69  O  6  Y    0.033273   0.011504   0.240645   0.074644  -0.036650
   70  O  6  Z   -0.071820   0.166699   0.003240   0.039829  -0.278936
   71  O  6  S    0.109512  -0.003370  -0.079677   0.033881   0.104472
   72  O  6  X   -0.008494  -0.013333  -0.003541   0.010392   0.026558
   73  O  6  Y    0.009666   0.006600   0.047667  -0.008535  -0.016913
   74  O  6  Z   -0.005437  -0.004695  -0.011526   0.002333  -0.037800
   75  O  6 XX   -0.013171  -0.008931   0.017803   0.007863   0.003317
   76  O  6 YY   -0.001474  -0.000587  -0.014965  -0.008079   0.000580
   77  O  6 ZZ    0.001513   0.005712   0.000141  -0.005090  -0.005556
   78  O  6 XY    0.013044   0.006445   0.005993  -0.004288  -0.003938
   79  O  6 XZ   -0.010041   0.017847   0.001568   0.001730  -0.017709
   80  O  6 YZ    0.006928  -0.014376   0.000816  -0.001275   0.011550
   81  O  7  S    0.052610   0.005264  -0.005672   0.000450  -0.000262
   82  O  7  S   -0.110559  -0.011027   0.011644  -0.013536   0.003221
   83  O  7  S   -0.235945  -0.025395   0.028464   0.028698  -0.003072
   84  O  7  X    0.071916  -0.063249  -0.442270   0.464376  -0.074301
   85  O  7  Y    0.385821   0.059783   0.180279   0.129056  -0.043693
   86  O  7  Z   -0.068921   0.341345  -0.042805   0.121537   0.498307
   87  O  7  X    0.019224  -0.031995  -0.239481   0.260893  -0.053168
   88  O  7  Y    0.101598   0.018844   0.081103   0.075791  -0.022195
   89  O  7  Z   -0.036201   0.155895  -0.020794   0.067408   0.285329
   90  O  7  S   -0.111692  -0.017375   0.091024   0.127159  -0.013764
   91  O  7  X   -0.004356  -0.000836  -0.019869   0.004280   0.004902
   92  O  7  Y    0.021057   0.001896   0.048055   0.026441  -0.000471
   93  O  7  Z    0.001376  -0.001070  -0.000971   0.004717   0.036769
   94  O  7 XX   -0.004918  -0.002614  -0.009455  -0.001953  -0.000300
   95  O  7 YY    0.024742   0.002993   0.007231   0.000170  -0.000876
   96  O  7 ZZ   -0.005664   0.000872  -0.000148  -0.006616   0.003295
   97  O  7 XY    0.008193  -0.003999  -0.015755   0.013981  -0.004507
   98  O  7 XZ   -0.001138   0.003838  -0.001407   0.000844   0.005824
   99  O  7 YZ   -0.004659   0.023143  -0.000967   0.003639   0.022496
  100  H  8  S    0.048692   0.026707  -0.001820   0.001792   0.006897
  101  H  8  S    0.010813   0.032371  -0.011966   0.015957   0.037120
  102  H  9  S   -0.020552  -0.027805   0.008648   0.021237   0.003854
  103  H  9  S   -0.020766  -0.025854   0.034490   0.024025   0.028795
  104  H 10  S    0.001114  -0.021927  -0.018902  -0.033191  -0.006842
  105  H 10  S    0.001580  -0.029771  -0.038615  -0.021350  -0.027241

                     21         22         23         24         25
                    0.0597     0.0943     0.1165     0.1234     0.1443
                     A          A          A          A          A   
    1  C  1  S    0.011878  -0.030374   0.015069  -0.006605  -0.003035
    2  C  1  S   -0.063250   0.085024  -0.070401   0.021285   0.007851
    3  C  1  S    0.057398   0.002893   0.237803   0.121754  -0.007659
    4  C  1  X    0.002688   0.069024  -0.005395  -0.024986   0.022543
    5  C  1  Y   -0.030548   0.004836   0.060981   0.079514  -0.007861
    6  C  1  Z   -0.091582   0.020638  -0.053458  -0.058514  -0.031963
    7  C  1  X    0.035662   0.535731  -0.213314  -0.148931   0.329725
    8  C  1  Y   -0.116226   0.150955   0.186473   0.486273  -0.399285
[...]
   85  O  7  Y    0.125783  -0.299413  -0.192079  -0.095927   0.197225
   86  O  7  Z   -0.008172  -0.031924   0.000691  -0.007220   0.014732
   87  O  7  X    0.099647  -0.116128  -0.020677  -0.123520  -0.462529
   88  O  7  Y   -0.187417  -0.120039  -0.339435   0.608151  -0.769370
   89  O  7  Z    0.058370  -0.002283  -0.038072  -0.018131  -0.131261
   90  O  7  S   -1.052163   0.820086  -0.505718  -1.004818  -2.466928
   91  O  7  X    0.017179   0.140800   0.131726  -0.280741  -0.049872
   92  O  7  Y   -0.251974   0.433734   0.136451  -0.090587  -0.869569
   93  O  7  Z   -0.015402   0.091669  -0.019665  -0.043006  -0.071385
   94  O  7 XX   -0.071676  -0.074122  -0.209208  -1.335310   1.449608
   95  O  7 YY   -0.031075  -0.399793  -0.439713  -1.273965   1.467976
   96  O  7 ZZ   -0.028606  -0.055814  -0.089493  -1.311315   1.509903
   97  O  7 XY    0.065968  -0.100854  -0.058170  -0.055332  -0.083631
   98  O  7 XZ   -0.003241   0.002549  -0.043936  -0.011838  -0.022467
   99  O  7 YZ    0.012461  -0.039946  -0.026754  -0.012449  -0.022960
  100  H  8  S    0.131078   0.087474  -0.013726   0.040625  -0.008875
  101  H  8  S   -0.656241  -0.667398   0.269347   0.047962  -0.187720
  102  H  9  S    0.126704   0.055053  -0.028590  -0.056389   0.070428
  103  H  9  S   -0.671672  -0.668909   0.363360   0.050305   0.014953
  104  H 10  S    0.138767   0.049928  -0.047655  -0.010319   0.013037
  105  H 10  S   -0.559400  -0.586688   0.457459  -0.065122  -0.319676
 ...... END OF RHF CALCULATION ......
 STEP CPU TIME =     7.30 TOTAL CPU TIME =       14.8 (    0.2 MIN)
 TOTAL WALL CLOCK TIME=       25.3 SECONDS, CPU UTILIZATION IS  58.33%

     ----------------------------------------------------------------
     PROPERTY VALUES FOR THE RHF   SELF-CONSISTENT FIELD WAVEFUNCTION
     ----------------------------------------------------------------

          ---------------------------------------
          MULLIKEN AND LOWDIN POPULATION ANALYSES
          ---------------------------------------

     ATOMIC MULLIKEN POPULATION IN EACH MOLECULAR ORBITAL

                      1          2          3          4          5

                  2.000000   2.000000   2.000000   2.000000   2.000000

    1            -0.000007  -0.000006  -0.000120   0.000031   2.000260
    2             0.000000  -0.000000  -0.000002   0.000001  -0.000054
    3             0.000067   0.000117   0.000014   1.999634  -0.000110
    4            -0.000002   0.000011   2.000270  -0.000013  -0.000012
    5            -0.000000  -0.000000  -0.000000   0.000002  -0.000047
    6             1.999907   0.000031  -0.000001   0.000148  -0.000062
    7             0.000035   1.999848  -0.000004   0.000197   0.000025
    8             0.000000  -0.000000  -0.000063   0.000000  -0.000000
    9            -0.000000  -0.000000  -0.000049   0.000000   0.000000
   10             0.000000  -0.000000  -0.000045  -0.000000   0.000001

                      6          7          8          9         10

                  2.000000   2.000000   2.000000   2.000000   2.000000

    1             0.039286   0.050643   0.055454   1.061206   0.323791
    2            -0.001428   0.000140   0.001893   0.109390   0.033885
    3             0.545162   0.172444   0.202088   0.209600   0.178835
    4             0.004729   0.968037   0.743117   0.323917   0.924369
    5            -0.001985   0.000326   0.001186   0.125578   0.037168
    6             0.791810   0.454152   0.307328   0.051794   0.079303
    7             0.621163   0.289465   0.625995   0.044678   0.108649
    8             0.000287   0.007894   0.010444   0.018985   0.032075
    9             0.000392   0.025585   0.024683   0.024907   0.096682
   10             0.000583   0.031314   0.027811   0.029944   0.185242

                     11         12         13         14         15

                  2.000000   2.000000   2.000000   2.000000   2.000000

    1             0.186497   0.149243   0.422758   0.227200   0.403572
    2             0.050625   0.006355   0.053228   0.090951   0.000014
    3             0.023092   0.266872   0.207088   0.365433   0.325473
    4             1.261399   0.561976   0.578858   0.125997   0.194346
    5             0.047203   0.000498   0.039134   0.007415   0.221301
    6             0.009468   0.501968   0.246192   0.712315   0.351688
    7             0.007328   0.339522   0.404535   0.405174   0.418209
    8             0.203643   0.000078   0.012791   0.025228   0.000959
    9             0.200038   0.012946   0.023863   0.002048   0.071810
   10             0.010706   0.160542   0.011553   0.038239   0.012628

                     16         17         18         19         20

                  2.000000   2.000000   2.000000   2.000000   2.000000

    1             0.399690   0.482487   0.033980   0.045986   0.372533
    2             0.238756   0.143286   0.014381   0.005448   0.018074
    3             0.287097   0.256892   0.064740   0.074491   0.174417
    4             0.184803   0.066422   0.005787   0.001651   0.017925
    5             0.010150   0.255919   0.009164   0.001510   0.012610
    6             0.386281   0.408602   1.064809   0.815712   0.601179
    7             0.456626   0.341974   0.802727   1.052262   0.795346
    8             0.035151   0.016341   0.001361   0.000403   0.000287
    9             0.001621   0.024181  -0.000192   0.000235   0.002405
   10            -0.000175   0.003897   0.003243   0.002302   0.005223

               ----- POPULATIONS IN EACH AO -----
                             MULLIKEN      LOWDIN
              1  C  1  S      1.99899     1.97629
              2  C  1  S      0.67520     0.36869
              3  C  1  S      0.62005     0.24149
              4  C  1  X      0.80531     0.72230
              5  C  1  Y      0.91620     0.80269
              6  C  1  Z      0.87357     0.77121
              7  C  1  X      0.04622     0.17357
              8  C  1  Y      0.12364     0.23377
              9  C  1  Z      0.10677     0.23059
             10  C  1  S     -0.03580     0.05893
             11  C  1  X      0.01964     0.03972
             12  C  1  Y     -0.00768     0.03564
             13  C  1  Z     -0.01347     0.02896
             14  C  1 XX      0.02275     0.15393
             15  C  1 YY      0.03684     0.16519
             16  C  1 ZZ      0.03504     0.16317
             17  C  1 XY      0.01069     0.01903
             18  C  1 XZ      0.01302     0.02249
             19  C  1 YZ      0.00750     0.01156
             20  H  2  S      0.51449     0.48797
             21  H  2  S      0.25045     0.27281
             22  C  3  S      1.99941     1.96929
             23  C  3  S      0.70666     0.34888
             24  C  3  S      0.27537     0.17159
             25  C  3  X      0.82780     0.70347
             26  C  3  Y      0.84014     0.69992
             27  C  3  Z      0.54987     0.45836
             28  C  3  X     -0.07524     0.16637
             29  C  3  Y     -0.09796     0.16848
             30  C  3  Z      0.07251     0.15994
             31  C  3  S     -0.02830     0.05703
             32  C  3  X      0.04807     0.05602
             33  C  3  Y      0.01257     0.04605
             34  C  3  Z      0.02379     0.02550
             35  C  3 XX      0.03979     0.19031
             36  C  3 YY      0.05934     0.24228
             37  C  3 ZZ     -0.01538     0.08341
             38  C  3 XY      0.06034     0.12052
             39  C  3 XZ      0.01306     0.02659
             40  C  3 YZ      0.04161     0.08245
             41  N  4  S      1.99960     1.97449
             42  N  4  S      0.80449     0.51163
             43  N  4  S      0.74051     0.31146
             44  N  4  X      1.03454     0.93107
             45  N  4  Y      1.08857     0.98447
             46  N  4  Z      1.03486     0.93388
             47  N  4  X      0.32485     0.33969
             48  N  4  Y      0.38083     0.35670
             49  N  4  Z      0.33562     0.35633
             50  N  4  S      0.18085     0.07274
             51  N  4  X     -0.01804     0.05822
             52  N  4  Y     -0.03881     0.04740
             53  N  4  Z     -0.02368     0.05456
             54  N  4 XX      0.03127     0.17526
             55  N  4 YY      0.03785     0.17870
             56  N  4 ZZ      0.03453     0.17731
             57  N  4 XY      0.00773     0.01091
             58  N  4 XZ      0.00510     0.00703
             59  N  4 YZ      0.00290     0.00427
             60  H  5  S      0.50964     0.48101
             61  H  5  S      0.25749     0.27453
             62  O  6  S      2.00050     1.97524
             63  O  6  S      0.91057     0.67493
             64  O  6  S      0.85082     0.40925
             65  O  6  X      1.17736     1.09557
             66  O  6  Y      1.18596     1.10365
             67  O  6  Z      1.08851     1.01473
             68  O  6  X      0.38612     0.43869
             69  O  6  Y      0.39818     0.44193
             70  O  6  Z      0.52578     0.50882
             71  O  6  S      0.14933     0.11721
             72  O  6  X      0.01224     0.09506
             73  O  6  Y      0.03054     0.09565
             74  O  6  Z      0.02727     0.10380
             75  O  6 XX      0.00953     0.17325
             76  O  6 YY      0.00905     0.17524
             77  O  6 ZZ      0.00263     0.16364
             78  O  6 XY      0.00979     0.01741
             79  O  6 XZ      0.00463     0.00625
             80  O  6 YZ      0.00383     0.00549
             81  O  7  S      2.00051     1.97536
             82  O  7  S      0.91187     0.67938
             83  O  7  S      0.85436     0.41040
             84  O  7  X      1.28779     1.21297
             85  O  7  Y      1.05084     0.96204
             86  O  7  Z      1.10181     1.02786
             87  O  7  X      0.54808     0.51145
             88  O  7  Y      0.23195     0.36329
             89  O  7  Z      0.52539     0.51079
             90  O  7  S      0.10205     0.11384
             91  O  7  X      0.03709     0.10390
             92  O  7  Y     -0.00536     0.08800
             93  O  7  Z      0.02862     0.10586
             94  O  7 XX      0.00268     0.16345
             95  O  7 YY      0.02198     0.19370
             96  O  7 ZZ      0.00130     0.16323
             97  O  7 XY      0.00469     0.01156
             98  O  7 XZ      0.00015     0.00022
             99  O  7 YZ      0.00795     0.01042
            100  H  8  S      0.43357     0.39894
            101  H  8  S     -0.06771     0.15694
            102  H  9  S      0.46225     0.42724
            103  H  9  S      0.04891     0.18150
            104  H 10  S      0.46776     0.43269
            105  H 10  S      0.05525     0.18103

          ----- MULLIKEN ATOMIC OVERLAP POPULATIONS -----
          (OFF-DIAGONAL ELEMENTS NEED TO BE MULTIPLIED BY 2)

             1           2           3           4           5

    1    5.6548719
    2    0.4023775   0.4629836
    3    0.1543707  -0.0302873   4.6203498
    4   -0.0424577  -0.0536995  -0.0535576   7.4221350
    5    0.4004217  -0.0261560  -0.0145960  -0.0485875   0.4586031
    6   -0.0914665   0.0037286   0.3159314  -0.0344421   0.0010250
    7   -0.1834721   0.0074790   0.3465914  -0.0038404  -0.0024070
    8   -0.0074129   0.0014745  -0.0091447   0.2431970  -0.0021772
    9   -0.0264262  -0.0004369   0.0169257   0.2686634   0.0024591
   10   -0.0063234  -0.0025211   0.0068641   0.2661746  -0.0014545

             6           7           8           9          10

    6    8.8021567
    7   -0.2153083   8.7632773
    8    0.0005621   0.0011671   0.1576522
    9   -0.0002723   0.0005123  -0.0118150   0.2709597
   10    0.0007107  -0.0002422  -0.0076404  -0.0094136   0.2768552

          TOTAL MULLIKEN AND LOWDIN ATOMIC POPULATIONS
       ATOM         MULL.POP.    CHARGE          LOW.POP.     CHARGE
    1 C             6.254483   -0.254483         6.219222   -0.219222
    2 H             0.764942    0.235058         0.760781    0.239219
    3 C             5.353447    0.646553         5.776444    0.223556
    4 N             7.963585   -0.963585         7.486123   -0.486123
    5 H             0.767131    0.232869         0.755540    0.244460
    6 O             8.782625   -0.782625         8.615820   -0.615820
    7 O             8.713757   -0.713757         8.607730   -0.607730
    8 H             0.365863    0.634137         0.555876    0.444124
    9 H             0.511156    0.488844         0.608745    0.391255
   10 H             0.523010    0.476990         0.613719    0.386281

          -------------------------------
          BOND ORDER AND VALENCE ANALYSIS     BOND ORDER THRESHOLD=0.050
          -------------------------------

                   BOND                       BOND                       BOND
  ATOM PAIR DIST  ORDER      ATOM PAIR DIST  ORDER      ATOM PAIR DIST  ORDER
    1   2  1.076  0.956        1   3  1.540  0.944        1   4  1.488  0.635
    1   5  1.083  0.943        1   7  2.353 -0.074        3   6  1.227  1.411
    3   7  1.239  1.434        4   8  1.018  0.593        4   9  1.021  0.740
    4  10  1.004  0.742        6   7  2.225 -0.136

                       TOTAL       BONDED        FREE
      ATOM            VALENCE     VALENCE     VALENCE
    1 C                 3.359       3.359       0.000
    2 H                 0.905       0.905       0.000
    3 C                 3.755       3.755       0.000
    4 N                 2.633       2.633      -0.000
    5 H                 0.909       0.909      -0.000
    6 O                 1.255       1.255      -0.000
    7 O                 1.235       1.235      -0.000
    8 H                 0.570       0.570       0.000
    9 H                 0.721       0.721      -0.000
   10 H                 0.732       0.732       0.000

          ----------------------------
          SOLUTE ELECTROSTATIC MOMENTS
          ----------------------------

 POINT   1           X           Y           Z (BOHR)    CHARGE
                 0.137811    0.164427    0.535605       -0.00 (A.U.)
         DX          DY          DZ         /D/  (DEBYE)
    15.046554    0.865650   -1.137408   15.114292

          ----------------------------------------
          EFFECTIVE FRAGMENT ELECTROSTATIC MOMENTS
          ----------------------------------------

 FRAGMENT   1  H2ORHF
          X           Y           Z (BOHR)    CHARGE
     4.228251    4.985844   -2.997329       -0.00 (A.U.)
         DX          DY          DZ         /D/  (DEBYE)
    -0.779046    0.258041   -2.412557    2.548318

 FRAGMENT   2  H2ORHF
          X           Y           Z (BOHR)    CHARGE
    -1.294226    4.343207   -4.215565       -0.00 (A.U.)
         DX          DY          DZ         /D/  (DEBYE)
    -2.507575   -0.079853    0.782854    2.628150

 FRAGMENT   3  H2ORHF
          X           Y           Z (BOHR)    CHARGE
     4.085787   -5.337893   -0.395573       -0.00 (A.U.)
         DX          DY          DZ         /D/  (DEBYE)
    -2.049496   -1.677584   -0.379256    2.675548


          ----------------------------
          SYSTEM ELECTROSTATIC MOMENTS
          ----------------------------

 POINT   1           X           Y           Z (BOHR)    CHARGE
                 0.137811    0.164427    0.535605       -0.00 (A.U.)
         DX          DY          DZ         /D/  (DEBYE)
     9.710436   -0.633746   -3.146366   10.227112
 INCLUDING PCM SURFACE CHARGES, TOTAL CHARGE=   -0.009942, AND TOTAL DIPOLE IS
         DX          DY          DZ         /D/  (DEBYE)
     0.331658    0.004106   -0.184826    0.379703
 ...... END OF PROPERTY EVALUATION ......
 STEP CPU TIME =     0.01 TOTAL CPU TIME =       14.8 (    0.2 MIN)
 TOTAL WALL CLOCK TIME=       25.3 SECONDS, CPU UTILIZATION IS  58.33%

             ----------------------------------------------
             -------   RESULTS OF PCM CALCULATION   -------
             ----------------------------------------------

 FREE ENERGY IN SOLVENT = <PSI| H(0)+V/2 |PSI>       =     -282.9574074967 A.U.
 INTERNAL ENERGY IN SOLVENT = <PSI| H(0) |PSI>       =     -282.8908850443 A.U.
 DELTA INTERNAL ENERGY =  <D-PSI| H(0) |D-PSI>       =        0.0000000000 A.U.
 ELECTROSTATIC INTERACTION                           =       -0.0665224525 A.U.
 PIEROTTI CAVITATION ENERGY                          =        0.0000000000 A.U.
 DISPERSION FREE ENERGY                              =        0.0000000000 A.U.
 REPULSION FREE ENERGY                               =        0.0000000000 A.U.
 TOTAL INTERACTION (DELTA + ES + CAV + DISP + REP)   =       -0.0665224525 A.U.
 TOTAL FREE ENERGY IN SOLVENT                        =     -282.9574074967 A.U.

           -------   EFP/PCM ELECTROSTATIC INTERATIONS   -------
           --------------------  KCAL/MOL  ---------------------

                             ELECTRON        NUCLEI     MULTIPOLE   POLARIZABLE
                              INDUCED       INDUCED       INDUCED       INDUCED
                               CHARGE        CHARGE        CHARGE        CHARGE
 ELECTRONIC  POTENTIAL      -93363.22      93226.34        -87.97        -14.42
 NUCLEAR     POTENTIAL       93226.50     -93140.93         99.50         16.86
 MULTIPOLE   POTENTIAL         -88.72        100.26        -13.84         -2.11
 POLARIZABLE POTENTIAL           0.00          0.00          0.00          0.00
           ----------------- TOTAL:     -41.74 -----------------



 FREE ENERGY IN SOLVENT       =     -177558.47 KCAL/MOL
 INTERNAL ENERGY IN SOLVENT   =     -177516.73 KCAL/MOL
 DELTA INTERNAL ENERGY        =           0.00 KCAL/MOL
 ELECTROSTATIC INTERACTION    =         -41.74 KCAL/MOL
 PIEROTTI CAVITATION ENERGY   =           0.00 KCAL/MOL
 DISPERSION FREE ENERGY       =           0.00 KCAL/MOL
 REPULSION FREE ENERGY        =           0.00 KCAL/MOL
 TOTAL INTERACTION            =         -41.74 KCAL/MOL
 TOTAL FREE ENERGY IN SOLVENT =     -177558.47 KCAL/MOL

           -----  ENERGY CHANGE FROM GAS PHASE TO SOLVENT  -----
              ELEC          ELEC+CAV    ELEC+CAV+DIS+REP
           -37.304           -37.304             -37.304 KCAL/MOL

 -INTERNAL ENERGY IN SOLVENT-
    OMITS ES,CAV,DISP,REP (USES SOLVATED ORBITALS IN THE GAS PHASE HAMILTONIAN)
 -FREE ENERGY IN SOLVENT-
    INCLUDES ES+DISP+REP WHICH ARE IN THE SELF-CONSISTENT WAVEFUNCTION.
 -TOTAL FREE ENERGY IN SOLVENT-
    INCLUDES ES+DISP+REP+CAV, MEANING CAVITATION IS NOT IN THE SCF ENERGY.

 .... DONE PRINTING PCM SOLVENT SUMMARY ....
 STEP CPU TIME =     0.00 TOTAL CPU TIME =       14.8 (    0.2 MIN)
 TOTAL WALL CLOCK TIME=       25.3 SECONDS, CPU UTILIZATION IS  58.33%
 AN INPUT FILE FOR -MOLPLT- HAS BEEN PUNCHED.
              1296160  WORDS OF DYNAMIC MEMORY USED
 EXECUTION OF GAMESS TERMINATED NORMALLY Tue Nov 29 00:15:44 2016
 DDI: 263640 bytes (0.3 MB / 0 MWords) used by master data server.

 ----------------------------------------
 CPU timing information for all processes
 ========================================
 0: 13.685 + 1.113 = 14.799
 ----------------------------------------
 ddikick.x: exited gracefully.
unset echo
----- accounting info -----
Files used on the master node compute-3-0 were:
-rw-rw-r-- 1 sarom sarom    363021 Nov 29  2016 .//pcm-efp-gly.dat
-rw-rw-r-- 1 sarom sarom      3315 Nov 29  2016 .//pcm-efp-gly.F05
-rw-rw-r-- 1 sarom sarom 176595696 Nov 29  2016 .//pcm-efp-gly.F08
-rw-rw-r-- 1 sarom sarom   2781200 Nov 29  2016 .//pcm-efp-gly.F10
-rw-rw-r-- 1 sarom sarom   2003760 Nov 29  2016 .//pcm-efp-gly.F25
-rw-rw-r-- 1 sarom sarom   3215656 Nov 29  2016 .//pcm-efp-gly.F26
-rw-rw-r-- 1 sarom sarom  28230752 Nov 29  2016 .//pcm-efp-gly.F27
-rw-rw-r-- 1 sarom sarom      3315 Nov 27 05:47 .//pcm-efp-gly.inp
-rw-rw-r-- 1 sarom sarom    414562 Nov 29  2016 .//pcm-efp-gly.log
Tue Nov 29 00:16:04 CST 2016
0.194u 0.612s 0:46.83 1.7%	0+0k 0+136io 0pf+0w
