----- GAMESS execution script 'rungms' -----
This job is running on host compute-3-0
under operating system Linux at Tue Nov 29 00:15:25 CST 2016
Available scratch disk space (Kbyte units) at beginning of the job is
Filesystem            1K-blocks       Used  Available Use% Mounted on
bolt.local:/export/home/sarom
                     9590469632 1553878016 7549423616  18% /home/sarom
Copying input file pcm-hccoo-3.inp to your run's scratch directory...
cp pcm-hccoo-3.inp .//pcm-hccoo-3.F05
unset echo
/home/sarom/gamessGH/ddikick.x /home/sarom/gamessGH/gamess.00.x pcm-hccoo-3 -ddi 1 1 localhost -scr ./

 Distributed Data Interface kickoff program.
 Initiating 1 compute processes on 1 nodes to run the following command:
 /home/sarom/gamessGH/gamess.00.x pcm-hccoo-3 

          ******************************************************
          *         GAMESS VERSION = 18 AUG 2016 (R1)          *
          *             FROM IOWA STATE UNIVERSITY             *
          * M.W.SCHMIDT, K.K.BALDRIDGE, J.A.BOATZ, S.T.ELBERT, *
          *   M.S.GORDON, J.H.JENSEN, S.KOSEKI, N.MATSUNAGA,   *
          *          K.A.NGUYEN, S.J.SU, T.L.WINDUS,           *
          *       TOGETHER WITH M.DUPUIS, J.A.MONTGOMERY       *
          *         J.COMPUT.CHEM.  14, 1347-1363(1993)        *
          **************** 64 BIT LINUX VERSION ****************

  SINCE 1993, STUDENTS AND POSTDOCS WORKING AT IOWA STATE UNIVERSITY
  AND ALSO IN THEIR VARIOUS JOBS AFTER LEAVING ISU HAVE MADE IMPORTANT
  CONTRIBUTIONS TO THE CODE:
     IVANA ADAMOVIC, CHRISTINE AIKENS, YURI ALEXEEV, POOJA ARORA,
     ANDREY ASADCHEV, ROB BELL, PRADIPTA BANDYOPADHYAY, JONATHAN BENTZ,
     BRETT BODE, KURT BRORSEN, CALEB CARLIN, GALINA CHABAN, WEI CHEN,
     CHEOL HO CHOI, PAUL DAY, ALBERT DEFUSCO, NUWAN DESILVA, TIM DUDLEY,
     DMITRI FEDOROV, GRAHAM FLETCHER, MARK FREITAG, KURT GLAESEMANN,
     DAN KEMP, GRANT MERRILL, NORIYUKI MINEZAWA, JONATHAN MULLIN,
     TAKESHI NAGATA, SEAN NEDD, HEATHER NETZLOFF, BOSILJKA NJEGIC, RYAN OLSON,
     MIKE PAK, SPENCER PRUITT, LUKE ROSKOP, JIM SHOEMAKER, LYUDMILA SLIPCHENKO,
     TONY SMITH, SAROM SOK LEANG, JIE SONG, TETSUYA TAKETSUGU, SIMON WEBB,
     PENG XU, SOOHAENG YOO, FEDERICO ZAHARIEV

  ADDITIONAL CODE HAS BEEN PROVIDED BY COLLABORATORS IN OTHER GROUPS:
     IOWA STATE UNIVERSITY:
          JOE IVANIC, AARON WEST, LAIMUTIS BYTAUTAS, KLAUS RUEDENBERG
     UNIVERSITY OF TOKYO: KIMIHIKO HIRAO, TAKAHITO NAKAJIMA,
          TAKAO TSUNEDA, MUNEAKI KAMIYA, SUSUMU YANAGISAWA,
          KIYOSHI YAGI, MAHITO CHIBA, SEIKEN TOKURA, NAOAKI KAWAKAMI
     UNIVERSITY OF AARHUS: FRANK JENSEN
     UNIVERSITY OF IOWA: VISVALDAS KAIRYS, HUI LI
     NATIONAL INST. OF STANDARDS AND TECHNOLOGY: WALT STEVENS, DAVID GARMER
     UNIVERSITY OF PISA: BENEDETTA MENNUCCI, JACOPO TOMASI
     UNIVERSITY OF MEMPHIS: HENRY KURTZ, PRAKASHAN KORAMBATH
     UNIVERSITY OF ALBERTA: TOBY ZENG, MARIUSZ KLOBUKOWSKI
     UNIVERSITY OF NEW ENGLAND: MARK SPACKMAN
     MIE UNIVERSITY: HIROAKI UMEDA
     NAT. INST. OF ADVANCED INDUSTRIAL SCIENCE AND TECHNOLOGY: KAZUO KITAURA
     MICHIGAN STATE UNIVERSITY:
          KAROL KOWALSKI, MARTA WLOCH, JEFFREY GOUR, JESSE LUTZ,
          WEI LI, PIOTR PIECUCH
     UNIVERSITY OF SILESIA: MONIKA MUSIAL, STANISLAW KUCHARSKI
     FACULTES UNIVERSITAIRES NOTRE-DAME DE LA PAIX:
          OLIVIER QUINET, BENOIT CHAMPAGNE
     UNIVERSITY OF CALIFORNIA - SANTA BARBARA: BERNARD KIRTMAN
     INSTITUTE FOR MOLECULAR SCIENCE:
          KAZUYA ISHIMURA, MICHIO KATOUDA, AND SHIGERU NAGASE
     UNIVERSITY OF NOTRE DAME: ANNA POMOGAEVA, DAN CHIPMAN
     KYUSHU UNIVERSITY:
          HARUYUKI NAKANO,
          FENG LONG GU, JACEK KORCHOWIEC, MARCIN MAKOWSKI, AND YURIKO AOKI,
          HIROTOSHI MORI AND EISAKU MIYOSHI
     PENNSYLVANIA STATE UNIVERSITY:
          TZVETELIN IORDANOV, CHET SWALINA, JONATHAN SKONE,
          SHARON HAMMES-SCHIFFER
     WASEDA UNIVERSITY:
          MASATO KOBAYASHI, TOMOKO AKAMA, TSUGUKI TOUMA,
          TAKESHI YOSHIKAWA, YASUHIRO IKABATA, JUNJI SEINO,
          YUYA NAKAJIMA, HIROMI NAKAI
     NANJING UNIVERSITY: SHUHUA LI
     UNIVERSITY OF NEBRASKA:
          PEIFENG SU, DEJUN SI, NANDUN THELLAMUREGE, YALI WANG, HUI LI
     UNIVERSITY OF ZURICH: ROBERTO PEVERATI, KIM BALDRIDGE
     N. COPERNICUS UNIVERSITY AND JACKSON STATE UNIVERSITY:
          MARIA BARYSZ
     UNIVERSITY OF COPENHAGEN: Jimmy Kromann, CASPER STEINMANN
     TOKYO INSTITUTE OF TECHNOLOGY: HIROYA NAKATA
     NAGOYA UNIVERSITY: YOSHIO NISHIMOTO, STEPHAN IRLE
     MOSCOW STATE UNIVERSITY: VLADIMIR MIRONOV

 EXECUTION OF GAMESS BEGUN Tue Nov 29 00:15:25 2016

            ECHO OF THE FIRST FEW INPUT CARDS -
 INPUT CARD>!   RO-B3LYP calculation on triplet HCCOO anion.                                
 INPUT CARD>!                                                                               
 INPUT CARD>!   Peifeng and Hui's Table 3.  The individual components of                    
 INPUT CARD>!   the gradient will match what is shown in the table.                         
 INPUT CARD>!                                                                               
 INPUT CARD>!   FINAL RO-B3LYP E= -227.1442178702, 17 iters, RMS= 0.020157353               
 INPUT CARD>!   This will optimize to -227.1472558360 in 7 steps, grad= 0.0000167           
 INPUT CARD>!                                                                               
 INPUT CARD>!   This run takes 23 seconds on a 2.66 GHz Cloverton ( 2 Oct 2015)             
 INPUT CARD>!   results unchanged since 2008                                                
 INPUT CARD>!                                                                               
 INPUT CARD> $contrl scftyp=rohf runtyp=gradient dfttyp=b3lyp                               
 INPUT CARD>         icharg=-1 nzvar=9 mult=3 $end                                          
 INPUT CARD> $system mwords=3 $end                                                          
 INPUT CARD> $zmat   auto=.t. dlc=.t. $end                                                  
 INPUT CARD> $basis  gbasis=N31 NGAUSS=6 NDFUNC=1 $end                                      
 INPUT CARD> $guess  guess=huckel $end                                                      
 INPUT CARD> $statpt nstep=50 $end                                                          
 INPUT CARD>                                                                                
 INPUT CARD> $pcm solvnt=water $end                                                         
 INPUT CARD> $pcmcav radii=suahf $end                                                       
 INPUT CARD>                                                                                
 INPUT CARD> $DATA                                                                          
 INPUT CARD>HCCOO anion...Peifeng and Hui's table 3...optimized gas phase geometry          
 INPUT CARD>C1                                                                              
 INPUT CARD>C           6.0  -0.1847866797   0.0868907501  -1.3376180312                    
 INPUT CARD>C           6.0   0.0743092744   0.0120146684   0.1551815615                    
 INPUT CARD>O           8.0   1.2536484097  -0.0330443083   0.5062588462                    
 INPUT CARD>O           8.0  -0.9610800549   0.0064934308   0.8291516613                    
 INPUT CARD>H           1.0  -1.1354765406   0.1337316735  -1.8492154786                    
 INPUT CARD> $END                                                                           
    3000000 WORDS OF MEMORY AVAILABLE

     BASIS OPTIONS
     -------------
     GBASIS=N31          IGAUSS=       6      POLAR=POPN31  
     NDFUNC=       1     NFFUNC=       0     DIFFSP=       F
     NPFUNC=       0      DIFFS=       F     BASNAM=        


     RUN TITLE
     ---------
 HCCOO anion...Peifeng and Hui's table 3...optimized gas phase geometry          

 THE POINT GROUP OF THE MOLECULE IS C1      
 THE ORDER OF THE PRINCIPAL AXIS IS     0

 ATOM      ATOMIC                      COORDINATES (BOHR)
           CHARGE         X                   Y                   Z
 C           6.0    -0.3491961908        0.1641997086       -2.5277315552
 C           6.0     0.1404241670        0.0227044311        0.2932506296
 O           8.0     2.3690519793       -0.0624446881        0.9566904982
 O           8.0    -1.8161779560        0.0122708049        1.5668694421
 H           1.0    -2.1457395272        0.2527162188       -3.4945105468

          INTERNUCLEAR DISTANCES (ANGS.)
          ------------------------------

                1 C          2 C          3 O          4 O          5 H     

   1 C       0.0000000    1.5169666 *  2.3416579 *  2.3030384 *  1.0806189 *
   2 C       1.5169666 *  0.0000000    1.2313108 *  1.2354340 *  2.3443558 *
   3 O       2.3416579 *  1.2313108 *  0.0000000    2.2384917 *  3.3591653  
   4 O       2.3030384 *  1.2354340 *  2.2384917 *  0.0000000    2.6870531 *
   5 H       1.0806189 *  2.3443558 *  3.3591653    2.6870531 *  0.0000000  

  * ... LESS THAN  3.000


     ATOMIC BASIS SET
     ----------------
 THE CONTRACTED PRIMITIVE FUNCTIONS HAVE BEEN UNNORMALIZED
 THE CONTRACTED BASIS FUNCTIONS ARE NOW NORMALIZED TO UNITY

  SHELL TYPE  PRIMITIVE        EXPONENT          CONTRACTION COEFFICIENT(S)

 C         

      1   S       1          3047.5248800    0.001834737132
      1   S       2           457.3695180    0.014037322813
      1   S       3           103.9486850    0.068842622264
      1   S       4            29.2101553    0.232184443216
      1   S       5             9.2866630    0.467941348435
      1   S       6             3.1639270    0.362311985337

      2   L       7             7.8682723   -0.119332419775    0.068999066591
      2   L       8             1.8812885   -0.160854151696    0.316423960957
      2   L       9             0.5442493    1.143456437840    0.744308290898

      3   L      10             0.1687145    1.000000000000    1.000000000000

      4   D      11             0.8000000    1.000000000000

 C         

      5   S      12          3047.5248800    0.001834737132
      5   S      13           457.3695180    0.014037322813
      5   S      14           103.9486850    0.068842622264
      5   S      15            29.2101553    0.232184443216
      5   S      16             9.2866630    0.467941348435
      5   S      17             3.1639270    0.362311985337

      6   L      18             7.8682723   -0.119332419775    0.068999066591
      6   L      19             1.8812885   -0.160854151696    0.316423960957
      6   L      20             0.5442493    1.143456437840    0.744308290898

      7   L      21             0.1687145    1.000000000000    1.000000000000

      8   D      22             0.8000000    1.000000000000

 O         

      9   S      23          5484.6716600    0.001831074430
      9   S      24           825.2349460    0.013950172200
      9   S      25           188.0469580    0.068445078098
      9   S      26            52.9645000    0.232714335992
      9   S      27            16.8975704    0.470192897984
      9   S      28             5.7996353    0.358520852987

     10   L      29            15.5396162   -0.110777549525    0.070874268231
     10   L      30             3.5999336   -0.148026262701    0.339752839147
     10   L      31             1.0137618    1.130767015354    0.727158577316

     11   L      32             0.2700058    1.000000000000    1.000000000000

     12   D      33             0.8000000    1.000000000000

 O         

     13   S      34          5484.6716600    0.001831074430
     13   S      35           825.2349460    0.013950172200
     13   S      36           188.0469580    0.068445078098
     13   S      37            52.9645000    0.232714335992
     13   S      38            16.8975704    0.470192897984
     13   S      39             5.7996353    0.358520852987

     14   L      40            15.5396162   -0.110777549525    0.070874268231
     14   L      41             3.5999336   -0.148026262701    0.339752839147
     14   L      42             1.0137618    1.130767015354    0.727158577316

     15   L      43             0.2700058    1.000000000000    1.000000000000

     16   D      44             0.8000000    1.000000000000

 H         

     17   S      45            18.7311370    0.033494604338
     17   S      46             2.8253944    0.234726953484
     17   S      47             0.6401217    0.813757326146

     18   S      48             0.1612778    1.000000000000

 TOTAL NUMBER OF BASIS SET SHELLS             =   18
 NUMBER OF CARTESIAN GAUSSIAN BASIS FUNCTIONS =   62
 NUMBER OF ELECTRONS                          =   30
 CHARGE OF MOLECULE                           =   -1
 SPIN MULTIPLICITY                            =    3
 NUMBER OF OCCUPIED ORBITALS (ALPHA)          =   16
 NUMBER OF OCCUPIED ORBITALS (BETA )          =   14
 TOTAL NUMBER OF ATOMS                        =    5
 THE NUCLEAR REPULSION ENERGY IS       97.8812077324

     LEBEDEV GRID-BASED DFT OPTIONS
     ------------------------------
     DFTTYP=B3LYP   
     NRAD  =      96     NLEB  =     302
     NRAD0 =      24     NLEB0 =     110
     SWOFF =    5.00E-03 (PURE SCF -> DFT)
     SWITCH=    3.00E-04 (COARSE -> TIGHT GRID)
     THRESH=    0.00E+00 GTHRE=    1.00E+00

 GRIMME'S EMPIRICAL DISPERSION CORRECTION= F

     $CONTRL OPTIONS
     ---------------
 SCFTYP=ROHF         RUNTYP=GRADIENT     EXETYP=RUN     
 MPLEVL=       0     CITYP =NONE         CCTYP =NONE         VBTYP =NONE    
 DFTTYP=B3LYP        TDDFT =NONE    
 MULT  =       3     ICHARG=      -1     NZVAR =       9     COORD =UNIQUE  
 PP    =NONE         RELWFN=NONE         LOCAL =NONE         NUMGRD=       F
 ISPHER=      -1     NOSYM =       0     MAXIT =      30     UNITS =ANGS    
 PLTORB=       F     MOLPLT=       F     AIMPAC=       F     FRIEND=        
 NPRINT=       7     IREST =       0     GEOM  =INPUT   
 NORMF =       0     NORMP =       0     ITOL  =      20     ICUT  =       9
 INTTYP=BEST         GRDTYP=BEST         QMTTOL= 1.0E-06

     $SYSTEM OPTIONS
     ---------------
  REPLICATED MEMORY=     3000000 WORDS (ON EVERY NODE).
 DISTRIBUTED MEMDDI=           0 MILLION WORDS IN AGGREGATE,
 MEMDDI DISTRIBUTED OVER   1 PROCESSORS IS           0 WORDS/PROCESSOR.
 TOTAL MEMORY REQUESTED ON EACH PROCESSOR=     3000000 WORDS.
 TIMLIM=      525600.00 MINUTES, OR     365.0 DAYS.
 PARALL= F  BALTYP=  DLB     KDIAG=    0  COREFL= F
 MXSEQ2=     300 MXSEQ3=     150  mem10=         0

 ** LOOKING UP INTERNALLY STORED DATA FOR SOLVENT=WATER    **
 OPTICAL AND PHYSICAL CONSTANTS:
 EPS= 78.390; EPSINF=  1.776; RSOLV=  1.385 A; VMOL=  18.070 ML/MOL;
 TCE= .25700E-03 1/K; STEN= 71.810 DYN/CM;  DSTEN=  0.6500; CMF=  1.2770


     -----------------------------------
     INPUT FOR PCM SOLVATION CALCULATION 
     -----------------------------------
     IEF   =     -10
     ICOMP =       0     IFIELD=       0     ICAV  =       0
     IDISP =       0     IREP  =       0     IDP   =       0

     SOLVNT=WATER        EPS   = 78.3900     EPSINF=  1.7760
     VMOL  = 18.0700     TCE   =  0.00025700 STEN  = 71.8100
     DSTEN =  0.6500     CMF   =  1.2770     RSOLV =  1.3850

     NESFP =       0
     OMEGA = 40.0000     RET   =100.0000     FRO   =  0.7000

     TABS  =298.0000     IPRINT=       0

     --------------------------------
     INPUT FOR ITERATIVE C-PCM METHOD 
     --------------------------------
     IPCMIT  =         1     MXDIIS  =        50
     MXITR1  =        50     MXITR2  =        50
     THRES   = 0.100E-09     IMUL    =         3
     RCUT(1) =   15.0000     RCUT(2) =   30.0000

     IDIRCT  =         1
     IMGABI  =         0     RABI    =    4.0000
     IMGASC  =         0     RASC    =   20.0000
     THRSLS  = 0.500E-03     DENSLS  =    0.0100
     IEFPOL  =         1     REFPOL  =    0.0000

     INPUT FOR ISOTROPIC DIELECTRICS
     -------------------------------
     EPS=    78.39

     INPUT FOR CAVITY DEFINITION 
     ---------------------------
   ATOM               COORDINATES                RADIUS       EPS
      1     -0.1848      0.0869     -1.3376      1.7700     78.3900
      2      0.0743      0.0120      0.1552      1.7700     78.3900
      3      1.2536     -0.0330      0.5063      1.5900     78.3900
      4     -0.9611      0.0065      0.8292      1.5900     78.3900
      5     -1.1355      0.1337     -1.8492      0.0100     78.3900

     ----------------------------
     INPUT FOR TESSERA DEFINITION
     ----------------------------
     NTSALL  =        60     MTHALL  =         4
     MTHAUT  =         0     AUTFRE  =    2.0000
     NTSFRZ  =        60     KEEPSM  =         0
     AREAKP  =   10.0000     BONDRY  =    1.0000
     AREATL  =    0.0100

     SPHERE     INITS       METHOD
          1        60       FIXPVA
          2        60       FIXPVA
          3        60       FIXPVA
          4        60       FIXPVA
          5        60       FIXPVA

     ------------------------------
      FIXPVA TESSELLATION FOR PCM
         PEIFENG SU AND HUI LI
     UNIVERSITY OF NEBRASKA-LINCOLN
     ------------------------------


     -----------------------------
     INPUT FOR PCM GRADIENT METHOD
     -----------------------------
     IPCDER  =         3     IFAST   =         0
     FIXPVA GRADIENTS BY PEIFENG SU AND HUI LI
  

 PCM DIMENSIONS: MXSP=  2000, MXTS=       300, MEMORY=         34603

          ----------------
          PROPERTIES INPUT
          ----------------

     MOMENTS            FIELD           POTENTIAL          DENSITY
 IEMOM =       1   IEFLD =       0   IEPOT =       0   IEDEN =       0
 WHERE =COMASS     WHERE =NUCLEI     WHERE =NUCLEI     WHERE =NUCLEI  
 OUTPUT=BOTH       OUTPUT=BOTH       OUTPUT=BOTH       OUTPUT=BOTH    
 IEMINT=       0   IEFINT=       0                     IEDINT=       0
                                                       MORB  =       0
          EXTRAPOLATION IN EFFECT
          DIIS IN EFFECT
 ORBITAL PRINTING OPTION: NPREO=     1    62     2     1

     -------------------------------
     INTEGRAL TRANSFORMATION OPTIONS
     -------------------------------
     NWORD  =            0
     CUTOFF = 1.0E-09     MPTRAN =       0
     DIRTRF =       F     AOINTS =DUP     

          ----------------------
          INTEGRAL INPUT OPTIONS
          ----------------------
 NOPK  =       1 NORDER=       0 SCHWRZ=       F


 -----------------------------------------------
  STATISTICS ON AUTOMATIC COORDINATE GENERATION 
 -----------------------------------------------
  NUMBER OF USER SPECIFIED BONDS                             0
  NUMBER OF BONDS                                            4
  NUMBER OF ANGLES                                           4
  NUMBER OF TORSIONS                                         2
  NUMBER OF EXTRA COORD.                                     0
  NUMBER OF EXTRA COORD. FOR CONSTRAINTS                     0
  NUMBER OF CONSTRAINED COORD.                               0

  TOTAL NUMBER OF PRIMITIVES                                10
 -----------------------------------------------

   --- ENCODED Z MATRIX ---
 COORD  TYPE   I   J   K   L   M   N
    1      1    1   2
    2      1    1   5
    3      1    2   4
    4      1    2   3
    5      2    1   2   4
    6      2    1   2   3
    7      2    2   1   5
    8      2    3   2   4
    9      3    3   2   1   5
   10      3    4   2   1   5

          INDEP./SYM. INTERNAL COORDINATES
          --------------------------------
 CRD  1=  -0.2887 (  1) -0.1348 (  3) -0.5500 (  5)  0.3827 (  6) -0.6439 (  7)
           0.1673 (  8)
 CRD  2=   0.4959 (  1)  0.3737 (  2) -0.1716 (  3)  0.2388 (  4) -0.2048 (  5)
           0.5591 (  6)  0.2188 (  7) -0.3543 (  8)
 CRD  3=  -0.1235 (  2) -0.3876 (  3) -0.5927 (  4)  0.3476 (  5)  0.1547 (  6)
          -0.2930 (  7) -0.5024 (  8)
 CRD  4=  -0.8940 (  9)  0.4481 ( 10)
 CRD  5=   0.3962 (  1)  0.6075 (  3)  0.1788 (  4)  0.2485 (  5) -0.5818 (  7)
          -0.1978 (  8)
 CRD  6=  -0.8374 (  2)  0.4092 (  4)  0.2048 (  6)  0.1529 (  7) -0.2492 (  8)
 CRD  7=   0.4481 (  9)  0.8940 ( 10)
 CRD  8=   0.6434 (  1) -0.2125 (  2) -0.5137 (  3) -0.3126 (  6) -0.2052 (  7)
           0.3643 (  8)
 CRD  9=   0.3137 (  1) -0.3091 (  2)  0.4104 (  3) -0.6217 (  4) -0.3675 (  5)
           0.2036 (  6)  0.2185 (  7)  0.1639 (  8)

 THE DETERMINANT OF THE G MATRIX IS 10**(    -7)


                     --------------------
                     INTERNAL COORDINATES
                     --------------------

                 - - ATOMS - -         COORDINATE      COORDINATE
 NO.   TYPE    I  J  K  L  M  N        (BOHR,RAD)       (ANG,DEG)
 ----------------------------------------------------------------
   1 STRETCH   1  2                     2.8666513       1.5169666
   2 STRETCH   1  5                     2.0420736       1.0806189
   3 STRETCH   2  4                     2.3346318       1.2354340
   4 STRETCH   2  3                     2.3268401       1.2313108
   5 BEND      1  2  4                  1.9756890     113.1986420
   6 BEND      1  2  3                  2.0330633     116.4859463
   7 BEND      2  1  5                  2.2373613     128.1913599
   8 BEND      3  2  4                  2.2744330     130.3154116
   9 TORSION   3  2  1  5              -3.1415618    -179.9982348
  10 TORSION   4  2  1  5               0.0000302       0.0017276

     ------------------------------------------
     THE POINT GROUP IS C1 , NAXIS= 1, ORDER= 1
     ------------------------------------------

     DIMENSIONS OF THE SYMMETRY SUBSPACES ARE
 A   =   62

 ..... DONE SETTING UP THE RUN .....
 STEP CPU TIME =     0.01 TOTAL CPU TIME =        0.0 (    0.0 MIN)
 TOTAL WALL CLOCK TIME=        0.0 SECONDS, CPU UTILIZATION IS  25.00%

                    --------------------------------
                    SINGLE POINT ENERGY AND GRADIENT
                    --------------------------------

          ********************
          1 ELECTRON INTEGRALS
          ********************
 ...... END OF ONE-ELECTRON INTEGRALS ......
 STEP CPU TIME =     0.01 TOTAL CPU TIME =        0.0 (    0.0 MIN)
 TOTAL WALL CLOCK TIME=        0.0 SECONDS, CPU UTILIZATION IS  50.00%

          -------------
          GUESS OPTIONS
          -------------
          GUESS =HUCKEL            NORB  =       0          NORDER=       0
          MIX   =       F          PRTMO =       F          PUNMO =       F
          TOLZ  = 1.0E-08          TOLE  = 1.0E-05
          SYMDEN=       F          PURIFY=       F

 INITIAL GUESS ORBITALS GENERATED BY HUCKEL   ROUTINE.
 HUCKEL GUESS REQUIRES     33818 WORDS.

 SYMMETRIES FOR INITIAL GUESS ORBITALS FOLLOW.  ALPHA SET(S).
    16 ORBITALS ARE OCCUPIED (    4 CORE ORBITALS).
     5=A        6=A        7=A        8=A        9=A       10=A       11=A   
    12=A       13=A       14=A       15=A       16=A       17=A       18=A   
    19=A       20=A       21=A       22=A       23=A       24=A       25=A   
    26=A   

 SYMMETRIES FOR INITIAL GUESS ORBITALS FOLLOW.   BETA SET(S).
    14 ORBITALS ARE OCCUPIED (    4 CORE ORBITALS).
     5=A        6=A        7=A        8=A        9=A       10=A       11=A   
    12=A       13=A       14=A       15=A       16=A       17=A       18=A   
    19=A       20=A       21=A       22=A       23=A       24=A   
 ...... END OF INITIAL ORBITAL SELECTION ......
 STEP CPU TIME =     0.00 TOTAL CPU TIME =        0.0 (    0.0 MIN)
 TOTAL WALL CLOCK TIME=        0.0 SECONDS, CPU UTILIZATION IS  40.00%

                    ----------------------
                    AO INTEGRAL TECHNOLOGY
                    ----------------------
     S,P,L SHELL ROTATED AXIS INTEGRALS, REPROGRAMMED BY
        KAZUYA ISHIMURA (IMS) AND JOSE SIERRA (SYNSTAR).
     S,P,D,L SHELL ROTATED AXIS INTEGRALS PROGRAMMED BY
        KAZUYA ISHIMURA (INSTITUTE FOR MOLECULAR SCIENCE).
     S,P,D,F,G SHELL TO TOTAL QUARTET ANGULAR MOMENTUM SUM 5,
        ERIC PROGRAM BY GRAHAM FLETCHER (ELORET AND NASA ADVANCED
        SUPERCOMPUTING DIVISION, AMES RESEARCH CENTER).
     S,P,D,F,G,L SHELL GENERAL RYS QUADRATURE PROGRAMMED BY
        MICHEL DUPUIS (PACIFIC NORTHWEST NATIONAL LABORATORY).

          --------------------
          2 ELECTRON INTEGRALS
          --------------------

 THE -PK- OPTION IS OFF, THE INTEGRALS ARE NOT IN SUPERMATRIX FORM.
 STORING   15000 INTEGRALS/RECORD ON DISK, USING 12 BYTES/INTEGRAL.
 TWO ELECTRON INTEGRAL EVALUATION REQUIRES   90567 WORDS OF MEMORY.
 II,JST,KST,LST =  1  1  1  1 NREC =         1 INTLOC =    1
 II,JST,KST,LST =  2  1  1  1 NREC =         1 INTLOC =    2
 II,JST,KST,LST =  3  1  1  1 NREC =         1 INTLOC =   34
 II,JST,KST,LST =  4  1  1  1 NREC =         1 INTLOC =  214
 II,JST,KST,LST =  5  1  1  1 NREC =         1 INTLOC = 1189
 II,JST,KST,LST =  6  1  1  1 NREC =         1 INTLOC = 3215
 II,JST,KST,LST =  7  1  1  1 NREC =         2 INTLOC =  960
 II,JST,KST,LST =  8  1  1  1 NREC =         3 INTLOC = 8214
 II,JST,KST,LST =  9  1  1  1 NREC =         7 INTLOC = 6133
 II,JST,KST,LST = 10  1  1  1 NREC =         8 INTLOC = 4927
 II,JST,KST,LST = 11  1  1  1 NREC =        13 INTLOC = 3917
 II,JST,KST,LST = 12  1  1  1 NREC =        20 INTLOC = 3485
 II,JST,KST,LST = 13  1  1  1 NREC =        35 INTLOC = 2981
 II,JST,KST,LST = 14  1  1  1 NREC =        37 INTLOC =11846
 II,JST,KST,LST = 15  1  1  1 NREC =        52 INTLOC = 5008
 II,JST,KST,LST = 16  1  1  1 NREC =        71 INTLOC = 5299
 II,JST,KST,LST = 17  1  1  1 NREC =       108 INTLOC = 2902
 II,JST,KST,LST = 18  1  1  1 NREC =       114 INTLOC =14122
 TOTAL NUMBER OF NONZERO TWO-ELECTRON INTEGRALS =             1826658
        122 INTEGRAL RECORDS WERE STORED ON DISK FILE  8.
  ...... END OF TWO-ELECTRON INTEGRALS .....
 STEP CPU TIME =     0.15 TOTAL CPU TIME =        0.2 (    0.0 MIN)
 TOTAL WALL CLOCK TIME=        0.2 SECONDS, CPU UTILIZATION IS  73.91%

          -------------------------------------
          ---- POLARISABLE CONTINUUM MODEL ----
          ----      UNIVERSITY OF PISA     ----
          -------------------------------------

     ----------------------------
     INPUT FOR TESSERA DEFINITION
     ----------------------------
     NTSALL  =        60     MTHALL  =         4
     MTHAUT  =         0     AUTFRE  =    2.0000
     NTSFRZ  =        60     KEEPSM  =         0
     AREAKP  =   10.0000     BONDRY  =    1.0000
     AREATL  =    0.0100

     SPHERE     INITS       METHOD
          1        60       FIXPVA
          2        60       FIXPVA
          3        60       FIXPVA
          4        60       FIXPVA
          5        60       FIXPVA

     ------------------------------
      FIXPVA TESSELLATION FOR PCM
         PEIFENG SU AND HUI LI
     UNIVERSITY OF NEBRASKA-LINCOLN
     ------------------------------


     INPUT FOR CAVITY DEFINITION 
     ---------------------------
   ATOM               COORDINATES                RADIUS       EPS
      1     -0.1848      0.0869     -1.3376      1.7700     78.3900
      2      0.0743      0.0120      0.1552      1.7700     78.3900
      3      1.2536     -0.0330      0.5063      1.5900     78.3900
      4     -0.9611      0.0065      0.8292      1.5900     78.3900
      5     -1.1355      0.1337     -1.8492      0.0100     78.3900

 MEMORY USED TO GENERATE CAVITY=    193942


 TOTAL NUMBER OF SPHERES=     5
 SPHERE           CENTER  (X,Y,Z) (A)               RADIUS (A)      AREA(A*A)
     1  -0.184786680   0.086890750  -1.337618031   2.124000000  35.090771270
     2   0.074309274   0.012014668   0.155181562   2.124000000   6.634114290
     3   1.253648410  -0.033044308   0.506258846   1.908000000  22.761567668
     4  -0.961080055   0.006493431   0.829151661   1.908000000  23.386831144
     5  -1.135476541   0.133731674  -1.849215479   0.012000000   0.000000000

 TOTAL NUMBER OF TESSERAE=     115
 SURFACE AREA=    87.87328437(A**2)    CAVITY VOLUME=     74.90637194 (A**3)
 STEP CPU TIME =     0.01 TOTAL CPU TIME =        0.2 (    0.0 MIN)
 TOTAL WALL CLOCK TIME=        0.2 SECONDS, CPU UTILIZATION IS  78.26%

          THE SOLUTE IS ENCLOSED IN ONE CAVITY
 DONE CHECKING SEPARATION.
 STEP CPU TIME =     0.00 TOTAL CPU TIME =        0.2 (    0.0 MIN)
 TOTAL WALL CLOCK TIME=        0.2 SECONDS, CPU UTILIZATION IS  78.26%

 ..... DONE GENERATING CAVITY .....
 STEP CPU TIME =     0.00 TOTAL CPU TIME =        0.2 (    0.0 MIN)
 TOTAL WALL CLOCK TIME=        0.2 SECONDS, CPU UTILIZATION IS  78.26%
 NUCLEI-NUCLEAR CHARGE POLARIZATION ADJUSTMENT TO VNN=        0.0000000000

          ---------------------------
             RO-B3LYP SCF CALCULATION
          ---------------------------

     NUCLEAR ENERGY =        97.8812077324
     MAXIT = 30     NPUNCH=  2     MULT=  3
     EXTRAP=T  DAMP=F  SHIFT=F  RSTRCT=F  DIIS=T  SOSCF=F
         DENSITY MATRIX CONVERGENCE THRESHOLD=  1.00E-05
     COARSE -> FINE DFT GRID SWITCH THRESHOLD=  3.00E-04 (SWITCH IN $DFT)
                   HF -> DFT SWITCH THRESHOLD=  5.00E-03 (SWOFF IN $DFT)
     ROHF CANONICALIZATION PARAMETERS
             C-C     O-O     V-V
     ALPHA -0.5000  0.5000  1.5000
     BETA   1.5000  0.5000 -0.5000
     MEMORY REQUIRED FOR UHF/ROHF ITERS=    333117 WORDS.

     EXCHANGE FUNCTIONAL   =B88&HFX   
     CORRELATION FUNCTIONAL=LYP88&VWN5
     DFT THRESHOLD         =.690E-08
     GRID CHANGE THRESHOLD =.300E-03
 FOR AN EULER-MACLAURIN QUADRATURE USING  96 RADIAL POINTS:
 SMALLEST GAUSSIAN PRIMITIVE EXPONENT=        0.1612777588 OF TYPE -S-
 ON ATOM NUMBER   5 HAS RADIAL NORMALIZATION=  1.000000
  LARGEST GAUSSIAN PRIMITIVE EXPONENT=     5484.6716600000 OF TYPE -S-
 ON ATOM NUMBER   3 HAS RADIAL NORMALIZATION=  1.000000
 DFT IS SWITCHED OFF, PERFORMING PURE SCF UNTIL SWOFF THRESHOLD IS REACHED.

 ITER EX      TOTAL ENERGY        E CHANGE  DENSITY CHANGE    DIIS ERROR
   1  0     -225.2861038138  -225.2861038138   0.393831259   0.615728358
          * * *   INITIATING DIIS PROCEDURE   * * *
   2  1     -225.9563633981    -0.6702595843   0.185229228   0.173950769
   3  2     -226.0199781731    -0.0636147751   0.080901379   0.078333055
   4  3     -226.0651328023    -0.0451546292   0.015778996   0.010258345
   5  4     -226.0659165873    -0.0007837850   0.007635693   0.006157108
   6  5     -226.0662053815    -0.0002887941   0.002608394   0.001277675
 CONVERGED TO SWOFF, SO DFT CALCULATION IS NOW SWITCHED ON.
          * * *   INITIATING DIIS PROCEDURE   * * *
   7  6     -227.1138361558    -1.0476307743   0.177875347   0.104633355
   8  7     -227.1202431198    -0.0064069640   0.182685861   0.064675146
   9  8     -227.1006380791     0.0196050406   0.104353631   0.068397475
  10  9     -227.1430478902    -0.0424098111   0.021029700   0.014194508
  11 10     -227.1436666509    -0.0006187607   0.010616240   0.009286880
  12 11     -227.1442004616    -0.0005338107   0.003088318   0.001938502
  13 12     -227.1442156493    -0.0000151876   0.001042314   0.000653463
  14 13     -227.1442175521    -0.0000019029   0.000291384   0.000207987
  15 14     -227.1442178622    -0.0000003101   0.000049552   0.000038372
  16 15     -227.1442178699    -0.0000000077   0.000009128   0.000004252
  17 16     -227.1442178702    -0.0000000002   0.000002290   0.000000685

          -----------------
          DENSITY CONVERGED
          -----------------
     TIME TO FORM FOCK OPERATORS=      13.3 SECONDS (       0.8 SEC/ITER)
     TIME TO SOLVE SCF EQUATIONS=       0.0 SECONDS (       0.0 SEC/ITER)

 FINAL RO-B3LYP ENERGY IS     -227.1442178702 AFTER  17 ITERATIONS
 DFT EXCHANGE + CORRELATION ENERGY =       -23.0556284170
 TOTAL ELECTRON NUMBER             =        30.0000580260

          --------------------
          SPIN SZ   =    1.000
          S-SQUARED =    2.000
          --------------------
  
   PCM ASC=      0.9750874899
   GCAVP  =      0.0000000000
   GDISP  =      0.0000000000
   GREP   =      0.0000000000

          ------------
          EIGENVECTORS
          ------------

                      1          2          3          4          5
                  -19.0553   -19.0429   -10.2359   -10.1356    -0.9894
                     A          A          A          A          A   
    1  C  1  S    0.000010   0.000030   0.000803   0.993043  -0.018361
    2  C  1  S    0.000139   0.000198  -0.000246   0.047801   0.035436
    3  C  1  X    0.000021   0.000025  -0.000067  -0.000878   0.003750
    4  C  1  Y   -0.000002   0.000000   0.000014   0.000011  -0.001663
    5  C  1  Z    0.000021  -0.000022  -0.000277   0.000232   0.034242
    6  C  1  S   -0.000467  -0.001123   0.005092  -0.010911  -0.003602
    7  C  1  X   -0.000917   0.000510   0.000445   0.001712  -0.002502
    8  C  1  Y    0.000052   0.000009  -0.000124   0.000000   0.000324
    9  C  1  Z   -0.000636  -0.000473   0.002464  -0.000920  -0.005918
   10  C  1 XX   -0.000012  -0.000021  -0.000228  -0.009486  -0.001188
   11  C  1 YY    0.000028   0.000093  -0.000249  -0.009675  -0.001727
   12  C  1 ZZ   -0.000111  -0.000051  -0.000506  -0.009469   0.008746
   13  C  1 XY    0.000002   0.000004   0.000001  -0.000018  -0.000107
   14  C  1 XZ   -0.000024  -0.000012  -0.000033   0.000267   0.002018
   15  C  1 YZ    0.000008   0.000008   0.000014  -0.000018  -0.000607
   16  C  2  S    0.000002  -0.000005   0.992943  -0.001052  -0.143824
   17  C  2  S    0.000451   0.000449   0.048409  -0.000366   0.278379
   18  C  2  X   -0.000062   0.000053  -0.000019   0.000065   0.008751
   19  C  2  Y    0.000002  -0.000001  -0.000022  -0.000023  -0.004431
   20  C  2  Z   -0.000004  -0.000009   0.000497   0.000473   0.091772
   21  C  2  S   -0.002446  -0.002575  -0.006751   0.002800   0.083256
   22  C  2  X    0.003295  -0.003768   0.000986  -0.002081  -0.006125
   23  C  2  Y    0.000025   0.000151  -0.000238   0.000104   0.001585
   24  C  2  Z   -0.002306  -0.001279   0.004659  -0.001142  -0.031539
   25  C  2 XX   -0.000587  -0.000766  -0.007871  -0.000274   0.017427
   26  C  2 YY   -0.000038  -0.000051  -0.009617  -0.000180  -0.025527
   27  C  2 ZZ   -0.000192  -0.000074  -0.009053  -0.000589  -0.015991
   28  C  2 XY   -0.000002   0.000030  -0.000041   0.000005  -0.000947
   29  C  2 XZ    0.000384  -0.000212  -0.000177  -0.000059  -0.005843
   30  C  2 YZ   -0.000001   0.000006  -0.000026   0.000023  -0.000357
   31  O  3  S   -0.000301   0.992724  -0.000102  -0.000082  -0.128316
   32  O  3  S    0.000213   0.025581   0.000427  -0.000285   0.274902
   33  O  3  X   -0.000031  -0.000955   0.000029  -0.000063  -0.111469
   34  O  3  Y    0.000005   0.000035  -0.000006   0.000005   0.003956
   35  O  3  Z   -0.000100  -0.000256   0.000117  -0.000085  -0.026316
   36  O  3  S   -0.001302   0.014488  -0.002807   0.001823   0.262902
   37  O  3  X    0.000003  -0.001746   0.002178  -0.000468  -0.042971
   38  O  3  Y   -0.000026   0.000066  -0.000044   0.000026   0.001242
   39  O  3  Z    0.000576  -0.000506  -0.000216  -0.000311  -0.003331
   40  O  3 XX    0.000132  -0.007749  -0.000333  -0.000091   0.009886
   41  O  3 YY    0.000113  -0.008218   0.000447  -0.000248  -0.005272
   42  O  3 ZZ    0.000146  -0.008162   0.000267  -0.000138  -0.007398
   43  O  3 XY   -0.000005  -0.000021   0.000029  -0.000007  -0.000604
   44  O  3 XZ    0.000089   0.000165  -0.000154   0.000067   0.003643
   45  O  3 YZ   -0.000004  -0.000007   0.000013  -0.000007   0.000033
   46  O  4  S    0.992747   0.000389  -0.000109   0.000004  -0.133656
   47  O  4  S    0.025525   0.000220   0.000384   0.000076   0.287853
   48  O  4  X    0.000811  -0.000003  -0.000001   0.000023   0.103272
   49  O  4  Y    0.000004   0.000005  -0.000006   0.000005   0.000166
   50  O  4  Z   -0.000526  -0.000107   0.000136  -0.000112  -0.059076
   51  O  4  S    0.014418  -0.001223  -0.002384  -0.001072   0.272050
   52  O  4  X    0.001530   0.000177  -0.002086  -0.000180   0.041874
   53  O  4  Y    0.000007  -0.000029   0.000033   0.000005  -0.000296
   54  O  4  Z   -0.000975   0.000544   0.000388  -0.000010  -0.016279
   55  O  4 XX   -0.007876   0.000085  -0.000257   0.000099   0.006979
   56  O  4 YY   -0.008213   0.000100   0.000432  -0.000066  -0.005624
   57  O  4 ZZ   -0.008054   0.000175   0.000093   0.000137  -0.003524
   58  O  4 XY    0.000002   0.000004   0.000004  -0.000004   0.000042
   59  O  4 XZ   -0.000260  -0.000072   0.000344  -0.000018  -0.008699
   60  O  4 YZ   -0.000002  -0.000002   0.000010  -0.000010   0.000109
   61  H  5  S   -0.000032   0.000129  -0.000137  -0.000612   0.004531
   62  H  5  S   -0.000564   0.000134   0.000180   0.002834  -0.001526

                      6          7          8          9         10
                   -0.9018    -0.5649    -0.4357    -0.3873    -0.3624
                     A          A          A          A          A   
    1  C  1  S    0.002107  -0.168800  -0.069620  -0.010242   0.016102
    2  C  1  S   -0.002515   0.338666   0.133234   0.024349  -0.036382
    3  C  1  X    0.014719  -0.061800  -0.189085  -0.169213   0.028321
    4  C  1  Y   -0.000213  -0.003105   0.013484   0.013023  -0.005179
    5  C  1  Z   -0.003192   0.100197  -0.192536  -0.191967   0.097453
    6  C  1  S   -0.010454   0.295436   0.180358  -0.008765  -0.006233
    7  C  1  X    0.018189  -0.029233  -0.046667  -0.072991  -0.013358
    8  C  1  Y   -0.000449  -0.000129   0.002366   0.005834  -0.001382
    9  C  1  Z    0.000043   0.017767  -0.027082  -0.088058   0.037173
   10  C  1 XX    0.000503  -0.001592   0.014409   0.012045  -0.006503
   11  C  1 YY    0.000714  -0.015685  -0.007748  -0.000383   0.000234
   12  C  1 ZZ   -0.000606   0.004509  -0.013555  -0.005064   0.004697
   13  C  1 XY   -0.000149  -0.000864  -0.001065  -0.000626   0.000693
   14  C  1 XZ    0.003350   0.010275   0.009615   0.006005  -0.010927
   15  C  1 YZ   -0.000012  -0.001333   0.000071   0.000108   0.000031
   16  C  2  S   -0.003161  -0.076666   0.111751  -0.030038   0.004392
   17  C  2  S    0.006623   0.165136  -0.253543   0.073028  -0.011106
   18  C  2  X    0.283267  -0.040637  -0.013280  -0.061404  -0.352727
   19  C  2  Y   -0.005254   0.011839  -0.000595  -0.012979   0.011039
   20  C  2  Z   -0.036841  -0.237217   0.021087   0.321661  -0.052521
   21  C  2  S    0.003563   0.111936  -0.202059   0.052635  -0.006653
   22  C  2  X   -0.023526  -0.013214  -0.004118   0.002181  -0.008017
   23  C  2  Y    0.000429   0.003100  -0.002898  -0.002689   0.001074
   24  C  2  Z    0.003517  -0.062145   0.066216   0.061692  -0.019981
   25  C  2 XX    0.007436  -0.013646   0.017561  -0.008843   0.001976
   26  C  2 YY   -0.000455  -0.004713   0.009610  -0.006143   0.001409
   27  C  2 ZZ   -0.008325   0.006858   0.008733  -0.002319   0.001801
   28  C  2 XY   -0.001567  -0.000108  -0.000401  -0.000083   0.000266
   29  C  2 XZ    0.029151   0.007942   0.003749   0.003513  -0.005999
   30  C  2 YZ   -0.000300  -0.000806  -0.000052  -0.000281   0.000126
   31  O  3  S   -0.153822   0.044878  -0.076183   0.021577  -0.069910
   32  O  3  S    0.328628  -0.099391   0.159299  -0.039110   0.136110
   33  O  3  X   -0.096439  -0.023084   0.213652  -0.157349   0.387010
   34  O  3  Y    0.004286   0.004482  -0.009109  -0.003769  -0.015318
   35  O  3  Z   -0.041362  -0.086265   0.085561   0.171632   0.127600
   36  O  3  S    0.339645  -0.126487   0.288771  -0.103852   0.302993
   37  O  3  X   -0.024861  -0.023058   0.130205  -0.093341   0.226727
   38  O  3  Y    0.001382   0.002764  -0.005051  -0.002834  -0.009105
   39  O  3  Z   -0.016298  -0.048466   0.041623   0.115355   0.078489
   40  O  3 XX   -0.000901   0.003462  -0.022467   0.016963  -0.026248
   41  O  3 YY   -0.006377   0.000070  -0.001331   0.001864  -0.002658
   42  O  3 ZZ   -0.006105   0.004652  -0.005081  -0.004986  -0.006675
   43  O  3 XY   -0.000416  -0.000457   0.000959   0.000001   0.001072
   44  O  3 XZ    0.005549   0.007933  -0.007847  -0.009811  -0.008662
   45  O  3 YZ   -0.000140  -0.000445   0.000399   0.000606   0.000435
   46  O  4  S    0.148696   0.055053  -0.060425   0.066044   0.047855
   47  O  4  S   -0.318373  -0.121833   0.128088  -0.130070  -0.096162
   48  O  4  X   -0.077404  -0.004129  -0.183402   0.340950   0.183348
   49  O  4  Y   -0.001020   0.004831   0.000103  -0.005741   0.007409
   50  O  4  Z    0.063950  -0.103541   0.096106  -0.051970  -0.260096
   51  O  4  S   -0.331426  -0.162932   0.216649  -0.286720  -0.198102
   52  O  4  X   -0.019634   0.005967  -0.120216   0.198524   0.104321
   53  O  4  Y   -0.000533   0.002547   0.000626  -0.003815   0.004859
   54  O  4  Z    0.022571  -0.058835   0.050533  -0.019696  -0.161975
   55  O  4 XX    0.004610   0.000710  -0.015863   0.027328   0.005880
   56  O  4 YY    0.006580   0.000262  -0.000546   0.002922   0.000803
   57  O  4 ZZ    0.002317   0.010034  -0.005624   0.001896   0.014710
   58  O  4 XY   -0.000209   0.000295  -0.000081  -0.000367   0.000436
   59  O  4 XZ    0.005754  -0.006725   0.011274  -0.006844  -0.012715
   60  O  4 YZ    0.000078  -0.000352  -0.000008   0.000214  -0.000422
   61  H  5  S   -0.001895   0.135747   0.209336   0.155885  -0.072972
   62  H  5  S    0.006628   0.048114   0.165070   0.107230  -0.081749

                     11         12         13         14         15
                   -0.3548    -0.2057    -0.1940    -0.1862    -0.1147
                     A          A          A          A          A   
    1  C  1  S   -0.000030  -0.000015   0.029898  -0.081866  -0.068947
    2  C  1  S    0.000044   0.000030  -0.060581   0.169520   0.128218
    3  C  1  X    0.002170   0.000040  -0.089752   0.161813   0.411815
    4  C  1  Y    0.081070   0.002605  -0.001387  -0.012148   0.007484
    5  C  1  Z    0.003973   0.000513   0.076903   0.176577  -0.350256
    6  C  1  S    0.000415   0.000248  -0.084047   0.395328   0.289663
    7  C  1  X    0.001025  -0.000098  -0.080942   0.049051   0.281084
    8  C  1  Y    0.040309  -0.000527  -0.001483  -0.005778   0.009560
    9  C  1  Z    0.002096   0.000290   0.073652   0.098451  -0.328229
   10  C  1 XX   -0.000011   0.000163   0.001744  -0.015708  -0.012924
   11  C  1 YY   -0.000785  -0.000143   0.000437  -0.000954   0.001543
   12  C  1 ZZ    0.000796  -0.000022   0.004149   0.002709  -0.011338
   13  C  1 XY    0.000108   0.004174   0.000272   0.000523   0.000782
   14  C  1 XZ    0.000236   0.000165  -0.006914  -0.002321  -0.008482
   15  C  1 YZ    0.009724  -0.000440  -0.000028  -0.000145   0.000902
   16  C  2  S    0.000009  -0.000021  -0.007777   0.003655   0.020297
   17  C  2  S    0.000056   0.000000   0.021329  -0.012889  -0.059739
   18  C  2  X    0.009217   0.000504   0.031941  -0.017844   0.003276
   19  C  2  Y    0.375955   0.016744   0.000528   0.004786  -0.006044
   20  C  2  Z    0.016911   0.000551  -0.030201  -0.097879   0.132229
   21  C  2  S   -0.000263   0.000320  -0.010248   0.123566  -0.027434
   22  C  2  X    0.005329  -0.000174  -0.135213   0.034543  -0.048001
   23  C  2  Y    0.202341   0.012256   0.002155  -0.007182   0.003074
   24  C  2  Z    0.009541   0.000931   0.024124   0.137092  -0.041462
   25  C  2 XX    0.000012   0.001875   0.010744  -0.034981   0.010518
   26  C  2 YY   -0.000792  -0.001397   0.000444   0.004208  -0.003205
   27  C  2 ZZ    0.000815  -0.000483  -0.012890   0.045227  -0.007812
   28  C  2 XY   -0.000037   0.044372  -0.002207   0.000350   0.000084
   29  C  2 XZ    0.000249   0.001993   0.039159   0.015332  -0.010634
   30  C  2 YZ    0.010025  -0.006240  -0.000237  -0.002544   0.000433
   31  O  3  S    0.000015   0.000013  -0.005631   0.008686  -0.001218
   32  O  3  S   -0.000028  -0.000072   0.008047  -0.014691  -0.006287
   33  O  3  X    0.007730   0.010534  -0.231587   0.015991  -0.046357
   34  O  3  Y    0.310516   0.453851  -0.011457  -0.021400  -0.001638
   35  O  3  Z    0.014162   0.022173   0.348111   0.445299   0.051311
   36  O  3  S   -0.000212   0.000119   0.085649  -0.104382   0.054269
   37  O  3  X    0.004800   0.008363  -0.191224   0.044568  -0.050965
   38  O  3  Y    0.191324   0.359166  -0.007741  -0.016858  -0.000732
   39  O  3  Z    0.008753   0.017473   0.251952   0.335255   0.035691
   40  O  3 XX   -0.000896  -0.000773   0.008883  -0.000986   0.000314
   41  O  3 YY    0.001342   0.001320  -0.002188   0.003366  -0.003914
   42  O  3 ZZ   -0.000446  -0.000583  -0.011482   0.001372  -0.004472
   43  O  3 XY   -0.020630  -0.018242   0.000120   0.000782   0.000100
   44  O  3 XZ   -0.001082  -0.001042  -0.008631  -0.013923  -0.004511
   45  O  3 YZ   -0.005628  -0.006752   0.000735   0.000474   0.000138
   46  O  4  S   -0.000048   0.000042   0.008537   0.005847  -0.011091
   47  O  4  S    0.000093  -0.000060  -0.017013  -0.009725   0.034893
   48  O  4  X    0.007866  -0.011942  -0.342751   0.041035  -0.066272
   49  O  4  Y    0.330630  -0.452262   0.024087  -0.016321   0.012596
   50  O  4  Z    0.015199  -0.021152  -0.315713   0.344056  -0.247997
   51  O  4  S    0.000312  -0.000568  -0.091584  -0.079566   0.030266
   52  O  4  X    0.004897  -0.009616  -0.266267   0.001024  -0.053377
   53  O  4  Y    0.206317  -0.360488   0.017682  -0.011717   0.009685
   54  O  4  Z    0.009393  -0.016788  -0.222752   0.263506  -0.189610
   55  O  4 XX    0.000769  -0.000651  -0.013310   0.002251   0.000260
   56  O  4 YY    0.000166  -0.000276   0.001265   0.003639   0.001443
   57  O  4 ZZ   -0.000954   0.000964   0.016896  -0.003728   0.002390
   58  O  4 XY    0.018639  -0.014402   0.000597  -0.000407   0.000202
   59  O  4 XZ    0.000558  -0.000372  -0.003214   0.010011  -0.003996
   60  O  4 YZ   -0.012203   0.011588  -0.000775   0.000131   0.000050
   61  H  5  S   -0.000149  -0.000140  -0.009892  -0.093492  -0.101080
   62  H  5  S   -0.000151  -0.000190   0.001302  -0.191357  -0.147001

                     16         17         18         19         20
                   -0.1049     0.1284     0.1644     0.2924     0.3416
                     A          A          A          A          A   
    1  C  1  S    0.000175  -0.000040   0.112081   0.086782  -0.029606
    2  C  1  S   -0.000278   0.000073  -0.191216  -0.101494  -0.148958
    3  C  1  X    0.013000  -0.005296   0.320964  -0.164197  -0.005513
    4  C  1  Y    0.576380  -0.214766  -0.012007   0.016606   0.005379
    5  C  1  Z    0.027472  -0.009770   0.089267  -0.274500  -0.109079
    6  C  1  S   -0.000801   0.000710  -1.568357  -1.266300   1.207276
    7  C  1  X    0.011542  -0.007346   0.938786  -0.611895   0.226442
    8  C  1  Y    0.500257  -0.292762  -0.033385   0.096328  -0.049413
    9  C  1  Z    0.023845  -0.013118   0.223149  -1.771641   0.950527
   10  C  1 XX   -0.000213   0.000287   0.007310  -0.026367  -0.014402
   11  C  1 YY    0.000055  -0.003301  -0.007429  -0.009120   0.002965
   12  C  1 ZZ    0.000231   0.003028   0.015899   0.051230  -0.049380
   13  C  1 XY   -0.005877   0.006599  -0.001149  -0.000399   0.000987
   14  C  1 XZ   -0.000189   0.001232   0.015760   0.019122  -0.010518
   15  C  1 YZ    0.002405   0.037897  -0.001618  -0.003664   0.003039
   16  C  2  S   -0.000056   0.000032  -0.038657  -0.142752  -0.030215
   17  C  2  S    0.000223   0.000065   0.060621   0.150647  -0.163709
   18  C  2  X    0.001099   0.014264  -0.002725  -0.068347   0.048020
   19  C  2  Y    0.045369   0.581123   0.006466   0.017069  -0.018509
   20  C  2  Z    0.001680   0.026679  -0.137260  -0.331439   0.377119
   21  C  2  S   -0.000126  -0.000919   0.487412   3.169445   1.499756
   22  C  2  X    0.000254   0.016756  -0.237408  -0.083822   0.181087
   23  C  2  Y   -0.002941   0.665284   0.006707   0.043985  -0.097067
   24  C  2  Z   -0.000087   0.030850  -0.016274  -0.913731   2.020017
   25  C  2 XX   -0.000244  -0.000184  -0.009455   0.000797   0.017691
   26  C  2 YY    0.002398   0.001500   0.001293   0.012795   0.016003
   27  C  2 ZZ   -0.002133  -0.001295   0.005390  -0.020762  -0.028941
   28  C  2 XY   -0.005041  -0.004407   0.001211  -0.000032   0.000486
   29  C  2 XZ   -0.000856  -0.000599  -0.019793   0.008184  -0.011956
   30  C  2 YZ   -0.027178  -0.016494   0.000270   0.001587   0.002688
   31  O  3  S    0.000002  -0.000008   0.017253   0.037241   0.076934
   32  O  3  S    0.000055   0.000038  -0.068062  -0.035465  -0.131488
   33  O  3  X   -0.003596  -0.008065   0.049777   0.115111   0.142899
   34  O  3  Y   -0.150535  -0.328324  -0.006427  -0.004907   0.001826
   35  O  3  Z   -0.006931  -0.015064   0.111878   0.043582  -0.120081
   36  O  3  S   -0.000248  -0.000072  -0.029765  -0.654833  -1.206004
   37  O  3  X   -0.002836  -0.009770   0.068861   0.356667   0.754072
   38  O  3  Y   -0.120868  -0.396733  -0.006564  -0.019759  -0.007224
   39  O  3  Z   -0.005534  -0.018249   0.104767   0.239462  -0.243927
   40  O  3 XX    0.000215  -0.000490  -0.013937  -0.004785  -0.033211
   41  O  3 YY   -0.000053   0.000846  -0.005712   0.031305   0.036931
   42  O  3 ZZ   -0.000104  -0.000346  -0.001743   0.009606   0.020891
   43  O  3 XY    0.004706  -0.011799   0.000129   0.001028   0.002854
   44  O  3 XZ    0.000185  -0.000648   0.002212  -0.000266  -0.018945
   45  O  3 YZ   -0.001623  -0.004427  -0.000262   0.001159   0.001330
   46  O  4  S    0.000023  -0.000015   0.010090   0.038187   0.083772
   47  O  4  S   -0.000142  -0.000019   0.004563  -0.054535  -0.141011
   48  O  4  X   -0.003515  -0.007788   0.003918  -0.121489  -0.160178
   49  O  4  Y   -0.149198  -0.317980  -0.000426  -0.001368   0.006735
   50  O  4  Z   -0.006198  -0.014632   0.006044   0.094472  -0.060348
   51  O  4  S    0.000209   0.000422  -0.267056  -0.586788  -1.349815
   52  O  4  X   -0.002698  -0.009232  -0.088734  -0.266437  -0.822426
   53  O  4  Y   -0.117942  -0.380429  -0.000613  -0.008585   0.018034
   54  O  4  Z   -0.004988  -0.017641   0.059304   0.328534   0.045824
   55  O  4 XX   -0.000230   0.000458   0.001107  -0.005379  -0.018538
   56  O  4 YY    0.000233   0.000146   0.010238   0.026183   0.041092
   57  O  4 ZZ   -0.000070  -0.000643   0.006314   0.006960   0.006414
   58  O  4 XY   -0.004902   0.011199   0.000031   0.000957  -0.000018
   59  O  4 XZ   -0.000237   0.000309   0.005017  -0.001141   0.037283
   60  O  4 YZ   -0.000592  -0.007975   0.000084   0.001045   0.000933
   61  H  5  S    0.000303  -0.000026   0.098157   0.019182  -0.043689
   62  H  5  S    0.000400  -0.000291   2.037680  -0.875381   0.163758

                     21         22         23         24         25
                    0.4245     0.5332     0.5422     0.6296     0.6401
                     A          A          A          A          A   
    1  C  1  S   -0.001754   0.000046  -0.009546   0.000022   0.014230
    2  C  1  S    0.122283  -0.001724   0.385027  -0.000543  -0.460199
    3  C  1  X   -0.027908  -0.027277   0.659362   0.008936  -0.375467
    4  C  1  Y    0.006954  -0.977431   0.012416   0.393869   0.022302
    5  C  1  Z   -0.148016  -0.041108  -0.725683   0.018285  -0.310546
    6  C  1  S    0.350685   0.001238  -0.172082   0.005301   1.378521
    7  C  1  X   -0.827307   0.028240  -0.525361  -0.018228   0.963798
    8  C  1  Y    0.003946   1.006753  -0.024170  -0.842441  -0.073021
    9  C  1  Z    0.364082   0.042129   0.913681  -0.036005   1.132946
   10  C  1 XX    0.038593  -0.000413   0.025597   0.000165  -0.009689
   11  C  1 YY   -0.008650   0.001899   0.008283  -0.001910  -0.066863
   12  C  1 ZZ    0.011594  -0.001935   0.074811   0.001786   0.012936
   13  C  1 XY   -0.003987  -0.006555  -0.001277   0.005231  -0.001903
   14  C  1 XZ    0.057314  -0.000951   0.016307   0.000681   0.005678
   15  C  1 YZ   -0.002503  -0.020833  -0.004037   0.018455  -0.004445
   16  C  2  S   -0.006337   0.000097  -0.015152   0.000361   0.072773
   17  C  2  S    0.086963  -0.000703   0.206677  -0.001162  -0.482759
   18  C  2  X    0.214241  -0.009672  -0.043651  -0.023132  -0.189752
   19  C  2  Y   -0.000527  -0.385711   0.011982  -0.890366   0.040900
   20  C  2  Z   -0.118071  -0.016500  -0.278673  -0.044077  -0.725143
   21  C  2  S   -0.168304   0.002414  -0.658226  -0.003463  -0.924244
   22  C  2  X    3.272195   0.005301  -0.322484   0.036179  -0.426682
   23  C  2  Y   -0.069859   0.227410  -0.009011   1.509674  -0.068444
   24  C  2  Z   -0.212598   0.010235   0.393683   0.077514   1.610341
   25  C  2 XX    0.006319   0.000225   0.007239   0.000574   0.124138
   26  C  2 YY    0.011324  -0.001850   0.025654   0.000791  -0.054211
   27  C  2 ZZ   -0.007481   0.001685  -0.018174  -0.001114  -0.093905
   28  C  2 XY   -0.000029   0.004484   0.002803  -0.001419  -0.003702
   29  C  2 XZ    0.003749   0.000962  -0.049122  -0.000404  -0.029811
   30  C  2 YZ    0.000919   0.019436   0.003629  -0.012758   0.002879
   31  O  3  S    0.090259   0.000028  -0.016456  -0.000150  -0.031918
   32  O  3  S   -0.067531  -0.000368   0.098251   0.000250   0.021738
   33  O  3  X    0.018341  -0.001590   0.049294  -0.004372  -0.268817
   34  O  3  Y   -0.005744  -0.055149   0.000632  -0.139010   0.006073
   35  O  3  Z    0.114324  -0.002540  -0.046723  -0.007072   0.018739
   36  O  3  S   -2.157294  -0.000008   0.219693   0.000783   0.352973
   37  O  3  X    0.694150   0.000357  -0.171691  -0.004926  -0.193527
   38  O  3  Y   -0.039918  -0.003599   0.008363  -0.172607   0.017258
   39  O  3  Z    0.496958  -0.000249  -0.090381  -0.009144  -0.257695
   40  O  3 XX    0.003078   0.000708   0.036585   0.001579  -0.140339
   41  O  3 YY    0.049265  -0.000539   0.018257  -0.004211  -0.000576
   42  O  3 ZZ    0.047040  -0.000536   0.017361   0.002239   0.046716
   43  O  3 XY    0.001928   0.021224  -0.001604   0.050634   0.003271
   44  O  3 XZ   -0.012578   0.000701   0.025866   0.002947   0.011107
   45  O  3 YZ    0.000452  -0.005759  -0.000623   0.025976  -0.002847
   46  O  4  S   -0.081920  -0.000009   0.016848   0.000003  -0.006360
   47  O  4  S    0.074701   0.000179  -0.084567   0.000063   0.017876
   48  O  4  X   -0.051141  -0.001930   0.074734  -0.002861   0.232804
   49  O  4  Y    0.007128  -0.061071  -0.004926  -0.139711   0.000227
   50  O  4  Z   -0.131388  -0.003084   0.061439  -0.007129  -0.118138
   51  O  4  S    2.008897  -0.000561  -0.162979  -0.002150  -0.437136
   52  O  4  X    0.471660  -0.000369  -0.062583  -0.004908  -0.101915
   53  O  4  Y    0.019593  -0.002515  -0.004434  -0.165270   0.004081
   54  O  4  Z   -0.679117  -0.000430   0.129163  -0.007812  -0.023604
   55  O  4 XX   -0.014456  -0.000779  -0.046026  -0.002154  -0.119105
   56  O  4 YY   -0.037616   0.000963  -0.006264  -0.001464   0.018085
   57  O  4 ZZ   -0.022723  -0.000014   0.000335   0.003427   0.041480
   58  O  4 XY    0.000616  -0.022261   0.000541  -0.040493   0.002098
   59  O  4 XZ   -0.028490  -0.001066   0.010386  -0.000693   0.041952
   60  O  4 YZ   -0.000077  -0.000164  -0.000604   0.040487  -0.002396
   61  H  5  S    0.310789  -0.000487   0.072068   0.000032   0.080781
   62  H  5  S   -0.654312   0.000548   0.045494   0.001025   0.410292

                     26         27         28         29         30
                    0.6861     0.7067     0.7634     0.8832     0.8907
                     A          A          A          A          A   
    1  C  1  S   -0.010673  -0.018103  -0.016076   0.014926  -0.011039
    2  C  1  S    0.605935  -0.472526  -0.250968   0.044971   0.536580
    3  C  1  X    0.290812   0.247155   0.363987   0.272074  -0.341391
    4  C  1  Y   -0.035586  -0.007876  -0.010075  -0.016746   0.017584
    5  C  1  Z    0.610903   0.035442   0.021819   0.218985  -0.199364
    6  C  1  S   -0.078525   0.556146   0.299280  -0.987252  -0.885525
    7  C  1  X   -0.527085  -1.232782  -1.538684  -0.701078   0.764615
    8  C  1  Y    0.048448   0.064828   0.066625   0.069911  -0.041268
    9  C  1  Z   -0.745840  -0.751711  -0.621520  -1.150329   0.488925
   10  C  1 XX    0.008778  -0.088123  -0.095254   0.065668  -0.028550
   11  C  1 YY    0.010577   0.044593   0.048232   0.004075   0.025925
   12  C  1 ZZ    0.105024  -0.089749  -0.034701  -0.097945   0.085716
   13  C  1 XY   -0.000899   0.004279   0.007736  -0.005947   0.005313
   14  C  1 XZ    0.020111  -0.010585  -0.079533   0.091548  -0.082130
   15  C  1 YZ   -0.005558   0.007400   0.006352   0.003180  -0.001145
   16  C  2  S    0.065136   0.019029   0.016787   0.041570   0.043426
   17  C  2  S   -0.078659  -0.561664  -0.457864  -0.407423   0.688830
   18  C  2  X    0.009671   0.778100  -0.722974  -0.104008   0.142003
   19  C  2  Y    0.019532  -0.015269   0.011370  -0.014174  -0.005339
   20  C  2  Z   -0.391598  -0.094118   0.144853   0.359295   0.041726
   21  C  2  S    0.726354   1.387480   1.307596   2.640997  -0.524954
   22  C  2  X    0.427973   0.557812   2.184995  -0.056062  -0.191234
   23  C  2  Y   -0.066297   0.016620  -0.017306   0.055900  -0.007281
   24  C  2  Z    1.148835  -0.645434  -0.803276  -1.178565   0.259071
   25  C  2 XX    0.115649   0.011266   0.070443   0.153522   0.235322
   26  C  2 YY   -0.084151  -0.031627  -0.027804  -0.067087  -0.047699
   27  C  2 ZZ    0.106238  -0.035826  -0.073847   0.021612   0.048740
   28  C  2 XY   -0.005519   0.002192  -0.009076  -0.000121  -0.010342
   29  C  2 XZ   -0.003872  -0.074537   0.137006  -0.133814   0.050102
   30  C  2 YZ   -0.010000   0.002053  -0.000934  -0.001433  -0.006379
   31  O  3  S    0.003066   0.038047  -0.002359   0.001199   0.007064
   32  O  3  S    0.060940  -0.077279   0.076569   0.137697  -0.431082
   33  O  3  X   -0.039767  -0.015605  -0.379386  -0.186618  -0.486771
   34  O  3  Y    0.015641   0.000234   0.017215  -0.002597   0.016090
   35  O  3  Z   -0.315120  -0.001119  -0.172899   0.155671  -0.090452
   36  O  3  S   -0.622742  -0.701406  -1.192392  -0.553534   0.651075
   37  O  3  X    0.268405   0.508693   0.286021   0.310515   0.886719
   38  O  3  Y   -0.004369  -0.028375  -0.020994  -0.012493  -0.031616
   39  O  3  Z   -0.038711   0.347444   0.307313   0.104916   0.215572
   40  O  3 XX   -0.049766   0.001068  -0.127607  -0.025660  -0.197272
   41  O  3 YY    0.022546   0.005025   0.086337   0.070837  -0.171021
   42  O  3 ZZ    0.021094  -0.006865  -0.006341   0.016737  -0.152981
   43  O  3 XY    0.003147  -0.001747   0.009927   0.003428   0.001133
   44  O  3 XZ   -0.026200   0.041192  -0.084444  -0.014611  -0.008173
   45  O  3 YZ    0.000688  -0.000378   0.007024   0.003235  -0.000761
   46  O  4  S   -0.007971  -0.046211  -0.001249   0.008106   0.000278
   47  O  4  S    0.052269   0.204799   0.048284  -0.282129  -0.116923
   48  O  4  X   -0.029764   0.248948  -0.110529   0.545633   0.221356
   49  O  4  Y    0.014348  -0.005746  -0.008222   0.000591  -0.005772
   50  O  4  Z   -0.289313  -0.008708   0.237547  -0.304635   0.008144
   51  O  4  S   -0.276000   0.267433   0.715218   0.055981   0.109808
   52  O  4  X   -0.158836   0.318937   0.069636  -0.885936  -0.367149
   53  O  4  Y    0.007386   0.004269   0.006248  -0.012017   0.004396
   54  O  4  Z   -0.069600  -0.265799  -0.170371   0.733518   0.100091
   55  O  4 XX   -0.044710  -0.026874   0.046569  -0.179978  -0.069793
   56  O  4 YY    0.012104   0.070077  -0.011767  -0.064214  -0.068574
   57  O  4 ZZ    0.001250   0.013521   0.076937  -0.158081  -0.050317
   58  O  4 XY   -0.000827  -0.001214   0.001496   0.001427  -0.000313
   59  O  4 XZ    0.054849   0.085839  -0.068472   0.040293   0.007578
   60  O  4 YZ   -0.000848   0.000916  -0.003046   0.003999  -0.001164
   61  H  5  S    0.003539  -0.438076  -0.318534   0.436152  -0.432661
   62  H  5  S   -0.337094  -0.757190  -0.724916  -0.961944   1.190068

                     31         32         33         34         35
                    0.9691     0.9936     1.0089     1.0814     1.0988
                     A          A          A          A          A   
    1  C  1  S   -0.006474  -0.000088   0.040384  -0.010524   0.000021
    2  C  1  S   -1.301029  -0.001590   0.534005  -0.181103   0.000343
    3  C  1  X    0.395964   0.000055   0.142992   0.063699   0.000262
    4  C  1  Y   -0.017927   0.004662  -0.008090   0.004277   0.021876
    5  C  1  Z    0.178752   0.000042   0.099864  -0.127420   0.000889
    6  C  1  S    3.876357   0.005524  -2.001826  -0.429789  -0.002554
    7  C  1  X   -0.523692  -0.001440   0.587714  -0.071163   0.007122
    8  C  1  Y   -0.023398   0.004810   0.017255   0.004571   0.238930
    9  C  1  Z    0.791582   0.001864  -0.692447  -0.061431   0.010630
   10  C  1 XX    0.015743  -0.002439   0.153690  -0.055095  -0.000675
   11  C  1 YY   -0.146264   0.001546  -0.085171   0.100803   0.008542
   12  C  1 ZZ   -0.029045   0.000650   0.012275  -0.104235  -0.007853
   13  C  1 XY   -0.005670  -0.049455  -0.005720   0.004080  -0.018157
   14  C  1 XZ    0.023789  -0.002018  -0.025546   0.008501  -0.003251
   15  C  1 YZ   -0.006837   0.008794  -0.004513   0.010680  -0.097203
   16  C  2  S    0.023379   0.000041  -0.008803  -0.000665  -0.000012
   17  C  2  S    0.981490   0.001617  -0.718553  -0.006165  -0.000286
   18  C  2  X    0.017912   0.000008   0.214813   0.094478   0.005423
   19  C  2  Y    0.005560   0.012557  -0.010647  -0.009905   0.220131
   20  C  2  Z   -0.127953   0.000239   0.113329   0.163891   0.010461
   21  C  2  S   -3.280828  -0.004767   2.176946   0.696153   0.001963
   22  C  2  X    0.267163   0.001488  -1.490569  -0.594298  -0.027635
   23  C  2  Y   -0.066189  -0.061066   0.059875   0.057452  -1.064692
   24  C  2  Z    1.294177  -0.001061  -0.501796  -0.933548  -0.050620
   25  C  2 XX    0.066591   0.003165  -0.005383   0.134154   0.000061
   26  C  2 YY   -0.006006  -0.002290  -0.002800   0.018228  -0.002639
   27  C  2 ZZ    0.042315  -0.000670  -0.048038  -0.140114   0.002558
   28  C  2 XY   -0.003591   0.071740  -0.006415  -0.006198  -0.000909
   29  C  2 XZ    0.032801   0.002853   0.144542   0.063307   0.000617
   30  C  2 YZ   -0.003376  -0.009533  -0.001180   0.006834   0.033829
   31  O  3  S   -0.009433   0.000042  -0.014629   0.005813  -0.000014
   32  O  3  S   -0.287484   0.000140  -0.053588   0.156631   0.000058
   33  O  3  X   -0.134765   0.016290  -0.428507  -0.163463  -0.016807
   34  O  3  Y    0.011414   0.638074   0.008508   0.002951  -0.694799
   35  O  3  Z   -0.180769   0.029264   0.069004   0.014993  -0.032982
   36  O  3  S    0.860253  -0.001241   0.496833  -0.097722   0.000545
   37  O  3  X    0.154207  -0.018467   0.560051   0.367611   0.026145
   38  O  3  Y   -0.002104  -0.729559  -0.007394  -0.017113   1.084817
   39  O  3  Z   -0.030596  -0.033388  -0.169399   0.186036   0.051527
   40  O  3 XX   -0.062279  -0.001095  -0.047080   0.063444   0.001301
   41  O  3 YY   -0.176210   0.000346  -0.022025   0.018279  -0.004257
   42  O  3 ZZ   -0.078730   0.001060  -0.086991   0.018918   0.002967
   43  O  3 XY   -0.003854  -0.028424   0.002555  -0.000711   0.031978
   44  O  3 XZ    0.013689  -0.000980  -0.041071  -0.011592   0.002516
   45  O  3 YZ   -0.005528   0.011030   0.004473   0.000224   0.036757
   46  O  4  S   -0.000946  -0.000028   0.016464   0.010976   0.000034
   47  O  4  S   -0.208369  -0.000510   0.205874   0.133289   0.000467
   48  O  4  X   -0.065760  -0.017218  -0.197236  -0.482981  -0.014971
   49  O  4  Y   -0.003848  -0.710310  -0.011644   0.042537  -0.617296
   50  O  4  Z    0.124261  -0.033499   0.329176  -0.665336  -0.028177
   51  O  4  S    0.716149   0.002562  -1.284817  -0.450443  -0.001633
   52  O  4  X    0.114635   0.020491   0.292877   0.673264   0.023833
   53  O  4  Y    0.010337   0.849486   0.001885  -0.071406   0.992043
   54  O  4  Z   -0.291625   0.039571  -0.163092   1.191975   0.045997
   55  O  4 XX   -0.031347  -0.001515   0.029929  -0.050952  -0.000534
   56  O  4 YY   -0.129603   0.000808   0.184209   0.063897  -0.002712
   57  O  4 ZZ    0.006757   0.000076   0.065707   0.126187   0.003652
   58  O  4 XY   -0.002119  -0.032405   0.003904   0.005806  -0.016556
   59  O  4 XZ   -0.014380  -0.001426   0.008813  -0.055384   0.000336
   60  O  4 YZ   -0.006898   0.002118   0.006116  -0.001933   0.044899
   61  H  5  S    0.502731  -0.001175   0.639889  -0.006928   0.000424
   62  H  5  S   -1.421115  -0.000658   0.041515   0.070909   0.000794

                     36         37         38         39         40
                    1.1240     1.3932     1.4888     1.4988     1.6576
                     A          A          A          A          A   
    1  C  1  S   -0.010878   0.000003  -0.000006   0.013109   0.000005
    2  C  1  S   -0.168960   0.000013  -0.000094   0.209988   0.000050
    3  C  1  X    0.168480   0.001684  -0.000064   0.033326   0.000008
    4  C  1  Y   -0.008306   0.068274  -0.001361   0.000565  -0.000465
    5  C  1  Z    0.091538   0.003122  -0.000037  -0.030466   0.000015
    6  C  1  S    1.661697  -0.000226   0.000820  -1.616603  -0.000094
    7  C  1  X   -0.706816  -0.001229   0.000239  -0.390038   0.000167
    8  C  1  Y    0.006920  -0.047932   0.003107   0.051646   0.005010
    9  C  1  Z    0.235089  -0.002309   0.000609  -0.916478   0.000183
   10  C  1 XX   -0.051244  -0.003034   0.013860   0.164819   0.039384
   11  C  1 YY   -0.040377   0.045918  -0.010046  -0.286506  -0.026221
   12  C  1 ZZ    0.094345  -0.042872  -0.003809   0.135597  -0.013122
   13  C  1 XY   -0.000721  -0.070680   0.327832  -0.008535   0.922287
   14  C  1 XZ    0.022158  -0.016532   0.013959  -0.089991   0.038180
   15  C  1 YZ   -0.007856  -0.538155  -0.047312  -0.020147  -0.165662
   16  C  2  S    0.006287   0.000003   0.000029  -0.049138  -0.000004
   17  C  2  S    0.261130  -0.000070   0.000276  -0.553273   0.000023
   18  C  2  X   -0.018702  -0.002149   0.000247   0.041043   0.000120
   19  C  2  Y    0.011788  -0.088648   0.010645  -0.009425   0.004402
   20  C  2  Z   -0.239743  -0.004042   0.000380   0.182945   0.000185
   21  C  2  S   -1.567734  -0.000140   0.000847  -1.856944   0.000149
   22  C  2  X    0.612112   0.008493   0.000188  -0.306609  -0.000411
   23  C  2  Y   -0.075346   0.345412  -0.010310   0.145682  -0.006874
   24  C  2  Z    1.280908   0.015461   0.001019  -3.009543  -0.000174
   25  C  2 XX   -0.096922   0.004696   0.023645  -0.119765  -0.006397
   26  C  2 YY   -0.027504  -0.051398  -0.014616  -0.036406   0.005473
   27  C  2 ZZ    0.125753   0.046736  -0.008977   0.103584   0.000917
   28  C  2 XY   -0.002487   0.109664   0.554303   0.000336  -0.151005
   29  C  2 XZ    0.096549   0.019517   0.022681   0.049884  -0.006642
   30  C  2 YZ   -0.010459   0.586397  -0.112663  -0.008762   0.012406
   31  O  3  S   -0.002711  -0.000004   0.000038  -0.068967  -0.000002
   32  O  3  S   -0.140495  -0.000092   0.000627  -1.168404  -0.000090
   33  O  3  X   -0.121460   0.000773  -0.002525   0.235461   0.001871
   34  O  3  Y   -0.035177   0.031078  -0.098458  -0.000141   0.074785
   35  O  3  Z    0.807558   0.001406  -0.004473  -0.123928   0.003465
   36  O  3  S    0.135975   0.000265  -0.001996   3.550276   0.000215
   37  O  3  X    0.136333  -0.006204  -0.001301  -1.372593  -0.001031
   38  O  3  Y    0.060452  -0.249598  -0.082651   0.016432  -0.039731
   39  O  3  Z   -1.353081  -0.011382  -0.003915   0.375037  -0.001910
   40  O  3 XX    0.022708  -0.008942  -0.012404  -0.407333   0.007116
   41  O  3 YY   -0.053107  -0.000043   0.029553  -0.312224  -0.012988
   42  O  3 ZZ   -0.067298   0.008919  -0.016670  -0.173894   0.005815
   43  O  3 XY    0.002528  -0.209877  -0.296680   0.003522   0.168333
   44  O  3 XZ   -0.100365  -0.006881  -0.018811  -0.021584   0.009585
   45  O  3 YZ    0.003254   0.112489  -0.210186  -0.006832   0.073461
   46  O  4  S   -0.017800  -0.000009   0.000030  -0.071828   0.000006
   47  O  4  S   -0.246674  -0.000111   0.000464  -1.087009   0.000133
   48  O  4  X   -0.050630   0.000783   0.002429  -0.205551  -0.001941
   49  O  4  Y    0.003357   0.031865   0.093980   0.010551  -0.079962
   50  O  4  Z   -0.061012   0.001430   0.004385  -0.119258  -0.003681
   51  O  4  S    0.802390   0.000422  -0.001452   3.559000  -0.000433
   52  O  4  X    0.203138  -0.005472   0.001757   1.373727   0.001174
   53  O  4  Y    0.011161  -0.229027   0.098488  -0.034865   0.052383
   54  O  4  Z   -0.325900  -0.010483   0.004422   0.026607   0.002478
   55  O  4 XX   -0.071334   0.009492  -0.010845  -0.352493   0.005585
   56  O  4 YY   -0.109335  -0.015336  -0.012059  -0.351910   0.003961
   57  O  4 ZZ   -0.037898   0.005750   0.023265  -0.142937  -0.009464
   58  O  4 XY   -0.001793   0.224258  -0.258786  -0.004638   0.131047
   59  O  4 XZ    0.015196   0.012089  -0.004755   0.097778   0.003044
   60  O  4 YZ   -0.004101   0.072147   0.291621  -0.013317  -0.119434
   61  H  5  S   -0.258556   0.000004   0.000020  -0.070464   0.000017
   62  H  5  S   -0.486950  -0.000018   0.000102  -0.190466   0.000022

                     41         42         43         44         45
                    1.6623     1.7637     1.8168     1.8408     1.8786
                     A          A          A          A          A   
    1  C  1  S    0.009261   0.012279   0.000010   0.000004   0.000205
    2  C  1  S   -0.048246  -0.139009  -0.001055  -0.000026   0.000289
    3  C  1  X   -0.094330  -0.050315  -0.045781  -0.001543  -0.000540
    4  C  1  Y    0.008748   0.014590  -0.002648  -0.062140  -0.006983
    5  C  1  Z   -0.139895  -0.291035   0.082951  -0.002904  -0.001203
    6  C  1  S   -0.433241  -0.767294   0.281142  -0.000053  -0.005509
    7  C  1  X   -0.028192   0.107540  -0.473334   0.005142   0.012894
    8  C  1  Y    0.003547   0.003387   0.007293   0.195880   0.030992
    9  C  1  Z   -0.062621  -0.131829   0.093157   0.009153   0.004799
   10  C  1 XX   -0.462161  -0.085836  -0.133288   0.003726  -0.002148
   11  C  1 YY    0.383698  -0.348558   0.133763  -0.044096  -0.004404
   12  C  1 ZZ    0.050912   0.362329   0.021386   0.040356   0.006775
   13  C  1 XY    0.001799  -0.004253   0.014467   0.089874   0.049832
   14  C  1 XZ    0.487772  -0.070098  -0.150280   0.016668   0.007315
   15  C  1 YZ    0.005659  -0.036088   0.009615   0.506235   0.087169
   16  C  2  S    0.003182  -0.003960   0.005335   0.000009   0.000240
   17  C  2  S   -0.195862  -0.486918   0.106653   0.000037   0.000336
   18  C  2  X   -0.106619   0.124094   0.140419   0.000876   0.001570
   19  C  2  Y   -0.000599  -0.013538  -0.001276   0.032875   0.000197
   20  C  2  Z    0.069834   0.227108  -0.045998   0.001495  -0.000800
   21  C  2  S   -0.329809   2.705236  -0.502415   0.000165  -0.013691
   22  C  2  X    0.904939  -0.343573   3.215730  -0.005879  -0.032928
   23  C  2  Y    0.021891   0.022868  -0.062583  -0.209909  -0.036179
   24  C  2  Z   -0.960816  -0.312208  -0.357583  -0.009393  -0.002252
   25  C  2 XX   -0.139314   0.069610   0.100772   0.000559  -0.001579
   26  C  2 YY   -0.095900  -0.399743   0.091806  -0.010268  -0.001030
   27  C  2 ZZ    0.248543   0.314646  -0.183771   0.009719   0.003435
   28  C  2 XY    0.001593  -0.020679  -0.019831   0.013445   0.009791
   29  C  2 XZ   -0.009353   0.159500   0.426115   0.003687   0.002495
   30  C  2 YZ   -0.018045  -0.041896   0.004116   0.121522   0.033391
   31  O  3  S    0.003998   0.019367   0.053951   0.000001  -0.000552
   32  O  3  S    0.407613   0.318008   0.731407  -0.000134  -0.011754
   33  O  3  X   -0.222503   0.067084   0.128612   0.000100   0.000689
   34  O  3  Y    0.013634   0.001924   0.000090   0.002090  -0.039886
   35  O  3  Z   -0.178446  -0.077696  -0.071209   0.000074  -0.002740
   36  O  3  S   -0.834577  -1.136404  -3.115106   0.000452   0.041745
   37  O  3  X    0.232810   0.397100   0.631636   0.000840  -0.010316
   38  O  3  Y   -0.025943  -0.020560  -0.040517   0.037765   0.055240
   39  O  3  Z    0.441814   0.235089   0.546108   0.001654  -0.000595
   40  O  3 XX    0.147025   0.196976   0.286143  -0.002382  -0.017207
   41  O  3 YY   -0.180895  -0.128007   0.493437  -0.035834  -0.038403
   42  O  3 ZZ    0.284843   0.100132  -0.319904   0.038185   0.049193
   43  O  3 XY   -0.004918   0.000760   0.000735  -0.057584  -0.364258
   44  O  3 XZ   -0.093849  -0.217607   0.116829   0.009089  -0.003883
   45  O  3 YZ   -0.022447  -0.006890   0.040062   0.481563   0.695115
   46  O  4  S   -0.031264   0.023433  -0.057621   0.000017   0.000266
   47  O  4  S   -0.785928   0.682855  -0.886043   0.000377   0.007554
   48  O  4  X   -0.179195   0.127077   0.142611  -0.000016   0.003483
   49  O  4  Y   -0.000293   0.003667  -0.006578  -0.005420   0.034150
   50  O  4  Z    0.101180  -0.147530   0.066954  -0.000302   0.000088
   51  O  4  S    2.230152  -1.927559   3.568407  -0.001120  -0.023332
   52  O  4  X    0.648659  -0.568226   0.578195   0.000775  -0.004771
   53  O  4  Y    0.002275  -0.010127   0.025094   0.043835  -0.036868
   54  O  4  Z   -0.395408   0.523362  -0.855631   0.002231   0.004428
   55  O  4 XX   -0.100137   0.333428  -0.290311   0.014724  -0.019355
   56  O  4 YY   -0.062591  -0.321194  -0.393627  -0.063420   0.053039
   57  O  4 ZZ   -0.333555   0.368988   0.170045   0.048947  -0.029021
   58  O  4 XY   -0.006983  -0.027417  -0.013783   0.343611  -0.451995
   59  O  4 XZ    0.177241   0.191590   0.238016   0.030862  -0.031852
   60  O  4 YZ    0.010053  -0.041511  -0.035716   0.611522  -0.407132
   61  H  5  S   -0.001326   0.077081   0.053922   0.000109   0.003798
   62  H  5  S    0.066471   0.100991  -0.145440   0.000167   0.005676

                     46         47         48         49         50
                    1.8815     1.9734     1.9912     2.1081     2.1113
                     A          A          A          A          A   
    1  C  1  S    0.017937   0.001323  -0.003824   0.031906   0.000047
    2  C  1  S    0.026078   0.512787  -0.185924   0.126753   0.000231
    3  C  1  X   -0.030242   0.021279   0.047942   0.138774   0.000699
    4  C  1  Y    0.004416  -0.010488  -0.001595  -0.007241   0.020051
    5  C  1  Z   -0.078155   0.217109   0.009307   0.082935   0.001058
    6  C  1  S   -0.489588  -0.608822   0.525062  -0.622566  -0.001000
    7  C  1  X    1.074734   0.078613  -0.689885   0.252534   0.005875
    8  C  1  Y   -0.040137   0.019194   0.012703  -0.004838   0.231256
    9  C  1  Z    0.290498  -0.460327   0.092184  -0.037466   0.010404
   10  C  1 XX   -0.367212   0.011215  -0.076822  -0.524800   0.004477
   11  C  1 YY    0.401367   0.266267  -0.076839   0.492334  -0.053623
   12  C  1 ZZ   -0.014894  -0.324979   0.179064   0.087981   0.049217
   13  C  1 XY    0.009640  -0.001166   0.013515   0.058983   0.119978
   14  C  1 XZ    0.253115   0.183696  -0.294451  -0.658829   0.019737
   15  C  1 YZ    0.014757   0.026854  -0.006337   0.036843   0.617885
   16  C  2  S    0.020961  -0.043471   0.005879   0.011972   0.000023
   17  C  2  S    0.025164  -0.015584   0.019250  -0.020925  -0.000002
   18  C  2  X    0.133101   0.050093   0.186549   0.087602  -0.006389
   19  C  2  Y   -0.000059  -0.003716  -0.004155   0.000227  -0.264467
   20  C  2  Z   -0.070977   0.054581  -0.008106  -0.043320  -0.012302
   21  C  2  S   -1.204916   1.066805  -0.136684  -0.092061  -0.000315
   22  C  2  X   -2.902838  -0.282488   2.489407  -0.445307  -0.013541
   23  C  2  Y    0.073742  -0.016242  -0.048395   0.022190  -0.540216
   24  C  2  Z   -0.042763   0.504949  -0.278108  -0.227742  -0.025387
   25  C  2 XX   -0.178587   0.292229   0.084740  -0.030669   0.002289
   26  C  2 YY    0.180178  -0.125310  -0.016695   0.240733  -0.027454
   27  C  2 ZZ    0.072173  -0.234417  -0.077690  -0.092271   0.025393
   28  C  2 XY    0.005633  -0.008983  -0.019893   0.000636   0.055388
   29  C  2 XZ    0.095941  -0.062368   0.369967   0.152748   0.010708
   30  C  2 YZ    0.002934   0.007317  -0.005884   0.013437   0.320712
   31  O  3  S   -0.050757   0.009613   0.043559   0.001772   0.000000
   32  O  3  S   -1.063124  -0.161028   0.340304  -0.218668  -0.000284
   33  O  3  X    0.146061   0.183919   0.235531   0.024649  -0.003110
   34  O  3  Y    0.000508  -0.011492  -0.002280  -0.004460  -0.127524
   35  O  3  Z   -0.078507   0.152432  -0.076434   0.087870  -0.005749
   36  O  3  S    3.780697  -0.071271  -2.145489   0.583868   0.000746
   37  O  3  X   -1.054037   0.017964   0.310228  -0.118863   0.007869
   38  O  3  Y    0.038340   0.011191  -0.028226   0.009365   0.327986
   39  O  3  Z   -0.286936  -0.253735   0.449892  -0.150802   0.014931
   40  O  3 XX   -0.165184   0.001081   0.314798  -0.249041  -0.018627
   41  O  3 YY    0.111439  -0.453842  -0.318617  -0.162743   0.048449
   42  O  3 ZZ   -0.530789   0.379533   0.250598   0.374448  -0.029877
   43  O  3 XY    0.029346  -0.011538  -0.001840  -0.001720  -0.430039
   44  O  3 XZ   -0.377503  -0.030220  -0.350831   0.104101  -0.029106
   45  O  3 YZ    0.035308  -0.043528  -0.021548  -0.030510  -0.381899
   46  O  4  S    0.024868   0.016440  -0.043922  -0.000625  -0.000012
   47  O  4  S    0.688478   0.075735  -0.303562   0.100911   0.000021
   48  O  4  X    0.230235   0.002664   0.242487   0.090516  -0.002806
   49  O  4  Y    0.000031  -0.011513  -0.004888   0.002919  -0.121065
   50  O  4  Z   -0.132390   0.249357  -0.023012  -0.107921  -0.005729
   51  O  4  S   -2.142746  -0.785067   2.097513  -0.162142   0.000362
   52  O  4  X   -0.355633  -0.348416   0.170155   0.023743   0.008088
   53  O  4  Y   -0.016589   0.018556   0.018761  -0.008990   0.322987
   54  O  4  Z    0.560485  -0.218149  -0.499602   0.172615   0.014996
   55  O  4 XX   -0.003890  -0.264322  -0.481584   0.340273   0.013983
   56  O  4 YY    0.128533  -0.350716   0.455405  -0.123760   0.022971
   57  O  4 ZZ    0.298512   0.661075  -0.205905  -0.135985  -0.036915
   58  O  4 XY    0.013498   0.000275   0.042457  -0.023370   0.317845
   59  O  4 XZ   -0.101465  -0.060737  -0.345720   0.212337   0.003619
   60  O  4 YZ   -0.002041  -0.052236   0.043696  -0.003914  -0.460645
   61  H  5  S    0.331082   0.002166   0.021081   0.732637   0.001019
   62  H  5  S    0.500595   0.040392  -0.345282  -0.032056  -0.000124

                     51         52         53         54         55
                    2.1898     2.4820     2.5052     2.7986     2.9087
                     A          A          A          A          A   
    1  C  1  S   -0.019344   0.080737   0.000022  -0.000000   0.009250
    2  C  1  S   -0.097289   0.097281   0.000020   0.000001  -0.030109
    3  C  1  X    0.041254  -0.025782   0.001115   0.000110  -0.070600
    4  C  1  Y   -0.005289   0.014015   0.045654   0.004314  -0.000415
    5  C  1  Z    0.093136  -0.291908   0.002006   0.000186   0.046936
    6  C  1  S    0.995388  -2.289040  -0.000609  -0.000001  -0.020048
    7  C  1  X    0.419921  -0.156291   0.000097  -0.000017  -0.256686
    8  C  1  Y   -0.046755   0.059758   0.004117  -0.001135   0.006295
    9  C  1  Z    0.795225  -1.218633  -0.000124  -0.000065  -0.000038
   10  C  1 XX   -0.577792   0.314081   0.002632  -0.003190  -0.128249
   11  C  1 YY   -0.037121   0.553120  -0.028521   0.000923   0.062689
   12  C  1 ZZ    0.587838  -0.693233   0.025932   0.002262   0.134192
   13  C  1 XY    0.011662   0.020289   0.059500  -0.075717   0.020396
   14  C  1 XZ    0.079901  -0.292662   0.010742  -0.002716  -0.326109
   15  C  1 YZ   -0.035022   0.073323   0.327897   0.028881   0.004250
   16  C  2  S   -0.016858  -0.133260  -0.000027   0.000002   0.001712
   17  C  2  S    0.009904  -0.281778  -0.000146  -0.000034  -0.151642
   18  C  2  X    0.101922  -0.022309   0.006399   0.000261   1.044655
   19  C  2  Y   -0.020390   0.015405   0.259884   0.008828  -0.016186
   20  C  2  Z    0.388605  -0.325690   0.011830   0.000393  -0.205974
   21  C  2  S   -0.461650   2.405471   0.000620   0.000077  -0.115472
   22  C  2  X   -0.390692  -0.377805   0.007086   0.000010   1.779426
   23  C  2  Y   -0.049385   0.081130   0.298666   0.003576  -0.027419
[...]
   44  O  3 XZ    0.238393   0.115092  -0.775445  -0.095495   0.088381
   45  O  3 YZ   -0.009971   0.005992   0.036395   0.008507  -0.000844
   46  O  4  S   -0.030891   0.011421   0.023436  -0.383675  -0.065349
   47  O  4  S   -0.635091  -0.014648  -0.113196  -0.250833   0.016329
   48  O  4  X    0.103086  -0.244065  -0.267076  -0.234739   0.050301
   49  O  4  Y    0.001636   0.000427  -0.002685  -0.000055   0.002474
   50  O  4  Z   -0.090872   0.121322   0.201379   0.126642  -0.080837
   51  O  4  S    2.246324  -0.535684  -0.451522   4.388836   0.845091
   52  O  4  X    1.325306  -0.423215  -0.118708   0.971861   0.363154
   53  O  4  Y   -0.013170   0.003225  -0.022048  -0.013575  -0.008485
   54  O  4  Z   -0.421816   0.156418   0.543483  -0.223761  -0.009335
   55  O  4 XX    0.878459  -0.622751   0.172011  -1.125130  -0.104374
   56  O  4 YY   -0.472519   0.162708   0.184355  -1.292717  -0.206989
   57  O  4 ZZ   -0.297550   0.286343  -0.465969  -1.400558  -0.214676
   58  O  4 XY   -0.008932   0.007922  -0.029913  -0.004210   0.002486
   59  O  4 XZ   -0.639689   0.312806   0.659058  -0.011558  -0.117414
   60  O  4 YZ    0.006436  -0.014285   0.018301   0.006006   0.003297
   61  H  5  S   -0.007937   0.238178   0.032205   0.020685   0.215163
   62  H  5  S    0.000216  -0.018166   0.063998  -0.034679  -0.472025

                     61         62
                    4.2658     4.4210
                     A          A   
    1  C  1  S   -0.015014   0.198172
    2  C  1  S   -0.003275  -1.215306
    3  C  1  X   -0.039962   0.017113
    4  C  1  Y   -0.002238  -0.007628
    5  C  1  Z    0.070301   0.156994
    6  C  1  S    0.280322  -1.564532
    7  C  1  X   -0.963755   0.244412
    8  C  1  Y    0.031102   0.012581
    9  C  1  Z   -0.162383  -0.404815
   10  C  1 XX   -0.042321   0.738849
   11  C  1 YY   -0.068435   0.765708
   12  C  1 ZZ    0.039886   1.025440
   13  C  1 XY    0.005739  -0.003805
   14  C  1 XZ   -0.141223   0.099029
   15  C  1 YZ   -0.002277  -0.016231
   16  C  2  S   -0.103149  -0.450877
   17  C  2  S    0.590723   2.264575
   18  C  2  X    0.171385  -0.064814
   19  C  2  Y    0.000001   0.008681
   20  C  2  Z   -0.091703  -0.154594
   21  C  2  S    0.145062   0.145631
   22  C  2  X    4.412315  -1.216708
   23  C  2  Y   -0.071638   0.075108
   24  C  2  Z   -0.799032  -0.985363
   25  C  2 XX   -0.570734  -2.128321
   26  C  2 YY   -0.336832  -1.425732
   27  C  2 ZZ   -0.364105  -1.870342
   28  C  2 XY    0.010305   0.017700
   29  C  2 XZ   -0.080157   0.049308
   30  C  2 YZ    0.003426   0.022431
   31  O  3  S    0.432676  -0.167302
   32  O  3  S    0.722697  -0.302464
   33  O  3  X   -0.289449  -0.155580
   34  O  3  Y    0.013340   0.007014
   35  O  3  Z   -0.136175  -0.069483
   36  O  3  S   -6.607350   2.931750
   37  O  3  X    1.299202  -1.092104
   38  O  3  Y   -0.071483   0.036621
   39  O  3  Z    0.863372  -0.214325
   40  O  3 XX    1.324712  -0.050491
   41  O  3 YY    1.493536  -0.673923
   42  O  3 ZZ    1.388067  -0.540742
   43  O  3 XY    0.011957  -0.026759
   44  O  3 XZ   -0.156191   0.197706
   45  O  3 YZ    0.009452  -0.011967
   46  O  4  S   -0.443675   0.008260
   47  O  4  S   -0.729312   0.024116
   48  O  4  X   -0.134965   0.195499
   49  O  4  Y   -0.002615   0.003101
   50  O  4  Z    0.129058  -0.172156
   51  O  4  S    6.908693   0.005104
   52  O  4  X    1.233819   0.491362
   53  O  4  Y    0.029730  -0.012907
   54  O  4  Z   -1.307333   0.018462
   55  O  4 XX   -1.313223   0.352660
   56  O  4 YY   -1.570792  -0.071468
   57  O  4 ZZ   -1.268378   0.115117
   58  O  4 XY    0.005907  -0.001545
   59  O  4 XZ   -0.287839  -0.228363
   60  O  4 YZ   -0.008974  -0.004298
   61  H  5  S   -0.089079  -0.017193
   62  H  5  S   -0.442279   0.279256
 ...... END OF ROHF CALCULATION ......
 STEP CPU TIME =    13.44 TOTAL CPU TIME =       13.6 (    0.2 MIN)
 TOTAL WALL CLOCK TIME=       16.0 SECONDS, CPU UTILIZATION IS  85.34%

     ---------------------------------------------------------------------
     PROPERTIES FOR THE B3LYP    DFT FUNCTIONAL (ROHF TYPE) DENSITY MATRIX
     ---------------------------------------------------------------------

          ---------------------------------------
          MULLIKEN AND LOWDIN POPULATION ANALYSES
          ---------------------------------------

     ATOMIC MULLIKEN POPULATION IN EACH MOLECULAR ORBITAL

                      1          2          3          4          5

                  2.000000   2.000000   2.000000   2.000000   2.000000

    1            -0.000017  -0.000014   0.001089   1.998884   0.010647
    2            -0.001114  -0.001130   2.001000   0.000586   0.531558
    3            -0.000003   2.001146  -0.001083   0.000016   0.701426
    4             2.001136  -0.000003  -0.001011  -0.000006   0.756462
    5            -0.000002   0.000000   0.000003   0.000521  -0.000093

                      6          7          8          9         10

                  2.000000   2.000000   2.000000   2.000000   2.000000

    1             0.009544   1.027853   0.511002   0.354799   0.058695
    2             0.367660   0.524310   0.239146   0.394953   0.351841
    3             0.839579   0.118457   0.489701   0.323420   0.967205
    4             0.783737   0.166577   0.365121   0.747329   0.574410
    5            -0.000520   0.162803   0.395030   0.179499   0.047849

                     11         12         13         14         15

                  2.000000   2.000000   2.000000   2.000000   1.000000

    1             0.056634   0.000156   0.159916   0.433197   0.828445
    2             0.825530   0.033326   0.096403   0.117829   0.025915
    3             0.526446   0.995061   0.771837   0.854058   0.006769
    4             0.591390   0.971457   0.971630   0.525388   0.116766
    5             0.000000   0.000000   0.000214   0.069529   0.022105

                     16

                  1.000000

    1             0.901301
    2             0.009254
    3             0.045922
    4             0.043522
    5             0.000000

     ATOMIC SPIN POPULATION (ALPHA MINUS BETA)
       ATOM         MULL.POP.                    LOW.POP.
    1 C             1.729746                     1.685660
    2 C             0.035169                     0.061204
    3 O             0.052691                     0.058292
    4 O             0.160288                     0.172409
    5 H             0.022105                     0.022435

               ----- POPULATIONS IN EACH AO -----
                             MULLIKEN      LOWDIN
              1  C  1  S      1.99205     1.98068
              2  C  1  S      0.74087     0.42435
              3  C  1  X      0.62413     0.56938
              4  C  1  Y      0.52744     0.51290
              5  C  1  Z      0.65521     0.59813
              6  C  1  S      0.79130     0.45108
              7  C  1  X      0.32515     0.44338
              8  C  1  Y      0.42869     0.43337
              9  C  1  Z      0.28012     0.38817
             10  C  1 XX     -0.00048     0.17661
             11  C  1 YY     -0.02136     0.14966
             12  C  1 ZZ      0.00096     0.18661
             13  C  1 XY      0.00021     0.00032
             14  C  1 XZ      0.00608     0.01076
             15  C  1 YZ      0.00177     0.00338
             16  C  2  S      1.99207     1.96856
             17  C  2  S      0.71717     0.34784
             18  C  2  X      0.74049     0.63412
             19  C  2  Y      0.51678     0.45001
             20  C  2  Z      0.68723     0.58740
             21  C  2  S      0.29343     0.26680
             22  C  2  X      0.02488     0.27855
             23  C  2  Y      0.31177     0.37173
             24  C  2  Z      0.14763     0.32391
             25  C  2 XX      0.02547     0.24806
             26  C  2 YY     -0.03120     0.08862
             27  C  2 ZZ      0.00558     0.17475
             28  C  2 XY      0.03149     0.07188
             29  C  2 XZ      0.04616     0.10279
             30  C  2 YZ      0.00811     0.01719
             31  O  3  S      1.99247     1.97622
             32  O  3  S      0.88208     0.70279
             33  O  3  X      0.91388     0.85003
             34  O  3  Y      0.90765     0.86762
             35  O  3  Z      1.08373     1.04432
             36  O  3  S      1.02508     0.48904
             37  O  3  X      0.49863     0.57326
             38  O  3  Y      0.65198     0.67215
             39  O  3  Z      0.70090     0.72537
             40  O  3 XX     -0.00282     0.19075
             41  O  3 YY     -0.01210     0.17210
             42  O  3 ZZ     -0.01546     0.16978
             43  O  3 XY      0.00718     0.01111
             44  O  3 XZ      0.00601     0.01252
             45  O  3 YZ      0.00075     0.00106
             46  O  4  S      1.99249     1.97628
             47  O  4  S      0.88900     0.70695
             48  O  4  X      0.96074     0.90155
             49  O  4  Y      0.93509     0.89559
             50  O  4  Z      0.99722     0.95338
             51  O  4  S      1.02067     0.48843
             52  O  4  X      0.55016     0.60777
             53  O  4  Y      0.66398     0.68110
             54  O  4  Z      0.61909     0.65748
             55  O  4 XX     -0.00627     0.18394
             56  O  4 YY     -0.01224     0.17209
             57  O  4 ZZ     -0.01104     0.17481
             58  O  4 XY      0.00521     0.00837
             59  O  4 XZ      0.00735     0.01458
             60  O  4 YZ      0.00247     0.00364
             61  H  5  S      0.52299     0.47498
             62  H  5  S      0.35395     0.37995

          ----- MULLIKEN ATOMIC OVERLAP POPULATIONS -----
          (OFF-DIAGONAL ELEMENTS NEED TO BE MULTIPLIED BY 2)

             1           2           3           4           5

    1    6.0131278
    2    0.3390245   4.2245157
    3   -0.1229848   0.4901266   8.3547126
    4   -0.1284295   0.4895044  -0.0870786   8.3300723
    5    0.2513932  -0.0261051   0.0051815   0.0098388   0.6366296

          TOTAL MULLIKEN AND LOWDIN ATOMIC POPULATIONS
       ATOM         MULL.POP.    CHARGE          LOW.POP.     CHARGE
    1 C             6.352131   -0.352131         6.328784   -0.328784
    2 C             5.517066    0.482934         5.932206    0.067794
    3 O             8.639957   -0.639957         8.458124   -0.458124
    4 O             8.613907   -0.613907         8.425953   -0.425953
    5 H             0.876938    0.123062         0.854933    0.145067

          -------------------------------
          BOND ORDER AND VALENCE ANALYSIS     BOND ORDER THRESHOLD=0.050
          -------------------------------

                   BOND                       BOND                       BOND
  ATOM PAIR DIST  ORDER      ATOM PAIR DIST  ORDER      ATOM PAIR DIST  ORDER
    1   2  1.517  0.990        1   3  2.342  0.057        1   4  2.303  0.173
    1   5  1.081  0.898        2   3  1.231  1.635        2   4  1.235  1.585
    3   4  2.238  0.094

                       TOTAL       BONDED        FREE
      ATOM            VALENCE     VALENCE     VALENCE
    1 C                 3.617       2.119       1.499
    2 C                 4.222       4.221       0.001
    3 O                 1.804       1.802       0.002
    4 O                 1.877       1.861       0.016
    5 H                 0.933       0.932       0.000

          -----------------------------------------
          ATOMIC SPIN DENSITY AT THE NUCLEUS (A.U.)
          -----------------------------------------
                            SPIN DENS    ALPHA DENS     BETA DENS
    1  C            6.0     0.2412871      59.14277      58.90148
    2  C            6.0     0.0231360      58.84836      58.82523
    3  O            8.0     0.0000815     145.09823     145.09815
    4  O            8.0     0.0170716     145.12943     145.11235
    5  H            1.0     0.0168808       0.21694       0.20006

    **** A SOLVENT MODEL IS IN USE IN THIS RUN ****
 ELECTRICAL PROPERTIES (MOMENTS, DENSITY, FIELD/GRADIENT, AND/OR POTENTIAL)
 ARE COMPUTED USING THE SOLVATED SYSTEM'S DENSITY MATRIX, BUT
 ONLY WITH AO INTEGRAL CONTRIBUTIONS FROM THE QUANTUM SOLUTE.
 THE ONE EXCEPTION IS THE DIPOLE, WHICH IS ALSO PRINTED FOR THE TOTAL SYSTEM.

          ----------------------------
          SOLUTE ELECTROSTATIC MOMENTS
          ----------------------------

 POINT   1           X           Y           Z (BOHR)    CHARGE
                 0.073255    0.029738    0.175946       -1.00 (A.U.)
         DX          DY          DZ         /D/  (DEBYE)
    -1.230125    0.118017   -1.896547    2.263631

          ----------------------------
          SYSTEM ELECTROSTATIC MOMENTS
          ----------------------------

 POINT   1           X           Y           Z (BOHR)    CHARGE
                 0.073255    0.029738    0.175946       -1.00 (A.U.)
         DX          DY          DZ         /D/  (DEBYE)
    -1.230125    0.118017   -1.896547    2.263631
 INCLUDING PCM SURFACE CHARGES, TOTAL CHARGE=   -0.024913, AND TOTAL DIPOLE IS
         DX          DY          DZ         /D/  (DEBYE)
     0.001012    0.000029    0.019292    0.019319
 ...... END OF PROPERTY EVALUATION ......
 STEP CPU TIME =     0.01 TOTAL CPU TIME =       13.6 (    0.2 MIN)
 TOTAL WALL CLOCK TIME=       16.0 SECONDS, CPU UTILIZATION IS  85.35%

 .... DONE WITH PCM CONTRIBUTION TO GRADIENT ....
 STEP CPU TIME =     0.06 TOTAL CPU TIME =       13.7 (    0.2 MIN)
 TOTAL WALL CLOCK TIME=       16.0 SECONDS, CPU UTILIZATION IS  85.46%

 BEGINNING ONE ELECTRON GRADIENT...
 ..... END OF 1-ELECTRON GRADIENT ......
 STEP CPU TIME =     0.00 TOTAL CPU TIME =       13.7 (    0.2 MIN)
 TOTAL WALL CLOCK TIME=       16.0 SECONDS, CPU UTILIZATION IS  85.40%

          ----------------------
          GRADIENT OF THE ENERGY
          ----------------------
 MEMORY FOR GRID POINT CONTRIBUTIONS TO THE DFT GRADIENT=    214259 WORDS.
 STEP CPU TIME =     1.73 TOTAL CPU TIME =       15.4 (    0.3 MIN)
 TOTAL WALL CLOCK TIME=       18.9 SECONDS, CPU UTILIZATION IS  81.72%

 THE MINIMUM MEMORY REQUIRED FOR THIS RUN IS      90635 WORDS.
 USING    1066155 WORDS FOR 2E- DERIVATIVE INTEGRAL CONTRIBUTIONS.
 THE COARSE/FINE SCHWARZ SCREENINGS SKIPPED            0/           0 BLOCKS.
 THE NUMBER OF GRADIENT INTEGRAL BLOCKS COMPUTED WAS     14362
 ...... END OF 2-ELECTRON GRADIENT ......
 STEP CPU TIME =     0.35 TOTAL CPU TIME =       15.8 (    0.3 MIN)
 TOTAL WALL CLOCK TIME=       19.2 SECONDS, CPU UTILIZATION IS  82.05%

                         ----------------------
                         GRADIENT OF THE ENERGY
                         ----------------------

 UNITS ARE HARTREE/BOHR    E'X               E'Y               E'Z 
    1 C               -0.007914881       0.000951002      -0.011226004
    2 C                0.000233664      -0.003474478       0.048401206
    3 O               -0.037056661       0.002249955      -0.018243335
    4 O                0.034007495       0.000683776      -0.023391356
    5 H                0.010730382      -0.000410255       0.004459488

                   MAXIMUM GRADIENT =    0.048401206
                       RMS GRADIENT =    0.020157353


                     --------------------
                     INTERNAL COORDINATES
                     --------------------

                 - - ATOMS - -         COORDINATE        GRADIENT
 NO.   TYPE    I  J  K  L  M  N         (ANG,DEG)     (H/B,H/RAD)
 ----------------------------------------------------------------
   1 SYM.CRD.                          -1.3138674      -0.0044109
   2 SYM.CRD.                           1.4582163      -0.0118930
   3 SYM.CRD.                          -1.7883304       0.0374254
   4 SYM.CRD.                           1.4859738      -0.0013583
   5 SYM.CRD.                           0.8545942      -0.0311357
   6 SYM.CRD.                          -0.3399034      -0.0090879
   7 SYM.CRD.                          -0.7449736      -0.0003831
   8 SYM.CRD.                          -0.0297087       0.0305674
   9 SYM.CRD.                           0.1740313       0.0120959

                   MAXIMUM GRADIENT =    0.037425448
                       RMS GRADIENT =    0.020265622
  $VIB   
          IVIB=   0 IATOM=   0 ICOORD=   0 E=     -227.1442178702
 -7.914881111E-03 9.510021619E-04-1.122600392E-02 2.336642700E-04-3.474477900E-03
  4.840120635E-02-3.705666067E-02 2.249955292E-03-1.824333487E-02 3.400749526E-02
  6.837757903E-04-2.339135573E-02 1.073038226E-02-4.102553443E-04 4.459488166E-03
 -1.230124761E+00 1.180173295E-01-1.896546986E+00

..... END OF SINGLE POINT GRADIENT .....
 STEP CPU TIME =     0.00 TOTAL CPU TIME =       15.8 (    0.3 MIN)
 TOTAL WALL CLOCK TIME=       19.2 SECONDS, CPU UTILIZATION IS  82.05%

             ----------------------------------------------
             -------   RESULTS OF PCM CALCULATION   -------
             ----------------------------------------------

 FREE ENERGY IN SOLVENT = <PSI| H(0)+V/2 |PSI>       =     -227.1442178702 A.U.
 INTERNAL ENERGY IN SOLVENT = <PSI| H(0) |PSI>       =     -227.0432805856 A.U.
 DELTA INTERNAL ENERGY =  <D-PSI| H(0) |D-PSI>       =        0.0000000000 A.U.
 ELECTROSTATIC INTERACTION                           =       -0.1009372846 A.U.
 PIEROTTI CAVITATION ENERGY                          =        0.0000000000 A.U.
 DISPERSION FREE ENERGY                              =        0.0000000000 A.U.
 REPULSION FREE ENERGY                               =        0.0000000000 A.U.
 TOTAL INTERACTION (DELTA + ES + CAV + DISP + REP)   =       -0.1009372846 A.U.
 TOTAL FREE ENERGY IN SOLVENT                        =     -227.1442178702 A.U.

 FREE ENERGY IN SOLVENT       =     -142535.16 KCAL/MOL
 INTERNAL ENERGY IN SOLVENT   =     -142471.82 KCAL/MOL
 DELTA INTERNAL ENERGY        =           0.00 KCAL/MOL
 ELECTROSTATIC INTERACTION    =         -63.34 KCAL/MOL
 PIEROTTI CAVITATION ENERGY   =           0.00 KCAL/MOL
 DISPERSION FREE ENERGY       =           0.00 KCAL/MOL
 REPULSION FREE ENERGY        =           0.00 KCAL/MOL
 TOTAL INTERACTION            =         -63.34 KCAL/MOL
 TOTAL FREE ENERGY IN SOLVENT =     -142535.16 KCAL/MOL

 -INTERNAL ENERGY IN SOLVENT-
    OMITS ES,CAV,DISP,REP (USES SOLVATED ORBITALS IN THE GAS PHASE HAMILTONIAN)
 -FREE ENERGY IN SOLVENT-
    INCLUDES ES+DISP+REP WHICH ARE IN THE SELF-CONSISTENT WAVEFUNCTION.
 -TOTAL FREE ENERGY IN SOLVENT-
    INCLUDES ES+DISP+REP+CAV, MEANING CAVITATION IS NOT IN THE SCF ENERGY.

 .... DONE PRINTING PCM SOLVENT SUMMARY ....
 STEP CPU TIME =     0.00 TOTAL CPU TIME =       15.8 (    0.3 MIN)
 TOTAL WALL CLOCK TIME=       19.2 SECONDS, CPU UTILIZATION IS  82.05%
              1100818  WORDS OF DYNAMIC MEMORY USED
 EXECUTION OF GAMESS TERMINATED NORMALLY Tue Nov 29 00:15:45 2016
 DDI: 263640 bytes (0.3 MB / 0 MWords) used by master data server.

 ----------------------------------------
 CPU timing information for all processes
 ========================================
 0: 15.657 + 0.126 = 15.784
 ----------------------------------------
 ddikick.x: exited gracefully.
unset echo
----- accounting info -----
Files used on the master node compute-3-0 were:
-rw-rw-r-- 1 sarom sarom    65210 Nov 29  2016 .//pcm-hccoo-3.dat
-rw-rw-r-- 1 sarom sarom     1091 Nov 29  2016 .//pcm-hccoo-3.F05
-rw-rw-r-- 1 sarom sarom 21961952 Nov 29  2016 .//pcm-hccoo-3.F08
-rw-rw-r-- 1 sarom sarom  2323120 Nov 29  2016 .//pcm-hccoo-3.F10
-rw-rw-r-- 1 sarom sarom  1555768 Nov 29  2016 .//pcm-hccoo-3.F22
-rw-rw-r-- 1 sarom sarom        8 Nov 29  2016 .//pcm-hccoo-3.F26
-rw-rw-r-- 1 sarom sarom        0 Nov 29  2016 .//pcm-hccoo-3.F27
-rw-rw-r-- 1 sarom sarom     1091 Nov 27 05:47 .//pcm-hccoo-3.inp
-rw-rw-r-- 1 sarom sarom   105287 Nov 29  2016 .//pcm-hccoo-3.log
Tue Nov 29 00:16:04 CST 2016
0.217u 0.077s 0:38.66 0.7%	0+0k 0+136io 0pf+0w
