-catch_rsh /opt/gridengine/default/spool/compute-0-6/active_jobs/24039.1/pe_hostfile
compute-0-6
The primary node assigned by SGE to this run is compute-0-6
Warning: no access to tty (Bad file descriptor).
Thus no job control in this shell.
source /home/sarom/gamess.github.2017-05-31.14.06/install.info
setenv GMS_PATH /home/sarom/gamess.github.2017-05-31.14.06
setenv GMS_BUILD_DIR /home/sarom/gamess.github.2017-05-31.14.06
setenv GMS_TARGET linux64
setenv GMS_FORTRAN gfortran
setenv GMS_GFORTRAN_VERNO 4.4
setenv GMS_MATHLIB mkl-so
setenv GMS_MATHLIB_PATH /share/apps/intel/compilers_and_libraries_2017.1.132/linux/mkl/lib/intel64
setenv GMS_MKL_VERNO 12
setenv GMS_DDI_COMM sockets
setenv GMS_LIBCCHEM false
setenv GMS_EIGEN_PATH
setenv GMS_PHI false
setenv GMS_SHMTYPE sysv
setenv GMS_OPENMP false
unset echo
pcm_h2co_mrmp2-pcm_scf-ref
tests/solvent/pcm
----- GAMESS execution script 'rungms' -----
This job is running on host compute-0-6.local
under operating system Linux at Fri Jun 2 05:10:12 CDT 2017
Available scratch disk space (Kbyte units) at beginning of the job is
Filesystem           1K-blocks      Used Available Use% Mounted on
/dev/sda1             16126920   3867324  11440396  26% /
GAMESS temporary binary files will be written to /scratch
GAMESS supplementary output files will be written to /home/sarom/restart
Copying input file pcm_h2co_mrmp2-pcm_scf-ref.inp to your run's scratch directory...
cp tests/solvent/pcm/pcm_h2co_mrmp2-pcm_scf-ref.inp /scratch/pcm_h2co_mrmp2-pcm_scf-ref.F05
unset echo
The generated host list is
compute-0-6.local
/home/sarom/gamess.github.2017-05-31.14.06/ddikick.x /home/sarom/gamess.github.2017-05-31.14.06/gamess.00.x pcm_h2co_mrmp2-pcm_scf-ref -ddi 1 1 compute-0-6.local -scr /scratch

 Distributed Data Interface kickoff program.
 Initiating 1 compute processes on 1 nodes to run the following command:
 /home/sarom/gamess.github.2017-05-31.14.06/gamess.00.x pcm_h2co_mrmp2-pcm_scf-ref 

          ******************************************************
          *         GAMESS VERSION = 20 APR 2017 (R1)          *
          *             FROM IOWA STATE UNIVERSITY             *
          * M.W.SCHMIDT, K.K.BALDRIDGE, J.A.BOATZ, S.T.ELBERT, *
          *   M.S.GORDON, J.H.JENSEN, S.KOSEKI, N.MATSUNAGA,   *
          *          K.A.NGUYEN, S.J.SU, T.L.WINDUS,           *
          *       TOGETHER WITH M.DUPUIS, J.A.MONTGOMERY       *
          *         J.COMPUT.CHEM.  14, 1347-1363(1993)        *
          **************** 64 BIT LINUX VERSION ****************

  SINCE 1993, STUDENTS AND POSTDOCS WORKING AT IOWA STATE UNIVERSITY
  AND ALSO IN THEIR VARIOUS JOBS AFTER LEAVING ISU HAVE MADE IMPORTANT
  CONTRIBUTIONS TO THE CODE:
     IVANA ADAMOVIC, CHRISTINE AIKENS, YURI ALEXEEV, POOJA ARORA,
     ANDREY ASADCHEV, ROB BELL, PRADIPTA BANDYOPADHYAY, JONATHAN BENTZ,
     BRETT BODE, KURT BRORSEN, CALEB CARLIN, GALINA CHABAN, WEI CHEN,
     CHEOL HO CHOI, PAUL DAY, ALBERT DEFUSCO, NUWAN DESILVA, TIM DUDLEY,
     DMITRI FEDOROV, GRAHAM FLETCHER, MARK FREITAG, KURT GLAESEMANN,
     DAN KEMP, GRANT MERRILL, NORIYUKI MINEZAWA, JONATHAN MULLIN,
     TAKESHI NAGATA, SEAN NEDD, HEATHER NETZLOFF, BOSILJKA NJEGIC, RYAN OLSON,
     MIKE PAK, SPENCER PRUITT, LUKE ROSKOP, JIM SHOEMAKER, LYUDMILA SLIPCHENKO,
     TONY SMITH, SAROM SOK LEANG, JIE SONG, TETSUYA TAKETSUGU, SIMON WEBB,
     PENG XU, SOOHAENG YOO, FEDERICO ZAHARIEV

  ADDITIONAL CODE HAS BEEN PROVIDED BY COLLABORATORS IN OTHER GROUPS:
     IOWA STATE UNIVERSITY:
          JOE IVANIC, AARON WEST, LAIMUTIS BYTAUTAS, KLAUS RUEDENBERG
     UNIVERSITY OF TOKYO: KIMIHIKO HIRAO, TAKAHITO NAKAJIMA,
          TAKAO TSUNEDA, MUNEAKI KAMIYA, SUSUMU YANAGISAWA,
          KIYOSHI YAGI, MAHITO CHIBA, SEIKEN TOKURA, NAOAKI KAWAKAMI
     UNIVERSITY OF AARHUS: FRANK JENSEN
     UNIVERSITY OF IOWA: VISVALDAS KAIRYS, HUI LI
     NATIONAL INST. OF STANDARDS AND TECHNOLOGY: WALT STEVENS, DAVID GARMER
     UNIVERSITY OF PISA: BENEDETTA MENNUCCI, JACOPO TOMASI
     UNIVERSITY OF MEMPHIS: HENRY KURTZ, PRAKASHAN KORAMBATH
     UNIVERSITY OF ALBERTA: TOBY ZENG, MARIUSZ KLOBUKOWSKI
     UNIVERSITY OF NEW ENGLAND: MARK SPACKMAN
     MIE UNIVERSITY: HIROAKI UMEDA
     NAT. INST. OF ADVANCED INDUSTRIAL SCIENCE AND TECHNOLOGY: KAZUO KITAURA
     MICHIGAN STATE UNIVERSITY:
          KAROL KOWALSKI, MARTA WLOCH, JEFFREY GOUR, JESSE LUTZ,
          WEI LI, PIOTR PIECUCH
     UNIVERSITY OF SILESIA: MONIKA MUSIAL, STANISLAW KUCHARSKI
     FACULTES UNIVERSITAIRES NOTRE-DAME DE LA PAIX:
          OLIVIER QUINET, BENOIT CHAMPAGNE
     UNIVERSITY OF CALIFORNIA - SANTA BARBARA: BERNARD KIRTMAN
     INSTITUTE FOR MOLECULAR SCIENCE:
          KAZUYA ISHIMURA, MICHIO KATOUDA, AND SHIGERU NAGASE
     UNIVERSITY OF NOTRE DAME: ANNA POMOGAEVA, DAN CHIPMAN
     KYUSHU UNIVERSITY:
          HARUYUKI NAKANO,
          FENG LONG GU, JACEK KORCHOWIEC, MARCIN MAKOWSKI, AND YURIKO AOKI,
          HIROTOSHI MORI AND EISAKU MIYOSHI
     PENNSYLVANIA STATE UNIVERSITY:
          TZVETELIN IORDANOV, CHET SWALINA, JONATHAN SKONE,
          SHARON HAMMES-SCHIFFER
     WASEDA UNIVERSITY:
          MASATO KOBAYASHI, TOMOKO AKAMA, TSUGUKI TOUMA,
          TAKESHI YOSHIKAWA, YASUHIRO IKABATA, JUNJI SEINO,
          YUYA NAKAJIMA, HIROMI NAKAI
     NANJING UNIVERSITY: SHUHUA LI
     UNIVERSITY OF NEBRASKA:
          PEIFENG SU, DEJUN SI, NANDUN THELLAMUREGE, YALI WANG, HUI LI
     UNIVERSITY OF ZURICH: ROBERTO PEVERATI, KIM BALDRIDGE
     N. COPERNICUS UNIVERSITY AND JACKSON STATE UNIVERSITY:
          MARIA BARYSZ
     UNIVERSITY OF COPENHAGEN: Jimmy Kromann, CASPER STEINMANN
     TOKYO INSTITUTE OF TECHNOLOGY: HIROYA NAKATA
     NAGOYA UNIVERSITY: YOSHIO NISHIMOTO, STEPHAN IRLE
     MOSCOW STATE UNIVERSITY: VLADIMIR MIRONOV

 EXECUTION OF GAMESS BEGUN Fri Jun  2 05:10:12 2017

            ECHO OF THE FIRST FEW INPUT CARDS -
 INPUT CARD>!  H2CO plus PCM water solvent ...pyramidal (distorted) geometry                
 INPUT CARD>!  This uses the MRMP2/PCM and ORMAS-PT2/PCM codes to reproduce the MP2/PCM ener
 INPUT CARD>!  The guess orbitals are from gas-phase SCF run                                
 INPUT CARD>!  Energies below are from a serial run                                         
 INPUT CARD>!                                                                               
 INPUT CARD>!  E(MRMP2/PCM)  = -114.3140578154                                              
 INPUT CARD>!  E(OR-PT2/PCM) = -114.3140578154                                              
 INPUT CARD>!  E(MP2/PCM)    = -114.3140578153                                              
 INPUT CARD>!                                                                               
 INPUT CARD>!  To do ORMAS-PT2/PCM (OR-PT2 above) uncomment second $mcscf line (!)          
 INPUT CARD>!  To do comparable MP2 run comment out the first $contrl line and uncomment    
 INPUT CARD>!  the three following input specification lines (#)                            
 INPUT CARD>!                                                                               
 INPUT CARD> $contrl scftyp=mcscf mplevl=2 runtyp=energy ispher=1 icut=20 itol=30 $end      
 INPUT CARD>                                                                                
 INPUT CARD># $contrl scftyp=rhf mplevl=2 runtyp=energy ispher=1 icut=20 itol=30 $end       
 INPUT CARD># $scf    CONV=1d-7 fdiff=.false. $end                                          
 INPUT CARD># $mp2    nacore=0 nbcore=0 $end                                                
 INPUT CARD>                                                                                
 INPUT CARD> $system mwords=100 memddi=100 $end                                             
 INPUT CARD> $trans  cuttrf=1d-20 $end                                                      
 INPUT CARD> $guess  guess=moread norb=88 $end                                              
 INPUT CARD> $basis  gbasis=cct $end                                                        
 INPUT CARD>                                                                                
 INPUT CARD> $det    ncore=0 nact=8 nels=16 $end                                            
 INPUT CARD> $mcscf  acurcy=1E-8  $end                                                      
 INPUT CARD>! $mcscf cistep=ormas $end                                                      
 INPUT CARD> $detpt  nval=0 $end                                                            
 INPUT CARD>                                                                                
 INPUT CARD> $data                                                                          
 INPUT CARD>H2CO at a geometry for S1 by TD-B3LYP/DH(d,p)                                   
 INPUT CARD>C1                                                                              
 INPUT CARD>O           8.0   2.0046394572  -1.6983458738  -1.0803502172                    
 INPUT CARD>C           6.0   1.6864387177  -1.1433619435   0.0668605451                    
 INPUT CARD>H           1.0   0.7867298151  -1.5283667256   0.5664801688                    
 INPUT CARD>H           1.0   1.8451944981  -0.0589815678   0.1487405204                    
 INPUT CARD> $end                                                                           
 INPUT CARD> $pcm   solvnt=water $end                                                       
 INPUT CARD>                                                                                
 INPUT CARD>                                                                                
 INPUT CARD>--- CLOSED SHELL ORBITALS --- GENERATED AT Wed Dec  2 15:03:57 2015             
 INPUT CARD>H2CO - RHF orbitals                                                             
 INPUT CARD>E(RHF)=     -113.8707169605, E(NUC)=   29.5207398230,   15 ITERS                
 INPUT CARD> $VEC                                                                           
 INPUT CARD> 1  1 9.75701249E-01-1.32048979E-03 4.32045125E-02 2.13341267E-03-3.86811433E-04
 INPUT CARD> 1  2 7.40104331E-04 1.62560168E-03 4.67316062E-04-8.53695423E-04-1.82112879E-03
 INPUT CARD> 1  3-5.23777719E-05 7.09404521E-05 1.17144961E-04-6.49137671E-05 4.23291323E-05
 INPUT CARD> 1  4 2.25846347E-05 8.89000008E-05-1.16702110E-04 6.46438141E-05 2.61708147E-04
 INPUT CARD> 1  5 2.31816072E-04-4.93524219E-04 2.24027978E-04 1.56482973E-04-4.31184613E-04
 INPUT CARD> 1  6-4.28315772E-05 5.69252419E-05-5.25884537E-05 3.32318757E-05 6.03861911E-05
  100000000 WORDS OF MEMORY AVAILABLE

     BASIS OPTIONS
     -------------
     GBASIS=CCT          IGAUSS=       0      POLAR=NONE    
     NDFUNC=       0     NFFUNC=       0     DIFFSP=       F
     NPFUNC=       0      DIFFS=       F     BASNAM=        


     RUN TITLE
     ---------
 H2CO at a geometry for S1 by TD-B3LYP/DH(d,p)                                   

 THE POINT GROUP OF THE MOLECULE IS C1      
 THE ORDER OF THE PRINCIPAL AXIS IS     0

 ATOM      ATOMIC                      COORDINATES (BOHR)
           CHARGE         X                   Y                   Z
 O           8.0     3.7882192783       -3.2094083339       -2.0415658813
 C           6.0     3.1869070715       -2.1606407780        0.1263481096
 H           1.0     1.4867037769       -2.8881943201        1.0704922965
 H           1.0     3.4869119955       -0.1114590015        0.2810788268

          INTERNUCLEAR DISTANCES (ANGS.)
          ------------------------------

                1 O          2 C          3 H          4 H     

   1 O       0.0000000    1.3135263 *  2.0552973 *  2.0551404 *
   2 C       1.3135263 *  0.0000000    1.0987832 *  1.0989943 *
   3 H       2.0552973 *  1.0987832 *  0.0000000    1.8584797 *
   4 H       2.0551404 *  1.0989943 *  1.8584797 *  0.0000000  

  * ... LESS THAN  3.000


     ATOMIC BASIS SET
     ----------------
 THE CONTRACTED PRIMITIVE FUNCTIONS HAVE BEEN UNNORMALIZED
 THE CONTRACTED BASIS FUNCTIONS ARE NOW NORMALIZED TO UNITY

  SHELL TYPE  PRIMITIVE        EXPONENT          CONTRACTION COEFFICIENT(S)

 O         

      1   S       1         15330.0000000    0.000520198307
      1   S       2          2299.0000000    0.004023344781
      1   S       3           522.4000000    0.020729083329
      1   S       4           147.3000000    0.081082327080
      1   S       5            47.5500000    0.236226352118
      1   S       6            16.7600000    0.443518209420
      1   S       7             6.2070000    0.358670588689
      1   S       8             0.6882000   -0.008349797237

      2   S       9         15330.0000000   -0.000197236012
      2   S      10          2299.0000000   -0.001535010700
      2   S      11           522.4000000   -0.007951183914
      2   S      12           147.3000000   -0.032113452892
      2   S      13            47.5500000   -0.100269643049
      2   S      14            16.7600000   -0.234047111838
      2   S      15             6.2070000   -0.301410927756
      2   S      16             0.6882000    1.034919649508

      3   S      17             1.7520000    1.000000000000

      4   S      18             0.2384000    1.000000000000

      5   P      19            34.4600000    0.041163489568
      5   P      20             7.7490000    0.257762835858
      5   P      21             2.2800000    0.802419274427

      6   P      22             0.7156000    1.000000000000

      7   P      23             0.2140000    1.000000000000

      8   D      24             2.3140000    1.000000000000

      9   D      25             0.6450000    1.000000000000

     10   F      26             1.4280000    1.000000000000

 C         

     11   S      27          8236.0000000    0.000542430189
     11   S      28          1235.0000000    0.004196427901
     11   S      29           280.8000000    0.021540914108
     11   S      30            79.2700000    0.083614949614
     11   S      31            25.5900000    0.239871618922
     11   S      32             8.9970000    0.443751820060
     11   S      33             3.3190000    0.353579696469
     11   S      34             0.3643000   -0.009176366076

     12   S      35          8236.0000000   -0.000196392234
     12   S      36          1235.0000000   -0.001525950274
     12   S      37           280.8000000   -0.007890449028
     12   S      38            79.2700000   -0.031514870532
     12   S      39            25.5900000   -0.096910008320
     12   S      40             8.9970000   -0.220541526288
     12   S      41             3.3190000   -0.296069112937
     12   S      42             0.3643000    1.040503432950

     13   S      43             0.9059000    1.000000000000

     14   S      44             0.1285000    1.000000000000

     15   P      45            18.7100000    0.039426387165
     15   P      46             4.1330000    0.244088984924
     15   P      47             1.2000000    0.815492008943

     16   P      48             0.3827000    1.000000000000

     17   P      49             0.1209000    1.000000000000

     18   D      50             1.0970000    1.000000000000

     19   D      51             0.3180000    1.000000000000

     20   F      52             0.7610000    1.000000000000

 H         

     21   S      53            33.8700000    0.025494863235
     21   S      54             5.0950000    0.190362765893
     21   S      55             1.1590000    0.852162022245

     22   S      56             0.3258000    1.000000000000

     23   S      57             0.1027000    1.000000000000

     24   P      58             1.4070000    1.000000000000

     25   P      59             0.3880000    1.000000000000

     26   D      60             1.0570000    1.000000000000

 H         

     27   S      61            33.8700000    0.025494863235
     27   S      62             5.0950000    0.190362765893
     27   S      63             1.1590000    0.852162022245

     28   S      64             0.3258000    1.000000000000

     29   S      65             0.1027000    1.000000000000

     30   P      66             1.4070000    1.000000000000

     31   P      67             0.3880000    1.000000000000

     32   D      68             1.0570000    1.000000000000

 TOTAL NUMBER OF BASIS SET SHELLS             =   32
 NUMBER OF CARTESIAN GAUSSIAN BASIS FUNCTIONS =  100
 NOTE: THIS RUN WILL RESTRICT THE MO VARIATION SPACE TO SPHERICAL HARMONICS.
 THE NUMBER OF ORBITALS KEPT IN THE VARIATIONAL SPACE WILL BE PRINTED LATER.
 NUMBER OF ELECTRONS                          =   16
 CHARGE OF MOLECULE                           =    0
 SPIN MULTIPLICITY                            =    1
 NUMBER OF OCCUPIED ORBITALS (ALPHA)          =    8
 NUMBER OF OCCUPIED ORBITALS (BETA )          =    8
 TOTAL NUMBER OF ATOMS                        =    4
 THE NUCLEAR REPULSION ENERGY IS       29.5207398230

     $CONTRL OPTIONS
     ---------------
 SCFTYP=MCSCF        RUNTYP=ENERGY       EXETYP=RUN     
 MPLEVL=       2     CITYP =NONE         CCTYP =NONE         VBTYP =NONE    
 DFTTYP=NONE         TDDFT =NONE    
 MULT  =       1     ICHARG=       0     NZVAR =       0     COORD =UNIQUE  
 PP    =NONE         RELWFN=NONE         LOCAL =NONE         NUMGRD=       F
 ISPHER=       1     NOSYM =       0     MAXIT =      30     UNITS =ANGS    
 PLTORB=       F     MOLPLT=       F     AIMPAC=       F     FRIEND=        
 NPRINT=       7     IREST =       0     GEOM  =INPUT   
 NORMF =       0     NORMP =       0     ITOL  =      30     ICUT  =      20
 INTTYP=BEST         GRDTYP=BEST         QMTTOL= 1.0E-06

     $SYSTEM OPTIONS
     ---------------
  REPLICATED MEMORY=   100000000 WORDS (ON EVERY NODE).
 DISTRIBUTED MEMDDI=         100 MILLION WORDS IN AGGREGATE,
 MEMDDI DISTRIBUTED OVER   1 PROCESSORS IS   100000000 WORDS/PROCESSOR.
 TOTAL MEMORY REQUESTED ON EACH PROCESSOR=   200000000 WORDS.
 TIMLIM=      525600.00 MINUTES, OR     365.0 DAYS.
 PARALL= F  BALTYP=  DLB     KDIAG=    0  COREFL= F
 MXSEQ2=     300 MXSEQ3=     150  mem10=         0

 ** LOOKING UP INTERNALLY STORED DATA FOR SOLVENT=WATER    **
 OPTICAL AND PHYSICAL CONSTANTS:
 EPS= 78.390; EPSINF=  1.776; RSOLV=  1.385 A; VMOL=  18.070 ML/MOL;
 TCE= .25700E-03 1/K; STEN= 71.810 DYN/CM;  DSTEN=  0.6500; CMF=  1.2770


     -----------------------------------
     INPUT FOR PCM SOLVATION CALCULATION 
     -----------------------------------
     IEF   =     -10
     ICOMP =       0     IFIELD=       0     ICAV  =       0
     IDISP =       0     IREP  =       0     IDP   =       0

     SOLVNT=WATER        EPS   = 78.3900     EPSINF=  1.7760
     VMOL  = 18.0700     TCE   =  0.00025700 STEN  = 71.8100
     DSTEN =  0.6500     CMF   =  1.2770     RSOLV =  1.3850

     NESFP =       0
     OMEGA = 40.0000     RET   =100.0000     FRO   =  0.7000

     TABS  =298.0000     IPRINT=       0

     --------------------------------
     INPUT FOR ITERATIVE C-PCM METHOD 
     --------------------------------
     IPCMIT  =         1     MXDIIS  =        50
     MXITR1  =        50     MXITR2  =        50
     THRES   = 0.100E-09     IMUL    =         3
     RCUT(1) =   15.0000     RCUT(2) =   30.0000

     IDIRCT  =         1
     IMGABI  =         0     RABI    =    4.0000
     IMGASC  =         0     RASC    =   20.0000
     THRSLS  = 0.500E-03     DENSLS  =    0.0100
     IEFPOL  =         1     REFPOL  =    0.0000

     INPUT FOR ISOTROPIC DIELECTRICS
     -------------------------------
     EPS=    78.39

     INPUT FOR CAVITY DEFINITION 
     ---------------------------
   ATOM               COORDINATES                RADIUS       EPS
      1      2.0046     -1.6983     -1.0804      1.5000     78.3900
      2      1.6864     -1.1434      0.0669      1.7000     78.3900
      3      0.7867     -1.5284      0.5665      1.2000     78.3900
      4      1.8452     -0.0590      0.1487      1.2000     78.3900

     ----------------------------
     INPUT FOR TESSERA DEFINITION
     ----------------------------
     NTSALL  =        60     MTHALL  =         4
     MTHAUT  =         0     AUTFRE  =    2.0000
     NTSFRZ  =        60     KEEPSM  =         0
     AREAKP  =   10.0000     BONDRY  =    1.0000
     AREATL  =    0.0100

     SPHERE     INITS       METHOD
          1        60       FIXPVA
          2        60       FIXPVA
          3        60       FIXPVA
          4        60       FIXPVA

     ------------------------------
      FIXPVA TESSELLATION FOR PCM
         PEIFENG SU AND HUI LI
     UNIVERSITY OF NEBRASKA-LINCOLN
     ------------------------------


 PCM DIMENSIONS: MXSP=  2000, MXTS=       240, MEMORY=         27283

          ----------------
          PROPERTIES INPUT
          ----------------

     MOMENTS            FIELD           POTENTIAL          DENSITY
 IEMOM =       1   IEFLD =       0   IEPOT =       0   IEDEN =       0
 WHERE =COMASS     WHERE =NUCLEI     WHERE =NUCLEI     WHERE =NUCLEI  
 OUTPUT=BOTH       OUTPUT=BOTH       OUTPUT=BOTH       OUTPUT=BOTH    
 IEMINT=       0   IEFINT=       0                     IEDINT=       0
                                                       MORB  =       0

     -------------------------------
     INTEGRAL TRANSFORMATION OPTIONS
     -------------------------------
     NWORD  =            0
     CUTOFF = 1.0E-20     MPTRAN =       0
     DIRTRF =       F     AOINTS =DUP     

          ----------------------
          MCSCF INPUT PARAMETERS
          ----------------------
 CONVERGER SELECTION: FOCAS = F  SOSCF = T  FULLNR = F  QUD = F  JACOBI = F
 SECULAR EQUATION METHOD CISTEP = ALDET   
 --- GENERAL INPUT OPTIONS:
 MAXIT =      60  MICIT =       5  ACURCY= 1.000E-08
 DAMP  =   0.000  CANONC=       T  ENGTOL= 1.000E-10
 EKT   =       F  NPUNCH=       2  NWORD =         0
 REGENERATE CI AFTER CONVERGENCE = NONE    
 DIABATIZATION AFTER CONVERGENCE =        F
 --- INPUT FOR SOSCF CONVERGER:
 FORS  =       T  NOFO  =       1

          ----------------------
          INTEGRAL INPUT OPTIONS
          ----------------------
 NOPK  =       1 NORDER=       0 SCHWRZ=       F

 ------------------------------------------
 MULTIREFERENCE PERTURBATION THEORY CONTROL
 ------------------------------------------
 MRPT=DETMRPT  READ CONVERGED MCSCF VECTORS= F


     ------------------------------------------
     THE POINT GROUP IS C1 , NAXIS= 1, ORDER= 1
     ------------------------------------------

 -- VARIATIONAL SPACE WILL BE RESTRICTED TO PURE SPHERICAL HARMONICS ONLY --
 AFTER EXCLUDING CONTAMINANT COMBINATIONS FROM THE CARTESIAN GAUSSIAN BASIS
 SET, THE NUMBER OF SPHERICAL HARMONICS KEPT IN THE VARIATION SPACE IS   88

     DIMENSIONS OF THE SYMMETRY SUBSPACES ARE
 A   =   88

 ..... DONE SETTING UP THE RUN .....
 STEP CPU TIME =     0.12 TOTAL CPU TIME =        0.1 (    0.0 MIN)
 TOTAL WALL CLOCK TIME=        0.1 SECONDS, CPU UTILIZATION IS  92.31%

          ********************
          1 ELECTRON INTEGRALS
          ********************
 TIME TO DO   DIPOLE INTEGRALS=      0.01
 ...... END OF ONE-ELECTRON INTEGRALS ......
 STEP CPU TIME =     0.01 TOTAL CPU TIME =        0.1 (    0.0 MIN)
 TOTAL WALL CLOCK TIME=        0.1 SECONDS, CPU UTILIZATION IS 100.00%

          -------------
          GUESS OPTIONS
          -------------
          GUESS =MOREAD            NORB  =      88          NORDER=       0
          MIX   =       F          PRTMO =       F          PUNMO =       F
          TOLZ  = 1.0E-08          TOLE  = 1.0E-05
          SYMDEN=       F          PURIFY=       F

 INITIAL GUESS ORBITALS GENERATED BY MOREAD   ROUTINE.

 STATISTICS FOR GENERATION OF SYMMETRY ORBITAL -Q- MATRIX
 NUMBER OF CARTESIAN ATOMIC ORBITALS=        100
 NUMBER OF SPHERICAL CONTAMINANTS DROPPED=    12
 NUMBER OF LINEARLY DEPENDENT MOS DROPPED=     0
 TOTAL NUMBER OF MOS IN VARIATION SPACE=      88

 SYMMETRIES FOR INITIAL GUESS ORBITALS FOLLOW.   BOTH SET(S).
     8 ORBITALS ARE OCCUPIED (    2 CORE ORBITALS).
     1=A        2=A        3=A        4=A        5=A        6=A        7=A   
     8=A        9=A       10=A       11=A       12=A       13=A       14=A   
    15=A       16=A       17=A       18=A       19=A       20=A       21=A   
    22=A       23=A       24=A       25=A       26=A       27=A       28=A   
    29=A       30=A       31=A       32=A       33=A       34=A       35=A   
    36=A       37=A       38=A       39=A       40=A       41=A       42=A   
    43=A       44=A       45=A       46=A       47=A       48=A       49=A   
    50=A       51=A       52=A       53=A       54=A       55=A       56=A   
    57=A       58=A       59=A       60=A       61=A       62=A       63=A   
    64=A       65=A       66=A       67=A       68=A       69=A       70=A   
    71=A       72=A       73=A       74=A       75=A       76=A       77=A   
    78=A       79=A       80=A       81=A       82=A       83=A       84=A   
    85=A       86=A       87=A       88=A   
 ...... END OF INITIAL ORBITAL SELECTION ......
 STEP CPU TIME =     0.01 TOTAL CPU TIME =        0.1 (    0.0 MIN)
 TOTAL WALL CLOCK TIME=        0.1 SECONDS, CPU UTILIZATION IS 100.00%

                    ----------------------
                    AO INTEGRAL TECHNOLOGY
                    ----------------------
     S,P,L SHELL ROTATED AXIS INTEGRALS, REPROGRAMMED BY
        KAZUYA ISHIMURA (IMS) AND JOSE SIERRA (SYNSTAR).
     S,P,D,L SHELL ROTATED AXIS INTEGRALS PROGRAMMED BY
        KAZUYA ISHIMURA (INSTITUTE FOR MOLECULAR SCIENCE).
     S,P,D,F,G SHELL TO TOTAL QUARTET ANGULAR MOMENTUM SUM 5,
        ERIC PROGRAM BY GRAHAM FLETCHER (ELORET AND NASA ADVANCED
        SUPERCOMPUTING DIVISION, AMES RESEARCH CENTER).
     S,P,D,F,G,L SHELL GENERAL RYS QUADRATURE PROGRAMMED BY
        MICHEL DUPUIS (PACIFIC NORTHWEST NATIONAL LABORATORY).

          --------------------
          2 ELECTRON INTEGRALS
          --------------------

 THE -PK- OPTION IS OFF, THE INTEGRALS ARE NOT IN SUPERMATRIX FORM.
 STORING   15000 INTEGRALS/RECORD ON DISK, USING 12 BYTES/INTEGRAL.
 TWO ELECTRON INTEGRAL EVALUATION REQUIRES   99628 WORDS OF MEMORY.
 II,JST,KST,LST =  1  1  1  1 NREC =         1 INTLOC =    1
 II,JST,KST,LST =  2  1  1  1 NREC =         1 INTLOC =    2
 II,JST,KST,LST =  3  1  1  1 NREC =         1 INTLOC =    7
 II,JST,KST,LST =  4  1  1  1 NREC =         1 INTLOC =   22
 II,JST,KST,LST =  5  1  1  1 NREC =         1 INTLOC =   56
 II,JST,KST,LST =  6  1  1  1 NREC =         1 INTLOC =  125
 II,JST,KST,LST =  7  1  1  1 NREC =         1 INTLOC =  329
 II,JST,KST,LST =  8  1  1  1 NREC =         1 INTLOC =  776
 II,JST,KST,LST =  9  1  1  1 NREC =         1 INTLOC = 3979
 II,JST,KST,LST = 10  1  1  1 NREC =         1 INTLOC =12851
 II,JST,KST,LST = 11  1  1  1 NREC =         5 INTLOC =13450
 II,JST,KST,LST = 12  1  1  1 NREC =         7 INTLOC = 6796
 II,JST,KST,LST = 13  1  1  1 NREC =         9 INTLOC = 2141
 II,JST,KST,LST = 14  1  1  1 NREC =        10 INTLOC =14596
 II,JST,KST,LST = 15  1  1  1 NREC =        12 INTLOC =14275
 II,JST,KST,LST = 16  1  1  1 NREC =        19 INTLOC =12559
 II,JST,KST,LST = 17  1  1  1 NREC =        28 INTLOC = 4603
 II,JST,KST,LST = 18  1  1  1 NREC =        38 INTLOC = 8350
 II,JST,KST,LST = 19  1  1  1 NREC =        65 INTLOC = 3790
 II,JST,KST,LST = 20  1  1  1 NREC =       101 INTLOC = 8981
 II,JST,KST,LST = 21  1  1  1 NREC =       189 INTLOC = 4787
 II,JST,KST,LST = 22  1  1  1 NREC =       201 INTLOC = 3778
 II,JST,KST,LST = 23  1  1  1 NREC =       213 INTLOC =10438
 II,JST,KST,LST = 24  1  1  1 NREC =       226 INTLOC = 9983
 II,JST,KST,LST = 25  1  1  1 NREC =       268 INTLOC =12968
 II,JST,KST,LST = 26  1  1  1 NREC =       316 INTLOC = 4490
 II,JST,KST,LST = 27  1  1  1 NREC =       428 INTLOC = 7343
 II,JST,KST,LST = 28  1  1  1 NREC =       449 INTLOC =10414
 II,JST,KST,LST = 29  1  1  1 NREC =       471 INTLOC = 9709
 II,JST,KST,LST = 30  1  1  1 NREC =       494 INTLOC = 5489
 II,JST,KST,LST = 31  1  1  1 NREC =       567 INTLOC = 4229
 II,JST,KST,LST = 32  1  1  1 NREC =       647 INTLOC =10526
 TOTAL NUMBER OF NONZERO TWO-ELECTRON INTEGRALS =            12479987
        832 INTEGRAL RECORDS WERE STORED ON DISK FILE  8.
  ...... END OF TWO-ELECTRON INTEGRALS .....
 STEP CPU TIME =     0.66 TOTAL CPU TIME =        0.8 (    0.0 MIN)
 TOTAL WALL CLOCK TIME=        0.8 SECONDS, CPU UTILIZATION IS 100.00%

          -----------------
          MCSCF CALCULATION
          -----------------

 ----- NUCLEAR ENERGY ----- =        29.5207398230

     --------------------------------------------------
          AMES LABORATORY DETERMINANTAL FULL CI
     PROGRAM WRITTEN BY JOE IVANIC AND KLAUS RUEDENBERG
     --------------------------------------------------

 THE POINT GROUP                  =   C1      
 THE STATE SYMMETRY               =   A       
 NUMBER OF CORE ORBITALS          =    0
 NUMBER OF ACTIVE ORBITALS        =    8
 NUMBER OF ALPHA ELECTRONS        =    8 (   8 ACTIVE)
 NUMBER OF BETA ELECTRONS         =    8 (   8 ACTIVE)
 NUMBER OF OCCUPIED ORBITALS      =    8
 NUMBER OF CI STATES REQUESTED    =    1
 NUMBER OF CI STARTING VECTORS    =    1
 MAX. NO. OF CI EXPANSION VECTORS =   10
 SIZE OF INITIAL CI GUESS MATRIX  =  300
 MAX. NO. OF CI ITERS/STATE       =  100
 CI DIAGONALIZATION CRITERION     = 1.00E-06
 PURE SPIN STATE AVERAGED 1E- AND 2E- DENSITY MATRIX OPTION=.T.
 STATE=   1 DM2 WEIGHT=   1.00000

 CORRELATION ENERGY ANALYSIS      =    F

 SYMMETRIES FOR THE   0 CORE,   8 ACTIVE ARE

   ACTIVE= A     A     A     A     A     A     A     A   
 OPENING FILE DAFL30 WITH      81 LOGICAL RECORDS OF   10000 WORDS
 WITH A MAXIMUM OF         405 PHYSICAL RECORDS OF    2048 WORDS

          ------------------------------
          CASSCF INTEGRAL TRANSFORMATION
          ------------------------------
 AO INTEGRALS WILL BE READ IN FROM DISK...

 NUMBER OF CORE MOLECULAR ORBITALS     =     0
 NUMBER OF OCCUPIED MOLECULAR ORBITALS =     8
 TOTAL NUMBER OF MOLECULAR ORBITALS    =    88
 TOTAL NUMBER OF ATOMIC ORBITALS       =    88

 ----- CHOOSING THREE STEPS TRANSFORMATION -----
 NUMBER OF WORDS USED      =    4307051
 NUMBER OF WORDS AVAILABLE =   99972717
 NUMBER OF PASSES          =          1

 ----- NUCLEAR REPULSION ENERGY =     29.52073982
 ----- FROZEN CORE ENERGY       =      0.00000000

 ... SYMMETRY ...           CPU =    0.00
 ... (PQ|RS) -> (PQ|KL) ... CPU =    0.38
 ... (PQ|KL) -> (IJ|KL) ... CPU =    0.00

 NUMBER OF (PQ|KL) INTEGRALS WRITTEN     181800
 NUMBER OF (IJ|KL) INTEGRALS WRITTEN        666
 ..... END OF CAS INTEGRAL TRANSFORMATION .....
 STEP CPU TIME =     0.38 TOTAL CPU TIME =        1.2 (    0.0 MIN)
 TOTAL WALL CLOCK TIME=        1.2 SECONDS, CPU UTILIZATION IS  99.16%

     --------------------------------------------------
          AMES LABORATORY DETERMINANTAL FULL CI
     PROGRAM WRITTEN BY JOE IVANIC AND KLAUS RUEDENBERG
     --------------------------------------------------

 THE NUMBER OF DETERMINANTS HAVING SPACE SYMMETRY A  
 IN POINT GROUP C1   WITH SZ=  0.0 IS              1
 WHICH INCLUDES              1 CSFS WITH S=  0.0
 THE DETERMINANT FULL CI REQUIRES          181724 WORDS
 SMALL CI MATRIX, JUST USING INCORE DIAGONALIZATION...

 CI EIGENVECTORS WILL BE LABELED IN GROUP=C1      
 PRINTING ALL NON-ZERO CI COEFFICIENTS

 STATE   1  ENERGY=      -113.8707169605  S=  0.00  SZ=  0.00  SPACE SYM=A   

  ALPHA   |  BETA    | CI COEFFICIENT
----------|----------|---------------
 11111111 | 11111111 |                                                                                                       1.0000000000
 ..... DONE WITH DETERMINANT CI COMPUTATION .....
 STEP CPU TIME =     0.00 TOTAL CPU TIME =        1.2 (    0.0 MIN)
 TOTAL WALL CLOCK TIME=        1.2 SECONDS, CPU UTILIZATION IS  99.16%

     --------------------------------------------------
      ONE AND TWO PARTICLE DENSITY MATRIX COMPUTATION
     PROGRAM WRITTEN BY JOE IVANIC AND KLAUS RUEDENBERG
     --------------------------------------------------

      33699 WORDS WILL BE USED TO FORM THE DENSITIES
 THE DENSITIES ARE STATE AVERAGED OVER   1 ROOT(S)
 STATE=   1   ENERGY=     -113.8707169605   WEIGHT= 1.00000   S=  0.00
 SIEVING THE A    SYMMETRY NONZERO DENSITY ELEMENTS IN GROUP C1      
         64 NONZERO DM2 ELEMENTS WRITTEN IN       1 RECORDS TO FILE 15
 ..... DONE WITH 1 AND 2 PARTICLE DENSITY MATRIX .....
 STEP CPU TIME =     0.00 TOTAL CPU TIME =        1.2 (    0.0 MIN)
 TOTAL WALL CLOCK TIME=        1.2 SECONDS, CPU UTILIZATION IS  99.16%

          --------------------------------------
          APPROXIMATE SECOND-ORDER MCSCF PROGRAM
          --------------------------------------
          PROGRAM WRITTEN BY G.CHABAN, A.MARQUEZ, AND M.DUPUIS

  NUMBER OF WORDS NEEDED     =     267932
  NUMBER AVAILABLE           =   99972717

 ----- GAMMA(IJKL)*(PQ|KL) PRODUCTS ----- CPU TIME =      0.010
 ----- ORBITAL SYMMETRY             ----- CPU TIME =      0.000
 ----- FOCK OPERATORS CONSTRUCTION  ----- CPU TIME =      0.130
     MICIT =   1 ASYMM =    0.000000 ROTMAX =    0.000000
 ----- EFFECTIVE FOCK + ROTATE ORBS ----- CPU TIME =      0.010
     MICIT =   2 ASYMM =    0.000000 ROTMAX =    0.000000
     MICIT =   3 ASYMM =    0.000000 ROTMAX =    0.000000
     MICIT =   4 ASYMM =    0.000000 ROTMAX =    0.000000
     MICIT =   5 ASYMM =    0.000000 ROTMAX =    0.000000
 ..... DONE WITH CASSCF ORBITAL UPDATE .....
 STEP CPU TIME =     0.18 TOTAL CPU TIME =        1.4 (    0.0 MIN)
 TOTAL WALL CLOCK TIME=        1.4 SECONDS, CPU UTILIZATION IS  98.55%

 ITER     TOTAL ENERGY      DEL(E)  LAGRANGIAN ASYMMETRY   SQCDF  MICIT   DAMP
   1     -113.870716960 -0.870716960  0.000000   15    6 1.139E-08  5   0.0000
       ----------START APPROXIMATE SECOND ORDER MCSCF----------
   2     -113.870716960  0.000000000  0.000000    9    7 6.014E-16  1   0.0000

          ----------------
          ENERGY CONVERGED
          ----------------

 FINAL MCSCF ENERGY IS     -113.8707169605 AFTER   2 ITERATIONS

 -MCCI- BASED ON OPTIMIZED ORBITALS
 ----------------------------------

 PLEASE NOTE: IF THE ACTIVE ORBITALS ARE CANONICALIZED BELOW,
 THE FOLLOWING CI EXPANSION COEFFICIENTS AND THE DENSITY DO NOT
 CORRESPOND TO THE PRINTED ORBITALS.  THE PRINTED EXPANSIONS MATCH
 THE ORBITALS USED DURING THE LAST ITERATION.  IF YOU WISH TO SEE
 CI EXPANSIONS BASED ON THE CANONICAL (OR NATURAL) ORBITALS, YOU
 MUST RUN A CI CALCULATION WITH THAT ORBITAL CHOICE READ IN $VEC.

 CI EIGENVECTORS WILL BE LABELED IN GROUP=C1      
 PRINTING ALL NON-ZERO CI COEFFICIENTS

 STATE   1  ENERGY=      -113.8707169605  S=  0.00  SZ=  0.00  SPACE SYM=A   

  ALPHA   |  BETA    | CI COEFFICIENT
----------|----------|---------------
 11111111 | 11111111 |                                                                                                       1.0000000000

 DENSITY MATRIX OVER ACTIVE MO-S

             1           2           3           4           5

    1    2.0000000
    2    0.0000000   2.0000000
    3    0.0000000   0.0000000   2.0000000
    4    0.0000000   0.0000000   0.0000000   2.0000000
    5    0.0000000   0.0000000   0.0000000   0.0000000   2.0000000
    6    0.0000000   0.0000000   0.0000000   0.0000000   0.0000000
    7    0.0000000   0.0000000   0.0000000   0.0000000   0.0000000
    8    0.0000000   0.0000000   0.0000000   0.0000000   0.0000000

             6           7           8

    6    2.0000000
    7    0.0000000   2.0000000
    8    0.0000000   0.0000000   2.0000000

 * * * WARNING * * *
 YOUR NATURAL ORBITALS HAVE   8 DOUBLY OCCUPIED ACTIVE ORBITALS.
 AT THE VERY LEAST, THIS IS A WASTE OF COMPUTER TIME,
 BUT IT MAY REVEAL A FLAW IN YOUR MCSCF COMPUTATION:
   CHECK YOUR FORMULATION OF THE ACTIVE SPACE,
   AS WELL AS MECHANICAL THINGS LIKE STARTING ORBITALS.

 * * * WARNING * * *
 THIS RUN REQUESTS EITHER MPLEVL=2 OR CITYP=XXX ENERGY CORRECTIONS.
 THE INCLUSION OF FILLED AND/OR EMPTY ORBITALS IN THE ACTIVE
 SPACE WILL RESULT IN INCORRECT DEFAULT ORBITAL CANONICALIZATION
 OF THE CORE AND/OR VIRTUAL SPACE.
 THEREFORE, THE DYNAMIC CORRELATION ENERGY COMPUTED FOR ANY FILLED
 MCSCF VALENCE ORBITALS WILL BE INCORRECT, BECAUSE THESE WILL NOT
 HAVE BEEN CORRECTLY SEPARATED FROM THE CHEMICAL CORE.

 FORMING THE "STANDARD FOCK OPERATOR" USING INTEGRALS FROM DISK...
     0 FILLED,    8 ACTIVE, AND   80 VIRTUAL ORBITALS  WILL BE CANONICALIZED

          ----------------------
          MCSCF NATURAL ORBITALS
          ----------------------

                      1          2          3          4          5
                    2.0000     2.0000     2.0000     2.0000     2.0000
                     A          A          A          A          A   
    1  O  1  S    0.804576   0.041050   0.160004   0.000324  -0.034635
    2  O  1  S   -0.099387   0.136012   0.337640   0.000453  -0.061487
    3  O  1  S    0.008074   0.035549   0.105175   0.000145  -0.018756
    4  O  1  S   -0.071576   0.031052   0.284487   0.000371  -0.051974
    5  O  1  X   -0.007501  -0.031763   0.091164   0.194422   0.205422
    6  O  1  Y    0.014602   0.037427  -0.125575   0.269770  -0.112069
    7  O  1  Z    0.032372   0.051232  -0.209175  -0.076879   0.125995
    8  O  1  X   -0.008243  -0.040436   0.114446   0.244063   0.266473
    9  O  1  Y    0.016328   0.047094  -0.157263   0.338651  -0.145813
   10  O  1  Z    0.036562   0.063273  -0.261248  -0.096508   0.161913
   11  O  1  X   -0.005945  -0.018496   0.083234   0.201584   0.203830
   12  O  1  Y    0.012042   0.017500  -0.111375   0.279746  -0.112455
   13  O  1  Z    0.027311   0.014765  -0.179221  -0.079674   0.120603
   14  O  1 XX   -0.000436  -0.001746   0.003175  -0.000672  -0.002794
   15  O  1 YY   -0.000239  -0.000769   0.002007   0.001824  -0.002760
   16  O  1 ZZ    0.000675   0.002515  -0.005182  -0.001152   0.005554
   17  O  1 XY   -0.000117  -0.001077   0.002144   0.000217   0.003200
   18  O  1 XZ   -0.000332  -0.002344   0.003101   0.001834   0.004443
   19  O  1 YZ    0.000612   0.003249  -0.005476   0.002026  -0.001226
   20  O  1 XX   -0.000861  -0.002598   0.009334  -0.002770  -0.010230
   21  O  1 YY   -0.000715  -0.002053   0.005726   0.007778  -0.009886
   22  O  1 ZZ    0.001576   0.004651  -0.015060  -0.005007   0.020115
   23  O  1 XY   -0.000594  -0.004230   0.007154   0.001006   0.012199
   24  O  1 XZ   -0.000479  -0.004065   0.010322   0.007945   0.016259
   25  O  1 YZ    0.001325   0.006518  -0.017117   0.008850  -0.004745
   26  O  1 XXX   0.000050   0.000877  -0.001525   0.000355  -0.002117
   27  O  1 YYY  -0.000190  -0.001355   0.002735  -0.000469   0.001042
   28  O  1 ZZZ   0.000203   0.000681  -0.001916  -0.001592   0.003786
   29  O  1 XXY  -0.000002  -0.000053   0.000228  -0.001287  -0.002037
   30  O  1 XXZ  -0.000156  -0.000819   0.001995   0.000024  -0.002060
   31  O  1 YYX  -0.000075  -0.000274   0.000550  -0.002247   0.000444
   32  O  1 YYZ  -0.000116  -0.000095   0.000576   0.002112  -0.003020
   33  O  1 ZZX   0.000009  -0.000902   0.001496   0.001771   0.002396
   34  O  1 ZZY   0.000258   0.001871  -0.003897   0.001917   0.000639
   35  O  1 XYZ  -0.000161  -0.001257   0.002296   0.001266   0.001946
   36  C  2  S   -0.511813   0.175269  -0.054365   0.000125   0.018011
   37  C  2  S    0.053420   0.437318  -0.105194  -0.000144   0.092990
   38  C  2  S   -0.008560   0.104976  -0.032058  -0.000033   0.022777
   39  C  2  S    0.011745   0.161729   0.034306  -0.000049   0.053409
   40  C  2  X   -0.001063  -0.037496  -0.030844  -0.046023   0.125971
   41  C  2  Y    0.001187   0.031580   0.056248  -0.063750  -0.066347
   42  C  2  Z    0.001452   0.015978   0.119554   0.018235   0.085850
   43  C  2  X    0.000940  -0.050459  -0.035084  -0.040580   0.179964
   44  C  2  Y   -0.000530   0.044071   0.065144  -0.056178  -0.096662
   45  C  2  Z    0.000472   0.027050   0.140184   0.016089   0.115986
   46  C  2  X    0.000087  -0.020601   0.005621   0.003207   0.125756
   47  C  2  Y    0.001581   0.021383   0.000736   0.004459  -0.066693
   48  C  2  Z    0.005780   0.022978   0.016839  -0.001287   0.084018
   49  C  2 XX    0.000030  -0.003737   0.004094   0.010836   0.006057
   50  C  2 YY    0.000524   0.003683   0.003614  -0.018826   0.005762
   51  C  2 ZZ   -0.000553   0.000054  -0.007708   0.007990  -0.011819
   52  C  2 XY    0.000557   0.006080   0.001859   0.000856  -0.007208
   53  C  2 XZ   -0.000555  -0.008530   0.000936  -0.014167  -0.009416
   54  C  2 YZ   -0.000074   0.004030  -0.005152  -0.013159   0.002702
   55  C  2 XX    0.000625  -0.003411   0.000427   0.002143   0.013588
   56  C  2 YY    0.000427   0.003864   0.004253  -0.013494   0.011235
   57  C  2 ZZ   -0.001052  -0.000453  -0.004680   0.011351  -0.024823
   58  C  2 XY   -0.000298   0.005654   0.003337  -0.003882  -0.020322
   59  C  2 XZ   -0.000163  -0.008802  -0.005320  -0.017100  -0.021449
   60  C  2 YZ   -0.000333   0.004087   0.000279  -0.020853   0.008458
   61  C  2 XXX  -0.000048  -0.002172  -0.000128  -0.001583  -0.003016
   62  C  2 YYY   0.000058   0.006733  -0.000419   0.000390   0.000432
   63  C  2 ZZZ   0.000017  -0.004286   0.001250  -0.002696   0.006648
   64  C  2 XXY  -0.000015  -0.003190  -0.000367  -0.002775  -0.001524
   65  C  2 XXZ  -0.000008   0.004400  -0.000923  -0.003346  -0.004818
   66  C  2 YYX   0.000030   0.002380  -0.000022  -0.002363   0.001068
   67  C  2 YYZ  -0.000015   0.001350  -0.000755   0.006963  -0.004101
   68  C  2 ZZX   0.000034   0.000534   0.000194   0.004488   0.002979
   69  C  2 ZZY  -0.000062  -0.005844   0.000930   0.002253   0.000945
   70  C  2 XYZ   0.000095   0.003605   0.000008   0.000417   0.004868
   71  H  3  S    0.010151   0.096895   0.022264   0.077875  -0.001952
   72  H  3  S    0.015250   0.117314   0.031781   0.184978   0.007407
   73  H  3  S   -0.000074   0.015361   0.027301   0.109764   0.004969
   74  H  3  X    0.001147   0.007437   0.001583   0.004982   0.002368
   75  H  3  Y    0.000559   0.004168   0.001247   0.002351  -0.001679
   76  H  3  Z   -0.000529  -0.004131   0.000382  -0.002322   0.002755
   77  H  3  X    0.001759   0.004631   0.001247   0.018697   0.007972
   78  H  3  Y    0.000075   0.003064   0.006564   0.007452  -0.002635
   79  H  3  Z   -0.001085  -0.000209   0.005253  -0.008406   0.002705
   80  H  3 XX    0.000275   0.000676   0.000500   0.001504   0.001481
   81  H  3 YY   -0.000175  -0.000427   0.000511  -0.000738  -0.000414
   82  H  3 ZZ   -0.000100  -0.000249  -0.001011  -0.000766  -0.001067
   83  H  3 XY    0.000192   0.000722   0.000903   0.001803  -0.000110
   84  H  3 XZ   -0.000271  -0.000791   0.000636  -0.001010   0.000396
   85  H  3 YZ   -0.000119  -0.000486  -0.000486  -0.000996   0.000774
   86  H  4  S    0.010156   0.096899   0.022387  -0.077843  -0.001973
   87  H  4  S    0.015262   0.117387   0.032125  -0.184940   0.007341
   88  H  4  S   -0.000067   0.015411   0.027526  -0.109725   0.004922
   89  H  4  X   -0.000236  -0.002198  -0.000471   0.000960   0.003049
   90  H  4  Y   -0.001361  -0.009208  -0.001609   0.005896  -0.000732
   91  H  4  Z    0.000016  -0.000329   0.001193  -0.000023   0.002484
   92  H  4  X    0.000272  -0.001191  -0.004135   0.002293   0.005865
   93  H  4  Y   -0.001989  -0.005027  -0.000944   0.021696  -0.005546
   94  H  4  Z   -0.000498   0.002091   0.007373   0.000125   0.003538
   95  H  4 XX   -0.000215  -0.000604   0.000206   0.001211  -0.000410
   96  H  4 YY    0.000444   0.001286   0.000389  -0.002495   0.000658
   97  H  4 ZZ   -0.000229  -0.000682  -0.000595   0.001284  -0.000248
   98  H  4 XY    0.000057   0.000408   0.000619  -0.000972  -0.001180
   99  H  4 XZ    0.000029   0.000134   0.000091  -0.000365  -0.000370
  100  H  4 YZ    0.000041   0.000111  -0.001316   0.000474  -0.001063

                      6          7          8
                    2.0000     2.0000     2.0000
                     A          A          A   
    1  O  1  S    0.000063   0.506661   0.139677
    2  O  1  S    0.000211  -0.079770   0.391847
    3  O  1  S    0.000059   0.001965   0.107821
    4  O  1  S    0.000123  -0.037444   0.206947
    5  O  1  X    0.074701   0.004583  -0.020110
    6  O  1  Y    0.103722  -0.006388   0.046006
    7  O  1  Z   -0.029453  -0.010521   0.111481
    8  O  1  X    0.096049   0.006601  -0.026124
    9  O  1  Y    0.133365  -0.009492   0.060349
   10  O  1  Z   -0.037869  -0.016244   0.146872
   11  O  1  X    0.050896   0.001954  -0.013126
   12  O  1  Y    0.070658  -0.002213   0.031668
   13  O  1  Z   -0.020076  -0.002482   0.078604
   14  O  1 XX   -0.001367   0.000501  -0.003356
   15  O  1 YY    0.003161   0.000266  -0.001927
   16  O  1 ZZ   -0.001794  -0.000767   0.005283
   17  O  1 XY    0.000219   0.000248  -0.000897
   18  O  1 XZ    0.002939   0.000511  -0.002378
   19  O  1 YZ    0.003132  -0.000825   0.004630
   20  O  1 XX   -0.003361   0.001244  -0.009614
   21  O  1 YY    0.007995   0.000804  -0.005246
   22  O  1 ZZ   -0.004634  -0.002048   0.014861
   23  O  1 XY    0.000632   0.000941  -0.002197
   24  O  1 XZ    0.007552   0.001272  -0.007050
   25  O  1 YZ    0.008118  -0.002228   0.013172
   26  O  1 XXX  -0.000300  -0.000316   0.001448
   27  O  1 YYY  -0.000253   0.000496  -0.002629
   28  O  1 ZZZ  -0.001488  -0.000371   0.002591
   29  O  1 XXY  -0.001259   0.000129  -0.000916
   30  O  1 XXZ  -0.000668   0.000403  -0.002548
   31  O  1 YYX  -0.001570   0.000050  -0.000216
   32  O  1 YYZ   0.002665   0.000094  -0.000928
   33  O  1 ZZX   0.001972   0.000373  -0.001727
   34  O  1 ZZY   0.001599  -0.000794   0.004443
   35  O  1 XYZ   0.000761   0.000414  -0.001963
   36  C  2  S    0.000004   0.813350   0.015198
   37  C  2  S   -0.000104  -0.075193  -0.026910
   38  C  2  S   -0.000026   0.016532  -0.004124
   39  C  2  S   -0.000022  -0.022869  -0.069672
   40  C  2  X    0.134781   0.001762   0.074478
   41  C  2  Y    0.187037   0.000776  -0.096242
   42  C  2  Z   -0.053211   0.007126  -0.149541
   43  C  2  X    0.166332   0.003642   0.083487
   44  C  2  Y    0.230842  -0.001358  -0.107539
   45  C  2  Z   -0.065659   0.004385  -0.166294
   46  C  2  X    0.054113   0.001612   0.023657
   47  C  2  Y    0.075125  -0.001536  -0.026135
   48  C  2  Z   -0.021347  -0.001307  -0.031764
   49  C  2 XX   -0.008375   0.000962  -0.006900
   50  C  2 YY    0.009991  -0.000056  -0.007245
   51  C  2 ZZ   -0.001616  -0.000906   0.014145
   52  C  2 XY   -0.002557  -0.000301  -0.008186
   53  C  2 XZ    0.004279   0.001491  -0.003871
   54  C  2 YZ    0.001651  -0.001396   0.012490
   55  C  2 XX   -0.009188   0.000993  -0.005408
   56  C  2 YY    0.011827  -0.000381  -0.007278
   57  C  2 ZZ   -0.002639  -0.000611   0.012686
   58  C  2 XY   -0.002444  -0.000584  -0.010065
   59  C  2 XZ    0.005959   0.001978  -0.003101
   60  C  2 YZ    0.003425  -0.001488   0.011795
   61  C  2 XXX  -0.000976   0.000353  -0.001534
   62  C  2 YYY   0.000270  -0.001010   0.002189
   63  C  2 ZZZ  -0.001430   0.000634  -0.001351
   64  C  2 XXY  -0.001501   0.000427   0.000600
   65  C  2 XXZ  -0.001965  -0.000647   0.001530
   66  C  2 YYX  -0.001157  -0.000353   0.000292
   67  C  2 YYZ   0.003884  -0.000203   0.000283
   68  C  2 ZZX   0.002467  -0.000121   0.001766
   69  C  2 ZZY   0.001139   0.000928  -0.003537
   70  C  2 XYZ   0.000120  -0.000597   0.002168
   71  H  3  S   -0.126470  -0.012787  -0.066902
   72  H  3  S   -0.196262  -0.013085  -0.102945
   73  H  3  S   -0.066739  -0.002228  -0.025076
   74  H  3  X   -0.010139  -0.001081  -0.005921
   75  H  3  Y   -0.001850  -0.000487  -0.004311
   76  H  3  Z    0.006748   0.000686   0.002082
   77  H  3  X   -0.012042   0.000220  -0.009684
   78  H  3  Y   -0.003029  -0.000073  -0.008949
   79  H  3  Z    0.003949  -0.000322   0.000672
   80  H  3 XX   -0.002163  -0.000081  -0.001406
   81  H  3 YY    0.001928   0.000122   0.000122
   82  H  3 ZZ    0.000235  -0.000040   0.001284
   83  H  3 XY   -0.000781  -0.000046  -0.002093
   84  H  3 XZ    0.002827   0.000160   0.000696
   85  H  3 YZ    0.001141   0.000074   0.001049
   86  H  4  S    0.126393  -0.012749  -0.066965
   87  H  4  S    0.196187  -0.013010  -0.103052
   88  H  4  S    0.066747  -0.002182  -0.025125
   89  H  4  X    0.000168   0.000234   0.002335
   90  H  4  Y   -0.011983   0.001336   0.007154
   91  H  4  Z   -0.002810   0.000167  -0.001175
   92  H  4  X    0.000483   0.000060   0.004831
   93  H  4  Y   -0.013007  -0.000301   0.011203
   94  H  4  Z    0.000615  -0.000260  -0.005057
   95  H  4 XX   -0.001725   0.000106   0.000846
   96  H  4 YY    0.003652  -0.000181  -0.002336
   97  H  4 ZZ   -0.001927   0.000075   0.001490
   98  H  4 XY   -0.000014  -0.000021  -0.001311
   99  H  4 XZ    0.000534  -0.000052  -0.000117
  100  H  4 YZ    0.001377  -0.000111   0.001035

          ------------------------
          MCSCF OPTIMIZED ORBITALS
          ------------------------

                      1          2          3          4          5
                  -20.5848   -11.3557    -1.3437    -0.8837    -0.6760
                     A          A          A          A          A   
    1  O  1  S    0.975701  -0.000233  -0.006599  -0.000725  -0.000001
    2  O  1  S   -0.001320   0.000067   0.481651  -0.220849  -0.000139
    3  O  1  S    0.043205   0.000214   0.126695  -0.062255  -0.000042
    4  O  1  S    0.002133  -0.000173   0.259906  -0.186812  -0.000146
    5  O  1  X   -0.000387  -0.000099  -0.015889  -0.026378   0.094499
    6  O  1  Y    0.000740   0.000154   0.025592   0.037504   0.131342
    7  O  1  Z    0.001626   0.000290   0.049809   0.065195  -0.037138
    8  O  1  X    0.000467  -0.000007  -0.021474  -0.032205   0.120892
    9  O  1  Y   -0.000854  -0.000019   0.034812   0.045030   0.168019
   10  O  1  Z   -0.001821  -0.000084   0.068113   0.076930  -0.047514
   11  O  1  X   -0.000052   0.000009  -0.004605  -0.016958   0.071577
   12  O  1  Y    0.000071   0.000043   0.006539   0.024354   0.099486
   13  O  1  Z    0.000117   0.000174   0.011347   0.042772  -0.028124
   14  O  1 XX   -0.000065   0.000013  -0.002581  -0.000966  -0.001432
   15  O  1 YY    0.000042  -0.000002  -0.001250  -0.000535   0.003332
   16  O  1 ZZ    0.000023  -0.000012   0.003831   0.001501  -0.001901
   17  O  1 XY    0.000089  -0.000019  -0.000859  -0.000797   0.000239
   18  O  1 XZ   -0.000117   0.000007  -0.002501  -0.001255   0.003112
   19  O  1 YZ    0.000065  -0.000005   0.003963   0.001886   0.003330
   20  O  1 XX    0.000262   0.000086  -0.005814  -0.001113  -0.003637
   21  O  1 YY    0.000232   0.000045  -0.003239  -0.001736   0.008757
   22  O  1 ZZ   -0.000494  -0.000132   0.009053   0.002849  -0.005119
   23  O  1 XY    0.000224   0.000057  -0.002729  -0.003469   0.000729
   24  O  1 XZ    0.000156   0.000105  -0.005480  -0.001487   0.008334
   25  O  1 YZ   -0.000431  -0.000157   0.009284   0.003570   0.009006
   26  O  1 XXX  -0.000043  -0.000044   0.001287   0.000252  -0.000260
   27  O  1 YYY   0.000057   0.000064  -0.002087  -0.000523  -0.000302
   28  O  1 ZZZ  -0.000053  -0.000056   0.001691   0.000187  -0.001645
   29  O  1 XXY   0.000033   0.000030  -0.000590   0.000172  -0.001387
   30  O  1 XXZ   0.000060   0.000059  -0.001790  -0.000180  -0.000663
   31  O  1 YYX  -0.000007   0.000001  -0.000191  -0.000248  -0.001796
   32  O  1 YYZ   0.000010   0.000016  -0.000479  -0.000071   0.002870
   33  O  1 ZZX   0.000065   0.000057  -0.001535  -0.000090   0.002146
   34  O  1 ZZY  -0.000110  -0.000116   0.003391   0.000531   0.001792
   35  O  1 XYZ   0.000040   0.000055  -0.001682  -0.000564   0.000888
   36  C  2  S    0.000454   0.978536  -0.011411  -0.007631   0.000001
   37  C  2  S    0.000980   0.000758   0.221526   0.406210   0.000078
   38  C  2  S   -0.000253   0.040436   0.048206   0.092047   0.000018
   39  C  2  S   -0.001253   0.003649   0.057697   0.157940   0.000006
   40  C  2  X   -0.000020   0.000286   0.018555  -0.046846   0.129263
   41  C  2  Y    0.000006  -0.000166  -0.033372   0.050490   0.179361
   42  C  2  Z   -0.000028   0.000142  -0.070440   0.059187  -0.051057
   43  C  2  X    0.000792  -0.000302   0.013821  -0.055187   0.161215
   44  C  2  Y   -0.001110   0.000098  -0.030041   0.060295   0.223712
   45  C  2  Z   -0.001902  -0.000422  -0.070687   0.072572  -0.063666
   46  C  2  X    0.000056  -0.000231   0.001781  -0.018874   0.054153
   47  C  2  Y    0.000040   0.000239  -0.003448   0.024166   0.075184
   48  C  2  Z    0.000282   0.000256  -0.007620   0.037281  -0.021353
   49  C  2 XX   -0.000214  -0.000190  -0.006504  -0.000127  -0.007201
   50  C  2 YY   -0.000118   0.000143  -0.002271   0.006040   0.007976
   51  C  2 ZZ    0.000331   0.000047   0.008775  -0.005913  -0.000775
   52  C  2 XY   -0.000079   0.000230  -0.001510   0.007800  -0.002452
   53  C  2 XZ   -0.000184  -0.000415  -0.007595  -0.005883   0.002777
   54  C  2 YZ    0.000322   0.000239   0.010224  -0.001402   0.000273
   55  C  2 XX   -0.000332  -0.000046  -0.006529   0.001277  -0.008912
   56  C  2 YY   -0.000445   0.000023  -0.002118   0.006485   0.010358
   57  C  2 ZZ    0.000777   0.000023   0.008647  -0.007762  -0.001446
   58  C  2 XY   -0.000538   0.000003  -0.002160   0.006701  -0.002836
   59  C  2 XZ   -0.000115  -0.000124  -0.008622  -0.005550   0.004146
   60  C  2 YZ    0.000646   0.000097   0.011068  -0.002239   0.001232
   61  C  2 XXX  -0.000104  -0.000178  -0.002410  -0.001134  -0.001136
   62  C  2 YYY   0.000079   0.000502   0.005684   0.004297   0.000310
   63  C  2 ZZZ  -0.000084  -0.000284  -0.003554  -0.002445  -0.001704
   64  C  2 XXY   0.000141  -0.000247  -0.001614  -0.002813  -0.001783
   65  C  2 XXZ   0.000104   0.000307   0.003778   0.002505  -0.002303
   66  C  2 YYX  -0.000045   0.000175   0.001663   0.001813  -0.001397
   67  C  2 YYZ   0.000008   0.000073   0.000990   0.000775   0.004589
   68  C  2 ZZX   0.000184   0.000063   0.001571  -0.000291   0.002921
   69  C  2 ZZY  -0.000247  -0.000426  -0.006012  -0.002952   0.001367
   70  C  2 XYZ   0.000093   0.000279   0.003677   0.002136   0.000164
   71  H  3  S    0.000015   0.000113   0.017523   0.104604  -0.117646
   72  H  3  S    0.000914   0.000055   0.005650   0.137640  -0.175892
   73  H  3  S    0.000091  -0.000767  -0.001219   0.016752  -0.054952
   74  H  3  X    0.000028  -0.000229   0.000647   0.008768  -0.009562
   75  H  3  Y    0.000023  -0.000080  -0.000173   0.005023  -0.001594
   76  H  3  Z    0.000004   0.000121  -0.001050  -0.004274   0.006468
   77  H  3  X    0.000272   0.000035  -0.004330   0.009157  -0.010024
   78  H  3  Y    0.000001  -0.000101  -0.002753   0.004696  -0.002238
   79  H  3  Z   -0.000208   0.000031   0.001844  -0.002084   0.003047
   80  H  3 XX    0.000038  -0.000110  -0.000531   0.001273  -0.001995
   81  H  3 YY    0.000014   0.000077  -0.000025  -0.000629   0.001840
   82  H  3 ZZ   -0.000052   0.000033   0.000556  -0.000644   0.000155
   83  H  3 XY    0.000009  -0.000094  -0.000838   0.001379  -0.000589
   84  H  3 XZ    0.000017   0.000108   0.000179  -0.001194   0.002705
   85  H  3 YZ   -0.000033   0.000093   0.000305  -0.000721   0.001031
   86  H  4  S    0.000015   0.000113   0.017524   0.104513   0.117620
   87  H  4  S    0.000913   0.000053   0.005671   0.137554   0.175887
   88  H  4  S    0.000091  -0.000767  -0.001218   0.016747   0.054943
   89  H  4  X   -0.000010   0.000023   0.000114  -0.002538   0.000266
   90  H  4  Y   -0.000030   0.000270  -0.000915  -0.010662  -0.011306
   91  H  4  Z    0.000019   0.000022  -0.000841   0.000189  -0.002798
   92  H  4  X    0.000041   0.000111   0.001429  -0.001551   0.000721
   93  H  4  Y   -0.000319   0.000005   0.005235  -0.010162  -0.010681
   94  H  4  Z   -0.000117   0.000001  -0.000427   0.002143   0.000622
   95  H  4 XX    0.000024   0.000082   0.000316  -0.001048  -0.001590
   96  H  4 YY    0.000024  -0.000192  -0.000834   0.002221   0.003373
   97  H  4 ZZ   -0.000048   0.000109   0.000519  -0.001173  -0.001783
   98  H  4 XY    0.000001  -0.000051  -0.000497   0.000704  -0.000115
   99  H  4 XZ    0.000014  -0.000046   0.000040   0.000111   0.000493
  100  H  4 YZ   -0.000043  -0.000017   0.000513  -0.000113   0.001420

                      6          7          8          9         10
                   -0.6190    -0.4939    -0.4528     0.0738     0.1464
                     A          A          A          A          A   
    1  O  1  S   -0.002447  -0.000835   0.000001  -0.002166   0.006537
    2  O  1  S   -0.158933  -0.006505   0.000009  -0.011361   0.021771
    3  O  1  S   -0.050754  -0.001303   0.000002  -0.001018   0.006291
    4  O  1  S   -0.177407  -0.004784   0.000006  -0.033966  -0.138167
    5  O  1  X   -0.060954   0.217660   0.185498  -0.160377   0.037628
    6  O  1  Y    0.113655  -0.130493   0.257634   0.084082  -0.028311
    7  O  1  Z    0.246231   0.092346  -0.073125  -0.110652  -0.004249
    8  O  1  X   -0.075646   0.281740   0.232625  -0.182751   0.037300
    9  O  1  Y    0.142605  -0.168787   0.323086   0.093598  -0.032439
   10  O  1  Z    0.311077   0.119971  -0.091703  -0.133866  -0.019547
   11  O  1  X   -0.052378   0.214502   0.195110  -0.321039   0.140004
   12  O  1  Y    0.096727  -0.128212   0.270984   0.161185  -0.117794
   13  O  1  Z    0.208243   0.092380  -0.076917  -0.246630  -0.059810
   14  O  1 XX   -0.004460  -0.002267  -0.000530  -0.000998   0.000187
   15  O  1 YY   -0.002895  -0.002422   0.001482  -0.000960   0.000153
   16  O  1 ZZ    0.007355   0.004689  -0.000952   0.001958  -0.000339
   17  O  1 XY   -0.001775   0.003514   0.000191   0.001415  -0.000972
   18  O  1 XZ   -0.002997   0.004907   0.001515   0.001794  -0.000970
   19  O  1 YZ    0.006393  -0.002088   0.001695  -0.000679   0.000801
   20  O  1 XX   -0.013475  -0.008742  -0.002418   0.003568   0.002517
   21  O  1 YY   -0.008421  -0.008897   0.006894   0.001012  -0.000836
   22  O  1 ZZ    0.021896   0.017639  -0.004477  -0.004580  -0.001681
   23  O  1 XY   -0.005338   0.013264   0.000928  -0.000719  -0.003792
   24  O  1 XZ   -0.009745   0.017663   0.007104   0.003164   0.002426
   25  O  1 YZ    0.019620  -0.007320   0.007976  -0.004314  -0.001355
   26  O  1 XXX   0.001618  -0.002331   0.000386  -0.000168  -0.000142
   27  O  1 YYY  -0.003293   0.001451  -0.000443  -0.000288  -0.000135
   28  O  1 ZZZ   0.003235   0.003465  -0.001426   0.000053   0.000030
   29  O  1 XXY  -0.000845  -0.001991  -0.001150   0.001104   0.000220
   30  O  1 XXZ  -0.003048  -0.001743   0.000091  -0.000341   0.000257
   31  O  1 YYX  -0.000497   0.000529  -0.002072  -0.000007  -0.000454
   32  O  1 YYZ  -0.001292  -0.002906   0.001822   0.000270  -0.000297
   33  O  1 ZZX  -0.001673   0.002598   0.001554   0.000232   0.000645
   34  O  1 ZZY   0.005263   0.000044   0.001745  -0.000716  -0.000039
   35  O  1 XYZ  -0.002515   0.002285   0.001177   0.000957  -0.000610
   36  C  2  S   -0.000425   0.000699  -0.000005   0.003557   0.017522
   37  C  2  S    0.051683   0.058646  -0.000028   0.102821   0.220888
   38  C  2  S    0.017844   0.013421  -0.000004   0.019125   0.043810
   39  C  2  S   -0.069657   0.050596  -0.000095   0.656050   2.796118
   40  C  2  X    0.079101   0.122416  -0.059756   0.148807  -0.065148
   41  C  2  Y   -0.102846  -0.059833  -0.082968  -0.069313   0.056377
   42  C  2  Z   -0.161000   0.099756   0.023540   0.133242   0.033199
   43  C  2  X    0.095042   0.175731  -0.057617   0.171350  -0.169416
   44  C  2  Y   -0.120897  -0.089082  -0.080016  -0.074250   0.150014
   45  C  2  Z   -0.183946   0.131939   0.022680   0.173266   0.098626
   46  C  2  X    0.023204   0.126234  -0.002437   0.354378  -0.577848
   47  C  2  Y   -0.022477  -0.067021  -0.003403  -0.148060   0.469207
   48  C  2  Z   -0.019951   0.084078   0.000931   0.377590   0.186631
   49  C  2 XX   -0.005459   0.006621   0.011645  -0.004003   0.002404
   50  C  2 YY   -0.005927   0.005968  -0.019769  -0.005452   0.001607
   51  C  2 ZZ    0.011385  -0.012589   0.008123   0.009455  -0.004011
   52  C  2 XY   -0.006678  -0.007213   0.001114   0.004934  -0.001188
   53  C  2 XZ   -0.002829  -0.008904  -0.014537   0.009998  -0.000611
   54  C  2 YZ    0.009885   0.001958  -0.013253  -0.003614  -0.001265
   55  C  2 XX   -0.000605   0.013505   0.003090  -0.018319  -0.009242
   56  C  2 YY   -0.005858   0.011460  -0.014657  -0.004400   0.059433
   57  C  2 ZZ    0.006463  -0.024965   0.011567   0.022719  -0.050191
   58  C  2 XY   -0.010475  -0.019955  -0.003613   0.022033   0.060449
   59  C  2 XZ    0.001582  -0.021722  -0.017624  -0.000133  -0.087390
   60  C  2 YZ    0.005499   0.008463  -0.021096   0.004835   0.015827
   61  C  2 XXX  -0.000707  -0.002945  -0.001473  -0.000473  -0.003901
   62  C  2 YYY   0.000675   0.000149   0.000359   0.004364   0.013132
   63  C  2 ZZZ  -0.000403   0.006891  -0.002532  -0.004423  -0.007261
   64  C  2 XXY   0.000730  -0.001428  -0.002603  -0.002265  -0.009015
   65  C  2 XXZ   0.000418  -0.005036  -0.003123   0.004023   0.008616
   66  C  2 YYX   0.000037   0.000966  -0.002230   0.001480   0.004282
   67  C  2 YYZ   0.000122  -0.004210   0.006521   0.001911   0.001125
   68  C  2 ZZX   0.000912   0.002985   0.004206  -0.000845   0.000952
   69  C  2 ZZY  -0.001636   0.001229   0.002121  -0.003590  -0.008604
   70  C  2 XYZ   0.001175   0.004712   0.000403   0.000939   0.004144
   71  H  3  S   -0.058155  -0.003396   0.090590  -0.032888  -0.005620
   72  H  3  S   -0.082755   0.005879   0.204368  -0.135379  -0.199008
   73  H  3  S   -0.036038   0.008070   0.116085  -0.260200  -1.739016
   74  H  3  X   -0.004345   0.002192   0.006009   0.004026   0.013341
   75  H  3  Y   -0.003568  -0.001703   0.002528  -0.001921   0.011889
   76  H  3  Z    0.001297   0.002973  -0.003012   0.005903  -0.009114
   77  H  3  X   -0.004636   0.007709   0.019848  -0.011759  -0.147587
   78  H  3  Y   -0.010319  -0.001873   0.007718  -0.031983  -0.077495
   79  H  3  Z   -0.004073   0.003497  -0.008778   0.019869   0.082156
   80  H  3 XX   -0.000912   0.001488   0.001720   0.000913  -0.005213
   81  H  3 YY   -0.000420  -0.000312  -0.000935  -0.001127   0.001997
   82  H  3 ZZ    0.001332  -0.001176  -0.000785   0.000214   0.003216
   83  H  3 XY   -0.001778  -0.000035   0.001874  -0.002320  -0.005564
   84  H  3 XZ   -0.000149   0.000531  -0.001300   0.003058   0.007377
   85  H  3 YZ    0.001021   0.000726  -0.001109   0.002098   0.001574
   86  H  4  S   -0.058230  -0.003408  -0.090622  -0.032885  -0.005638
   87  H  4  S   -0.082873   0.005840  -0.204420  -0.135201  -0.198863
   88  H  4  S   -0.036075   0.008042  -0.116116  -0.260047  -1.738256
   89  H  4  X    0.002018   0.003064   0.000939   0.004652  -0.008354
   90  H  4  Y    0.005271  -0.000490   0.007115  -0.001051  -0.018225
   91  H  4  Z   -0.001212   0.002627   0.000269   0.005653  -0.000550
   92  H  4  X    0.006623   0.005289   0.002236   0.029741   0.039003
   93  H  4  Y    0.005316  -0.005222   0.022934   0.025597   0.181418
   94  H  4  Z   -0.008516   0.004453   0.000052   0.003466   0.008504
   95  H  4 XX    0.000178  -0.000334   0.001384   0.000120   0.004755
   96  H  4 YY   -0.001367   0.000617  -0.002863  -0.002224  -0.010198
   97  H  4 ZZ    0.001190  -0.000283   0.001479   0.002104   0.005443
   98  H  4 XY   -0.001298  -0.001110  -0.000966  -0.003409  -0.002649
   99  H  4 XZ   -0.000189  -0.000358  -0.000419   0.000474   0.001844
  100  H  4 YZ    0.001466  -0.001237   0.000329  -0.001560  -0.000947

                     11         12         13         14         15
                    0.2004     0.2631     0.4320     0.4352     0.4649
                     A          A          A          A          A   
    1  O  1  S   -0.000003  -0.055678   0.000066   0.015525   0.019429
    2  O  1  S    0.000033   0.064164  -0.000005  -0.012724  -0.039335
    3  O  1  S    0.000011   0.030767  -0.000011  -0.008465  -0.006639
    4  O  1  S    0.000193   2.123753  -0.001643  -0.316842  -0.947557
    5  O  1  X   -0.021166  -0.005542  -0.060220   0.010163   0.022468
    6  O  1  Y   -0.029379   0.017777  -0.083594  -0.009154  -0.007963
    7  O  1  Z    0.008362   0.048607   0.023753  -0.007373   0.028739
    8  O  1  X   -0.011618  -0.047492  -0.048285  -0.000295   0.031784
    9  O  1  Y   -0.016120   0.083199  -0.067015   0.002191  -0.021364
   10  O  1  Z    0.004610   0.172587   0.019026   0.006190   0.005139
   11  O  1  X   -0.144211  -0.158024  -0.243777   0.181251   0.203155
   12  O  1  Y   -0.200128   0.313435  -0.339498  -0.165453  -0.291635
   13  O  1  Z    0.056962   0.703022   0.095768  -0.125946  -0.511184
   14  O  1 XX   -0.000966   0.001498  -0.002147  -0.001418  -0.001959
   15  O  1 YY    0.002766   0.001178   0.002015  -0.000664   0.000319
   16  O  1 ZZ   -0.001800  -0.002677   0.000133   0.002082   0.001640
   17  O  1 XY    0.000375   0.001360  -0.000879   0.001304  -0.000958
   18  O  1 XZ    0.002855   0.001300   0.000298   0.000309  -0.004976
   19  O  1 YZ    0.003203  -0.002697  -0.000586   0.000451   0.004592
   20  O  1 XX    0.005113  -0.037208   0.019835   0.000074   0.050766
   21  O  1 YY   -0.005735  -0.023320  -0.010329  -0.012108   0.015253
   22  O  1 ZZ    0.000621   0.060528  -0.009505   0.012034  -0.066019
   23  O  1 XY    0.001717  -0.022917   0.011601   0.001890  -0.016834
   24  O  1 XZ   -0.002064  -0.034708   0.009482   0.028664   0.036526
   25  O  1 YZ   -0.000290   0.062199   0.020911  -0.014350  -0.053924
   26  O  1 XXX  -0.000822   0.003495  -0.001220  -0.000935  -0.003333
   27  O  1 YYY  -0.000667  -0.005075  -0.001316   0.000164   0.003613
   28  O  1 ZZZ  -0.000692   0.003557  -0.001016   0.000042  -0.003727
   29  O  1 XXY  -0.000063  -0.001516   0.000181   0.001285   0.003334
   30  O  1 XXZ   0.000371  -0.004052   0.001196   0.000407   0.004653
   31  O  1 YYX   0.000407  -0.000369   0.000865  -0.000701  -0.001383
   32  O  1 YYZ   0.000557  -0.000720   0.000167  -0.000463   0.000347
   33  O  1 ZZX   0.000695  -0.004319   0.000772   0.001955   0.005854
   34  O  1 ZZY   0.000957   0.008325   0.001584  -0.001505  -0.008181
   35  O  1 XYZ   0.000275  -0.004382   0.000573   0.000401   0.002054
   36  C  2  S   -0.000004   0.002302  -0.000021   0.024069  -0.002927
   37  C  2  S   -0.000016  -0.059425   0.000120   0.126525  -0.034647
   38  C  2  S   -0.000022   0.015980  -0.000093  -0.003160  -0.082146
   39  C  2  S   -0.000354  -0.999415   0.002173   1.675652   3.651307
   40  C  2  X    0.088554  -0.004282  -0.042386   0.148894  -0.108377
   41  C  2  Y    0.122966   0.004640  -0.059301  -0.078394   0.061191
   42  C  2  Z   -0.034926   0.005616   0.017017   0.100935  -0.059563
   43  C  2  X    0.193397  -0.153175   0.388329   0.469587  -0.472960
   44  C  2  Y    0.268592   0.198158   0.537064  -0.231718   0.246074
   45  C  2  Z   -0.076252   0.309533  -0.152538   0.380713  -0.330490
   46  C  2  X    0.936914  -0.617671   1.932738  -1.190615  -0.052275
   47  C  2  Y    1.300819   0.915485   2.685986   0.720023   0.146834
   48  C  2  Z   -0.369568   1.657685  -0.764842  -0.457485   0.387233
   49  C  2 XX    0.001911  -0.009050   0.002032   0.000261  -0.002292
   50  C  2 YY    0.000244  -0.006498  -0.000712  -0.003764  -0.002344
   51  C  2 ZZ   -0.002154   0.015548  -0.001320   0.003503   0.004636
   52  C  2 XY    0.001630  -0.006299   0.001318  -0.006849  -0.005499
   53  C  2 XZ    0.002722  -0.007357   0.001496   0.002016  -0.004225
   54  C  2 YZ    0.004348   0.015022   0.002841   0.002534   0.007014
   55  C  2 XX   -0.068548   0.115808  -0.409598   0.040279  -0.030420
   56  C  2 YY    0.072199   0.131024   0.569506   0.055206   0.071952
   57  C  2 ZZ   -0.003651  -0.246832  -0.159908  -0.095484  -0.041532
   58  C  2 XY   -0.024882   0.122864  -0.091399   0.017846   0.090237
   59  C  2 XZ    0.020886   0.030014   0.327252  -0.039736  -0.123434
   60  C  2 YZ   -0.004536  -0.185612   0.231274  -0.028075   0.035488
   61  C  2 XXX  -0.001184   0.008349   0.002868  -0.008070  -0.021246
   62  C  2 YYY   0.000427  -0.000994   0.035889   0.024219   0.061969
   63  C  2 ZZZ   0.000707   0.011239   0.025064  -0.006211  -0.027073
   64  C  2 XXY   0.000553  -0.026472  -0.002827  -0.024919  -0.040562
   65  C  2 XXZ  -0.000938  -0.010722  -0.049537   0.012740   0.031698
   66  C  2 YYX   0.001940   0.008816   0.005204   0.007750   0.024969
   67  C  2 YYZ  -0.000010  -0.004356   0.015910  -0.004407   0.004624
   68  C  2 ZZX  -0.000352  -0.020018  -0.009052   0.003077   0.003536
   69  C  2 ZZY  -0.001126   0.027806  -0.045323  -0.007574  -0.042579
   70  C  2 XYZ  -0.001198  -0.007499  -0.029748   0.003348   0.034310
   71  H  3  S    0.002336  -0.000676   0.012340  -0.027392  -0.044142
   72  H  3  S    0.013649  -0.351610   1.844068  -0.755452  -1.315911
   73  H  3  S    2.378475  -0.190554   1.482578  -0.293720  -0.508909
   74  H  3  X   -0.020124  -0.004279   0.020803  -0.012963  -0.014866
   75  H  3  Y   -0.002859   0.006653   0.015680  -0.000423  -0.016591
   76  H  3  Z    0.013143   0.012920  -0.006689  -0.001967   0.015354
   77  H  3  X    0.111633  -0.076884   0.377404  -0.037841  -0.255960
   78  H  3  Y    0.032971  -0.007295   0.224955  -0.021438   0.055945
   79  H  3  Z   -0.088249   0.061914  -0.244880   0.111010   0.070913
   80  H  3 XX    0.001668  -0.004074   0.020593  -0.001879  -0.015427
   81  H  3 YY   -0.002724   0.004209  -0.015797   0.001922   0.010764
   82  H  3 ZZ    0.001056  -0.000135  -0.004795  -0.000043   0.004662
   83  H  3 XY    0.003517   0.002291   0.024295  -0.002048  -0.012170
   84  H  3 XZ   -0.005443   0.008021  -0.021157   0.007500   0.022169
   85  H  3 YZ   -0.002071   0.005298  -0.015590   0.001865   0.005221
   86  H  4  S   -0.002371  -0.000725  -0.012428  -0.027339  -0.044138
   87  H  4  S   -0.013831  -0.351949  -1.846046  -0.748733  -1.314384
   88  H  4  S   -2.378304  -0.188850  -1.482329  -0.288080  -0.507488
   89  H  4  X    0.001124  -0.004185   0.008512  -0.004703   0.013649
   90  H  4  Y   -0.023504   0.006799   0.025060   0.010982   0.022956
   91  H  4  Z   -0.005638   0.012889  -0.004912  -0.005224   0.004087
   92  H  4  X    0.013058  -0.004540   0.132811   0.033938  -0.122201
   93  H  4  Y    0.140203   0.093055   0.483309   0.077116   0.241090
   94  H  4  Z    0.039047   0.033237   0.043818   0.082345   0.018152
   95  H  4 XX    0.003885   0.000778   0.020983   0.002792   0.015146
   96  H  4 YY   -0.006033  -0.007428  -0.038748  -0.006509  -0.029048
   97  H  4 ZZ    0.002148   0.006650   0.017766   0.003717   0.013902
   98  H  4 XY   -0.002706   0.001342  -0.013670  -0.001765  -0.004221
   99  H  4 XZ   -0.000501  -0.003011  -0.007266   0.000846   0.001659
  100  H  4 YZ   -0.002993  -0.006555  -0.001787  -0.004496  -0.007040

                     16         17         18         19         20
                    0.5888     0.6095     0.6359     0.7157     0.7173
                     A          A          A          A          A   
    1  O  1  S    0.024720  -0.000105  -0.034241   0.008295  -0.000025
    2  O  1  S    0.029143  -0.000369  -0.181129   0.139174  -0.000547
    3  O  1  S    0.007030  -0.000118  -0.064307   0.009777  -0.000026
    4  O  1  S   -0.459635   0.003639   1.608381   1.623839  -0.007457
    5  O  1  X    0.001409   0.020491   0.073390   0.035629   0.065699
    6  O  1  Y    0.001264   0.028074  -0.115694  -0.052344   0.091729
    7  O  1  Z    0.007666  -0.008438  -0.220969  -0.096159  -0.025526
    8  O  1  X    0.006966   0.029925   0.059115   0.074347   0.160865
    9  O  1  Y   -0.001940   0.041286  -0.078747  -0.105876   0.224348
   10  O  1  Z    0.010366  -0.012033  -0.127003  -0.189650  -0.062750
   11  O  1  X    0.047638   0.041671  -0.092274  -0.522155  -0.224507
   12  O  1  Y   -0.120333   0.058596   0.139005   0.875174  -0.318910
   13  O  1  Z   -0.302459  -0.015429   0.256103   1.765330   0.081711
   14  O  1 XX   -0.001911   0.000143  -0.001888   0.016745  -0.000526
   15  O  1 YY    0.000302  -0.003556  -0.001459   0.009475   0.002262
   16  O  1 ZZ    0.001609   0.003413   0.003347  -0.026220  -0.001736
   17  O  1 XY    0.004046  -0.001375  -0.001449   0.007489   0.000561
   18  O  1 XZ    0.000028  -0.005032  -0.001413   0.015128   0.002744
   19  O  1 YZ   -0.000472  -0.006349   0.003167  -0.026217   0.003497
   20  O  1 XX    0.018732   0.012831  -0.068637  -0.066787   0.048482
   21  O  1 YY   -0.000243  -0.022510  -0.036234  -0.042590  -0.060220
   22  O  1 ZZ   -0.018489   0.009679   0.104871   0.109377   0.011738
   23  O  1 XY   -0.010100   0.001028  -0.032680  -0.039678   0.013705
   24  O  1 XZ    0.022352  -0.016966  -0.069402  -0.060389  -0.028585
   25  O  1 YZ   -0.021893  -0.015343   0.112053   0.110091  -0.015414
   26  O  1 XXX  -0.002014   0.000191   0.004280   0.005593  -0.000574
   27  O  1 YYY   0.001005  -0.000779  -0.004484  -0.007660  -0.001360
   28  O  1 ZZZ  -0.000129   0.000417   0.002836   0.006667  -0.000358
   29  O  1 XXY   0.001808   0.000973  -0.002910  -0.003816   0.000835
   30  O  1 XXZ   0.001116   0.001817  -0.004046  -0.007676   0.002156
   31  O  1 YYX  -0.001065   0.000960   0.000795   0.000619   0.001160
   32  O  1 YYZ  -0.000943  -0.002376   0.000241  -0.001269  -0.001676
   33  O  1 ZZX   0.003768  -0.001216  -0.006538  -0.008123  -0.000389
   34  O  1 ZZY  -0.003157   0.000072   0.008927   0.014094   0.000989
   35  O  1 XYZ   0.000994   0.000253  -0.003916  -0.005465   0.000613
   36  C  2  S    0.021695  -0.000030   0.033017  -0.097896   0.000448
   37  C  2  S   -0.289786   0.001081   0.342098  -0.295895   0.001355
   38  C  2  S   -0.158710   0.000478   0.158295  -0.076117   0.000341
   39  C  2  S    6.004901  -0.014170  -1.479843  -0.300883   0.000938
   40  C  2  X    0.106046  -0.176293   0.057618  -0.019895  -0.022279
   41  C  2  Y   -0.107534  -0.244587  -0.112244   0.032433  -0.031133
   42  C  2  Z   -0.106760   0.069267  -0.251456   0.064537   0.008578
   43  C  2  X   -0.284259   0.128797   0.066464  -0.568813  -0.115324
   44  C  2  Y    0.219233   0.177197  -0.102755   0.746980  -0.166874
   45  C  2  Z    0.051369  -0.051144  -0.191963   1.193259   0.041330
   46  C  2  X   -0.940835   1.190356  -0.290989  -0.138774  -0.023133
   47  C  2  Y    0.892875   1.649875   0.523951   0.202208  -0.034088
   48  C  2  Z    0.737279  -0.468653   1.122891   0.360360   0.007516
   49  C  2 XX    0.000549  -0.025109   0.011105   0.015680  -0.003333
   50  C  2 YY    0.022003   0.034156   0.002004   0.026882   0.007900
   51  C  2 ZZ   -0.022551  -0.009047  -0.013109  -0.042562  -0.004567
   52  C  2 XY    0.027089  -0.005963   0.002631   0.028693   0.000580
   53  C  2 XZ   -0.020758   0.019066   0.016908  -0.004233   0.007728
   54  C  2 YZ   -0.005620   0.012791  -0.019286  -0.027807   0.008472
   55  C  2 XX    0.011097  -0.519303   0.309414   0.232210   0.365451
   56  C  2 YY    0.376462   0.648263   0.127003   0.200709  -0.351286
   57  C  2 ZZ   -0.387559  -0.128961  -0.436416  -0.432918  -0.014165
   58  C  2 XY    0.414799  -0.147392   0.064679   0.151904   0.147624
   59  C  2 XZ   -0.398611   0.308325   0.307570   0.095996  -0.060205
   60  C  2 YZ   -0.051992   0.154656  -0.457286  -0.335495   0.092191
   61  C  2 XXX  -0.024517  -0.005183   0.025460   0.001245   0.005043
   62  C  2 YYY   0.086682   0.019515  -0.040479   0.031721  -0.008492
   63  C  2 ZZZ  -0.036591   0.016916   0.031666  -0.011021  -0.000697
   64  C  2 XXY  -0.071132   0.002588  -0.008892  -0.046291   0.005130
   65  C  2 XXZ   0.045065  -0.028995  -0.036303   0.010225   0.017829
   66  C  2 YYX   0.035866   0.014295  -0.001378   0.023093  -0.000318
   67  C  2 YYZ   0.004027   0.006300  -0.006182   0.004561  -0.016894
   68  C  2 ZZX  -0.002973  -0.007341  -0.032779  -0.024763  -0.006448
   69  C  2 ZZY  -0.045164  -0.028770   0.063200   0.003733   0.006263
   70  C  2 XYZ   0.034659  -0.021619  -0.026622   0.008899   0.007122
   71  H  3  S    0.103458  -0.092681  -0.013918   0.000268  -0.013878
   72  H  3  S   -1.111777   0.408237  -0.053581  -0.811107  -0.420337
   73  H  3  S   -2.112257   2.061411   0.129524  -0.047642   0.073181
   74  H  3  X   -0.001936  -0.007976   0.004936  -0.009348   0.011065
   75  H  3  Y    0.006292   0.004317   0.010435  -0.001181  -0.003371
   76  H  3  Z    0.003741   0.003910   0.008345   0.015122   0.042013
   77  H  3  X   -0.759490   0.622958   0.062393  -0.348445  -0.277978
   78  H  3  Y   -0.403832   0.150370  -0.072387  -0.187311  -0.075754
   79  H  3  Z    0.391523  -0.354651  -0.162657   0.073289  -0.447867
   80  H  3 XX   -0.027115   0.019230   0.007047  -0.023954  -0.001665
   81  H  3 YY    0.011250  -0.016935  -0.003689   0.009850  -0.002687
   82  H  3 ZZ    0.015865  -0.002295  -0.003358   0.014104   0.004352
   83  H  3 XY   -0.032999   0.018273   0.008629  -0.027948  -0.009555
   84  H  3 XZ    0.043669  -0.026538  -0.005086   0.029595  -0.004458
   85  H  3 YZ    0.014702  -0.012413  -0.000835   0.015588   0.008251
   86  H  4  S    0.103860   0.092253  -0.014234   0.000402   0.013846
   87  H  4  S   -1.112198  -0.404231  -0.052686  -0.806493   0.427477
   88  H  4  S   -2.120073  -2.052709   0.137032  -0.048419  -0.072258
   89  H  4  X   -0.005373   0.005701  -0.005554   0.001487  -0.017701
   90  H  4  Y    0.001437  -0.007499  -0.004049   0.013998  -0.005924
   91  H  4  Z    0.005076  -0.002987   0.012482   0.010424  -0.039516
   92  H  4  X    0.197249   0.006746   0.045545   0.066379   0.143498
   93  H  4  Y    0.926480   0.720850  -0.098358   0.385366  -0.113786
   94  H  4  Z    0.014426   0.105285  -0.156273  -0.085507   0.501678
   95  H  4 XX    0.025900   0.020589  -0.007600   0.019646   0.000676
   96  H  4 YY   -0.058762  -0.037769   0.011501  -0.046676   0.003931
   97  H  4 ZZ    0.032862   0.017181  -0.003901   0.027030  -0.004607
   98  H  4 XY   -0.019668  -0.009045   0.003251  -0.016442   0.009414
   99  H  4 XZ    0.006806  -0.004546  -0.001039   0.000703   0.004636
  100  H  4 YZ   -0.008264  -0.009021  -0.002287  -0.001580  -0.008360

                     21         22         23         24         25
                    0.8417     0.8978     0.9068     1.0300     1.0564
                     A          A          A          A          A   
    1  O  1  S   -0.020499   0.000013  -0.010546  -0.063798  -0.000002
    2  O  1  S   -0.040828   0.000050  -0.032697  -0.221597  -0.000036
    3  O  1  S    0.000149   0.000019  -0.003719  -0.053291  -0.000018
    4  O  1  S   -0.248425  -0.000266  -0.103338   0.538194   0.000145
    5  O  1  X    0.162782  -0.091530  -0.091237  -0.042785   0.017485
    6  O  1  Y   -0.085221  -0.126911   0.051679   0.003651   0.024272
    7  O  1  Z    0.113054   0.036022  -0.049645  -0.095734  -0.006928
    8  O  1  X    0.471639  -0.314337  -0.346779  -0.174259   0.094803
    9  O  1  Y   -0.271091  -0.435938   0.190028   0.081522   0.131683
   10  O  1  Z    0.242421   0.123639  -0.211222  -0.155072  -0.037412
   11  O  1  X   -0.536475   0.992382   1.227290  -0.097441  -0.367981
   12  O  1  Y    0.252280   1.376425  -0.713848   0.151467  -0.510498
   13  O  1  Z   -0.474467  -0.390778   0.602116   0.286107   0.145347
   14  O  1 XX   -0.001292   0.006453   0.008888  -0.002158  -0.002194
   15  O  1 YY   -0.001177  -0.015725   0.009348   0.000189   0.004188
   16  O  1 ZZ    0.002470   0.009272  -0.018236   0.001968  -0.001994
   17  O  1 XY    0.001900  -0.001376  -0.010736   0.010719  -0.000012
   18  O  1 XZ    0.002226  -0.015062  -0.015895   0.006412   0.003417
   19  O  1 YZ   -0.000877  -0.016281   0.005019  -0.006779   0.003356
   20  O  1 XX    0.018358  -0.009537  -0.007231  -0.029173   0.022142
   21  O  1 YY    0.033819   0.029471   0.004058   0.020807  -0.016880
   22  O  1 ZZ   -0.052177  -0.019933   0.003172   0.008367  -0.005262
   23  O  1 XY    0.018741   0.004622   0.033277   0.039285   0.010696
[...]
             24  O  1 XZ      0.00677     0.00675
             25  O  1 YZ      0.00000     0.01031
             26  O  1 XXX     0.00004     0.19487
             27  O  1 YYY     0.00015     0.22350
             28  O  1 ZZZ     0.00026     0.19013
             29  O  1 XXY     0.00050     0.10434
             30  O  1 XXZ     0.00058     0.07903
             31  O  1 YYX     0.00025     0.09110
             32  O  1 YYZ     0.00004     0.08380
             33  O  1 ZZX     0.00000     0.09351
             34  O  1 ZZY     0.00000     0.10979
             35  O  1 XYZ     0.00000     0.00028
             36  C  2  S      1.95646     1.56962
             37  C  2  S      0.84411     0.44676
             38  C  2  S      0.17445     0.30052
             39  C  2  S      0.29793     0.16858
             40  C  2  X      0.20935     0.16304
             41  C  2  Y      0.28082     0.21822
             42  C  2  Z      0.23173     0.18632
             43  C  2  X      0.40522     0.21707
             44  C  2  Y      0.50158     0.26775
             45  C  2  Z      0.37635     0.22273
             46  C  2  X      0.16362     0.18262
             47  C  2  Y      0.14325     0.18556
             48  C  2  Z      0.08458     0.14336
             49  C  2 XX      0.00830     0.09468
             50  C  2 YY      0.00676     0.10474
             51  C  2 ZZ      0.00257     0.10436
             52  C  2 XY      0.00662     0.00303
             53  C  2 XZ      0.00693     0.00703
             54  C  2 YZ      0.00000     0.00928
             55  C  2 XX      0.02262     0.09275
             56  C  2 YY      0.00682     0.13224
             57  C  2 ZZ      0.00937     0.11961
             58  C  2 XY      0.01989     0.02103
             59  C  2 XZ      0.01683     0.07114
             60  C  2 YZ      0.00000     0.07331
             61  C  2 XXX     0.00032     0.11405
             62  C  2 YYY     0.00219     0.16214
             63  C  2 ZZZ     0.00168     0.15683
             64  C  2 XXY     0.00315     0.06819
             65  C  2 XXZ     0.00203     0.05663
             66  C  2 YYX     0.00153     0.05801
             67  C  2 YYZ     0.00079     0.06165
             68  C  2 ZZX     0.00000     0.07721
             69  C  2 ZZY     0.00000     0.08205
             70  C  2 XYZ     0.00000     0.00508
             71  H  3  S      0.26009     0.19702
             72  H  3  S      0.50340     0.26187
             73  H  3  S      0.08120     0.13474
             74  H  3  X      0.00587     0.00752
             75  H  3  Y      0.00146     0.00209
             76  H  3  Z      0.00192     0.00258
             77  H  3  X      0.00862     0.04140
             78  H  3  Y      0.00443     0.02163
             79  H  3  Z      0.00105     0.02208
             80  H  3 XX      0.00041     0.10782
             81  H  3 YY      0.00058     0.07555
             82  H  3 ZZ      0.00049     0.08037
             83  H  3 XY      0.00054     0.00383
             84  H  3 XZ      0.00017     0.00450
             85  H  3 YZ      0.00000     0.00138
             86  H  4  S      0.26007     0.20472
             87  H  4  S      0.50422     0.26484
             88  H  4  S      0.08165     0.13484
             89  H  4  X      0.00069     0.00088
             90  H  4  Y      0.00793     0.01145
             91  H  4  Z      0.00060     0.00066
             92  H  4  X      0.00311     0.01614
             93  H  4  Y      0.00717     0.05266
             94  H  4  Z      0.00401     0.01612
             95  H  4 XX      0.00035     0.07411
             96  H  4 YY      0.00084     0.12604
             97  H  4 ZZ      0.00037     0.07247
             98  H  4 XY      0.00003     0.00289
             99  H  4 XZ      0.00061     0.00016
            100  H  4 YZ      0.00000     0.00292

          ----- MULLIKEN ATOMIC OVERLAP POPULATIONS -----
          (OFF-DIAGONAL ELEMENTS NEED TO BE MULTIPLIED BY 2)

             1           2           3           4

    1    8.0046273
    2    0.5807686   4.4102469
    3   -0.0575193   0.3983069   0.5948970
    4   -0.0576025   0.3985367  -0.0654673   0.5961827

          TOTAL MULLIKEN AND LOWDIN ATOMIC POPULATIONS
       ATOM         MULL.POP.    CHARGE          LOW.POP.     CHARGE
    1 O             8.470274   -0.470274         8.107510   -0.107510
    2 C             5.787859    0.212141         5.947211    0.052789
    3 H             0.870217    0.129783         0.964376    0.035624
    4 H             0.871650    0.128350         0.980903    0.019097

          MULLIKEN SPHERICAL HARMONIC POPULATIONS
       ATOM           S       P       D      F      G      H      I    TOTAL
    1 O             3.81    4.63    0.03   0.00   0.00   0.00   0.00    8.47
    2 C             3.27    2.40    0.11   0.01   0.00   0.00   0.00    5.79
    3 H             0.84    0.02    0.00   0.00   0.00   0.00   0.00    0.87
    4 H             0.85    0.02    0.00   0.00   0.00   0.00   0.00    0.87

    **** A SOLVENT MODEL IS IN USE IN THIS RUN ****
 ELECTRICAL PROPERTIES (MOMENTS, DENSITY, FIELD/GRADIENT, AND/OR POTENTIAL)
 ARE COMPUTED USING THE SOLVATED SYSTEM'S DENSITY MATRIX, BUT
 ONLY WITH AO INTEGRAL CONTRIBUTIONS FROM THE QUANTUM SOLUTE.
 THE ONE EXCEPTION IS THE DIPOLE, WHICH IS ALSO PRINTED FOR THE TOTAL SYSTEM.

          ----------------------------
          SOLUTE ELECTROSTATIC MOMENTS
          ----------------------------

 POINT   1           X           Y           Z (BOHR)    CHARGE
                 3.460370   -2.675225   -0.992195        0.00 (A.U.)
         DX          DY          DZ         /D/  (DEBYE)
    -1.278346    1.850268    3.301978    3.995087

          ----------------------------
          SYSTEM ELECTROSTATIC MOMENTS
          ----------------------------

 POINT   1           X           Y           Z (BOHR)    CHARGE
                 3.460370   -2.675225   -0.992195        0.00 (A.U.)
         DX          DY          DZ         /D/  (DEBYE)
    -1.278346    1.850268    3.301978    3.995087
 INCLUDING PCM SURFACE CHARGES, TOTAL CHARGE=   -0.004693, AND TOTAL DIPOLE IS
         DX          DY          DZ         /D/  (DEBYE)
    -0.057215    0.101889    0.095659    0.151015
 ...... END OF PROPERTY EVALUATION ......
 STEP CPU TIME =     0.01 TOTAL CPU TIME =       14.5 (    0.2 MIN)
 TOTAL WALL CLOCK TIME=       14.5 SECONDS, CPU UTILIZATION IS  99.59%

     --------------------------------------------------
          AMES LABORATORY DETERMINANTAL FULL CI
     PROGRAM WRITTEN BY JOE IVANIC AND KLAUS RUEDENBERG
     --------------------------------------------------

 THE POINT GROUP                  =   C1      
 THE STATE SYMMETRY               =   A       
 NUMBER OF CORE ORBITALS          =    0
 NUMBER OF ACTIVE ORBITALS        =    8
 NUMBER OF ALPHA ELECTRONS        =    8 (   8 ACTIVE)
 NUMBER OF BETA ELECTRONS         =    8 (   8 ACTIVE)
 NUMBER OF OCCUPIED ORBITALS      =    8
 NUMBER OF CI STATES REQUESTED    =    1
 NUMBER OF CI STARTING VECTORS    =    1
 MAX. NO. OF CI EXPANSION VECTORS =   10
 SIZE OF INITIAL CI GUESS MATRIX  =  300
 MAX. NO. OF CI ITERS/STATE       =  100
 CI DIAGONALIZATION CRITERION     = 1.00E-06
 PURE SPIN STATE AVERAGED 1E- AND 2E- DENSITY MATRIX OPTION=.T.
 STATE=   1 DM2 WEIGHT=   1.00000

 CORRELATION ENERGY ANALYSIS      =    F

 SYMMETRIES FOR THE   0 CORE,   8 ACTIVE ARE

   ACTIVE= A     A     A     A     A     A     A     A   

 ==================================================================
 DETERMINANTAL MULTIREFERENCE 2ND ORDER PERTURBATION THEORY (MRPT2)
                  PROGRAM WRITTEN BY JOE IVANIC
         ADVANCED BIOMEDICAL COMPUTING CENTER, NCI-FREDERICK
 ==================================================================

 THE POINT GROUP                  =   C1      
 THE STATE SYMMETRY               =   A       
 NUMBER OF CORE     ORBITALS      =    0
 NUMBER OF VALENCE  ORBITALS      =    0
 NUMBER OF ACTIVE   ORBITALS      =    8
 NUMBER OF EXTERNAL ORBITALS      =   80
 NUMBER OF ALPHA ELECTRONS        =    8 (   0 VALENCE) (   8 ACTIVE)
 NUMBER OF BETA ELECTRONS         =    8 (   0 VALENCE) (   8 ACTIVE)
 DENOMINATOR SHIFT PARAMETER      =    0.00000000

 DEFAULTING TO MCSCF INPUT TO DETERMINE STATES IN MRPT:-

 INPUT NO. OF STATES OF SPIN  0.0 =    1
 THESE WOULD SEEM TO BE CI STATES =
    1

 PERTURBATION THEORY OPTIONS:-

 H0 = DIAGONAL ELEMENTS OF FOCK ENERGY MATRIX
 CANONICAL FOCK ORBITALS USED IN ACTIVE SPACE
 VALENCE, EXTERNAL ORBITALS FROM BLOCK DIAGONALIZED FOCK MATRICES

 REFERENCE CI PARAMETERS:-

 NUMBER OF CI STATES REQUESTED    =    1
 NUMBER OF CI STARTING VECTORS    =    1
 MAX. NO. OF CI EXPANSION VECTORS =   10
 SIZE OF INITIAL CI GUESS MATRIX  =  300
 MAX. NO. OF CI ITERS/STATE       =  100
 CI DIAGONALIZATION CRITERION     = 1.00E-06

 SYMMETRIES FOR THE   0 CORE,   0 VALENCE,   8 ACTIVE,  80 EXTERNAL ARE

     CORE=

  VALENCE=

   ACTIVE= A     A     A     A     A     A     A     A   

 EXTERNAL= A     A     A     A     A     A     A     A     A     A   
           A     A     A     A     A     A     A     A     A     A   
           A     A     A     A     A     A     A     A     A     A   
           A     A     A     A     A     A     A     A     A     A   
           A     A     A     A     A     A     A     A     A     A   
           A     A     A     A     A     A     A     A     A     A   
           A     A     A     A     A     A     A     A     A     A   
           A     A     A     A     A     A     A     A     A     A   

     =========================================
     EXECUTING INITIAL CI FOR REFERENCE STATES
     =========================================

 TRANSFORMING INTEGRALS (OVER THE ACTIVE SPACE ONLY) FOR THE CI...

     --------------------------------------------
     PARTIAL TWO ELECTRON INTEGRAL TRANSFORMATION
     --------------------------------------------

 NUMBER OF CORE MOLECULAR ORBITALS     =    0
 NUMBER OF OCCUPIED MOLECULAR ORBITALS =    8
 TOTAL NUMBER OF MOLECULAR ORBITALS    =    8
 TOTAL NUMBER OF ATOMIC ORBITALS       =  100
 THRESHOLD FOR KEEPING TRANSFORMED 2E- INTEGRALS = 1.000E-20
 AO INTEGRALS WILL BE READ IN FROM DISK...

 PLAN A: REQUIREMENTS FOR FULLY IN-MEMORY TRANSFORMATION:
 # OF WORDS AVAILABLE =             99972717
 # OF WORDS NEEDED    =              4150202

 CHOOSING IN MEMORY PARTIAL TRANSFORMATION...
 TOTAL NUMBER OF TRANSFORMED 2E- INTEGRALS KEPT =          666
 ... END OF INTEGRAL TRANSFORMATION ...
 STEP CPU TIME =     0.39 TOTAL CPU TIME =       14.9 (    0.2 MIN)
 TOTAL WALL CLOCK TIME=       14.9 SECONDS, CPU UTILIZATION IS  99.53%

     --------------------------------------------------
          AMES LABORATORY DETERMINANTAL FULL CI
     PROGRAM WRITTEN BY JOE IVANIC AND KLAUS RUEDENBERG
     --------------------------------------------------

 THE NUMBER OF DETERMINANTS HAVING SPACE SYMMETRY A  
 IN POINT GROUP C1   WITH SZ=  0.0 IS              1
 WHICH INCLUDES              1 CSFS WITH S=  0.0
 THE DETERMINANT FULL CI REQUIRES          181724 WORDS
 SMALL CI MATRIX, JUST USING INCORE DIAGONALIZATION...

 CI EIGENVECTORS WILL BE LABELED IN GROUP=C1      
 PRINTING ALL NON-ZERO CI COEFFICIENTS

 STATE   1  ENERGY=      -113.8810742703  S=  0.00  SZ=  0.00  SPACE SYM=A   

  ALPHA   |  BETA    | CI COEFFICIENT
----------|----------|---------------
 11111111 | 11111111 |                                                                                                       1.0000000000
 ..... DONE WITH DETERMINANT CI COMPUTATION .....
 STEP CPU TIME =     0.00 TOTAL CPU TIME =       14.9 (    0.2 MIN)
 TOTAL WALL CLOCK TIME=       14.9 SECONDS, CPU UTILIZATION IS  99.46%

     ---------------------------
     ONE PARTICLE DENSITY MATRIX
     ---------------------------

 DENSITY MATRIX WILL BE SAVED FOR PROPERTIES OF STATE   1

 CI EIGENSTATE   1 TOTAL ENERGY =     -113.8810742703

 1-PARTICLE DENSITY MATRIX IN MO BASIS

             1           2           3           4           5

    1    2.0000000
    2    0.0000000   2.0000000
    3    0.0000000   0.0000000   2.0000000
    4    0.0000000   0.0000000   0.0000000   2.0000000
    5    0.0000000   0.0000000   0.0000000   0.0000000   2.0000000
    6    0.0000000   0.0000000   0.0000000   0.0000000   0.0000000
    7    0.0000000   0.0000000   0.0000000   0.0000000   0.0000000
    8    0.0000000   0.0000000   0.0000000   0.0000000   0.0000000

             6           7           8

    6    2.0000000
    7    0.0000000   2.0000000
    8    0.0000000   0.0000000   2.0000000
 ..... DONE WITH ONE PARTICLE DENSITY MATRIX .....
 STEP CPU TIME =     0.00 TOTAL CPU TIME =       14.9 (    0.2 MIN)
 TOTAL WALL CLOCK TIME=       14.9 SECONDS, CPU UTILIZATION IS  99.46%
 ORBITAL CANONICALIZATION ALREADY DONE BY MCSCF PROGRAM
 .... DONE CANONICALIZING MOLECULAR ORBITALS ....
 STEP CPU TIME =     0.14 TOTAL CPU TIME =       15.0 (    0.2 MIN)
 TOTAL WALL CLOCK TIME=       15.1 SECONDS, CPU UTILIZATION IS  99.54%

     ===============================
     EXECUTING SINGLE STATE DET-MRPT
     ===============================
     DETERMINING PT CORRECTION FOR CI STATE    1

 TRANSFORMING INTEGRALS OVER ALL ORBITALS (EXCEPT FROZEN CORE) FOR THE PT...

     --------------------------------------------
     PARTIAL TWO ELECTRON INTEGRAL TRANSFORMATION
     --------------------------------------------

 NUMBER OF CORE MOLECULAR ORBITALS     =    0
 NUMBER OF OCCUPIED MOLECULAR ORBITALS =    8
 TOTAL NUMBER OF MOLECULAR ORBITALS    =   88
 TOTAL NUMBER OF ATOMIC ORBITALS       =  100
 THRESHOLD FOR KEEPING TRANSFORMED 2E- INTEGRALS = 1.000E-20
 AO INTEGRALS WILL BE READ IN FROM DISK...

 PLAN A: REQUIREMENTS FOR FULLY IN-MEMORY TRANSFORMATION:
 # OF WORDS AVAILABLE =             99972717
 # OF WORDS NEEDED    =              4150202

 CHOOSING IN MEMORY PARTIAL TRANSFORMATION...
 TOTAL NUMBER OF TRANSFORMED 2E- INTEGRALS KEPT =       345466
 ... END OF INTEGRAL TRANSFORMATION ...
 STEP CPU TIME =     0.90 TOTAL CPU TIME =       15.9 (    0.3 MIN)
 TOTAL WALL CLOCK TIME=       16.0 SECONDS, CPU UTILIZATION IS  99.50%

 CORE    ELECTRONIC BARYCENTRIC 0TH ORDER ENERGY  =     0.000000000

 *** CI STATE   1 ***

 VAL/ACT ELECTRONIC BARYCENTRIC 0TH ORDER ENERGY  =   -72.819896838
 TOTAL   ELECTRONIC BARYCENTRIC 0TH ORDER ENERGY  =   -72.819896838

 TOTAL   ELECTRONIC       0TH + 1ST ORDER ENERGY  =  -143.401814093
 TOTAL   (MCSCF)          0TH + 1ST ORDER ENERGY  =  -113.881074270

 THE DETERMINANT MRPT REQUIRES      431480 WORDS

 INITIAL CI VECTORS READ FROM DISK, STATES =   1

 TIME FOR 2ND ORDER ENERGY E(2) CALCULATION :        0.0

                     2ND ORDER ENERGY CORRECTION  =        -0.4329835450
 TOTAL MRPT2, E(MP2) 0TH + 1ST + 2ND ORDER ENERGY =      -114.3140578154

 BREAKDOWN OF E(2) ACCORDING TO CLASS OF EXCITED DETERMINANT

  **** NOTE **** THIS MEANS THAT THE E(2) ENERGY IS SORTED ACCORDING TO
 CONTRIBUTIONS FROM EXCITED DETERMINANTS, NOT ACCORDING TO EXCITATION TYPES:
     V = VALENCE, A = ACTIVE, E = EXTERNAL

                   EXTERNAL DETERMINANT CREATED BY:        E(2)

                                             V -> A     0.000000000
                                             V -> E     0.000000000
                                             A -> E    -0.000000000
                                            VV -> AA    0.000000000
                                            VV -> AE    0.000000000
           (2 ELECTRONS ARE DIFFERENT SPIN) VA -> AE    0.000000000
                                            VV -> EE    0.000000000
                                            VA -> EE    0.000000000
                                            AA -> EE   -0.432983545
                                            ------------------------
                                              TOTAL    -0.432983545


 ..... DONE WITH MP2 ENERGY .....
 STEP CPU TIME =     0.01 TOTAL CPU TIME =       15.9 (    0.3 MIN)
 TOTAL WALL CLOCK TIME=       16.0 SECONDS, CPU UTILIZATION IS  99.50%

             ----------------------------------------------
             -------   RESULTS OF PCM CALCULATION   -------
             ----------------------------------------------

 FREE ENERGY IN SOLVENT = <PSI| H(0)+V/2 |PSI>       =     -114.3140578154 A.U.
 INTERNAL ENERGY IN SOLVENT = <PSI| H(0) |PSI>       =     -114.3010022163 A.U.
 DELTA INTERNAL ENERGY =  <D-PSI| H(0) |D-PSI>       =        0.0000000000 A.U.
 ELECTROSTATIC INTERACTION                           =       -0.0130555991 A.U.
 PIEROTTI CAVITATION ENERGY                          =        0.0000000000 A.U.
 DISPERSION FREE ENERGY                              =        0.0000000000 A.U.
 REPULSION FREE ENERGY                               =        0.0000000000 A.U.
 TOTAL INTERACTION (DELTA + ES + CAV + DISP + REP)   =       -0.0130555991 A.U.
 TOTAL FREE ENERGY IN SOLVENT                        =     -114.3140578154 A.U.

 FREE ENERGY IN SOLVENT       =      -71733.16 KCAL/MOL
 INTERNAL ENERGY IN SOLVENT   =      -71724.97 KCAL/MOL
 DELTA INTERNAL ENERGY        =           0.00 KCAL/MOL
 ELECTROSTATIC INTERACTION    =          -8.19 KCAL/MOL
 PIEROTTI CAVITATION ENERGY   =           0.00 KCAL/MOL
 DISPERSION FREE ENERGY       =           0.00 KCAL/MOL
 REPULSION FREE ENERGY        =           0.00 KCAL/MOL
 TOTAL INTERACTION            =          -8.19 KCAL/MOL
 TOTAL FREE ENERGY IN SOLVENT =      -71733.16 KCAL/MOL

           -----  ENERGY CHANGE FROM GAS PHASE TO SOLVENT  -----
              ELEC          ELEC+CAV    ELEC+CAV+DIS+REP
            -3.516            -3.516              -3.516 KCAL/MOL

 -INTERNAL ENERGY IN SOLVENT-
    OMITS ES,CAV,DISP,REP (USES SOLVATED ORBITALS IN THE GAS PHASE HAMILTONIAN)
 -FREE ENERGY IN SOLVENT-
    INCLUDES ES+DISP+REP WHICH ARE IN THE SELF-CONSISTENT WAVEFUNCTION.
 -TOTAL FREE ENERGY IN SOLVENT-
    INCLUDES ES+DISP+REP+CAV, MEANING CAVITATION IS NOT IN THE SCF ENERGY.

 .... DONE PRINTING PCM SOLVENT SUMMARY ....
 STEP CPU TIME =     0.00 TOTAL CPU TIME =       15.9 (    0.3 MIN)
 TOTAL WALL CLOCK TIME=       16.0 SECONDS, CPU UTILIZATION IS  99.50%

   1 warning(s) detected.
     A line exceeding 80 characters begins with "!  This uses the MRM".
 There may be a problem in your input file.

              4463368  WORDS OF DYNAMIC MEMORY USED
 EXECUTION OF GAMESS TERMINATED NORMALLY Fri Jun  2 05:10:28 2017
 DDI: 263640 bytes (0.3 MB / 0 MWords) used by master data server.

 ----------------------------------------
 CPU timing information for all processes
 ========================================
 0: 14.910 + 1.07 = 15.918
 ----------------------------------------
 ddikick.x: exited gracefully.
unset echo
----- accounting info -----
Files used on the master node compute-0-6.local were:
-rw-rw-r-- 1 sarom sarom    144106 Jun  2 05:10 /scratch/pcm_h2co_mrmp2-pcm_scf-ref.F05
-rw-rw-r-- 1 sarom sarom 149773312 Jun  2 05:10 /scratch/pcm_h2co_mrmp2-pcm_scf-ref.F08
-rw-rw-r-- 1 sarom sarom   4351720 Jun  2 05:10 /scratch/pcm_h2co_mrmp2-pcm_scf-ref.F09
-rw-rw-r-- 1 sarom sarom   2944800 Jun  2 05:10 /scratch/pcm_h2co_mrmp2-pcm_scf-ref.F10
-rw-rw-r-- 1 sarom sarom        40 Jun  2 05:10 /scratch/pcm_h2co_mrmp2-pcm_scf-ref.F12
-rw-rw-r-- 1 sarom sarom   1819296 Jun  2 05:10 /scratch/pcm_h2co_mrmp2-pcm_scf-ref.F13
-rw-rw-r-- 1 sarom sarom       296 Jun  2 05:10 /scratch/pcm_h2co_mrmp2-pcm_scf-ref.F15
-rw-rw-r-- 1 sarom sarom    261528 Jun  2 05:10 /scratch/pcm_h2co_mrmp2-pcm_scf-ref.F23
-rw-rw-r-- 1 sarom sarom         8 Jun  2 05:10 /scratch/pcm_h2co_mrmp2-pcm_scf-ref.F26
-rw-rw-r-- 1 sarom sarom         0 Jun  2 05:10 /scratch/pcm_h2co_mrmp2-pcm_scf-ref.F27
rm: cannot remove `/scratch/sarom': Is a directory
rm: cannot remove `/scratch/tmp': Is a directory
ls: No match.
ls: No match.
ls: No match.
Fri Jun  2 05:10:31 CDT 2017
0.245u 0.196s 0:19.51 2.2%	0+0k 288+640io 0pf+0w
/opt/gridengine/default/spool/compute-0-6/active_jobs/24039.1/pe_hostfile compute-0-6.local
