-catch_rsh /opt/gridengine/default/spool/compute-0-2/active_jobs/23853.1/pe_hostfile
compute-0-2
The primary node assigned by SGE to this run is compute-0-2
Warning: no access to tty (Bad file descriptor).
Thus no job control in this shell.
Deleting shmid=3964928.
Deleting shmid=3997697.
Deleting shmid=4227074.
source /home/sarom/gamess.github.2017-05-31.14.06/install.info
setenv GMS_PATH /home/sarom/gamess.github.2017-05-31.14.06
setenv GMS_BUILD_DIR /home/sarom/gamess.github.2017-05-31.14.06
setenv GMS_TARGET linux64
setenv GMS_FORTRAN gfortran
setenv GMS_GFORTRAN_VERNO 4.4
setenv GMS_MATHLIB mkl-so
setenv GMS_MATHLIB_PATH /share/apps/intel/compilers_and_libraries_2017.1.132/linux/mkl/lib/intel64
setenv GMS_MKL_VERNO 12
setenv GMS_DDI_COMM sockets
setenv GMS_LIBCCHEM false
setenv GMS_EIGEN_PATH
setenv GMS_PHI false
setenv GMS_SHMTYPE sysv
setenv GMS_OPENMP false
unset echo
trf-guga
tests/trf
----- GAMESS execution script 'rungms' -----
This job is running on host compute-0-2.local
under operating system Linux at Fri Jun 2 03:33:27 CDT 2017
Available scratch disk space (Kbyte units) at beginning of the job is
Filesystem           1K-blocks      Used Available Use% Mounted on
/dev/sda1             16126920   3867312  11440408  26% /
GAMESS temporary binary files will be written to /scratch
GAMESS supplementary output files will be written to /home/sarom/restart
Copying input file trf-guga.inp to your run's scratch directory...
cp tests/trf/trf-guga.inp /scratch/trf-guga.F05
unset echo
The generated host list is
compute-0-2.local
/home/sarom/gamess.github.2017-05-31.14.06/ddikick.x /home/sarom/gamess.github.2017-05-31.14.06/gamess.00.x trf-guga -ddi 1 1 compute-0-2.local -scr /scratch

 Distributed Data Interface kickoff program.
 Initiating 1 compute processes on 1 nodes to run the following command:
 /home/sarom/gamess.github.2017-05-31.14.06/gamess.00.x trf-guga 

          ******************************************************
          *         GAMESS VERSION = 20 APR 2017 (R1)          *
          *             FROM IOWA STATE UNIVERSITY             *
          * M.W.SCHMIDT, K.K.BALDRIDGE, J.A.BOATZ, S.T.ELBERT, *
          *   M.S.GORDON, J.H.JENSEN, S.KOSEKI, N.MATSUNAGA,   *
          *          K.A.NGUYEN, S.J.SU, T.L.WINDUS,           *
          *       TOGETHER WITH M.DUPUIS, J.A.MONTGOMERY       *
          *         J.COMPUT.CHEM.  14, 1347-1363(1993)        *
          **************** 64 BIT LINUX VERSION ****************

  SINCE 1993, STUDENTS AND POSTDOCS WORKING AT IOWA STATE UNIVERSITY
  AND ALSO IN THEIR VARIOUS JOBS AFTER LEAVING ISU HAVE MADE IMPORTANT
  CONTRIBUTIONS TO THE CODE:
     IVANA ADAMOVIC, CHRISTINE AIKENS, YURI ALEXEEV, POOJA ARORA,
     ANDREY ASADCHEV, ROB BELL, PRADIPTA BANDYOPADHYAY, JONATHAN BENTZ,
     BRETT BODE, KURT BRORSEN, CALEB CARLIN, GALINA CHABAN, WEI CHEN,
     CHEOL HO CHOI, PAUL DAY, ALBERT DEFUSCO, NUWAN DESILVA, TIM DUDLEY,
     DMITRI FEDOROV, GRAHAM FLETCHER, MARK FREITAG, KURT GLAESEMANN,
     DAN KEMP, GRANT MERRILL, NORIYUKI MINEZAWA, JONATHAN MULLIN,
     TAKESHI NAGATA, SEAN NEDD, HEATHER NETZLOFF, BOSILJKA NJEGIC, RYAN OLSON,
     MIKE PAK, SPENCER PRUITT, LUKE ROSKOP, JIM SHOEMAKER, LYUDMILA SLIPCHENKO,
     TONY SMITH, SAROM SOK LEANG, JIE SONG, TETSUYA TAKETSUGU, SIMON WEBB,
     PENG XU, SOOHAENG YOO, FEDERICO ZAHARIEV

  ADDITIONAL CODE HAS BEEN PROVIDED BY COLLABORATORS IN OTHER GROUPS:
     IOWA STATE UNIVERSITY:
          JOE IVANIC, AARON WEST, LAIMUTIS BYTAUTAS, KLAUS RUEDENBERG
     UNIVERSITY OF TOKYO: KIMIHIKO HIRAO, TAKAHITO NAKAJIMA,
          TAKAO TSUNEDA, MUNEAKI KAMIYA, SUSUMU YANAGISAWA,
          KIYOSHI YAGI, MAHITO CHIBA, SEIKEN TOKURA, NAOAKI KAWAKAMI
     UNIVERSITY OF AARHUS: FRANK JENSEN
     UNIVERSITY OF IOWA: VISVALDAS KAIRYS, HUI LI
     NATIONAL INST. OF STANDARDS AND TECHNOLOGY: WALT STEVENS, DAVID GARMER
     UNIVERSITY OF PISA: BENEDETTA MENNUCCI, JACOPO TOMASI
     UNIVERSITY OF MEMPHIS: HENRY KURTZ, PRAKASHAN KORAMBATH
     UNIVERSITY OF ALBERTA: TOBY ZENG, MARIUSZ KLOBUKOWSKI
     UNIVERSITY OF NEW ENGLAND: MARK SPACKMAN
     MIE UNIVERSITY: HIROAKI UMEDA
     NAT. INST. OF ADVANCED INDUSTRIAL SCIENCE AND TECHNOLOGY: KAZUO KITAURA
     MICHIGAN STATE UNIVERSITY:
          KAROL KOWALSKI, MARTA WLOCH, JEFFREY GOUR, JESSE LUTZ,
          WEI LI, PIOTR PIECUCH
     UNIVERSITY OF SILESIA: MONIKA MUSIAL, STANISLAW KUCHARSKI
     FACULTES UNIVERSITAIRES NOTRE-DAME DE LA PAIX:
          OLIVIER QUINET, BENOIT CHAMPAGNE
     UNIVERSITY OF CALIFORNIA - SANTA BARBARA: BERNARD KIRTMAN
     INSTITUTE FOR MOLECULAR SCIENCE:
          KAZUYA ISHIMURA, MICHIO KATOUDA, AND SHIGERU NAGASE
     UNIVERSITY OF NOTRE DAME: ANNA POMOGAEVA, DAN CHIPMAN
     KYUSHU UNIVERSITY:
          HARUYUKI NAKANO,
          FENG LONG GU, JACEK KORCHOWIEC, MARCIN MAKOWSKI, AND YURIKO AOKI,
          HIROTOSHI MORI AND EISAKU MIYOSHI
     PENNSYLVANIA STATE UNIVERSITY:
          TZVETELIN IORDANOV, CHET SWALINA, JONATHAN SKONE,
          SHARON HAMMES-SCHIFFER
     WASEDA UNIVERSITY:
          MASATO KOBAYASHI, TOMOKO AKAMA, TSUGUKI TOUMA,
          TAKESHI YOSHIKAWA, YASUHIRO IKABATA, JUNJI SEINO,
          YUYA NAKAJIMA, HIROMI NAKAI
     NANJING UNIVERSITY: SHUHUA LI
     UNIVERSITY OF NEBRASKA:
          PEIFENG SU, DEJUN SI, NANDUN THELLAMUREGE, YALI WANG, HUI LI
     UNIVERSITY OF ZURICH: ROBERTO PEVERATI, KIM BALDRIDGE
     N. COPERNICUS UNIVERSITY AND JACKSON STATE UNIVERSITY:
          MARIA BARYSZ
     UNIVERSITY OF COPENHAGEN: Jimmy Kromann, CASPER STEINMANN
     TOKYO INSTITUTE OF TECHNOLOGY: HIROYA NAKATA
     NAGOYA UNIVERSITY: YOSHIO NISHIMOTO, STEPHAN IRLE
     MOSCOW STATE UNIVERSITY: VLADIMIR MIRONOV

 EXECUTION OF GAMESS BEGUN Fri Jun  2 03:33:27 2017

            ECHO OF THE FIRST FEW INPUT CARDS -
 INPUT CARD>!  Rotated HP=PH...at the cis to trans rotational saddle point                  
 INPUT CARD>!  M.W.Schmidt & M.S.Gordon  Inorg.Chem.  1986, 25, 248-254.                    
 INPUT CARD>!  Only the true core, and the PH bonds are uncorrelated.                       
 INPUT CARD>!  There are 42 AOs and 55,017 CSFs.                                            
 INPUT CARD>!                                                                               
 INPUT CARD>!  The  GUGA program's EIGENSTATE is -682.6610342879                            
 INPUT CARD>!                                                                               
 INPUT CARD>!  This run takes 19 seconds on 2.66 GHz Cloverton (15 Apr 2015)                
 INPUT CARD>!      p=4 needed 12                                                            
 INPUT CARD>!        answers have not changed since November 2005                           
 INPUT CARD>!    GUGA will create a 500 MByte disk file of Hamiltonian loops                
 INPUT CARD>!                                                                               
 INPUT CARD> $CONTRL SCFTYP=NONE CITYP=guga RUNTYP=ENERGY NZVAR=6 UNITS=BOHR $END           
 INPUT CARD> $SYSTEM parall=.true. mwords=5 memddi=5 $END                                   
 INPUT CARD> $ZMAT   IZMAT(1)=1,1,2, 1,1,3, 1,2,4, 2,3,1,2, 2,4,2,1, 3,3,1,2,4 $END         
 INPUT CARD> $BASIS  GBASIS=N31 NGAUSS=6 NDFUNC=1 $END                                      
 INPUT CARD> $GUESS  GUESS=MOREAD NORB=42 $END                                              
 INPUT CARD> $trans  dirtrf=.true. $end                                                     
 INPUT CARD>                                                                                
 INPUT CARD>!      input for GUGA SOCI computation        (read if cityp equals guga)       
 INPUT CARD> $CIDRT  GROUP=C2 SOCI=.TRUE. NFZC=12 NDOC=4 NVAL=2 NEXT=-1 $END                
 INPUT CARD> $gugdia eref=-682.5643201977 nref=57 $end                                      
 INPUT CARD>!      input for determinant SOCI computation (read if cityp equals fsoci)      
 INPUT CARD> $cidet  ncore=12 nact=6 nels=8 $end                                            
 INPUT CARD> $sodet  $end                                                                   
 INPUT CARD>                                                                                
 INPUT CARD> $DATA                                                                          
 INPUT CARD>TWISTED HP=PH...C2...SOCI/6-31G*//MCSCF/3-21G*                                  
 INPUT CARD>CN  2                                                                           
 INPUT CARD>                                                                                
 INPUT CARD>PHOSPHORUS  15.   -2.1539327751     -0.0635663901        0.0704793107           
 INPUT CARD>HYDROGEN     1.   -2.4262203694      1.8113426617       -1.7980858230           
 INPUT CARD> $END                                                                           
 INPUT CARD>                                                                                
 INPUT CARD>TWISTED HP=PH...C2...MCSCF/6-31G*//MCSCF/3-21G*(6D)                             
 INPUT CARD>--- ALL MCSCF MO-S,E= -682.562499558 -- 21:55:49 13 NOV 84 (318)                
 INPUT CARD> $VEC                                                                           
 INPUT CARD> 1  1 0.70457741D+00 0.95426969D-02-0.64997978D-04-0.32248418D-04-0.29068583D-04
 INPUT CARD> 1  2-0.15462438D-01 0.22794915D-03 0.31850295D-04 0.20638244D-04 0.33858422D-02
 INPUT CARD> 1  3-0.68518773D-03-0.10325114D-03-0.97347312D-04 0.51727119D-02 0.52514509D-02
 INPUT CARD> 1  4 0.52517084D-02-0.47682597D-05 0.11256078D-05 0.25048112D-05-0.70457741D+00
 INPUT CARD> 1  5-0.95426969D-02-0.64997978D-04-0.32248418D-04 0.29068583D-04 0.15462438D-01
 INPUT CARD> 1  6 0.22794915D-03 0.31850295D-04-0.20638244D-04-0.33858422D-02-0.68518773D-03
 INPUT CARD> 1  7-0.10325114D-03 0.97347312D-04-0.51727119D-02-0.52514509D-02-0.52517084D-02
 INPUT CARD> 1  8 0.47682597D-05 0.11256078D-05 0.25048112D-05 0.10444327D-03-0.23042234D-03
 INPUT CARD> 1  9-0.10444327D-03 0.23042234D-03                                             
 INPUT CARD> 2  1 0.70458672D+00 0.95412189D-02-0.11923397D-04-0.31354519D-04-0.31518983D-04
 INPUT CARD> 2  2-0.15250370D-01-0.70883187D-04 0.24458504D-04 0.31679395D-04 0.23014628D-02
 INPUT CARD> 2  3-0.51429643D-04-0.18242870D-03-0.15150106D-03 0.53750896D-02 0.52467737D-02
 INPUT CARD> 2  4 0.52463137D-02 0.80028216D-05-0.41575885D-05 0.59246400D-05 0.70458672D+00
    5000000 WORDS OF MEMORY AVAILABLE

     BASIS OPTIONS
     -------------
     GBASIS=N31          IGAUSS=       6      POLAR=POPN31  
     NDFUNC=       1     NFFUNC=       0     DIFFSP=       F
     NPFUNC=       0      DIFFS=       F     BASNAM=        


     RUN TITLE
     ---------
 TWISTED HP=PH...C2...SOCI/6-31G*//MCSCF/3-21G*                                  

 THE POINT GROUP OF THE MOLECULE IS CN      
 THE ORDER OF THE PRINCIPAL AXIS IS     2

 ATOM      ATOMIC                      COORDINATES (BOHR)
           CHARGE         X                   Y                   Z
 PHOSPHORUS 15.0     2.1539327751        0.0635663901        0.0704793107
 PHOSPHORUS 15.0    -2.1539327751       -0.0635663901        0.0704793107
 HYDROGEN    1.0     2.4262203694       -1.8113426617       -1.7980858230
 HYDROGEN    1.0    -2.4262203694        1.8113426617       -1.7980858230

          INTERNUCLEAR DISTANCES (ANGS.)
          ------------------------------

                1 PHOSUS     2 PHOSUS     3 HYDR       4 HYDR  

   1 PHOSUS  0.0000000    2.2806169 *  1.4081446 *  2.7762426 *
   2 PHOSUS  2.2806169 *  0.0000000    2.7762426 *  1.4081446 *
   3 HYDR    1.4081446 *  2.7762426 *  0.0000000    3.2044743  
   4 HYDR    2.7762426 *  1.4081446 *  3.2044743    0.0000000  

  * ... LESS THAN  3.000


     ATOMIC BASIS SET
     ----------------
 THE CONTRACTED PRIMITIVE FUNCTIONS HAVE BEEN UNNORMALIZED
 THE CONTRACTED BASIS FUNCTIONS ARE NOW NORMALIZED TO UNITY

  SHELL TYPE  PRIMITIVE        EXPONENT          CONTRACTION COEFFICIENT(S)

 PHOSPHORUS

      6   S       1         19413.3000000    0.001851598923
      6   S       2          2909.4200000    0.014206191735
      6   S       3           661.3640000    0.069999459277
      6   S       4           185.7590000    0.240078860331
      6   S       5            59.1943000    0.484761717984
      6   S       6            20.0310000    0.335199804993

      7   L       7           339.4780000   -0.002782170105    0.004564616191
      7   L       8            81.0101000   -0.036049901354    0.033693571881
      7   L       9            25.8780000   -0.116631004382    0.139754883368
      7   L      10             9.4522100    0.096832803638    0.339361716786
      7   L      11             3.6656600    0.614418023082    0.450920623685
      7   L      12             1.4674600    0.403798015170    0.238585800889

      8   L      13             2.1562300   -0.252924113863   -0.017765312733
      8   L      14             0.7489970    0.032851844678    0.274058196433
      8   L      15             0.2831450    1.081254761783    0.785421562957

      9   L      16             0.0998317    1.000000000000    1.000000000000

     10   D      17             0.5500000    1.000000000000

 HYDROGEN  

     13   S      18            18.7311370    0.033494604338
     13   S      19             2.8253944    0.234726953484
     13   S      20             0.6401217    0.813757326146

     14   S      21             0.1612778    1.000000000000

 TOTAL NUMBER OF BASIS SET SHELLS             =   14
 NUMBER OF CARTESIAN GAUSSIAN BASIS FUNCTIONS =   42
 NUMBER OF ELECTRONS                          =   32
 CHARGE OF MOLECULE                           =    0
 SPIN MULTIPLICITY                            =    1
 NUMBER OF OCCUPIED ORBITALS (ALPHA)          =   16
 NUMBER OF OCCUPIED ORBITALS (BETA )          =   16
 TOTAL NUMBER OF ATOMS                        =    4
 THE NUCLEAR REPULSION ENERGY IS       69.3646499608

     $CONTRL OPTIONS
     ---------------
 SCFTYP=NONE         RUNTYP=ENERGY       EXETYP=RUN     
 MPLEVL=       0     CITYP =GUGA         CCTYP =NONE         VBTYP =NONE    
 DFTTYP=NONE         TDDFT =NONE    
 MULT  =       1     ICHARG=       0     NZVAR =       6     COORD =UNIQUE  
 PP    =NONE         RELWFN=NONE         LOCAL =NONE         NUMGRD=       F
 ISPHER=      -1     NOSYM =       0     MAXIT =      30     UNITS =BOHR    
 PLTORB=       F     MOLPLT=       F     AIMPAC=       F     FRIEND=        
 NPRINT=       7     IREST =       0     GEOM  =INPUT   
 NORMF =       0     NORMP =       0     ITOL  =      20     ICUT  =       9
 INTTYP=BEST         GRDTYP=BEST         QMTTOL= 1.0E-06

     $SYSTEM OPTIONS
     ---------------
  REPLICATED MEMORY=     5000000 WORDS (ON EVERY NODE).
 DISTRIBUTED MEMDDI=           5 MILLION WORDS IN AGGREGATE,
 MEMDDI DISTRIBUTED OVER   1 PROCESSORS IS     5000000 WORDS/PROCESSOR.
 TOTAL MEMORY REQUESTED ON EACH PROCESSOR=    10000000 WORDS.
 TIMLIM=      525600.00 MINUTES, OR     365.0 DAYS.
 PARALL= T  BALTYP=  DLB     KDIAG=    0  COREFL= F
 MXSEQ2=     300 MXSEQ3=     150  mem10=         0

          ----------------
          PROPERTIES INPUT
          ----------------

     MOMENTS            FIELD           POTENTIAL          DENSITY
 IEMOM =       1   IEFLD =       0   IEPOT =       0   IEDEN =       0
 WHERE =COMASS     WHERE =NUCLEI     WHERE =NUCLEI     WHERE =NUCLEI  
 OUTPUT=BOTH       OUTPUT=BOTH       OUTPUT=BOTH       OUTPUT=BOTH    
 IEMINT=       0   IEFINT=       0                     IEDINT=       0
                                                       MORB  =       0
          EXTRAPOLATION IN EFFECT
          SOSCF IN EFFECT
 ORBITAL PRINTING OPTION: NPREO=     1    42     2     1

     -------------------------------
     INTEGRAL TRANSFORMATION OPTIONS
     -------------------------------
     NWORD  =            0
     CUTOFF = 1.0E-09     MPTRAN =       0
     DIRTRF =       T     AOINTS =DUP     

          ----------------------
          INTEGRAL INPUT OPTIONS
          ----------------------
 NOPK  =       1 NORDER=       0 SCHWRZ=       T

   --- ENCODED Z MATRIX ---
 COORD  TYPE   I   J   K   L   M   N
    1      1    1   2
    2      1    1   3
    3      1    2   4
    4      2    3   1   2
    5      2    4   2   1
    6      3    3   1   2   4

 THE DETERMINANT OF THE G MATRIX IS 10**(    -4)


                     --------------------
                     INTERNAL COORDINATES
                     --------------------

                 - - ATOMS - -         COORDINATE      COORDINATE
 NO.   TYPE    I  J  K  L  M  N        (BOHR,RAD)       (ANG,DEG)
 ----------------------------------------------------------------
   1 STRETCH   1  2                     4.3097411       2.2806169
   2 STRETCH   1  3                     2.6610074       1.4081446
   3 STRETCH   2  4                     2.6610074       1.4081446
   4 BEND      3  1  2                  1.6523827      94.6745571
   5 BEND      4  2  1                  1.6523827      94.6745571
   6 TORSION   3  1  2  4              -1.5780271     -90.4142903

     ------------------------------------------
     THE POINT GROUP IS CN , NAXIS= 2, ORDER= 2
     ------------------------------------------

     DIMENSIONS OF THE SYMMETRY SUBSPACES ARE
 A   =   21     B   =   21

 ..... DONE SETTING UP THE RUN .....
 CPU     0: STEP CPU TIME=     0.02 TOTAL CPU TIME=        0.0 (    0.0 MIN)
 TOTAL WALL CLOCK TIME=        0.0 SECONDS, CPU UTILIZATION IS  50.00%

          ********************
          1 ELECTRON INTEGRALS
          ********************
 ...... END OF ONE-ELECTRON INTEGRALS ......
 CPU     0: STEP CPU TIME=     0.01 TOTAL CPU TIME=        0.0 (    0.0 MIN)
 TOTAL WALL CLOCK TIME=        0.0 SECONDS, CPU UTILIZATION IS  75.00%

          -------------
          GUESS OPTIONS
          -------------
          GUESS =MOREAD            NORB  =      42          NORDER=       0
          MIX   =       F          PRTMO =       F          PUNMO =       F
          TOLZ  = 1.0E-08          TOLE  = 1.0E-05
          SYMDEN=       F          PURIFY=       F

 INITIAL GUESS ORBITALS GENERATED BY MOREAD   ROUTINE.

 SYMMETRIES FOR INITIAL GUESS ORBITALS FOLLOW.   BOTH SET(S).
    16 ORBITALS ARE OCCUPIED (   10 CORE ORBITALS).
     1=B        2=A        3=A        4=B        5=A        6=B        7=B   
     8=A        9=A       10=B       11=A       12=B       13=A       14=B   
    15=A       16=B       17=A       18=B       19=B       20=A       21=A   
    22=B       23=A       24=B       25=B       26=A       27=A       28=A   
    29=B       30=B       31=A       32=B       33=A       34=B       35=A   
    36=B       37=A       38=B       39=B       40=A       41=A       42=B   
 ...... END OF INITIAL ORBITAL SELECTION ......
 CPU     0: STEP CPU TIME=     0.00 TOTAL CPU TIME=        0.0 (    0.0 MIN)
 TOTAL WALL CLOCK TIME=        0.0 SECONDS, CPU UTILIZATION IS  75.00%

                    ----------------------
                    AO INTEGRAL TECHNOLOGY
                    ----------------------
     S,P,L SHELL ROTATED AXIS INTEGRALS, REPROGRAMMED BY
        KAZUYA ISHIMURA (IMS) AND JOSE SIERRA (SYNSTAR).
     S,P,D,L SHELL ROTATED AXIS INTEGRALS PROGRAMMED BY
        KAZUYA ISHIMURA (INSTITUTE FOR MOLECULAR SCIENCE).
     S,P,D,F,G SHELL TO TOTAL QUARTET ANGULAR MOMENTUM SUM 5,
        ERIC PROGRAM BY GRAHAM FLETCHER (ELORET AND NASA ADVANCED
        SUPERCOMPUTING DIVISION, AMES RESEARCH CENTER).
     S,P,D,F,G,L SHELL GENERAL RYS QUADRATURE PROGRAMMED BY
        MICHEL DUPUIS (PACIFIC NORTHWEST NATIONAL LABORATORY).

          --------------------
          2 ELECTRON INTEGRALS
          --------------------

 DIRECT SCF METHOD SKIPS INTEGRAL STORAGE ON DISK.
 DIRECT TRANSFORMATION SKIPS AO INTEGRAL STORAGE ON DISK.
  ...... END OF TWO-ELECTRON INTEGRALS .....
 CPU     0: STEP CPU TIME=     0.01 TOTAL CPU TIME=        0.0 (    0.0 MIN)
 TOTAL WALL CLOCK TIME=        0.1 SECONDS, CPU UTILIZATION IS  66.67%

 GUGA CI OPTIONS      NRNFG     NPFLG
 ------------------------------------

 -DRT- TABLE          1         0
 TRANSFORMATION       1         0
 ENERGY MATRIX        1         0
 DIAGONALIZATION      1         0
 1E-DENSITY MATRIX    1         0
 2E-DENSITY MATRIX    0         0
 LAGRANGIAN MATRIX    0         0
------------------------------------

 -DRT- TABLE          0         0
 TRANSFORMATION   

          -----------------------     ----------------------------
          GUGA DISTINCT ROW TABLE     WRITTEN BY B.R.BROOKS,P.SAXE
          -----------------------     ----------------------------

      GROUP=C2           NPRT=       0
       FORS=       F   INTACT=       F
       FOCI=       F   MXNINT=   50000
       SOCI=       T   MXNEME=   10000
     IEXCIT=       0

      -CORE-    -INTERNAL-  -EXTERNAL-
     NFZC=  12   NDOC=   4   NEXT=  24
     NMCC=   0   NAOS=   0   NFZV=   0
                 NBOS=   0
                 NALP=   0
                 NVAL=   2

 THE MAXIMUM ELECTRON EXCITATION WILL BE   6

 SYMMETRIES FOR THE  12 CORE,   6 ACTIVE,  24 EXTERNAL MO-S ARE
     CORE= B     A     A     B     A     B     B     A     A     B   
           A     B   
   ACTIVE= A     B     A     B     A     B   
           DOC   DOC   DOC   DOC   VAL   VAL 
 EXTERNAL= B     A     A     B     A     B     B     A     A     A   
           B     B     A     B     A     B     A     B     A     B   
           B     A     A     B   

 MOLECULAR CHARGE          =    0
 NUMBER OF ALPHA ELECTRONS =   16
 NUMBER OF  BETA ELECTRONS =   16

 THE ELECTRONIC STATE IS  1-A   

 THE DISTINCT ROW TABLE HAS       198 ROWS.
  THE WAVEFUNCTION CONTAINS     55017 WALKS (CSF-S).

 TOTAL NUMBER OF INTEGRALS =      58253
 NUMBER OF INTEGRALS/GROUP =      50000
 NUMBER OF INTEGRAL GROUPS =          2
 MAXIMUM RECORD SIZES ARE   55017 FOR UNIT 11   55017 FOR UNIT 12
                            55017 FOR UNIT 15   50000 FOR UNIT 16
 ...... END OF -DRT- GENERATION ...... 
 CPU     0: STEP CPU TIME=     0.02 TOTAL CPU TIME=        0.1 (    0.0 MIN)
 TOTAL WALL CLOCK TIME=        0.1 SECONDS, CPU UTILIZATION IS  85.71%
 DDI: Creating Array [0] - 903 x 903 = 815409 words.
 DDI: Creating Array [1] - 903 x 903 = 815409 words.

     --------------------------------------------
     PARTIAL TWO ELECTRON INTEGRAL TRANSFORMATION
     --------------------------------------------

 NUMBER OF CORE MOLECULAR ORBITALS     =   12
 NUMBER OF OCCUPIED MOLECULAR ORBITALS =   42
 TOTAL NUMBER OF MOLECULAR ORBITALS    =   42
 TOTAL NUMBER OF ATOMIC ORBITALS       =   42
 THRESHOLD FOR KEEPING TRANSFORMED 2E- INTEGRALS = 1.000E-09

 -------------------------------     ------------------------------
 DISTRIBUTED DATA TRANSFORMATION     PROGRAM WRITTEN BY G. FLETCHER
 -------------------------------     ------------------------------

 THE DISTRIBUTED MEMORY REQUIRED FOR THIS STEP IS MEMDDI=         2 MWORDS
 CREATING DISTRIBUTED STORAGE FOR [OCC OCC|OCC OCC] INTEGRALS
 CREATING WORKSPACE OF SIZE VVOO
 FOR    1 PROCESSORS, THE REPLICATED MEMORY NEEDED IS      210353 WORDS.
 SCHWARZ INEQUALITY OVERHEAD:       902 INTEGRALS, T=        0.00

      DIRECT 4-INDEX TRANSFORMATION 
      SCHWARZ INEQUALITY TEST SKIPPED        411 INTEGRAL BLOCKS
 ----- FROZEN CORE ENERGY =      -740.2889983700
 ... END OF INTEGRAL TRANSFORMATION ...
 CPU     0: STEP CPU TIME=     0.26 TOTAL CPU TIME=        0.3 (    0.0 MIN)
 TOTAL WALL CLOCK TIME=        0.3 SECONDS, CPU UTILIZATION IS  94.12%

          ------------------------
          GUGA-CI INTEGRAL SORTING
          ------------------------

    102885 WORDS NEEDED TO SORT          58253 GUGA INTEGRALS IN MEMORY
   5000000 WORDS ARE AVAILABLE
 CHOOSING IN-MEMORY SORTING...
 IN CORE ALGORITHM SORTED            240 NON-ZERO 1E- INTEGRALS
 IN CORE ALGORITHM SORTED          54345 NON-ZERO 2E- INTEGRALS
 ...... END OF INTEGRAL SORTING ...... 
 CPU     0: STEP CPU TIME=     0.01 TOTAL CPU TIME=        0.3 (    0.0 MIN)
 TOTAL WALL CLOCK TIME=        0.3 SECONDS, CPU UTILIZATION IS  97.06%

 -------------------------     ---------------------------------------
 ENERGY MATRIX CALCULATION     WRITTEN BY B.R.BROOKS,W.D.LAIDIG,P.SAXE
 -------------------------     ---------------------------------------

 COMPUTING THE HAMILTONIAN FOR THE     55017 CSF-S...

    26114386 IS THE TOTAL NUMBER OF GENERATED LOOPS
    26114386 WERE CREATED BY THE LOOP-DRIVEN ALGORITHM
           0 WERE CREATED IMPLICITLY

    24651018 IS THE TOTAL NUMBER OF PROCESSED LOOPS
      145568     DIAGONAL LOOPS ARE STORED ON WORK15 IN    15 BUFFERS OF  10000 ELEMENTS.
    24505450 OFF DIAGONAL LOOPS ARE STORED ON WORK16 IN  2451 BUFFERS OF  10000 ELEMENTS.
 ...... END OF ENERGY MATRIX CALCULATION ...... 
 CPU     0: STEP CPU TIME=     2.37 TOTAL CPU TIME=        2.7 (    0.0 MIN)
 TOTAL WALL CLOCK TIME=        2.7 SECONDS, CPU UTILIZATION IS  98.90%

          -----------------------------------------
          DAVIDSON METHOD CI-MATRIX DIAGONALIZATION
                   WRITTEN BY STEVE ELBERT
          -----------------------------------------
 NUMBER OF STATES REQUESTED =     1
 MAX. NUMB. OF EXPAN. VEC   =    30
 MAX. NUMB. IMPROVED STATES =     1
 MAX. NUMB. OF ITERATIONS   =    50
 CONVERGENCE CRITERION      =    1.0E-06

 CHOOSING OUT OF MEMORY STORAGE OF HAMILTONIAN,
 AND IN MEMORY STORAGE OF TRIAL VECTORS.

 NUMBER OF WORDS AVAILABLE =    5000000
 NUMBER OF WORDS USED      =    3828079
 ENERGY MATRIX BUFFER SIZE =      10000

 ITER. NO.JUST IMPROVED    ENERGY AND STATE
   0   8(MAX.TOL.STATE)   -682.546156337  1
   1   6  0.42364902  5   -682.642608549  1
   2   5  0.15281252  4   -682.659354715  1
   3   4  0.05904362  3   -682.660780924  1
   4   3  0.02231030  2   -682.660989951  1
   5   2  0.00502393  1   -682.661024990  1
   6   1  0.00224525  1   -682.661032456  1
   7   1  0.00100482  1   -682.661033965  1
   8   1  0.00040898  1   -682.661034229  1
   9   1  0.00016603  1   -682.661034277  1
  10   1  0.00006460  1   -682.661034285  1
  11   1  0.00004400  1   -682.661034287  1
  12   1  0.00001851  1   -682.661034288  1
  13   1  0.00000771  1   -682.661034288  1
  14   1  0.00000346  1   -682.661034288  1
  15   1  0.00000174  1   -682.661034288  1
  16   1  0.00000084  1   -682.661034288  1

 STATE #    1  ENERGY =    -682.661034288

      CSF      COEF    OCCUPANCY (IGNORING CORE)
      ---      ----    --------- --------- -----
        1   -0.676409  222200000000000000000000000000
        7    0.074871  220202000000000000000000000000
       16   -0.072612  221111000000000000000000000000
       30    0.678462  222020000000000000000000000000
       47   -0.075057  220022000000000000000000000000

 RENORMALIZED DAVIDSON CORRECTION FOR    57-REFERENCE CI.
 C0SQ= 0.942159 EREF=     -682.564320 E-E(REF)=   0.096714 E(Q)=   0.005938
 GIVES A E(SD+Q) ESTIMATE OF     -682.6669717945
 ...... END OF CI-MATRIX DIAGONALIZATION ......
 CPU     0: STEP CPU TIME=     6.72 TOTAL CPU TIME=        9.4 (    0.2 MIN)
 TOTAL WALL CLOCK TIME=        9.5 SECONDS, CPU UTILIZATION IS  99.47%

          --------------------------------------
          CI DENSITY MATRIX AND NATURAL ORBITALS
          --------------------------------------
 PROPERTIES WILL BE COMPUTED FOR STATE -IROOT-   1 WITH E=     -682.6610342879
 NFLGDM=   1
 NWORD=         0  IBLOCK=   0
 NUMBER OF STATES         =      1
 NUMBER OF CONFIGURATIONS =  55017

          CI EIGENSTATE    1 TOTAL ENERGY =     -682.6610342879
          DENSITY MATRIX OF STATE   1 SAVED FOR PROPERTY ANALYSIS

          NATURAL ORBITALS IN ATOMIC ORBITAL BASIS
          ----------------------------------------

                      1          2          3          4          5
                    2.0000     2.0000     2.0000     2.0000     2.0000
                     B          A          A          B          A   
    1  P  1  S    0.704578   0.704587  -0.195252  -0.195256   0.000071
    2  P  1  S    0.009543   0.009541   0.728869   0.728959  -0.000299
    3  P  1  X   -0.000065  -0.000012  -0.002986  -0.002995   0.481521
    4  P  1  Y   -0.000032  -0.000031  -0.002531  -0.002517  -0.294387
    5  P  1  Z   -0.000029  -0.000032  -0.002403  -0.002422  -0.418407
    6  P  1  S   -0.015462  -0.015250   0.012789   0.012968  -0.000620
    7  P  1  X    0.000228  -0.000071  -0.000698  -0.000661   0.011395
    8  P  1  Y    0.000032   0.000024  -0.000442  -0.000468  -0.005986
    9  P  1  Z    0.000021   0.000032  -0.000469  -0.000414  -0.008338
   10  P  1  S    0.003386   0.002301  -0.003177  -0.005519  -0.000142
   11  P  1  X   -0.000685  -0.000051   0.000283   0.001710  -0.001732
   12  P  1  Y   -0.000103  -0.000182   0.000665   0.000416   0.001672
   13  P  1  Z   -0.000097  -0.000152   0.000475   0.000516   0.001880
   14  P  1 XX    0.005173   0.005375  -0.001151  -0.000926  -0.000427
   15  P  1 YY    0.005251   0.005247  -0.001005  -0.000971   0.000344
   16  P  1 ZZ    0.005252   0.005246  -0.000999  -0.000970   0.000401
   17  P  1 XY   -0.000005   0.000008  -0.000062  -0.000035  -0.000057
   18  P  1 XZ    0.000001  -0.000004  -0.000036  -0.000063  -0.000090
   19  P  1 YZ    0.000003   0.000006  -0.000009  -0.000009   0.000510
   20  P  2  S   -0.704578   0.704587  -0.195252   0.195256   0.000071
   21  P  2  S   -0.009543   0.009541   0.728869  -0.728959  -0.000299
   22  P  2  X   -0.000065   0.000012   0.002986  -0.002995  -0.481521
   23  P  2  Y   -0.000032   0.000031   0.002531  -0.002517   0.294387
   24  P  2  Z    0.000029  -0.000032  -0.002403   0.002422  -0.418407
   25  P  2  S    0.015462  -0.015250   0.012789  -0.012968  -0.000620
   26  P  2  X    0.000228   0.000071   0.000698  -0.000661  -0.011395
   27  P  2  Y    0.000032  -0.000024   0.000442  -0.000468   0.005986
   28  P  2  Z   -0.000021   0.000032  -0.000469   0.000414  -0.008338
   29  P  2  S   -0.003386   0.002301  -0.003177   0.005519  -0.000142
   30  P  2  X   -0.000685   0.000051  -0.000283   0.001710   0.001732
   31  P  2  Y   -0.000103   0.000182  -0.000665   0.000416  -0.001672
   32  P  2  Z    0.000097  -0.000152   0.000475  -0.000516   0.001880
   33  P  2 XX   -0.005173   0.005375  -0.001151   0.000926  -0.000427
   34  P  2 YY   -0.005251   0.005247  -0.001005   0.000971   0.000344
   35  P  2 ZZ   -0.005252   0.005246  -0.000999   0.000970   0.000401
   36  P  2 XY    0.000005   0.000008  -0.000062   0.000035  -0.000057
   37  P  2 XZ    0.000001   0.000004   0.000036  -0.000063   0.000090
   38  P  2 YZ    0.000003  -0.000006   0.000009  -0.000009  -0.000510
   39  H  3  S    0.000104   0.000147  -0.000098   0.000045  -0.000091
   40  H  3  S   -0.000230  -0.000410   0.000997   0.000675   0.000327
   41  H  4  S   -0.000104   0.000147  -0.000098  -0.000045  -0.000091
   42  H  4  S    0.000230  -0.000410   0.000997  -0.000675   0.000327

                      6          7          8          9         10
                    2.0000     2.0000     2.0000     2.0000     2.0000
                     B          B          A          A          B   
    1  P  1  S    0.000249  -0.000082  -0.000063  -0.001533  -0.001441
    2  P  1  S   -0.000970   0.000302   0.000253   0.005857   0.005522
    3  P  1  X    0.447390  -0.025473  -0.050539   0.508508   0.541731
    4  P  1  Y   -0.338461   0.535611   0.544690   0.333076   0.304869
    5  P  1  Z   -0.423655  -0.454727  -0.441633   0.352518   0.328672
    6  P  1  S    0.000720  -0.000296  -0.000080  -0.005291  -0.004209
    7  P  1  X    0.009532  -0.000526  -0.001193   0.011431   0.010983
    8  P  1  Y   -0.006726   0.010612   0.011019   0.006472   0.005769
    9  P  1  Z   -0.008623  -0.009216  -0.008768   0.006729   0.006350
   10  P  1  S    0.000564   0.000322  -0.000086   0.001020   0.002045
   11  P  1  X   -0.002674   0.000025   0.000198  -0.001742  -0.003203
   12  P  1  Y    0.001591  -0.002343  -0.002848  -0.001914  -0.001248
   13  P  1  Z    0.002511   0.002351   0.001920  -0.001628  -0.001578
   14  P  1 XX   -0.001220   0.000111   0.000136   0.001241   0.000428
   15  P  1 YY    0.000163  -0.000240  -0.000275   0.001351   0.001285
   16  P  1 ZZ    0.000205   0.000312   0.000273   0.001348   0.001277
   17  P  1 XY   -0.000092  -0.000174  -0.000251  -0.000344  -0.000258
   18  P  1 XZ    0.000038   0.000237   0.000181  -0.000281  -0.000338
   19  P  1 YZ    0.000454  -0.000014  -0.000087  -0.000295  -0.000358
   20  P  2  S   -0.000249   0.000082  -0.000063  -0.001533   0.001441
   21  P  2  S    0.000970  -0.000302   0.000253   0.005857  -0.005522
   22  P  2  X    0.447390  -0.025473   0.050539  -0.508508   0.541731
   23  P  2  Y   -0.338461   0.535611  -0.544690  -0.333076   0.304869
   24  P  2  Z    0.423655   0.454727  -0.441633   0.352518  -0.328672
   25  P  2  S   -0.000720   0.000296  -0.000080  -0.005291   0.004209
   26  P  2  X    0.009532  -0.000526   0.001193  -0.011431   0.010983
   27  P  2  Y   -0.006726   0.010612  -0.011019  -0.006472   0.005769
   28  P  2  Z    0.008623   0.009216  -0.008768   0.006729  -0.006350
   29  P  2  S   -0.000564  -0.000322  -0.000086   0.001020  -0.002045
   30  P  2  X   -0.002674   0.000025  -0.000198   0.001742  -0.003203
   31  P  2  Y    0.001591  -0.002343   0.002848   0.001914  -0.001248
   32  P  2  Z   -0.002511  -0.002351   0.001920  -0.001628   0.001578
   33  P  2 XX    0.001220  -0.000111   0.000136   0.001241  -0.000428
   34  P  2 YY   -0.000163   0.000240  -0.000275   0.001351  -0.001285
   35  P  2 ZZ   -0.000205  -0.000312   0.000273   0.001348  -0.001277
   36  P  2 XY    0.000092   0.000174  -0.000251  -0.000344   0.000258
   37  P  2 XZ    0.000038   0.000237  -0.000181   0.000281  -0.000338
   38  P  2 YZ    0.000454  -0.000014   0.000087   0.000295  -0.000358
   39  H  3  S   -0.000253   0.000018   0.000009   0.000247   0.000041
   40  H  3  S    0.000608  -0.000206   0.000115  -0.000679  -0.000077
   41  H  4  S    0.000253  -0.000018   0.000009   0.000247  -0.000041
   42  H  4  S   -0.000608   0.000206   0.000115  -0.000679   0.000077

                     11         12         13         14         15
                    2.0000     2.0000     1.9654     1.9633     1.9411
                     A          B          A          B          A   
    1  P  1  S    0.043192   0.042942   0.020652   0.025154  -0.009541
    2  P  1  S   -0.202002  -0.201728  -0.096638  -0.118593   0.042710
    3  P  1  X   -0.029676  -0.029896  -0.008634  -0.022771  -0.182763
    4  P  1  Y    0.023605   0.035978  -0.081263  -0.103985  -0.004185
    5  P  1  Z    0.027357   0.031514  -0.106574  -0.078073  -0.010293
    6  P  1  S    0.390520   0.395917   0.212932   0.261259  -0.073071
    7  P  1  X    0.087009   0.073964   0.027123   0.059596   0.473285
    8  P  1  Y   -0.055634  -0.087070   0.211959   0.266927   0.013439
    9  P  1  Z   -0.064914  -0.076575   0.273349   0.204033   0.028122
   10  P  1  S    0.175459   0.214865   0.211548   0.273712   0.030564
   11  P  1  X    0.061930  -0.001153   0.056681   0.029512   0.192300
   12  P  1  Y    0.012684  -0.002547   0.066649   0.088323   0.035477
   13  P  1  Z    0.005880   0.004170   0.091025   0.062081   0.048515
   14  P  1 XX   -0.003738  -0.018553   0.028488   0.009685  -0.069654
   15  P  1 YY    0.014314   0.020018  -0.015744  -0.011019   0.021265
   16  P  1 ZZ    0.014396   0.019553  -0.017181  -0.009142   0.020783
   17  P  1 XY   -0.004777  -0.002572   0.008314  -0.013302  -0.008437
   18  P  1 XZ   -0.002986  -0.005412  -0.012310   0.007248  -0.010454
   19  P  1 YZ    0.026345   0.031436  -0.040395  -0.039136   0.004915
   20  P  2  S    0.043192  -0.042942   0.020652  -0.025154  -0.009541
   21  P  2  S   -0.202002   0.201728  -0.096638   0.118593   0.042710
   22  P  2  X    0.029676  -0.029896   0.008634  -0.022771   0.182763
   23  P  2  Y   -0.023605   0.035978   0.081263  -0.103985   0.004185
   24  P  2  Z    0.027357  -0.031514  -0.106574   0.078073  -0.010293
   25  P  2  S    0.390520  -0.395917   0.212932  -0.261259  -0.073071
   26  P  2  X   -0.087009   0.073964  -0.027123   0.059596  -0.473285
   27  P  2  Y    0.055634  -0.087070  -0.211959   0.266927  -0.013439
   28  P  2  Z   -0.064914   0.076575   0.273349  -0.204033   0.028122
   29  P  2  S    0.175459  -0.214865   0.211548  -0.273712   0.030564
   30  P  2  X   -0.061930  -0.001153  -0.056681   0.029512  -0.192300
   31  P  2  Y   -0.012684  -0.002547  -0.066649   0.088323  -0.035477
   32  P  2  Z    0.005880  -0.004170   0.091025  -0.062081   0.048515
   33  P  2 XX   -0.003738   0.018553   0.028488  -0.009685  -0.069654
   34  P  2 YY    0.014314  -0.020018  -0.015744   0.011019   0.021265
   35  P  2 ZZ    0.014396  -0.019553  -0.017181   0.009142   0.020783
   36  P  2 XY   -0.004777   0.002572   0.008314   0.013302  -0.008437
   37  P  2 XZ    0.002986  -0.005412   0.012310   0.007248   0.010454
   38  P  2 YZ   -0.026345   0.031436   0.040395  -0.039136  -0.004915
   39  H  3  S    0.141215   0.160585  -0.175498  -0.156888   0.022231
   40  H  3  S    0.108415   0.124019  -0.223743  -0.224017   0.067264
   41  H  4  S    0.141215  -0.160585  -0.175498   0.156888   0.022231
   42  H  4  S    0.108415  -0.124019  -0.223743   0.224017   0.067264

                     16         17         18         19         20
                    0.9944     0.9928     0.0456     0.0194     0.0177
                     A          B          B          A          B   
    1  P  1  S    0.002584   0.003204  -0.019941  -0.006212  -0.013619
    2  P  1  S   -0.012474  -0.015152   0.084285   0.039818   0.078201
    3  P  1  X   -0.008218  -0.007868  -0.232791   0.011015  -0.028159
    4  P  1  Y   -0.136748   0.111555   0.007517  -0.117910  -0.094183
    5  P  1  Z    0.111374  -0.136421   0.019041  -0.089042  -0.122530
    6  P  1  S    0.029669   0.036709  -0.238817  -0.000613  -0.107167
    7  P  1  X    0.020908   0.020907   0.763738   0.000402   0.116840
    8  P  1  Y    0.374891  -0.304989  -0.025676   0.410204   0.332703
    9  P  1  Z   -0.304382   0.373898  -0.060424   0.313305   0.428545
   10  P  1  S    0.061618   0.064960  -0.216420  -0.394763  -0.562371
   11  P  1  X    0.020549   0.016068   0.274957  -0.192304  -0.008652
   12  P  1  Y    0.243896  -0.207342   0.017815   0.209305   0.191785
   13  P  1  Z   -0.205302   0.241878  -0.003886   0.162158   0.236125
   14  P  1 XX    0.006981   0.003901  -0.021738  -0.232564  -0.091137
   15  P  1 YY   -0.013278   0.004632  -0.002662   0.098228   0.037597
   16  P  1 ZZ    0.002358  -0.012451  -0.006603   0.075541   0.059816
   17  P  1 XY    0.007944   0.023472   0.030689  -0.011265  -0.059726
   18  P  1 XZ    0.023483   0.007948   0.008689  -0.072739  -0.005788
   19  P  1 YZ   -0.005852  -0.008286   0.012302   0.157657   0.212360
   20  P  2  S    0.002584  -0.003204   0.019941  -0.006212   0.013619
   21  P  2  S   -0.012474   0.015152  -0.084285   0.039818  -0.078201
   22  P  2  X    0.008218  -0.007868  -0.232791  -0.011015  -0.028159
   23  P  2  Y    0.136748   0.111555   0.007517   0.117910  -0.094183
   24  P  2  Z    0.111374   0.136421  -0.019041  -0.089042   0.122530
   25  P  2  S    0.029669  -0.036709   0.238817  -0.000613   0.107167
   26  P  2  X   -0.020908   0.020907   0.763738  -0.000402   0.116840
   27  P  2  Y   -0.374891  -0.304989  -0.025676  -0.410204   0.332703
   28  P  2  Z   -0.304382  -0.373898   0.060424   0.313305  -0.428545
   29  P  2  S    0.061618  -0.064960   0.216420  -0.394763   0.562371
   30  P  2  X   -0.020549   0.016068   0.274957   0.192304  -0.008652
   31  P  2  Y   -0.243896  -0.207342   0.017815  -0.209305   0.191785
   32  P  2  Z   -0.205302  -0.241878   0.003886   0.162158  -0.236125
   33  P  2 XX    0.006981  -0.003901   0.021738  -0.232564   0.091137
   34  P  2 YY   -0.013278  -0.004632   0.002662   0.098228  -0.037597
   35  P  2 ZZ    0.002358   0.012451   0.006603   0.075541  -0.059816
   36  P  2 XY    0.007944  -0.023472  -0.030689  -0.011265   0.059726
   37  P  2 XZ   -0.023483   0.007948   0.008689   0.072739  -0.005788
   38  P  2 YZ    0.005852  -0.008286   0.012302  -0.157657   0.212360
   39  H  3  S   -0.048167  -0.047514  -0.031343   0.301497   0.302980
   40  H  3  S   -0.084770  -0.089657   0.019261   0.502382   0.590329
   41  H  4  S   -0.048167   0.047514   0.031343   0.301497  -0.302980
   42  H  4  S   -0.084770   0.089657  -0.019261   0.502382  -0.590329

                     21         22         23         24         25
                    0.0079     0.0066     0.0065     0.0054     0.0052
                     A          A          B          A          B   
    1  P  1  S   -0.003412   0.008309   0.010992  -0.005894   0.002119
    2  P  1  S    0.051574  -0.002015  -0.019792   0.005195   0.002682
    3  P  1  X    0.073900  -0.014525  -0.005073   0.004128   0.009166
    4  P  1  Y   -0.020321  -0.000463  -0.089179   0.089946  -0.069727
    5  P  1  Z   -0.001989  -0.098378   0.003235  -0.036958   0.083035
    6  P  1  S   -0.009558   0.230197   0.270906  -0.163113   0.076436
    7  P  1  X   -0.398495   0.040642   0.034605  -0.007038  -0.047334
    8  P  1  Y    0.063157   0.001726   0.370111  -0.401404   0.311662
    9  P  1  Z   -0.000375   0.404899  -0.004234   0.169164  -0.369170
   10  P  1  S   -0.247473  -0.306889  -0.285637   0.192039  -0.195001
   11  P  1  X    0.474974  -0.014365  -0.051403  -0.001569   0.164880
   12  P  1  Y    0.189705   0.069749  -0.246666   0.465145  -0.298291
   13  P  1  Z    0.159242  -0.239506   0.006268  -0.212125   0.466829
   14  P  1 XX    0.496601   0.198684   0.009710  -0.070739   0.051478
   15  P  1 YY   -0.106498  -0.295852   0.148490  -0.401236   0.389188
   16  P  1 ZZ   -0.190451   0.103855  -0.211839   0.494175  -0.451693
   17  P  1 XY    0.002369   0.087269   0.574082   0.101672  -0.300140
   18  P  1 XZ   -0.254463   0.484342   0.045337  -0.285678   0.107218
   19  P  1 YZ    0.197192   0.182982   0.062511  -0.005756   0.026451
   20  P  2  S   -0.003412   0.008309  -0.010992  -0.005894  -0.002119
   21  P  2  S    0.051574  -0.002015   0.019792   0.005195  -0.002682
   22  P  2  X   -0.073900   0.014525  -0.005073  -0.004128   0.009166
   23  P  2  Y    0.020321   0.000463  -0.089179  -0.089946  -0.069727
   24  P  2  Z   -0.001989  -0.098378  -0.003235  -0.036958  -0.083035
   25  P  2  S   -0.009558   0.230197  -0.270906  -0.163113  -0.076436
   26  P  2  X    0.398495  -0.040642   0.034605   0.007038  -0.047334
   27  P  2  Y   -0.063157  -0.001726   0.370111   0.401404   0.311662
   28  P  2  Z   -0.000375   0.404899   0.004234   0.169164   0.369170
   29  P  2  S   -0.247473  -0.306889   0.285637   0.192039   0.195001
   30  P  2  X   -0.474974   0.014365  -0.051403   0.001569   0.164880
   31  P  2  Y   -0.189705  -0.069749  -0.246666  -0.465145  -0.298291
   32  P  2  Z    0.159242  -0.239506  -0.006268  -0.212125  -0.466829
   33  P  2 XX    0.496601   0.198684  -0.009710  -0.070739  -0.051478
   34  P  2 YY   -0.106498  -0.295852  -0.148490  -0.401236  -0.389188
   35  P  2 ZZ   -0.190451   0.103855   0.211839   0.494175   0.451693
   36  P  2 XY    0.002369   0.087269  -0.574082   0.101672   0.300140
   37  P  2 XZ    0.254463  -0.484342   0.045337   0.285678   0.107218
   38  P  2 YZ   -0.197192  -0.182982   0.062511   0.005756   0.026451
   39  H  3  S    0.114940   0.020771  -0.044080  -0.001309   0.000758
   40  H  3  S    0.298411   0.129275   0.094407  -0.095619  -0.002567
   41  H  4  S    0.114940   0.020771   0.044080  -0.001309  -0.000758
   42  H  4  S    0.298411   0.129275  -0.094407  -0.095619   0.002567

                     26         27         28         29         30
                    0.0049     0.0047     0.0037     0.0035     0.0031
                     A          B          B          A          B   
    1  P  1  S    0.025226   0.019852  -0.028195   0.011018  -0.005675
    2  P  1  S   -0.047366  -0.035779   0.017959  -0.028525  -0.009191
    3  P  1  X   -0.009434  -0.027423  -0.047578  -0.058050  -0.059421
    4  P  1  Y   -0.085305  -0.090311   0.027610   0.051371  -0.070464
    5  P  1  Z   -0.093380  -0.100577  -0.019043  -0.072498   0.038080
    6  P  1  S    0.719813   0.617305  -0.807839   0.272020  -0.197395
    7  P  1  X    0.017514   0.109300   0.215722   0.265570   0.269732
    8  P  1  Y    0.391093   0.409451  -0.131417  -0.201920   0.308584
    9  P  1  Z    0.424416   0.458861   0.063888   0.328488  -0.155173
   10  P  1  S   -0.529353  -0.569020   1.577937  -0.230612   0.716221
   11  P  1  X   -0.014289   0.019721  -0.793023  -0.270801  -0.667529
   12  P  1  Y   -0.458620  -0.353877   0.024728   0.160930  -0.323928
   13  P  1  Z   -0.361514  -0.558999  -0.141294  -0.331794   0.108885
   14  P  1 XX   -0.041235  -0.030928  -0.371999   0.009826  -0.240056
   15  P  1 YY   -0.208647  -0.151566   0.490594   0.219902  -0.109845
   16  P  1 ZZ   -0.062942  -0.153137   0.007493  -0.342577   0.354661
   17  P  1 XY   -0.202993  -0.165785   0.062478   0.471202  -0.039274
   18  P  1 XZ   -0.184816  -0.210980  -0.218065  -0.151110   0.451428
   19  P  1 YZ   -0.326815  -0.334733  -0.215093   0.004129  -0.192214
   20  P  2  S    0.025226  -0.019852   0.028195   0.011018   0.005675
   21  P  2  S   -0.047366   0.035779  -0.017959  -0.028525   0.009191
   22  P  2  X    0.009434  -0.027423  -0.047578   0.058050  -0.059421
   23  P  2  Y    0.085305  -0.090311   0.027610  -0.051371  -0.070464
   24  P  2  Z   -0.093380   0.100577   0.019043  -0.072498  -0.038080
   25  P  2  S    0.719813  -0.617305   0.807839   0.272020   0.197395
   26  P  2  X   -0.017514   0.109300   0.215722  -0.265570   0.269732
   27  P  2  Y   -0.391093   0.409451  -0.131417   0.201920   0.308584
   28  P  2  Z    0.424416  -0.458861  -0.063888   0.328488   0.155173
   29  P  2  S   -0.529353   0.569020  -1.577937  -0.230612  -0.716221
   30  P  2  X    0.014289   0.019721  -0.793023   0.270801  -0.667529
   31  P  2  Y    0.458620  -0.353877   0.024728  -0.160930  -0.323928
   32  P  2  Z   -0.361514   0.558999   0.141294  -0.331794  -0.108885
   33  P  2 XX   -0.041235   0.030928   0.371999   0.009826   0.240056
   34  P  2 YY   -0.208647   0.151566  -0.490594   0.219902   0.109845
   35  P  2 ZZ   -0.062942   0.153137  -0.007493  -0.342577  -0.354661
   36  P  2 XY   -0.202993   0.165785  -0.062478   0.471202   0.039274
   37  P  2 XZ    0.184816  -0.210980  -0.218065   0.151110   0.451428
   38  P  2 YZ    0.326815  -0.334733  -0.215093  -0.004129  -0.192214
   39  H  3  S   -0.027794  -0.018732   0.120691  -0.065498   0.034291
   40  H  3  S    0.173404   0.137010  -0.323119   0.021111  -0.095463
   41  H  4  S   -0.027794   0.018732  -0.120691  -0.065498  -0.034291
   42  H  4  S    0.173404  -0.137010   0.323119   0.021111   0.095463

                     31         32         33         34         35
                    0.0020     0.0018     0.0014     0.0012     0.0011
                     A          B          A          B          A   
    1  P  1  S   -0.005758  -0.009265   0.027374   0.026523   0.034522
    2  P  1  S    0.006000   0.009642  -0.085253  -0.055832  -0.044138
    3  P  1  X    0.054160   0.019335  -0.077077  -0.086078   0.124595
    4  P  1  Y    0.097941  -0.086003   0.017380   0.028189   0.005658
    5  P  1  Z   -0.093520   0.093897   0.035147   0.008894   0.020949
    6  P  1  S   -0.139833  -0.250976   0.626914   0.617582   0.898441
    7  P  1  X   -0.247988  -0.094478   0.361100   0.370642  -0.623038
    8  P  1  Y   -0.455180   0.374762  -0.045578  -0.090937  -0.003549
    9  P  1  Z    0.406436  -0.439326  -0.122274   0.001643  -0.082842
   10  P  1  S    0.290256   0.359376  -0.205028  -0.285541  -0.598020
   11  P  1  X    0.261555   0.117271  -0.354361  -0.373216   0.621102
   12  P  1  Y    0.572505  -0.421401  -0.291779  -0.136474  -0.050302
   13  P  1  Z   -0.420427   0.530036  -0.154088  -0.325592   0.080407
   14  P  1 XX   -0.125957  -0.090013  -0.156934  -0.387439  -0.418617
   15  P  1 YY    0.273612  -0.169388  -0.080027   0.160500   0.143799
   16  P  1 ZZ   -0.153057   0.300041  -0.043513   0.125470   0.163927
   17  P  1 XY   -0.394850   0.000423  -0.210614  -0.132535   0.181026
   18  P  1 XZ    0.030166  -0.441969  -0.168380  -0.071436   0.037341
   19  P  1 YZ    0.054136   0.095658   0.524307   0.432526   0.046442
   20  P  2  S   -0.005758   0.009265   0.027374  -0.026523   0.034522
   21  P  2  S    0.006000  -0.009642  -0.085253   0.055832  -0.044138
   22  P  2  X   -0.054160   0.019335   0.077077  -0.086078  -0.124595
   23  P  2  Y   -0.097941  -0.086003  -0.017380   0.028189  -0.005658
   24  P  2  Z   -0.093520  -0.093897   0.035147  -0.008894   0.020949
   25  P  2  S   -0.139833   0.250976   0.626914  -0.617582   0.898441
   26  P  2  X    0.247988  -0.094478  -0.361100   0.370642   0.623038
   27  P  2  Y    0.455180   0.374762   0.045578  -0.090937   0.003549
   28  P  2  Z    0.406436   0.439326  -0.122274  -0.001643  -0.082842
   29  P  2  S    0.290256  -0.359376  -0.205028   0.285541  -0.598020
   30  P  2  X   -0.261555   0.117271   0.354361  -0.373216  -0.621102
   31  P  2  Y   -0.572505  -0.421401   0.291779  -0.136474   0.050302
   32  P  2  Z   -0.420427  -0.530036  -0.154088   0.325592   0.080407
   33  P  2 XX   -0.125957   0.090013  -0.156934   0.387439  -0.418617
   34  P  2 YY    0.273612   0.169388  -0.080027  -0.160500   0.143799
   35  P  2 ZZ   -0.153057  -0.300041  -0.043513  -0.125470   0.163927
   36  P  2 XY   -0.394850  -0.000423  -0.210614   0.132535   0.181026
   37  P  2 XZ   -0.030166  -0.441969   0.168380  -0.071436  -0.037341
   38  P  2 YZ   -0.054136   0.095658  -0.524307   0.432526  -0.046442
   39  H  3  S   -0.010857  -0.006103  -0.314645  -0.376827  -0.084638
   40  H  3  S   -0.144072  -0.212076  -0.318483  -0.160454   0.104547
   41  H  4  S   -0.010857   0.006103  -0.314645   0.376827  -0.084638
   42  H  4  S   -0.144072   0.212076  -0.318483   0.160454   0.104547

                     36         37         38         39         40
                    0.0005     0.0005     0.0002     0.0002     0.0001
                     A          B          B          A          B   
    1  P  1  S   -0.004099  -0.004566  -0.000473   0.038959  -0.053880
    2  P  1  S   -0.026507  -0.014967   0.040546  -0.048169  -0.003228
    3  P  1  X    0.040921   0.043409   0.082886  -0.020202   0.001013
    4  P  1  Y   -0.016145   0.014255  -0.038280   0.072387  -0.031474
    5  P  1  Z    0.000331   0.005017  -0.057410   0.055646  -0.038616
    6  P  1  S    0.052390  -0.009479   0.205872   1.290975  -2.134016
    7  P  1  X   -0.195043  -0.199069  -0.428582   0.046087   0.062026
    8  P  1  Y    0.118656  -0.037628   0.166034  -0.337333   0.153141
    9  P  1  Z    0.025821   0.017675   0.267086  -0.247296   0.194661
   10  P  1  S   -0.029763  -0.454261  -0.616951  -1.666275   3.729527
   11  P  1  X    0.192540   0.373156   1.413429  -0.184371  -1.590693
   12  P  1  Y   -0.003525   0.303864  -0.438664   1.281995  -0.636125
   13  P  1  Z    0.167073   0.233473  -0.779883   0.863521  -0.862516
   14  P  1 XX   -0.261340  -0.299020  -0.403971  -0.106377   0.714969
   15  P  1 YY   -0.125008  -0.005907   0.143886  -0.266836   0.192491
   16  P  1 ZZ   -0.106152  -0.023414   0.128169  -0.270485   0.186319
   17  P  1 XY    0.077988  -0.019019  -0.021987  -0.130665  -0.060263
   18  P  1 XZ   -0.026779   0.053370   0.147392   0.067709   0.057986
   19  P  1 YZ    0.175954   0.051500   0.127396  -0.224310   0.326816
   20  P  2  S   -0.004099   0.004566   0.000473   0.038959   0.053880
   21  P  2  S   -0.026507   0.014967  -0.040546  -0.048169   0.003228
   22  P  2  X   -0.040921   0.043409   0.082886   0.020202   0.001013
   23  P  2  Y    0.016145   0.014255  -0.038280  -0.072387  -0.031474
   24  P  2  Z    0.000331  -0.005017   0.057410   0.055646   0.038616
   25  P  2  S    0.052390   0.009479  -0.205872   1.290975   2.134016
   26  P  2  X    0.195043  -0.199069  -0.428582  -0.046087   0.062026
   27  P  2  Y   -0.118656  -0.037628   0.166034   0.337333   0.153141
   28  P  2  Z    0.025821  -0.017675  -0.267086  -0.247296  -0.194661
   29  P  2  S   -0.029763   0.454261   0.616951  -1.666275  -3.729527
   30  P  2  X   -0.192540   0.373156   1.413429   0.184371  -1.590693
   31  P  2  Y    0.003525   0.303864  -0.438664  -1.281995  -0.636125
   32  P  2  Z    0.167073  -0.233473   0.779883   0.863521   0.862516
   33  P  2 XX   -0.261340   0.299020   0.403971  -0.106377  -0.714969
   34  P  2 YY   -0.125008   0.005907  -0.143886  -0.266836  -0.192491
   35  P  2 ZZ   -0.106152   0.023414  -0.128169  -0.270485  -0.186319
   36  P  2 XY    0.077988   0.019019   0.021987  -0.130665   0.060263
   37  P  2 XZ    0.026779   0.053370   0.147392  -0.067709   0.057986
   38  P  2 YZ   -0.175954   0.051500   0.127396   0.224310   0.326816
   39  H  3  S   -0.808489  -0.818410   0.282190  -0.374560  -0.046828
   40  H  3  S    1.065015   1.236533  -0.943654   1.783639  -1.023636
   41  H  4  S   -0.808489   0.818410  -0.282190  -0.374560   0.046828
   42  H  4  S    1.065015  -1.236533   0.943654   1.783639   1.023636

                     41         42
                    0.0000     0.0000
                     A          B   
    1  P  1  S    0.113801   0.109957
    2  P  1  S   -0.468268  -0.486784
    3  P  1  X    0.005609  -0.001259
    4  P  1  Y   -0.004126  -0.000820
    5  P  1  Z   -0.002535  -0.000848
    6  P  1  S    4.873684   4.673910
    7  P  1  X    0.024002  -0.007794
    8  P  1  Y    0.014787   0.003913
    9  P  1  Z    0.007572   0.004401
   10  P  1  S   -0.074503   0.567366
   11  P  1  X    0.012088  -0.431634
   12  P  1  Y   -0.134214  -0.131493
   13  P  1  Z   -0.105026  -0.150318
   14  P  1 XX   -2.060207  -1.958997
   15  P  1 YY   -2.094081  -2.093058
   16  P  1 ZZ   -2.092896  -2.093976
   17  P  1 XY    0.017421  -0.001651
   18  P  1 XZ    0.005609   0.009964
   19  P  1 YZ    0.005688   0.064847
   20  P  2  S    0.113801  -0.109957
   21  P  2  S   -0.468268   0.486784
   22  P  2  X   -0.005609  -0.001259
   23  P  2  Y    0.004126  -0.000820
   24  P  2  Z   -0.002535   0.000848
   25  P  2  S    4.873684  -4.673910
   26  P  2  X   -0.024002  -0.007794
   27  P  2  Y   -0.014787   0.003913
   28  P  2  Z    0.007572  -0.004401
   29  P  2  S   -0.074503  -0.567366
   30  P  2  X   -0.012088  -0.431634
   31  P  2  Y    0.134214  -0.131493
   32  P  2  Z   -0.105026   0.150318
   33  P  2 XX   -2.060207   1.958997
   34  P  2 YY   -2.094081   2.093058
   35  P  2 ZZ   -2.092896   2.093976
   36  P  2 XY    0.017421   0.001651
   37  P  2 XZ   -0.005609   0.009964
   38  P  2 YZ   -0.005688   0.064847
   39  H  3  S    0.171290   0.063473
   40  H  3  S   -0.362795  -0.321647
   41  H  4  S    0.171290  -0.063473
   42  H  4  S   -0.362795   0.321647
 ...... END OF DENSITY MATRIX CALCULATION ...... 
 CPU     0: STEP CPU TIME=     0.02 TOTAL CPU TIME=        9.4 (    0.2 MIN)
 TOTAL WALL CLOCK TIME=        9.5 SECONDS, CPU UTILIZATION IS  99.58%

     --------------------------------------------------------
     GUGA  CI PROPERTIES...FOR THE WAVEFUNCTION OF STATE    1
               USING THE EXPECTATION VALUE DENSITY
     --------------------------------------------------------

          -----------------
          ENERGY COMPONENTS
          -----------------

         WAVEFUNCTION NORMALIZATION =       1.0000000000

                ONE ELECTRON ENERGY =   -1082.7815955899
                TWO ELECTRON ENERGY =     330.7559113412
           NUCLEAR REPULSION ENERGY =      69.3646499608
                                      ------------------
                       TOTAL ENERGY =    -682.6610342879

 ELECTRON-ELECTRON POTENTIAL ENERGY =     330.7559113412
  NUCLEUS-ELECTRON POTENTIAL ENERGY =   -1765.3246848932
   NUCLEUS-NUCLEUS POTENTIAL ENERGY =      69.3646499608
                                      ------------------
             TOTAL POTENTIAL ENERGY =   -1365.2041235911
               TOTAL KINETIC ENERGY =     682.5430893033
                 VIRIAL RATIO (V/T) =       2.0001728023

          ---------------------------------------
          MULLIKEN AND LOWDIN POPULATION ANALYSES
          ---------------------------------------

               ----- POPULATIONS IN EACH AO -----
                             MULLIKEN      LOWDIN
              1  P  1  S      1.99891     1.99866
              2  P  1  S      1.99932     1.98605
              3  P  1  X      1.99242     1.96356
              4  P  1  Y      1.99249     1.96354
              5  P  1  Z      1.99248     1.96350
              6  P  1  S      1.18743     0.55532
              7  P  1  X      0.74901     0.69243
              8  P  1  Y      0.71818     0.67271
              9  P  1  Z      0.71725     0.67151
             10  P  1  S      0.62267     0.48336
             11  P  1  X      0.25514     0.42310
             12  P  1  Y      0.30850     0.43524
             13  P  1  Z      0.31004     0.43473
             14  P  1 XX      0.03632     0.24970
             15  P  1 YY      0.02157     0.24205
             16  P  1 ZZ      0.02144     0.24194
             17  P  1 XY      0.00820     0.00882
             18  P  1 XZ      0.00817     0.00880
             19  P  1 YZ      0.03214     0.03616
             20  P  2  S      1.99891     1.99866
             21  P  2  S      1.99932     1.98605
             22  P  2  X      1.99242     1.96356
             23  P  2  Y      1.99249     1.96354
             24  P  2  Z      1.99248     1.96350
             25  P  2  S      1.18743     0.55532
             26  P  2  X      0.74901     0.69243
             27  P  2  Y      0.71818     0.67271
             28  P  2  Z      0.71725     0.67151
             29  P  2  S      0.62267     0.48336
             30  P  2  X      0.25514     0.42310
             31  P  2  Y      0.30850     0.43524
             32  P  2  Z      0.31004     0.43473
             33  P  2 XX      0.03632     0.24970
             34  P  2 YY      0.02157     0.24205
             35  P  2 ZZ      0.02144     0.24194
             36  P  2 XY      0.00820     0.00882
             37  P  2 XZ      0.00817     0.00880
             38  P  2 YZ      0.03214     0.03616
             39  H  3  S      0.50431     0.49777
             40  H  3  S      0.52399     0.47103
             41  H  4  S      0.50431     0.49777
             42  H  4  S      0.52399     0.47103

          ----- MULLIKEN ATOMIC OVERLAP POPULATIONS -----
          (OFF-DIAGONAL ELEMENTS NEED TO BE MULTIPLIED BY 2)

             1           2           3           4

    1   14.6438866
    2    0.1069832  14.6438866
    3    0.2434918  -0.0226701   0.8074743
    4   -0.0226701   0.2434918   0.0000125   0.8074743

          TOTAL MULLIKEN AND LOWDIN ATOMIC POPULATIONS
       ATOM         MULL.POP.    CHARGE          LOW.POP.     CHARGE
    1 PHOSPHORUS   14.971692    0.028308        15.031197   -0.031197
    2 PHOSPHORUS   14.971692    0.028308        15.031197   -0.031197
    3 HYDROGEN      1.028308   -0.028308         0.968803    0.031197
    4 HYDROGEN      1.028308   -0.028308         0.968803    0.031197

          ---------------------
          ELECTROSTATIC MOMENTS
          ---------------------

 POINT   1           X           Y           Z (BOHR)    CHARGE
                 0.000000   -0.000000    0.011596        0.00 (A.U.)
         DX          DY          DZ         /D/  (DEBYE)
    -0.000000   -0.000000   -0.980872    0.980872
 ...... END OF PROPERTY EVALUATION ......
 CPU     0: STEP CPU TIME=     0.00 TOTAL CPU TIME=        9.4 (    0.2 MIN)
 TOTAL WALL CLOCK TIME=        9.5 SECONDS, CPU UTILIZATION IS  99.58%
              3828169  WORDS OF DYNAMIC MEMORY USED
 EXECUTION OF GAMESS TERMINATED NORMALLY Fri Jun  2 03:33:36 2017
 DDI: 13310184 bytes (12.7 MB / 1 MWords) used by master data server.

 ----------------------------------------
 CPU timing information for all processes
 ========================================
 0: 7.994 + 1.457 = 9.452
 ----------------------------------------
 ddikick.x: exited gracefully.
unset echo
----- accounting info -----
Files used on the master node compute-0-2.local were:
-rw-rw-r-- 1 sarom sarom     30154 Jun  2 03:33 /scratch/trf-guga.F05
-rw-rw-r-- 1 sarom sarom      7232 Jun  2 03:33 /scratch/trf-guga.F09
-rw-rw-r-- 1 sarom sarom   1963200 Jun  2 03:33 /scratch/trf-guga.F10
-rw-rw-r-- 1 sarom sarom    745248 Jun  2 03:33 /scratch/trf-guga.F11
-rw-rw-r-- 1 sarom sarom    440328 Jun  2 03:33 /scratch/trf-guga.F12
-rw-rw-r-- 1 sarom sarom    800016 Jun  2 03:33 /scratch/trf-guga.F14
-rw-rw-r-- 1 sarom sarom   2840584 Jun  2 03:33 /scratch/trf-guga.F15
-rw-rw-r-- 1 sarom sarom 490239416 Jun  2 03:33 /scratch/trf-guga.F16
rm: cannot remove `/scratch/sarom': Is a directory
rm: cannot remove `/scratch/tmp': Is a directory
ls: No match.
ls: No match.
ls: No match.
Fri Jun  2 03:33:39 CDT 2017
0.144u 0.104s 0:12.81 1.8%	0+0k 64+432io 0pf+0w
Deleting shmid=3964928.
Deleting shmid=3997697.
Deleting shmid=4227074.
/opt/gridengine/default/spool/compute-0-2/active_jobs/23853.1/pe_hostfile compute-0-2.local
