----- GAMESS execution script 'rungms' -----
This job is running on host compute-3-0
under operating system Linux at Tue Nov 29 03:43:45 CST 2016
Available scratch disk space (Kbyte units) at beginning of the job is
Filesystem            1K-blocks       Used  Available Use% Mounted on
bolt.local:/export/home/sarom
                     9590469632 1553490944 7549810688  18% /home/sarom
Copying input file trf-ccsdt.inp to your run's scratch directory...
cp trf-ccsdt.inp .//trf-ccsdt.F05
unset echo
/home/sarom/gamessGH/ddikick.x /home/sarom/gamessGH/gamess.00.x trf-ccsdt -ddi 1 1 localhost -scr ./

 Distributed Data Interface kickoff program.
 Initiating 1 compute processes on 1 nodes to run the following command:
 /home/sarom/gamessGH/gamess.00.x trf-ccsdt 

          ******************************************************
          *         GAMESS VERSION = 18 AUG 2016 (R1)          *
          *             FROM IOWA STATE UNIVERSITY             *
          * M.W.SCHMIDT, K.K.BALDRIDGE, J.A.BOATZ, S.T.ELBERT, *
          *   M.S.GORDON, J.H.JENSEN, S.KOSEKI, N.MATSUNAGA,   *
          *          K.A.NGUYEN, S.J.SU, T.L.WINDUS,           *
          *       TOGETHER WITH M.DUPUIS, J.A.MONTGOMERY       *
          *         J.COMPUT.CHEM.  14, 1347-1363(1993)        *
          **************** 64 BIT LINUX VERSION ****************

  SINCE 1993, STUDENTS AND POSTDOCS WORKING AT IOWA STATE UNIVERSITY
  AND ALSO IN THEIR VARIOUS JOBS AFTER LEAVING ISU HAVE MADE IMPORTANT
  CONTRIBUTIONS TO THE CODE:
     IVANA ADAMOVIC, CHRISTINE AIKENS, YURI ALEXEEV, POOJA ARORA,
     ANDREY ASADCHEV, ROB BELL, PRADIPTA BANDYOPADHYAY, JONATHAN BENTZ,
     BRETT BODE, KURT BRORSEN, CALEB CARLIN, GALINA CHABAN, WEI CHEN,
     CHEOL HO CHOI, PAUL DAY, ALBERT DEFUSCO, NUWAN DESILVA, TIM DUDLEY,
     DMITRI FEDOROV, GRAHAM FLETCHER, MARK FREITAG, KURT GLAESEMANN,
     DAN KEMP, GRANT MERRILL, NORIYUKI MINEZAWA, JONATHAN MULLIN,
     TAKESHI NAGATA, SEAN NEDD, HEATHER NETZLOFF, BOSILJKA NJEGIC, RYAN OLSON,
     MIKE PAK, SPENCER PRUITT, LUKE ROSKOP, JIM SHOEMAKER, LYUDMILA SLIPCHENKO,
     TONY SMITH, SAROM SOK LEANG, JIE SONG, TETSUYA TAKETSUGU, SIMON WEBB,
     PENG XU, SOOHAENG YOO, FEDERICO ZAHARIEV

  ADDITIONAL CODE HAS BEEN PROVIDED BY COLLABORATORS IN OTHER GROUPS:
     IOWA STATE UNIVERSITY:
          JOE IVANIC, AARON WEST, LAIMUTIS BYTAUTAS, KLAUS RUEDENBERG
     UNIVERSITY OF TOKYO: KIMIHIKO HIRAO, TAKAHITO NAKAJIMA,
          TAKAO TSUNEDA, MUNEAKI KAMIYA, SUSUMU YANAGISAWA,
          KIYOSHI YAGI, MAHITO CHIBA, SEIKEN TOKURA, NAOAKI KAWAKAMI
     UNIVERSITY OF AARHUS: FRANK JENSEN
     UNIVERSITY OF IOWA: VISVALDAS KAIRYS, HUI LI
     NATIONAL INST. OF STANDARDS AND TECHNOLOGY: WALT STEVENS, DAVID GARMER
     UNIVERSITY OF PISA: BENEDETTA MENNUCCI, JACOPO TOMASI
     UNIVERSITY OF MEMPHIS: HENRY KURTZ, PRAKASHAN KORAMBATH
     UNIVERSITY OF ALBERTA: TOBY ZENG, MARIUSZ KLOBUKOWSKI
     UNIVERSITY OF NEW ENGLAND: MARK SPACKMAN
     MIE UNIVERSITY: HIROAKI UMEDA
     NAT. INST. OF ADVANCED INDUSTRIAL SCIENCE AND TECHNOLOGY: KAZUO KITAURA
     MICHIGAN STATE UNIVERSITY:
          KAROL KOWALSKI, MARTA WLOCH, JEFFREY GOUR, JESSE LUTZ,
          WEI LI, PIOTR PIECUCH
     UNIVERSITY OF SILESIA: MONIKA MUSIAL, STANISLAW KUCHARSKI
     FACULTES UNIVERSITAIRES NOTRE-DAME DE LA PAIX:
          OLIVIER QUINET, BENOIT CHAMPAGNE
     UNIVERSITY OF CALIFORNIA - SANTA BARBARA: BERNARD KIRTMAN
     INSTITUTE FOR MOLECULAR SCIENCE:
          KAZUYA ISHIMURA, MICHIO KATOUDA, AND SHIGERU NAGASE
     UNIVERSITY OF NOTRE DAME: ANNA POMOGAEVA, DAN CHIPMAN
     KYUSHU UNIVERSITY:
          HARUYUKI NAKANO,
          FENG LONG GU, JACEK KORCHOWIEC, MARCIN MAKOWSKI, AND YURIKO AOKI,
          HIROTOSHI MORI AND EISAKU MIYOSHI
     PENNSYLVANIA STATE UNIVERSITY:
          TZVETELIN IORDANOV, CHET SWALINA, JONATHAN SKONE,
          SHARON HAMMES-SCHIFFER
     WASEDA UNIVERSITY:
          MASATO KOBAYASHI, TOMOKO AKAMA, TSUGUKI TOUMA,
          TAKESHI YOSHIKAWA, YASUHIRO IKABATA, JUNJI SEINO,
          YUYA NAKAJIMA, HIROMI NAKAI
     NANJING UNIVERSITY: SHUHUA LI
     UNIVERSITY OF NEBRASKA:
          PEIFENG SU, DEJUN SI, NANDUN THELLAMUREGE, YALI WANG, HUI LI
     UNIVERSITY OF ZURICH: ROBERTO PEVERATI, KIM BALDRIDGE
     N. COPERNICUS UNIVERSITY AND JACKSON STATE UNIVERSITY:
          MARIA BARYSZ
     UNIVERSITY OF COPENHAGEN: Jimmy Kromann, CASPER STEINMANN
     TOKYO INSTITUTE OF TECHNOLOGY: HIROYA NAKATA
     NAGOYA UNIVERSITY: YOSHIO NISHIMOTO, STEPHAN IRLE
     MOSCOW STATE UNIVERSITY: VLADIMIR MIRONOV

 EXECUTION OF GAMESS BEGUN Tue Nov 29 03:43:45 2016

            ECHO OF THE FIRST FEW INPUT CARDS -
 INPUT CARD>!   C2...CCSD(T)/aug-cc-pTVZ, at Re(experiment)                                 
 INPUT CARD>!   110 AOs, 92 MOs, 2 frozen cores, 4 correlated MOs                           
 INPUT CARD>!                                                                               
 INPUT CARD>!       FINAL E= -75.4012819995,  9 iters.                                      
 INPUT CARD>!      E(CCSD) = -75.7521413950, 20 CCSD iters, T1 diag=0.03896439              
 INPUT CARD>!   E(CCSD(T)) = -75.7862721707                                                 
 INPUT CARD>!                                                                               
 INPUT CARD>!   This run took 217 seconds on 2.66 GHz Cloverton (15 Apr 2015)               
 INPUT CARD>!       p=4 needed 79                                                           
 INPUT CARD>!   This run uses about 12 MB disk storage...answers same as Feb 2006.          
 INPUT CARD>!                                                                               
 INPUT CARD> $contrl scftyp=rhf runtyp=energy cctyp=ccsd(t) ispher=1 $end                   
 INPUT CARD> $system parall=.true. mwords=5 memddi=10 $end                                  
 INPUT CARD> $guess  guess=huckel $end                                                      
 INPUT CARD> $basis  gbasis=acct $end                                                       
 INPUT CARD> $scf    dirscf=.true. $end                                                     
 INPUT CARD> $data                                                                          
 INPUT CARD>C2 dimer...110 AOs, 92 MOs...aug-cc-pVTZ basis                                  
 INPUT CARD>Dnh 4                                                                           
 INPUT CARD>                                                                                
 INPUT CARD>CARBON   6.0   0.0 0.0 1.2597/2                                                 
 INPUT CARD> $end                                                                           
    5000000 WORDS OF MEMORY AVAILABLE

     BASIS OPTIONS
     -------------
     GBASIS=ACCT         IGAUSS=       0      POLAR=NONE    
     NDFUNC=       0     NFFUNC=       0     DIFFSP=       F
     NPFUNC=       0      DIFFS=       F     BASNAM=        


     RUN TITLE
     ---------
 C2 dimer...110 AOs, 92 MOs...aug-cc-pVTZ basis                                  

 THE POINT GROUP OF THE MOLECULE IS DNH     
 THE ORDER OF THE PRINCIPAL AXIS IS     4

 ATOM      ATOMIC                      COORDINATES (BOHR)
           CHARGE         X                   Y                   Z
 CARBON      6.0     0.0000000000        0.0000000000       -1.1902439134
 CARBON      6.0     0.0000000000        0.0000000000        1.1902439134

          INTERNUCLEAR DISTANCES (ANGS.)
          ------------------------------

                1 CARB       2 CARB  

   1 CARB    0.0000000    1.2597000 *
   2 CARB    1.2597000 *  0.0000000  

  * ... LESS THAN  3.000


     ATOMIC BASIS SET
     ----------------
 THE CONTRACTED PRIMITIVE FUNCTIONS HAVE BEEN UNNORMALIZED
 THE CONTRACTED BASIS FUNCTIONS ARE NOW NORMALIZED TO UNITY

  SHELL TYPE  PRIMITIVE        EXPONENT          CONTRACTION COEFFICIENT(S)

 CARBON    

     15   S       1          8236.0000000    0.000542430189
     15   S       2          1235.0000000    0.004196427901
     15   S       3           280.8000000    0.021540914108
     15   S       4            79.2700000    0.083614949614
     15   S       5            25.5900000    0.239871618922
     15   S       6             8.9970000    0.443751820060
     15   S       7             3.3190000    0.353579696469
     15   S       8             0.3643000   -0.009176366076

     16   S       9          8236.0000000   -0.000196392234
     16   S      10          1235.0000000   -0.001525950274
     16   S      11           280.8000000   -0.007890449028
     16   S      12            79.2700000   -0.031514870532
     16   S      13            25.5900000   -0.096910008320
     16   S      14             8.9970000   -0.220541526288
     16   S      15             3.3190000   -0.296069112937
     16   S      16             0.3643000    1.040503432950

     17   S      17             0.9059000    1.000000000000

     18   S      18             0.1285000    1.000000000000

     19   P      19            18.7100000    0.039426387165
     19   P      20             4.1330000    0.244088984924
     19   P      21             1.2000000    0.815492008943

     20   P      22             0.3827000    1.000000000000

     21   P      23             0.1209000    1.000000000000

     22   D      24             1.0970000    1.000000000000

     23   D      25             0.3180000    1.000000000000

     24   F      26             0.7610000    1.000000000000

     25   S      27             0.0440200    1.000000000000

     26   P      28             0.0356900    1.000000000000

     27   D      29             0.1000000    1.000000000000

     28   F      30             0.2680000    1.000000000000

 TOTAL NUMBER OF BASIS SET SHELLS             =   28
 NUMBER OF CARTESIAN GAUSSIAN BASIS FUNCTIONS =  110
 NOTE: THIS RUN WILL RESTRICT THE MO VARIATION SPACE TO SPHERICAL HARMONICS.
 THE NUMBER OF ORBITALS KEPT IN THE VARIATIONAL SPACE WILL BE PRINTED LATER.
 NUMBER OF ELECTRONS                          =   12
 CHARGE OF MOLECULE                           =    0
 SPIN MULTIPLICITY                            =    1
 NUMBER OF OCCUPIED ORBITALS (ALPHA)          =    6
 NUMBER OF OCCUPIED ORBITALS (BETA )          =    6
 TOTAL NUMBER OF ATOMS                        =    2
 THE NUCLEAR REPULSION ENERGY IS       15.1229506808

 THIS MOLECULE IS RECOGNIZED AS BEING LINEAR,
 ORBITAL LZ DEGENERACY TOLERANCE ETOLLZ= 1.00E-06

     $CONTRL OPTIONS
     ---------------
 SCFTYP=RHF          RUNTYP=ENERGY       EXETYP=RUN     
 MPLEVL=       0     CITYP =NONE         CCTYP =CCSD(T)      VBTYP =NONE    
 DFTTYP=NONE         TDDFT =NONE    
 MULT  =       1     ICHARG=       0     NZVAR =       0     COORD =UNIQUE  
 PP    =NONE         RELWFN=NONE         LOCAL =NONE         NUMGRD=       F
 ISPHER=       1     NOSYM =       0     MAXIT =      30     UNITS =ANGS    
 PLTORB=       F     MOLPLT=       F     AIMPAC=       F     FRIEND=        
 NPRINT=       7     IREST =       0     GEOM  =INPUT   
 NORMF =       0     NORMP =       0     ITOL  =      20     ICUT  =       9
 INTTYP=BEST         GRDTYP=BEST         QMTTOL= 1.0E-06

     $SYSTEM OPTIONS
     ---------------
  REPLICATED MEMORY=     5000000 WORDS (ON EVERY NODE).
 DISTRIBUTED MEMDDI=          10 MILLION WORDS IN AGGREGATE,
 MEMDDI DISTRIBUTED OVER   1 PROCESSORS IS    10000000 WORDS/PROCESSOR.
 TOTAL MEMORY REQUESTED ON EACH PROCESSOR=    15000000 WORDS.
 TIMLIM=      525600.00 MINUTES, OR     365.0 DAYS.
 PARALL= T  BALTYP=  DLB     KDIAG=    0  COREFL= F
 MXSEQ2=     300 MXSEQ3=     150  mem10=         0

          ----------------
          PROPERTIES INPUT
          ----------------

     MOMENTS            FIELD           POTENTIAL          DENSITY
 IEMOM =       1   IEFLD =       0   IEPOT =       0   IEDEN =       0
 WHERE =COMASS     WHERE =NUCLEI     WHERE =NUCLEI     WHERE =NUCLEI  
 OUTPUT=BOTH       OUTPUT=BOTH       OUTPUT=BOTH       OUTPUT=BOTH    
 IEMINT=       0   IEFINT=       0                     IEDINT=       0
                                                       MORB  =       0
          EXTRAPOLATION IN EFFECT
          DIIS IN EFFECT
 ORBITAL PRINTING OPTION: NPREO=     1   110     2     1

     -------------------------------
     INTEGRAL TRANSFORMATION OPTIONS
     -------------------------------
     NWORD  =            0
     CUTOFF = 1.0E-09     MPTRAN =       0
     DIRTRF =       T     AOINTS =DUP     

          ----------------------
          INTEGRAL INPUT OPTIONS
          ----------------------
 NOPK  =       1 NORDER=       0 SCHWRZ=       T

     ------------------------------------------
     THE POINT GROUP IS DNH, NAXIS= 4, ORDER=16
     ------------------------------------------

 -- VARIATIONAL SPACE WILL BE RESTRICTED TO PURE SPHERICAL HARMONICS ONLY --
 AFTER EXCLUDING CONTAMINANT COMBINATIONS FROM THE CARTESIAN GAUSSIAN BASIS
 SET, THE NUMBER OF SPHERICAL HARMONICS KEPT IN THE VARIATION SPACE IS   92

     DIMENSIONS OF THE SYMMETRY SUBSPACES ARE
 A1G =   14     A1U =    0     B1G =    5     B1U =    5     A2G =    0
 A2U =   14     B2G =    5     B2U =    5     EG  =   11     EU  =   11

 ..... DONE SETTING UP THE RUN .....
 CPU     0: STEP CPU TIME=     0.03 TOTAL CPU TIME=        0.0 (    0.0 MIN)
 TOTAL WALL CLOCK TIME=        0.0 SECONDS, CPU UTILIZATION IS 100.00%

          ********************
          1 ELECTRON INTEGRALS
          ********************
 ...... END OF ONE-ELECTRON INTEGRALS ......
 CPU     0: STEP CPU TIME=     0.00 TOTAL CPU TIME=        0.0 (    0.0 MIN)
 TOTAL WALL CLOCK TIME=        0.0 SECONDS, CPU UTILIZATION IS 100.00%

          -------------
          GUESS OPTIONS
          -------------
          GUESS =HUCKEL            NORB  =       0          NORDER=       0
          MIX   =       F          PRTMO =       F          PUNMO =       F
          TOLZ  = 1.0E-08          TOLE  = 1.0E-05
          SYMDEN=       F          PURIFY=       F

 INITIAL GUESS ORBITALS GENERATED BY HUCKEL   ROUTINE.
 HUCKEL GUESS REQUIRES     89026 WORDS.

 STATISTICS FOR GENERATION OF SYMMETRY ORBITAL -Q- MATRIX
 NUMBER OF CARTESIAN ATOMIC ORBITALS=        110
 NUMBER OF SPHERICAL CONTAMINANTS DROPPED=    18
 NUMBER OF LINEARLY DEPENDENT MOS DROPPED=     0
 TOTAL NUMBER OF MOS IN VARIATION SPACE=      92

 SYMMETRIES FOR INITIAL GUESS ORBITALS FOLLOW.   BOTH SET(S).
     6 ORBITALS ARE OCCUPIED (    2 CORE ORBITALS).
     3=A1G      4=EU       5=EU       6=A2U      7=A1G      8=EG       9=EG  
    10=A2U     11=A1G     12=A1G     13=A1G     14=A1G     15=A1G     16=A1G 
 ...... END OF INITIAL ORBITAL SELECTION ......
 CPU     0: STEP CPU TIME=     0.01 TOTAL CPU TIME=        0.0 (    0.0 MIN)
 TOTAL WALL CLOCK TIME=        0.0 SECONDS, CPU UTILIZATION IS 100.00%

                    ----------------------
                    AO INTEGRAL TECHNOLOGY
                    ----------------------
     S,P,L SHELL ROTATED AXIS INTEGRALS, REPROGRAMMED BY
        KAZUYA ISHIMURA (IMS) AND JOSE SIERRA (SYNSTAR).
     S,P,D,L SHELL ROTATED AXIS INTEGRALS PROGRAMMED BY
        KAZUYA ISHIMURA (INSTITUTE FOR MOLECULAR SCIENCE).
     S,P,D,F,G SHELL TO TOTAL QUARTET ANGULAR MOMENTUM SUM 5,
        ERIC PROGRAM BY GRAHAM FLETCHER (ELORET AND NASA ADVANCED
        SUPERCOMPUTING DIVISION, AMES RESEARCH CENTER).
     S,P,D,F,G,L SHELL GENERAL RYS QUADRATURE PROGRAMMED BY
        MICHEL DUPUIS (PACIFIC NORTHWEST NATIONAL LABORATORY).

          --------------------
          2 ELECTRON INTEGRALS
          --------------------

 DIRECT SCF METHOD SKIPS INTEGRAL STORAGE ON DISK.
 DIRECT TRANSFORMATION SKIPS AO INTEGRAL STORAGE ON DISK.
  ...... END OF TWO-ELECTRON INTEGRALS .....
 CPU     0: STEP CPU TIME=     0.01 TOTAL CPU TIME=        0.0 (    0.0 MIN)
 TOTAL WALL CLOCK TIME=        0.1 SECONDS, CPU UTILIZATION IS  62.50%

          --------------------------
                 RHF SCF CALCULATION
          --------------------------

     NUCLEAR ENERGY =        15.1229506808
     MAXIT =   30     NPUNCH=    2
     EXTRAP=T  DAMP=F  SHIFT=F  RSTRCT=F  DIIS=T  DEM=F  SOSCF=F
     DENSITY MATRIX CONV=  2.00E-06
     MEMORY REQUIRED FOR RHF ITERS=    141817 WORDS.

 DIRECT SCF CALCULATION, SCHWRZ=T   FDIFF=T,  DIRTHR=  0.00E+00 NITDIR=10
 SCHWARZ INEQUALITY OVERHEAD:      6105 INTEGRALS, T=        0.01

                                                                                   NONZERO     BLOCKS
 ITER EX DEM     TOTAL ENERGY        E CHANGE  DENSITY CHANGE    DIIS ERROR      INTEGRALS    SKIPPED
          * * *   INITIATING DIIS PROCEDURE   * * *
   1  0  0      -75.1780602980   -75.1780602980   0.541539119   0.384789495        2277539          0
   2  1  0      -75.3918171904    -0.2137568924   0.076892703   0.072350005        2277539          0
   3  2  0      -75.4003399621    -0.0085227717   0.014416982   0.020557301        2277539          0
   4  3  0      -75.4012107754    -0.0008708133   0.003975392   0.005142289        2277539          0
   5  4  0      -75.4012783888    -0.0000676134   0.001594182   0.000878002        2277539          0
   6  5  0      -75.4012818831    -0.0000034944   0.000310977   0.000282285        2277539          0
   7  6  0      -75.4012819977    -0.0000001146   0.000011127   0.000020779        2277538          1
   8  7  0      -75.4012819994    -0.0000000017   0.000002990   0.000002506        2277385         25
   9  8  0      -75.4012819995    -0.0000000000   0.000000558   0.000000285        2266672        349

 RHF HAS CONVERGED, NOW COMPUTING EXACT TOTAL FOCK MATRIX
 FOR USE DURING THE COUPLED CLUSTER CALCULATION THAT FOLLOWS.

          -----------------
          DENSITY CONVERGED
          -----------------
     TIME TO FORM FOCK OPERATORS=       3.0 SECONDS (       0.3 SEC/ITER)
     FOCK TIME ON FIRST ITERATION=       0.4, LAST ITERATION=       0.3
     TIME TO SOLVE SCF EQUATIONS=       0.1 SECONDS (       0.0 SEC/ITER)

 FINAL RHF ENERGY IS      -75.4012819995 AFTER   9 ITERATIONS

 LZ VALUE ANALYSIS FOR THE MOS
 ----------------------------------------
 MO     1 (    1) HAS LZ(WEIGHT)= 0.00(100.0%) 
 MO     2 (    2) HAS LZ(WEIGHT)= 0.00(100.0%) 
 MO     3 (    3) HAS LZ(WEIGHT)= 0.00(100.0%) 
 MO     4 (    4) HAS LZ(WEIGHT)= 0.00(100.0%) 
 MO     5 (    5) HAS LZ(WEIGHT)=-1.00( 50.0%)  1.00( 50.0%) 
 MO     6 (    5) HAS LZ(WEIGHT)=-1.00( 50.0%)  1.00( 50.0%) 
 MO     7 (    6) HAS LZ(WEIGHT)= 0.00(100.0%) 
 MO     8 (    7) HAS LZ(WEIGHT)= 0.00(100.0%) 
 MO     9 (    8) HAS LZ(WEIGHT)= 0.00(100.0%) 
 MO    10 (    9) HAS LZ(WEIGHT)=-1.00( 50.0%)  1.00( 50.0%) 
 MO    11 (    9) HAS LZ(WEIGHT)=-1.00( 50.0%)  1.00( 50.0%) 
 MO    12 (   10) HAS LZ(WEIGHT)=-1.00( 50.0%)  1.00( 50.0%) 
 MO    13 (   10) HAS LZ(WEIGHT)=-1.00( 50.0%)  1.00( 50.0%) 
 MO    14 (   11) HAS LZ(WEIGHT)= 0.00(100.0%) 
 MO    15 (   12) HAS LZ(WEIGHT)=-1.00( 50.0%)  1.00( 50.0%) 
 MO    16 (   12) HAS LZ(WEIGHT)=-1.00( 50.0%)  1.00( 50.0%) 
 MO    17 (   13) HAS LZ(WEIGHT)= 0.00(100.0%) 
 MO    18 (   14) HAS LZ(WEIGHT)=-2.00( 50.0%)  2.00( 50.0%) 
 MO    19 (   14) HAS LZ(WEIGHT)=-2.00( 50.0%)  2.00( 50.0%) 
 MO    20 (   15) HAS LZ(WEIGHT)= 0.00(100.0%) 
 MO    21 (   16) HAS LZ(WEIGHT)= 0.00(100.0%) 
 MO    22 (   17) HAS LZ(WEIGHT)=-1.00( 50.0%)  1.00( 50.0%) 
 MO    23 (   17) HAS LZ(WEIGHT)=-1.00( 50.0%)  1.00( 50.0%) 
 MO    24 (   18) HAS LZ(WEIGHT)=-2.00( 50.0%)  2.00( 50.0%) 
 MO    25 (   18) HAS LZ(WEIGHT)=-2.00( 50.0%)  2.00( 50.0%) 
 MO    26 (   19) HAS LZ(WEIGHT)=-1.00( 50.0%)  1.00( 50.0%) 
 MO    27 (   19) HAS LZ(WEIGHT)=-1.00( 50.0%)  1.00( 50.0%) 
 MO    28 (   20) HAS LZ(WEIGHT)= 0.00(100.0%) 
 MO    29 (   21) HAS LZ(WEIGHT)=-1.00( 50.0%)  1.00( 50.0%) 
 MO    30 (   21) HAS LZ(WEIGHT)=-1.00( 50.0%)  1.00( 50.0%) 
 MO    31 (   22) HAS LZ(WEIGHT)= 0.00(100.0%) 
 MO    32 (   23) HAS LZ(WEIGHT)=-1.00( 50.0%)  1.00( 50.0%) 
 MO    33 (   23) HAS LZ(WEIGHT)=-1.00( 50.0%)  1.00( 50.0%) 
 MO    34 (   24) HAS LZ(WEIGHT)= 0.00(100.0%) 
 MO    35 (   25) HAS LZ(WEIGHT)= 0.00(100.0%) 
 MO    36 (   26) HAS LZ(WEIGHT)=-2.00( 50.0%)  2.00( 50.0%) 
 MO    37 (   26) HAS LZ(WEIGHT)=-2.00( 50.0%)  2.00( 50.0%) 
 MO    38 (   27) HAS LZ(WEIGHT)=-1.00( 50.0%)  1.00( 50.0%) 
 MO    39 (   27) HAS LZ(WEIGHT)=-1.00( 50.0%)  1.00( 50.0%) 
 MO    40 (   28) HAS LZ(WEIGHT)=-3.00( 50.0%)  3.00( 50.0%) 
 MO    41 (   28) HAS LZ(WEIGHT)=-3.00( 50.0%)  3.00( 50.0%) 
 MO    42 (   29) HAS LZ(WEIGHT)=-2.00( 50.0%)  2.00( 50.0%) 
 MO    43 (   29) HAS LZ(WEIGHT)=-2.00( 50.0%)  2.00( 50.0%) 
 MO    44 (   30) HAS LZ(WEIGHT)= 0.00(100.0%) 
 MO    45 (   31) HAS LZ(WEIGHT)= 0.00(100.0%) 
 MO    46 (   32) HAS LZ(WEIGHT)=-1.00( 50.0%)  1.00( 50.0%) 
 MO    47 (   32) HAS LZ(WEIGHT)=-1.00( 50.0%)  1.00( 50.0%) 
 MO    48 (   33) HAS LZ(WEIGHT)=-2.00( 50.0%)  2.00( 50.0%) 
 MO    49 (   33) HAS LZ(WEIGHT)=-2.00( 50.0%)  2.00( 50.0%) 
 MO    50 (   34) HAS LZ(WEIGHT)=-3.00( 50.0%)  3.00( 50.0%) 
 MO    51 (   34) HAS LZ(WEIGHT)=-3.00( 50.0%)  3.00( 50.0%) 
 MO    52 (   35) HAS LZ(WEIGHT)= 0.00(100.0%) 
 MO    53 (   36) HAS LZ(WEIGHT)=-1.00( 50.0%)  1.00( 50.0%) 
 MO    54 (   36) HAS LZ(WEIGHT)=-1.00( 50.0%)  1.00( 50.0%) 
 MO    55 (   37) HAS LZ(WEIGHT)=-2.00( 50.0%)  2.00( 50.0%) 
 MO    56 (   37) HAS LZ(WEIGHT)=-2.00( 50.0%)  2.00( 50.0%) 
 MO    57 (   38) HAS LZ(WEIGHT)=-1.00( 50.0%)  1.00( 50.0%) 
 MO    58 (   38) HAS LZ(WEIGHT)=-1.00( 50.0%)  1.00( 50.0%) 
 MO    59 (   39) HAS LZ(WEIGHT)= 0.00(100.0%) 
 MO    60 (   40) HAS LZ(WEIGHT)= 0.00(100.0%) 
 MO    61 (   41) HAS LZ(WEIGHT)=-1.00( 50.0%)  1.00( 50.0%) 
 MO    62 (   41) HAS LZ(WEIGHT)=-1.00( 50.0%)  1.00( 50.0%) 
 MO    63 (   42) HAS LZ(WEIGHT)= 0.00(100.0%) 
 MO    64 (   43) HAS LZ(WEIGHT)= 0.00(100.0%) 
 MO    65 (   44) HAS LZ(WEIGHT)=-1.00( 50.0%)  1.00( 50.0%) 
 MO    66 (   44) HAS LZ(WEIGHT)=-1.00( 50.0%)  1.00( 50.0%) 
 MO    67 (   45) HAS LZ(WEIGHT)=-2.00( 50.0%)  2.00( 50.0%) 
 MO    68 (   45) HAS LZ(WEIGHT)=-2.00( 50.0%)  2.00( 50.0%) 
 MO    69 (   46) HAS LZ(WEIGHT)= 0.00(100.0%) 
 MO    70 (   47) HAS LZ(WEIGHT)=-1.00( 50.0%)  1.00( 50.0%) 
 MO    71 (   47) HAS LZ(WEIGHT)=-1.00( 50.0%)  1.00( 50.0%) 
 MO    72 (   48) HAS LZ(WEIGHT)=-3.00( 50.0%)  3.00( 50.0%) 
 MO    73 (   48) HAS LZ(WEIGHT)=-3.00( 50.0%)  3.00( 50.0%) 
 MO    74 (   49) HAS LZ(WEIGHT)=-2.00( 50.0%)  2.00( 50.0%) 
 MO    75 (   49) HAS LZ(WEIGHT)=-2.00( 50.0%)  2.00( 50.0%) 
 MO    76 (   50) HAS LZ(WEIGHT)=-2.00( 50.0%)  2.00( 50.0%) 
 MO    77 (   50) HAS LZ(WEIGHT)=-2.00( 50.0%)  2.00( 50.0%) 
 MO    78 (   51) HAS LZ(WEIGHT)=-3.00( 50.0%)  3.00( 50.0%) 
 MO    79 (   51) HAS LZ(WEIGHT)=-3.00( 50.0%)  3.00( 50.0%) 
 MO    80 (   52) HAS LZ(WEIGHT)= 0.00(100.0%) 
 MO    81 (   53) HAS LZ(WEIGHT)=-1.00( 50.0%)  1.00( 50.0%) 
 MO    82 (   53) HAS LZ(WEIGHT)=-1.00( 50.0%)  1.00( 50.0%) 
 MO    83 (   54) HAS LZ(WEIGHT)=-1.00( 50.0%)  1.00( 50.0%) 
 MO    84 (   54) HAS LZ(WEIGHT)=-1.00( 50.0%)  1.00( 50.0%) 
 MO    85 (   55) HAS LZ(WEIGHT)=-2.00( 50.0%)  2.00( 50.0%) 
 MO    86 (   55) HAS LZ(WEIGHT)=-2.00( 50.0%)  2.00( 50.0%) 
 MO    87 (   56) HAS LZ(WEIGHT)= 0.00(100.0%) 
 MO    88 (   57) HAS LZ(WEIGHT)= 0.00(100.0%) 
 MO    89 (   58) HAS LZ(WEIGHT)=-1.00( 50.0%)  1.00( 50.0%) 
 MO    90 (   58) HAS LZ(WEIGHT)=-1.00( 50.0%)  1.00( 50.0%) 
 MO    91 (   59) HAS LZ(WEIGHT)= 0.00(100.0%) 
 MO    92 (   60) HAS LZ(WEIGHT)= 0.00(100.0%) 

          ------------
          EIGENVECTORS
          ------------

                      1          2          3          4          5
                  -11.3654   -11.3634    -1.0558    -0.5221    -0.4540
                     A1G        A2U        A1G        A2U        EU  
    1  C  1  S    0.691703   0.692843  -0.016416   0.004100  -0.000000
    2  C  1  S   -0.000098   0.001262   0.387133   0.380613  -0.000000
    3  C  1  S    0.028221   0.028170   0.093643   0.094724  -0.000000
    4  C  1  S    0.002197   0.038511   0.127508   0.438221  -0.000000
    5  C  1  X   -0.000000   0.000000  -0.000000  -0.000000   0.229791
    6  C  1  Y   -0.000000   0.000000  -0.000000  -0.000000  -0.000000
    7  C  1  Z   -0.000130  -0.000255   0.099065  -0.098234  -0.000000
    8  C  1  X   -0.000000   0.000000  -0.000000  -0.000000   0.308996
    9  C  1  Y   -0.000000   0.000000  -0.000000  -0.000000  -0.000000
   10  C  1  Z    0.000567   0.005303   0.094379  -0.136212  -0.000000
   11  C  1  X   -0.000000   0.000000  -0.000000  -0.000000   0.168203
   12  C  1  Y   -0.000000   0.000000  -0.000000  -0.000000  -0.000000
   13  C  1  Z    0.000317   0.015673  -0.024376  -0.023364  -0.000000
   14  C  1 XX   -0.000046  -0.000357  -0.008403   0.001673  -0.000000
   15  C  1 YY   -0.000046  -0.000357  -0.008403   0.001673  -0.000000
   16  C  1 ZZ    0.000092   0.000714   0.016807  -0.003346  -0.000000
   17  C  1 XY   -0.000000   0.000000  -0.000000  -0.000000  -0.000000
   18  C  1 XZ   -0.000000   0.000000  -0.000000  -0.000000   0.019738
   19  C  1 YZ   -0.000000   0.000000  -0.000000  -0.000000  -0.000000
   20  C  1 XX    0.000003  -0.001144  -0.002004   0.001210  -0.000000
   21  C  1 YY    0.000003  -0.001144  -0.002004   0.001210  -0.000000
   22  C  1 ZZ   -0.000007   0.002289   0.004008  -0.002421  -0.000000
   23  C  1 XY   -0.000000   0.000000  -0.000000  -0.000000  -0.000000
   24  C  1 XZ   -0.000000   0.000000  -0.000000  -0.000000   0.025830
   25  C  1 YZ   -0.000000   0.000000  -0.000000  -0.000000  -0.000000
   26  C  1 XXX  -0.000000   0.000000  -0.000000  -0.000000  -0.006298
   27  C  1 YYY  -0.000000   0.000000  -0.000000  -0.000000  -0.000000
   28  C  1 ZZZ   0.000144   0.000536   0.006744  -0.001037  -0.000000
   29  C  1 XXY  -0.000000   0.000000  -0.000000  -0.000000  -0.000000
   30  C  1 XXZ  -0.000097  -0.000360  -0.004524   0.000696  -0.000000
   31  C  1 YYX  -0.000000   0.000000  -0.000000  -0.000000  -0.002817
   32  C  1 YYZ  -0.000097  -0.000360  -0.004524   0.000696  -0.000000
   33  C  1 ZZX  -0.000000   0.000000  -0.000000  -0.000000   0.011266
   34  C  1 ZZY  -0.000000   0.000000  -0.000000  -0.000000  -0.000000
   35  C  1 XYZ  -0.000000   0.000000  -0.000000  -0.000000  -0.000000
   36  C  1  S   -0.000387   0.008879  -0.008518   0.040802  -0.000000
   37  C  1  X   -0.000000   0.000000  -0.000000  -0.000000   0.005780
   38  C  1  Y   -0.000000   0.000000  -0.000000  -0.000000  -0.000000
   39  C  1  Z    0.000117   0.001400  -0.012377  -0.000702  -0.000000
   40  C  1 XX   -0.000152  -0.001175   0.009745  -0.003770  -0.000000
   41  C  1 YY   -0.000152  -0.001175   0.009745  -0.003770  -0.000000
   42  C  1 ZZ    0.000305   0.002349  -0.019491   0.007540  -0.000000
   43  C  1 XY   -0.000000   0.000000  -0.000000  -0.000000  -0.000000
   44  C  1 XZ   -0.000000   0.000000  -0.000000  -0.000000   0.001866
   45  C  1 YZ   -0.000000   0.000000  -0.000000  -0.000000  -0.000000
   46  C  1 XXX  -0.000000   0.000000  -0.000000  -0.000000   0.000528
   47  C  1 YYY  -0.000000   0.000000  -0.000000  -0.000000  -0.000000
   48  C  1 ZZZ  -0.000075   0.000145  -0.005356  -0.000522  -0.000000
   49  C  1 XXY  -0.000000   0.000000  -0.000000  -0.000000  -0.000000
   50  C  1 XXZ   0.000050  -0.000097   0.003593   0.000350  -0.000000
   51  C  1 YYX  -0.000000   0.000000  -0.000000  -0.000000   0.000236
   52  C  1 YYZ   0.000050  -0.000097   0.003593   0.000350  -0.000000
   53  C  1 ZZX  -0.000000   0.000000  -0.000000  -0.000000  -0.000944
   54  C  1 ZZY  -0.000000   0.000000  -0.000000  -0.000000  -0.000000
   55  C  1 XYZ  -0.000000   0.000000  -0.000000  -0.000000  -0.000000
   56  C  2  S    0.691703  -0.692843  -0.016416  -0.004100  -0.000000
   57  C  2  S   -0.000098  -0.001262   0.387133  -0.380613  -0.000000
   58  C  2  S    0.028221  -0.028170   0.093643  -0.094724  -0.000000
   59  C  2  S    0.002197  -0.038511   0.127508  -0.438221  -0.000000
   60  C  2  X   -0.000000   0.000000  -0.000000  -0.000000   0.229791
   61  C  2  Y   -0.000000   0.000000  -0.000000  -0.000000  -0.000000
   62  C  2  Z    0.000130  -0.000255  -0.099065  -0.098234  -0.000000
   63  C  2  X   -0.000000   0.000000  -0.000000  -0.000000   0.308996
   64  C  2  Y   -0.000000   0.000000  -0.000000  -0.000000  -0.000000
   65  C  2  Z   -0.000567   0.005303  -0.094379  -0.136212  -0.000000
   66  C  2  X   -0.000000   0.000000  -0.000000  -0.000000   0.168203
   67  C  2  Y   -0.000000   0.000000  -0.000000  -0.000000  -0.000000
   68  C  2  Z   -0.000317   0.015673   0.024376  -0.023364  -0.000000
   69  C  2 XX   -0.000046   0.000357  -0.008403  -0.001673  -0.000000
   70  C  2 YY   -0.000046   0.000357  -0.008403  -0.001673  -0.000000
   71  C  2 ZZ    0.000092  -0.000714   0.016807   0.003346  -0.000000
   72  C  2 XY   -0.000000   0.000000  -0.000000  -0.000000  -0.000000
   73  C  2 XZ   -0.000000   0.000000  -0.000000  -0.000000  -0.019738
   74  C  2 YZ   -0.000000   0.000000  -0.000000  -0.000000  -0.000000
   75  C  2 XX    0.000003   0.001144  -0.002004  -0.001210  -0.000000
   76  C  2 YY    0.000003   0.001144  -0.002004  -0.001210  -0.000000
   77  C  2 ZZ   -0.000007  -0.002289   0.004008   0.002421  -0.000000
   78  C  2 XY   -0.000000   0.000000  -0.000000  -0.000000  -0.000000
   79  C  2 XZ   -0.000000   0.000000  -0.000000  -0.000000  -0.025830
   80  C  2 YZ   -0.000000   0.000000  -0.000000  -0.000000  -0.000000
   81  C  2 XXX  -0.000000   0.000000  -0.000000  -0.000000  -0.006298
   82  C  2 YYY  -0.000000   0.000000  -0.000000  -0.000000  -0.000000
   83  C  2 ZZZ  -0.000144   0.000536  -0.006744  -0.001037  -0.000000
   84  C  2 XXY  -0.000000   0.000000  -0.000000  -0.000000  -0.000000
   85  C  2 XXZ   0.000097  -0.000360   0.004524   0.000696  -0.000000
   86  C  2 YYX  -0.000000   0.000000  -0.000000  -0.000000  -0.002817
   87  C  2 YYZ   0.000097  -0.000360   0.004524   0.000696  -0.000000
   88  C  2 ZZX  -0.000000   0.000000  -0.000000  -0.000000   0.011266
   89  C  2 ZZY  -0.000000   0.000000  -0.000000  -0.000000  -0.000000
   90  C  2 XYZ  -0.000000   0.000000  -0.000000  -0.000000  -0.000000
   91  C  2  S   -0.000387  -0.008879  -0.008518  -0.040802  -0.000000
   92  C  2  X   -0.000000   0.000000  -0.000000  -0.000000   0.005780
   93  C  2  Y   -0.000000   0.000000  -0.000000  -0.000000  -0.000000
   94  C  2  Z   -0.000117   0.001400   0.012377  -0.000702  -0.000000
   95  C  2 XX   -0.000152   0.001175   0.009745   0.003770  -0.000000
   96  C  2 YY   -0.000152   0.001175   0.009745   0.003770  -0.000000
   97  C  2 ZZ    0.000305  -0.002349  -0.019491  -0.007540  -0.000000
   98  C  2 XY   -0.000000   0.000000  -0.000000  -0.000000  -0.000000
   99  C  2 XZ   -0.000000   0.000000  -0.000000  -0.000000  -0.001866
  100  C  2 YZ   -0.000000   0.000000  -0.000000  -0.000000  -0.000000
  101  C  2 XXX  -0.000000   0.000000  -0.000000  -0.000000   0.000528
  102  C  2 YYY  -0.000000   0.000000  -0.000000  -0.000000  -0.000000
  103  C  2 ZZZ   0.000075   0.000145   0.005356  -0.000522  -0.000000
  104  C  2 XXY  -0.000000   0.000000  -0.000000  -0.000000  -0.000000
  105  C  2 XXZ  -0.000050  -0.000097  -0.003593   0.000350  -0.000000
  106  C  2 YYX  -0.000000   0.000000  -0.000000  -0.000000   0.000236
  107  C  2 YYZ  -0.000050  -0.000097  -0.003593   0.000350  -0.000000
  108  C  2 ZZX  -0.000000   0.000000  -0.000000  -0.000000  -0.000944
  109  C  2 ZZY  -0.000000   0.000000  -0.000000  -0.000000  -0.000000
  110  C  2 XYZ  -0.000000   0.000000  -0.000000  -0.000000  -0.000000

                      6          7          8          9         10
                   -0.4540    -0.1159     0.0566     0.0905     0.0923
                     EU         A1G        A2U        A1G        EG  
    1  C  1  S   -0.000000  -0.002209   0.007954  -0.007389  -0.000000
    2  C  1  S   -0.000000  -0.061325   0.066729   0.043702  -0.000000
    3  C  1  S   -0.000000  -0.008656   0.012038   0.027000  -0.000000
    4  C  1  S   -0.000000  -0.183967   4.032057   0.224627  -0.000000
    5  C  1  X   -0.000000  -0.000000   0.000000   0.000000  -0.000000
    6  C  1  Y    0.229791  -0.000000   0.000000   0.000000   0.087478
    7  C  1  Z   -0.000000   0.228629  -0.017016  -0.075698  -0.000000
    8  C  1  X   -0.000000  -0.000000   0.000000   0.000000  -0.000000
    9  C  1  Y    0.308996  -0.000000   0.000000   0.000000   0.154688
   10  C  1  Z   -0.000000   0.287495   0.143087  -0.073209  -0.000000
   11  C  1  X   -0.000000  -0.000000   0.000000   0.000000  -0.000000
   12  C  1  Y    0.168203  -0.000000   0.000000   0.000000   0.833446
   13  C  1  Z   -0.000000   0.171350   2.234929  -0.204185  -0.000000
   14  C  1 XX   -0.000000  -0.006057  -0.000325  -0.001948  -0.000000
   15  C  1 YY   -0.000000  -0.006057  -0.000325  -0.001948  -0.000000
   16  C  1 ZZ   -0.000000   0.012115   0.000651   0.003896  -0.000000
   17  C  1 XY   -0.000000  -0.000000   0.000000   0.000000  -0.000000
   18  C  1 XZ   -0.000000  -0.000000   0.000000   0.000000  -0.000000
   19  C  1 YZ    0.019738  -0.000000   0.000000   0.000000  -0.008089
   20  C  1 XX   -0.000000   0.004589  -0.059384   0.021437  -0.000000
   21  C  1 YY   -0.000000   0.004589  -0.059384   0.021437  -0.000000
   22  C  1 ZZ   -0.000000  -0.009178   0.118768  -0.042875  -0.000000
   23  C  1 XY   -0.000000  -0.000000   0.000000   0.000000  -0.000000
   24  C  1 XZ   -0.000000  -0.000000   0.000000   0.000000  -0.000000
   25  C  1 YZ    0.025830  -0.000000   0.000000   0.000000   0.023145
   26  C  1 XXX  -0.000000  -0.000000   0.000000   0.000000  -0.000000
   27  C  1 YYY  -0.006298  -0.000000   0.000000   0.000000   0.002419
   28  C  1 ZZZ  -0.000000   0.007119   0.007100  -0.004214  -0.000000
   29  C  1 XXY  -0.002817  -0.000000   0.000000   0.000000   0.001082
   30  C  1 XXZ  -0.000000  -0.004776  -0.004763   0.002827  -0.000000
   31  C  1 YYX  -0.000000  -0.000000   0.000000   0.000000  -0.000000
   32  C  1 YYZ  -0.000000  -0.004776  -0.004763   0.002827  -0.000000
   33  C  1 ZZX  -0.000000  -0.000000   0.000000   0.000000  -0.000000
   34  C  1 ZZY   0.011266  -0.000000   0.000000   0.000000  -0.004328
   35  C  1 XYZ  -0.000000  -0.000000   0.000000   0.000000  -0.000000
   36  C  1  S   -0.000000  -0.149769  11.740173  -0.742974  -0.000000
   37  C  1  X   -0.000000  -0.000000   0.000000   0.000000  -0.000000
   38  C  1  Y    0.005780  -0.000000   0.000000   0.000000   2.420520
   39  C  1  Z   -0.000000   0.061243   3.050694   1.660805  -0.000000
   40  C  1 XX   -0.000000   0.012284  -0.218419  -0.074699  -0.000000
   41  C  1 YY   -0.000000   0.012284  -0.218419  -0.074699  -0.000000
   42  C  1 ZZ   -0.000000  -0.024568   0.436839   0.149399  -0.000000
   43  C  1 XY   -0.000000  -0.000000   0.000000   0.000000  -0.000000
   44  C  1 XZ   -0.000000  -0.000000   0.000000   0.000000  -0.000000
   45  C  1 YZ    0.001866  -0.000000   0.000000   0.000000   0.429433
   46  C  1 XXX  -0.000000  -0.000000   0.000000   0.000000  -0.000000
   47  C  1 YYY   0.000528  -0.000000   0.000000   0.000000  -0.026951
   48  C  1 ZZZ  -0.000000  -0.004121   0.014682  -0.006485  -0.000000
   49  C  1 XXY   0.000236  -0.000000   0.000000   0.000000  -0.012053
   50  C  1 XXZ  -0.000000   0.002764  -0.009849   0.004351  -0.000000
   51  C  1 YYX  -0.000000  -0.000000   0.000000   0.000000  -0.000000
   52  C  1 YYZ  -0.000000   0.002764  -0.009849   0.004351  -0.000000
   53  C  1 ZZX  -0.000000  -0.000000   0.000000   0.000000  -0.000000
   54  C  1 ZZY  -0.000944  -0.000000   0.000000   0.000000   0.048211
   55  C  1 XYZ  -0.000000  -0.000000   0.000000   0.000000  -0.000000
   56  C  2  S   -0.000000  -0.002209  -0.007954  -0.007389  -0.000000
   57  C  2  S   -0.000000  -0.061325  -0.066729   0.043702  -0.000000
   58  C  2  S   -0.000000  -0.008656  -0.012038   0.027000  -0.000000
   59  C  2  S   -0.000000  -0.183967  -4.032057   0.224627  -0.000000
   60  C  2  X   -0.000000  -0.000000   0.000000   0.000000  -0.000000
   61  C  2  Y    0.229791  -0.000000   0.000000   0.000000  -0.087478
   62  C  2  Z   -0.000000  -0.228629  -0.017016   0.075698  -0.000000
   63  C  2  X   -0.000000  -0.000000   0.000000   0.000000  -0.000000
   64  C  2  Y    0.308996  -0.000000   0.000000   0.000000  -0.154688
   65  C  2  Z   -0.000000  -0.287495   0.143087   0.073209  -0.000000
   66  C  2  X   -0.000000  -0.000000   0.000000   0.000000  -0.000000
   67  C  2  Y    0.168203  -0.000000   0.000000   0.000000  -0.833446
   68  C  2  Z   -0.000000  -0.171350   2.234929   0.204185  -0.000000
   69  C  2 XX   -0.000000  -0.006057   0.000325  -0.001948  -0.000000
   70  C  2 YY   -0.000000  -0.006057   0.000325  -0.001948  -0.000000
   71  C  2 ZZ   -0.000000   0.012115  -0.000651   0.003896  -0.000000
   72  C  2 XY   -0.000000  -0.000000   0.000000   0.000000  -0.000000
   73  C  2 XZ   -0.000000  -0.000000   0.000000   0.000000  -0.000000
   74  C  2 YZ   -0.019738  -0.000000   0.000000   0.000000  -0.008089
   75  C  2 XX   -0.000000   0.004589   0.059384   0.021437  -0.000000
   76  C  2 YY   -0.000000   0.004589   0.059384   0.021437  -0.000000
   77  C  2 ZZ   -0.000000  -0.009178  -0.118768  -0.042875  -0.000000
   78  C  2 XY   -0.000000  -0.000000   0.000000   0.000000  -0.000000
   79  C  2 XZ   -0.000000  -0.000000   0.000000   0.000000  -0.000000
   80  C  2 YZ   -0.025830  -0.000000   0.000000   0.000000   0.023145
   81  C  2 XXX  -0.000000  -0.000000   0.000000   0.000000  -0.000000
   82  C  2 YYY  -0.006298  -0.000000   0.000000   0.000000  -0.002419
   83  C  2 ZZZ  -0.000000  -0.007119   0.007100   0.004214  -0.000000
   84  C  2 XXY  -0.002817  -0.000000   0.000000   0.000000  -0.001082
   85  C  2 XXZ  -0.000000   0.004776  -0.004763  -0.002827  -0.000000
   86  C  2 YYX  -0.000000  -0.000000   0.000000   0.000000  -0.000000
   87  C  2 YYZ  -0.000000   0.004776  -0.004763  -0.002827  -0.000000
   88  C  2 ZZX  -0.000000  -0.000000   0.000000   0.000000  -0.000000
   89  C  2 ZZY   0.011266  -0.000000   0.000000   0.000000   0.004328
   90  C  2 XYZ  -0.000000  -0.000000   0.000000   0.000000  -0.000000
   91  C  2  S   -0.000000  -0.149769 -11.740173  -0.742974  -0.000000
   92  C  2  X   -0.000000  -0.000000   0.000000   0.000000  -0.000000
   93  C  2  Y    0.005780  -0.000000   0.000000   0.000000  -2.420520
   94  C  2  Z   -0.000000  -0.061243   3.050694  -1.660805  -0.000000
   95  C  2 XX   -0.000000   0.012284   0.218419  -0.074699  -0.000000
   96  C  2 YY   -0.000000   0.012284   0.218419  -0.074699  -0.000000
   97  C  2 ZZ   -0.000000  -0.024568  -0.436839   0.149399  -0.000000
   98  C  2 XY   -0.000000  -0.000000   0.000000   0.000000  -0.000000
   99  C  2 XZ   -0.000000  -0.000000   0.000000   0.000000  -0.000000
  100  C  2 YZ   -0.001866  -0.000000   0.000000   0.000000   0.429433
  101  C  2 XXX  -0.000000  -0.000000   0.000000   0.000000  -0.000000
  102  C  2 YYY   0.000528  -0.000000   0.000000   0.000000   0.026951
  103  C  2 ZZZ  -0.000000   0.004121   0.014682   0.006485  -0.000000
  104  C  2 XXY   0.000236  -0.000000   0.000000   0.000000   0.012053
  105  C  2 XXZ  -0.000000  -0.002764  -0.009849  -0.004351  -0.000000
  106  C  2 YYX  -0.000000  -0.000000   0.000000   0.000000  -0.000000
  107  C  2 YYZ  -0.000000  -0.002764  -0.009849  -0.004351  -0.000000
  108  C  2 ZZX  -0.000000  -0.000000   0.000000   0.000000  -0.000000
  109  C  2 ZZY  -0.000944  -0.000000   0.000000   0.000000  -0.048211
  110  C  2 XYZ  -0.000000  -0.000000   0.000000   0.000000  -0.000000

                     11         12         13         14         15
                    0.0923     0.0964     0.0964     0.1255     0.1710
                     EG         EU         EU         A1G        EG  
    1  C  1  S    0.000000  -0.000000  -0.000000  -0.025563   0.000000
    2  C  1  S    0.000000  -0.000000  -0.000000  -0.136548   0.000000
    3  C  1  S    0.000000  -0.000000  -0.000000  -0.067258   0.000000
    4  C  1  S    0.000000  -0.000000  -0.000000  -1.501928   0.000000
    5  C  1  X    0.087478  -0.059028  -0.000000   0.000000   0.000000
    6  C  1  Y    0.000000  -0.000000  -0.059028   0.000000  -0.192827
    7  C  1  Z    0.000000  -0.000000  -0.000000   0.037569   0.000000
    8  C  1  X    0.154688  -0.016414  -0.000000   0.000000   0.000000
    9  C  1  Y    0.000000  -0.000000  -0.016414   0.000000  -0.215581
   10  C  1  Z    0.000000  -0.000000  -0.000000  -0.028596   0.000000
   11  C  1  X    0.833446  -0.259518  -0.000000   0.000000   0.000000
   12  C  1  Y    0.000000  -0.000000  -0.259518   0.000000   0.970459
   13  C  1  Z    0.000000  -0.000000  -0.000000   0.877492   0.000000
   14  C  1 XX    0.000000  -0.000000  -0.000000   0.004465   0.000000
   15  C  1 YY    0.000000  -0.000000  -0.000000   0.004465   0.000000
   16  C  1 ZZ    0.000000  -0.000000  -0.000000  -0.008929   0.000000
   17  C  1 XY    0.000000  -0.000000  -0.000000   0.000000   0.000000
   18  C  1 XZ   -0.008089  -0.005479  -0.000000   0.000000   0.000000
   19  C  1 YZ    0.000000  -0.000000  -0.005479   0.000000   0.010742
   20  C  1 XX    0.000000  -0.000000  -0.000000  -0.024991   0.000000
   21  C  1 YY    0.000000  -0.000000  -0.000000  -0.024991   0.000000
   22  C  1 ZZ    0.000000  -0.000000  -0.000000   0.049982   0.000000
   23  C  1 XY    0.000000  -0.000000  -0.000000   0.000000   0.000000
   24  C  1 XZ    0.023145  -0.008428  -0.000000   0.000000   0.000000
   25  C  1 YZ    0.000000  -0.000000  -0.008428   0.000000   0.135515
   26  C  1 XXX   0.002419   0.002614  -0.000000   0.000000   0.000000
   27  C  1 YYY   0.000000  -0.000000   0.002614   0.000000   0.003265
   28  C  1 ZZZ   0.000000  -0.000000  -0.000000  -0.003191   0.000000
   29  C  1 XXY   0.000000  -0.000000   0.001169   0.000000   0.001460
   30  C  1 XXZ   0.000000  -0.000000  -0.000000   0.002141   0.000000
   31  C  1 YYX   0.001082   0.001169  -0.000000   0.000000   0.000000
   32  C  1 YYZ   0.000000  -0.000000  -0.000000   0.002141   0.000000
   33  C  1 ZZX  -0.004328  -0.004675  -0.000000   0.000000   0.000000
   34  C  1 ZZY   0.000000  -0.000000  -0.004675   0.000000  -0.005841
   35  C  1 XYZ   0.000000  -0.000000  -0.000000   0.000000   0.000000
   36  C  1  S    0.000000  -0.000000  -0.000000   0.934636   0.000000
   37  C  1  X    2.420520   0.635458  -0.000000   0.000000   0.000000
   38  C  1  Y    0.000000  -0.000000   0.635458   0.000000   2.260204
   39  C  1  Z    0.000000  -0.000000  -0.000000   1.758941   0.000000
   40  C  1 XX    0.000000  -0.000000  -0.000000  -0.310600   0.000000
   41  C  1 YY    0.000000  -0.000000  -0.000000  -0.310600   0.000000
   42  C  1 ZZ    0.000000  -0.000000  -0.000000   0.621200   0.000000
   43  C  1 XY    0.000000  -0.000000  -0.000000   0.000000   0.000000
   44  C  1 XZ    0.429433  -0.000613  -0.000000   0.000000   0.000000
   45  C  1 YZ    0.000000  -0.000000  -0.000613   0.000000   0.975130
   46  C  1 XXX  -0.026951   0.001517  -0.000000   0.000000   0.000000
   47  C  1 YYY   0.000000  -0.000000   0.001517   0.000000  -0.050593
   48  C  1 ZZZ   0.000000  -0.000000  -0.000000   0.068912   0.000000
   49  C  1 XXY   0.000000  -0.000000   0.000678   0.000000  -0.022626
   50  C  1 XXZ   0.000000  -0.000000  -0.000000  -0.046227   0.000000
   51  C  1 YYX  -0.012053   0.000678  -0.000000   0.000000   0.000000
   52  C  1 YYZ   0.000000  -0.000000  -0.000000  -0.046227   0.000000
   53  C  1 ZZX   0.048211  -0.002714  -0.000000   0.000000   0.000000
   54  C  1 ZZY   0.000000  -0.000000  -0.002714   0.000000   0.090503
   55  C  1 XYZ   0.000000  -0.000000  -0.000000   0.000000   0.000000
   56  C  2  S    0.000000  -0.000000  -0.000000  -0.025563   0.000000
   57  C  2  S    0.000000  -0.000000  -0.000000  -0.136548   0.000000
   58  C  2  S    0.000000  -0.000000  -0.000000  -0.067258   0.000000
   59  C  2  S    0.000000  -0.000000  -0.000000  -1.501928   0.000000
   60  C  2  X   -0.087478  -0.059028  -0.000000   0.000000   0.000000
   61  C  2  Y    0.000000  -0.000000  -0.059028   0.000000   0.192827
   62  C  2  Z    0.000000  -0.000000  -0.000000  -0.037569   0.000000
   63  C  2  X   -0.154688  -0.016414  -0.000000   0.000000   0.000000
   64  C  2  Y    0.000000  -0.000000  -0.016414   0.000000   0.215581
   65  C  2  Z    0.000000  -0.000000  -0.000000   0.028596   0.000000
   66  C  2  X   -0.833446  -0.259518  -0.000000   0.000000   0.000000
   67  C  2  Y    0.000000  -0.000000  -0.259518   0.000000  -0.970459
   68  C  2  Z    0.000000  -0.000000  -0.000000  -0.877492   0.000000
   69  C  2 XX    0.000000  -0.000000  -0.000000   0.004465   0.000000
   70  C  2 YY    0.000000  -0.000000  -0.000000   0.004465   0.000000
   71  C  2 ZZ    0.000000  -0.000000  -0.000000  -0.008929   0.000000
   72  C  2 XY    0.000000  -0.000000  -0.000000   0.000000   0.000000
   73  C  2 XZ   -0.008089   0.005479  -0.000000   0.000000   0.000000
   74  C  2 YZ    0.000000  -0.000000   0.005479   0.000000   0.010742
   75  C  2 XX    0.000000  -0.000000  -0.000000  -0.024991   0.000000
   76  C  2 YY    0.000000  -0.000000  -0.000000  -0.024991   0.000000
   77  C  2 ZZ    0.000000  -0.000000  -0.000000   0.049982   0.000000
   78  C  2 XY    0.000000  -0.000000  -0.000000   0.000000   0.000000
   79  C  2 XZ    0.023145   0.008428  -0.000000   0.000000   0.000000
   80  C  2 YZ    0.000000  -0.000000   0.008428   0.000000   0.135515
   81  C  2 XXX  -0.002419   0.002614  -0.000000   0.000000   0.000000
   82  C  2 YYY   0.000000  -0.000000   0.002614   0.000000  -0.003265
   83  C  2 ZZZ   0.000000  -0.000000  -0.000000   0.003191   0.000000
   84  C  2 XXY   0.000000  -0.000000   0.001169   0.000000  -0.001460
   85  C  2 XXZ   0.000000  -0.000000  -0.000000  -0.002141   0.000000
   86  C  2 YYX  -0.001082   0.001169  -0.000000   0.000000   0.000000
   87  C  2 YYZ   0.000000  -0.000000  -0.000000  -0.002141   0.000000
   88  C  2 ZZX   0.004328  -0.004675  -0.000000   0.000000   0.000000
   89  C  2 ZZY   0.000000  -0.000000  -0.004675   0.000000   0.005841
   90  C  2 XYZ   0.000000  -0.000000  -0.000000   0.000000   0.000000
   91  C  2  S    0.000000  -0.000000  -0.000000   0.934636   0.000000
   92  C  2  X   -2.420520   0.635458  -0.000000   0.000000   0.000000
   93  C  2  Y    0.000000  -0.000000   0.635458   0.000000  -2.260204
   94  C  2  Z    0.000000  -0.000000  -0.000000  -1.758941   0.000000
   95  C  2 XX    0.000000  -0.000000  -0.000000  -0.310600   0.000000
   96  C  2 YY    0.000000  -0.000000  -0.000000  -0.310600   0.000000
   97  C  2 ZZ    0.000000  -0.000000  -0.000000   0.621200   0.000000
   98  C  2 XY    0.000000  -0.000000  -0.000000   0.000000   0.000000
   99  C  2 XZ    0.429433   0.000613  -0.000000   0.000000   0.000000
  100  C  2 YZ    0.000000  -0.000000   0.000613   0.000000   0.975130
  101  C  2 XXX   0.026951   0.001517  -0.000000   0.000000   0.000000
  102  C  2 YYY   0.000000  -0.000000   0.001517   0.000000   0.050593
  103  C  2 ZZZ   0.000000  -0.000000  -0.000000  -0.068912   0.000000
  104  C  2 XXY   0.000000  -0.000000   0.000678   0.000000   0.022626
  105  C  2 XXZ   0.000000  -0.000000  -0.000000   0.046227   0.000000
  106  C  2 YYX   0.012053   0.000678  -0.000000   0.000000   0.000000
  107  C  2 YYZ   0.000000  -0.000000  -0.000000   0.046227   0.000000
  108  C  2 ZZX  -0.048211  -0.002714  -0.000000   0.000000   0.000000
  109  C  2 ZZY   0.000000  -0.000000  -0.002714   0.000000  -0.090503
  110  C  2 XYZ   0.000000  -0.000000  -0.000000   0.000000   0.000000

                     16         17         18         19         20
                    0.1710     0.2047     0.2944     0.2944     0.3367
                     EG         A2U        B2G        B1G        A1G 
    1  C  1  S   -0.000000   0.009972   0.000000   0.000000   0.071318
    2  C  1  S   -0.000000  -0.093435   0.000000   0.000000   0.083938
    3  C  1  S   -0.000000  -0.041977   0.000000   0.000000   0.034967
    4  C  1  S   -0.000000   9.571206   0.000000   0.000000   2.136697
    5  C  1  X   -0.192827   0.000000   0.000000   0.000000   0.000000
    6  C  1  Y   -0.000000   0.000000   0.000000   0.000000   0.000000
    7  C  1  Z   -0.000000   0.013240   0.000000   0.000000  -0.070573
    8  C  1  X   -0.215581   0.000000   0.000000   0.000000   0.000000
    9  C  1  Y   -0.000000   0.000000   0.000000   0.000000   0.000000
   10  C  1  Z   -0.000000   0.435541   0.000000   0.000000   0.037466
   11  C  1  X    0.970459   0.000000   0.000000   0.000000   0.000000
   12  C  1  Y   -0.000000   0.000000   0.000000   0.000000   0.000000
   13  C  1  Z   -0.000000   5.699215   0.000000   0.000000  -1.437072
   14  C  1 XX   -0.000000  -0.003669   0.000000   0.026045   0.010600
   15  C  1 YY   -0.000000  -0.003669   0.000000  -0.026045   0.010600
   16  C  1 ZZ   -0.000000   0.007338   0.000000   0.000000  -0.021200
   17  C  1 XY   -0.000000   0.000000   0.030074   0.000000   0.000000
   18  C  1 XZ    0.010742   0.000000   0.000000   0.000000   0.000000
   19  C  1 YZ   -0.000000   0.000000   0.000000   0.000000   0.000000
   20  C  1 XX   -0.000000  -0.156915   0.000000  -0.049175   0.029882
   21  C  1 YY   -0.000000  -0.156915   0.000000   0.049175   0.029882
   22  C  1 ZZ   -0.000000   0.313831   0.000000   0.000000  -0.059765
   23  C  1 XY   -0.000000   0.000000  -0.056783   0.000000   0.000000
   24  C  1 XZ    0.135515   0.000000   0.000000   0.000000   0.000000
   25  C  1 YZ   -0.000000   0.000000   0.000000   0.000000   0.000000
   26  C  1 XXX   0.003265   0.000000   0.000000   0.000000   0.000000
   27  C  1 YYY  -0.000000   0.000000   0.000000   0.000000   0.000000
   28  C  1 ZZZ  -0.000000   0.019638   0.000000   0.000000   0.000977
   29  C  1 XXY  -0.000000   0.000000   0.000000   0.000000   0.000000
   30  C  1 XXZ  -0.000000  -0.013174   0.000000   0.006524  -0.000655
   31  C  1 YYX   0.001460   0.000000   0.000000   0.000000   0.000000
   32  C  1 YYZ  -0.000000  -0.013174   0.000000  -0.006524  -0.000655
   33  C  1 ZZX  -0.005841   0.000000   0.000000   0.000000   0.000000
   34  C  1 ZZY  -0.000000   0.000000   0.000000   0.000000   0.000000
   35  C  1 XYZ  -0.000000   0.000000   0.007533   0.000000   0.000000
   36  C  1  S   -0.000000  22.805687   0.000000   0.000000  -0.903534
   37  C  1  X    2.260204   0.000000   0.000000   0.000000   0.000000
   38  C  1  Y   -0.000000   0.000000   0.000000   0.000000   0.000000
   39  C  1  Z   -0.000000   4.417208   0.000000   0.000000  -1.942919
   40  C  1 XX   -0.000000  -0.559657   0.000000   0.486248   0.872009
   41  C  1 YY   -0.000000  -0.559657   0.000000  -0.486248   0.872009
   42  C  1 ZZ   -0.000000   1.119313   0.000000   0.000000  -1.744018
   43  C  1 XY   -0.000000   0.000000   0.561470   0.000000   0.000000
   44  C  1 XZ    0.975130   0.000000   0.000000   0.000000   0.000000
   45  C  1 YZ   -0.000000   0.000000   0.000000   0.000000   0.000000
   46  C  1 XXX  -0.050593   0.000000   0.000000   0.000000   0.000000
   47  C  1 YYY  -0.000000   0.000000   0.000000   0.000000   0.000000
   48  C  1 ZZZ  -0.000000   0.031225   0.000000   0.000000  -0.090364
   49  C  1 XXY  -0.000000   0.000000   0.000000   0.000000   0.000000
   50  C  1 XXZ  -0.000000  -0.020946   0.000000  -0.008762   0.060618
   51  C  1 YYX  -0.022626   0.000000   0.000000   0.000000   0.000000
   52  C  1 YYZ  -0.000000  -0.020946   0.000000   0.008762   0.060618
   53  C  1 ZZX   0.090503   0.000000   0.000000   0.000000   0.000000
   54  C  1 ZZY  -0.000000   0.000000   0.000000   0.000000   0.000000
   55  C  1 XYZ  -0.000000   0.000000  -0.010117   0.000000   0.000000
   56  C  2  S   -0.000000  -0.009972   0.000000   0.000000   0.071318
   57  C  2  S   -0.000000   0.093435   0.000000   0.000000   0.083938
   58  C  2  S   -0.000000   0.041977   0.000000   0.000000   0.034967
   59  C  2  S   -0.000000  -9.571206   0.000000   0.000000   2.136697
   60  C  2  X    0.192827   0.000000   0.000000   0.000000   0.000000
   61  C  2  Y   -0.000000   0.000000   0.000000   0.000000   0.000000
   62  C  2  Z   -0.000000   0.013240   0.000000   0.000000   0.070573
   63  C  2  X    0.215581   0.000000   0.000000   0.000000   0.000000
   64  C  2  Y   -0.000000   0.000000   0.000000   0.000000   0.000000
   65  C  2  Z   -0.000000   0.435541   0.000000   0.000000  -0.037466
   66  C  2  X   -0.970459   0.000000   0.000000   0.000000   0.000000
   67  C  2  Y   -0.000000   0.000000   0.000000   0.000000   0.000000
   68  C  2  Z   -0.000000   5.699215   0.000000   0.000000   1.437072
   69  C  2 XX   -0.000000   0.003669   0.000000   0.026045   0.010600
   70  C  2 YY   -0.000000   0.003669   0.000000  -0.026045   0.010600
   71  C  2 ZZ   -0.000000  -0.007338   0.000000   0.000000  -0.021200
   72  C  2 XY   -0.000000   0.000000   0.030074   0.000000   0.000000
   73  C  2 XZ    0.010742   0.000000   0.000000   0.000000   0.000000
   74  C  2 YZ   -0.000000   0.000000   0.000000   0.000000   0.000000
   75  C  2 XX   -0.000000   0.156915   0.000000  -0.049175   0.029882
   76  C  2 YY   -0.000000   0.156915   0.000000   0.049175   0.029882
   77  C  2 ZZ   -0.000000  -0.313831   0.000000   0.000000  -0.059765
   78  C  2 XY   -0.000000   0.000000  -0.056783   0.000000   0.000000
   79  C  2 XZ    0.135515   0.000000   0.000000   0.000000   0.000000
   80  C  2 YZ   -0.000000   0.000000   0.000000   0.000000   0.000000
   81  C  2 XXX  -0.003265   0.000000   0.000000   0.000000   0.000000
   82  C  2 YYY  -0.000000   0.000000   0.000000   0.000000   0.000000
   83  C  2 ZZZ  -0.000000   0.019638   0.000000   0.000000  -0.000977
   84  C  2 XXY  -0.000000   0.000000   0.000000   0.000000   0.000000
   85  C  2 XXZ  -0.000000  -0.013174   0.000000  -0.006524   0.000655
   86  C  2 YYX  -0.001460   0.000000   0.000000   0.000000   0.000000
   87  C  2 YYZ  -0.000000  -0.013174   0.000000   0.006524   0.000655
   88  C  2 ZZX   0.005841   0.000000   0.000000   0.000000   0.000000
   89  C  2 ZZY  -0.000000   0.000000   0.000000   0.000000   0.000000
   90  C  2 XYZ  -0.000000   0.000000  -0.007533   0.000000   0.000000
   91  C  2  S   -0.000000 -22.805687   0.000000   0.000000  -0.903534
   92  C  2  X   -2.260204   0.000000   0.000000   0.000000   0.000000
   93  C  2  Y   -0.000000   0.000000   0.000000   0.000000   0.000000
   94  C  2  Z   -0.000000   4.417208   0.000000   0.000000   1.942919
   95  C  2 XX   -0.000000   0.559657   0.000000   0.486248   0.872009
   96  C  2 YY   -0.000000   0.559657   0.000000  -0.486248   0.872009
   97  C  2 ZZ   -0.000000  -1.119313   0.000000   0.000000  -1.744018
   98  C  2 XY   -0.000000   0.000000   0.561470   0.000000   0.000000
   99  C  2 XZ    0.975130   0.000000   0.000000   0.000000   0.000000
  100  C  2 YZ   -0.000000   0.000000   0.000000   0.000000   0.000000
  101  C  2 XXX   0.050593   0.000000   0.000000   0.000000   0.000000
  102  C  2 YYY  -0.000000   0.000000   0.000000   0.000000   0.000000
  103  C  2 ZZZ  -0.000000   0.031225   0.000000   0.000000   0.090364
  104  C  2 XXY  -0.000000   0.000000   0.000000   0.000000   0.000000
  105  C  2 XXZ  -0.000000  -0.020946   0.000000   0.008762  -0.060618
  106  C  2 YYX   0.022626   0.000000   0.000000   0.000000   0.000000
  107  C  2 YYZ  -0.000000  -0.020946   0.000000  -0.008762  -0.060618
  108  C  2 ZZX  -0.090503   0.000000   0.000000   0.000000   0.000000
  109  C  2 ZZY  -0.000000   0.000000   0.000000   0.000000   0.000000
  110  C  2 XYZ  -0.000000   0.000000   0.010117   0.000000   0.000000

                     21         22         23         24         25
                    0.3629     0.3838     0.3838     0.3970     0.3970
                     A2U        EU         EU         B2U        B1U 
    1  C  1  S   -0.012469  -0.000000  -0.000000   0.000000   0.000000
    2  C  1  S   -0.032161  -0.000000  -0.000000   0.000000   0.000000
    3  C  1  S   -0.002332  -0.000000  -0.000000   0.000000   0.000000
    4  C  1  S    8.796935  -0.000000  -0.000000   0.000000   0.000000
    5  C  1  X   -0.000000   0.021133  -0.000000   0.000000   0.000000
    6  C  1  Y   -0.000000  -0.000000   0.021133   0.000000   0.000000
    7  C  1  Z   -0.053909  -0.000000  -0.000000   0.000000   0.000000
    8  C  1  X   -0.000000   0.050833  -0.000000   0.000000   0.000000
    9  C  1  Y   -0.000000  -0.000000   0.050833   0.000000   0.000000
   10  C  1  Z    0.350525  -0.000000  -0.000000   0.000000   0.000000
   11  C  1  X   -0.000000  -0.689529  -0.000000   0.000000   0.000000
   12  C  1  Y   -0.000000  -0.000000  -0.689529   0.000000   0.000000
   13  C  1  Z    3.536006  -0.000000  -0.000000   0.000000   0.000000
   14  C  1 XX   -0.011897  -0.000000  -0.000000   0.015347   0.000000
   15  C  1 YY   -0.011897  -0.000000  -0.000000  -0.015347   0.000000
   16  C  1 ZZ    0.023795  -0.000000  -0.000000   0.000000   0.000000
   17  C  1 XY   -0.000000  -0.000000  -0.000000   0.000000   0.017721
   18  C  1 XZ   -0.000000   0.029253  -0.000000   0.000000   0.000000
   19  C  1 YZ   -0.000000  -0.000000   0.029253   0.000000   0.000000
   20  C  1 XX   -0.094102  -0.000000  -0.000000  -0.020843   0.000000
   21  C  1 YY   -0.094102  -0.000000  -0.000000   0.020843   0.000000
   22  C  1 ZZ    0.188204  -0.000000  -0.000000   0.000000   0.000000
   23  C  1 XY   -0.000000  -0.000000  -0.000000   0.000000  -0.024068
   24  C  1 XZ   -0.000000  -0.072055  -0.000000   0.000000   0.000000
   25  C  1 YZ   -0.000000  -0.000000  -0.072055   0.000000   0.000000
   26  C  1 XXX  -0.000000   0.008920  -0.000000   0.000000   0.000000
   27  C  1 YYY  -0.000000  -0.000000   0.008920   0.000000   0.000000
   28  C  1 ZZZ  -0.001500  -0.000000  -0.000000   0.000000   0.000000
   29  C  1 XXY  -0.000000  -0.000000   0.003989   0.000000   0.000000
   30  C  1 XXZ   0.001006  -0.000000  -0.000000  -0.022532   0.000000
   31  C  1 YYX  -0.000000   0.003989  -0.000000   0.000000   0.000000
   32  C  1 YYZ   0.001006  -0.000000  -0.000000   0.022532   0.000000
   33  C  1 ZZX  -0.000000  -0.015956  -0.000000   0.000000   0.000000
   34  C  1 ZZY  -0.000000  -0.000000  -0.015956   0.000000   0.000000
   35  C  1 XYZ  -0.000000  -0.000000  -0.000000   0.000000  -0.026018
   36  C  1  S    2.253151  -0.000000  -0.000000   0.000000   0.000000
   37  C  1  X   -0.000000   0.247683  -0.000000   0.000000   0.000000
   38  C  1  Y   -0.000000  -0.000000   0.247683   0.000000   0.000000
   39  C  1  Z    0.467175  -0.000000  -0.000000   0.000000   0.000000
   40  C  1 XX   -0.884241  -0.000000  -0.000000   1.397310   0.000000
   41  C  1 YY   -0.884241  -0.000000  -0.000000  -1.397310   0.000000
   42  C  1 ZZ    1.768482  -0.000000  -0.000000   0.000000   0.000000
   43  C  1 XY   -0.000000  -0.000000  -0.000000   0.000000   1.613474
   44  C  1 XZ   -0.000000   1.171073  -0.000000   0.000000   0.000000
   45  C  1 YZ   -0.000000  -0.000000   1.171073   0.000000   0.000000
   46  C  1 XXX  -0.000000  -0.069697  -0.000000   0.000000   0.000000
   47  C  1 YYY  -0.000000  -0.000000  -0.069697   0.000000   0.000000
   48  C  1 ZZZ   0.122029  -0.000000  -0.000000   0.000000   0.000000
   49  C  1 XXY  -0.000000  -0.000000  -0.031170   0.000000   0.000000
   50  C  1 XXZ  -0.081859  -0.000000  -0.000000   0.142193   0.000000
   51  C  1 YYX  -0.000000  -0.031170  -0.000000   0.000000   0.000000
   52  C  1 YYZ  -0.081859  -0.000000  -0.000000  -0.142193   0.000000
   53  C  1 ZZX  -0.000000   0.124679  -0.000000   0.000000   0.000000
   54  C  1 ZZY  -0.000000  -0.000000   0.124679   0.000000   0.000000
   55  C  1 XYZ  -0.000000  -0.000000  -0.000000   0.000000   0.164190
   56  C  2  S    0.012469  -0.000000  -0.000000   0.000000   0.000000
   57  C  2  S    0.032161  -0.000000  -0.000000   0.000000   0.000000
   58  C  2  S    0.002332  -0.000000  -0.000000   0.000000   0.000000
   59  C  2  S   -8.796935  -0.000000  -0.000000   0.000000   0.000000
   60  C  2  X   -0.000000   0.021133  -0.000000   0.000000   0.000000
   61  C  2  Y   -0.000000  -0.000000   0.021133   0.000000   0.000000
   62  C  2  Z   -0.053909  -0.000000  -0.000000   0.000000   0.000000
   63  C  2  X   -0.000000   0.050833  -0.000000   0.000000   0.000000
   64  C  2  Y   -0.000000  -0.000000   0.050833   0.000000   0.000000
   65  C  2  Z    0.350525  -0.000000  -0.000000   0.000000   0.000000
   66  C  2  X   -0.000000  -0.689529  -0.000000   0.000000   0.000000
   67  C  2  Y   -0.000000  -0.000000  -0.689529   0.000000   0.000000
   68  C  2  Z    3.536006  -0.000000  -0.000000   0.000000   0.000000
   69  C  2 XX    0.011897  -0.000000  -0.000000  -0.015347   0.000000
   70  C  2 YY    0.011897  -0.000000  -0.000000   0.015347   0.000000
   71  C  2 ZZ   -0.023795  -0.000000  -0.000000   0.000000   0.000000
   72  C  2 XY   -0.000000  -0.000000  -0.000000   0.000000  -0.017721
   73  C  2 XZ   -0.000000  -0.029253  -0.000000   0.000000   0.000000
   74  C  2 YZ   -0.000000  -0.000000  -0.029253   0.000000   0.000000
   75  C  2 XX    0.094102  -0.000000  -0.000000   0.020843   0.000000
   76  C  2 YY    0.094102  -0.000000  -0.000000  -0.020843   0.000000
   77  C  2 ZZ   -0.188204  -0.000000  -0.000000   0.000000   0.000000
   78  C  2 XY   -0.000000  -0.000000  -0.000000   0.000000   0.024068
   79  C  2 XZ   -0.000000   0.072055  -0.000000   0.000000   0.000000
   80  C  2 YZ   -0.000000  -0.000000   0.072055   0.000000   0.000000
   81  C  2 XXX  -0.000000   0.008920  -0.000000   0.000000   0.000000
   82  C  2 YYY  -0.000000  -0.000000   0.008920   0.000000   0.000000
   83  C  2 ZZZ  -0.001500  -0.000000  -0.000000   0.000000   0.000000
   84  C  2 XXY  -0.000000  -0.000000   0.003989   0.000000   0.000000
   85  C  2 XXZ   0.001006  -0.000000  -0.000000  -0.022532   0.000000
   86  C  2 YYX  -0.000000   0.003989  -0.000000   0.000000   0.000000
   87  C  2 YYZ   0.001006  -0.000000  -0.000000   0.022532   0.000000
   88  C  2 ZZX  -0.000000  -0.015956  -0.000000   0.000000   0.000000
   89  C  2 ZZY  -0.000000  -0.000000  -0.015956   0.000000   0.000000
   90  C  2 XYZ  -0.000000  -0.000000  -0.000000   0.000000  -0.026018
   91  C  2  S   -2.253151  -0.000000  -0.000000   0.000000   0.000000
   92  C  2  X   -0.000000   0.247683  -0.000000   0.000000   0.000000
   93  C  2  Y   -0.000000  -0.000000   0.247683   0.000000   0.000000
   94  C  2  Z    0.467175  -0.000000  -0.000000   0.000000   0.000000
   95  C  2 XX    0.884241  -0.000000  -0.000000  -1.397310   0.000000
   96  C  2 YY    0.884241  -0.000000  -0.000000   1.397310   0.000000
   97  C  2 ZZ   -1.768482  -0.000000  -0.000000   0.000000   0.000000
   98  C  2 XY   -0.000000  -0.000000  -0.000000   0.000000  -1.613474
   99  C  2 XZ   -0.000000  -1.171073  -0.000000   0.000000   0.000000
  100  C  2 YZ   -0.000000  -0.000000  -1.171073   0.000000   0.000000
  101  C  2 XXX  -0.000000  -0.069697  -0.000000   0.000000   0.000000
  102  C  2 YYY  -0.000000  -0.000000  -0.069697   0.000000   0.000000
  103  C  2 ZZZ   0.122029  -0.000000  -0.000000   0.000000   0.000000
  104  C  2 XXY  -0.000000  -0.000000  -0.031170   0.000000   0.000000
  105  C  2 XXZ  -0.081859  -0.000000  -0.000000   0.142193   0.000000
  106  C  2 YYX  -0.000000  -0.031170  -0.000000   0.000000   0.000000
  107  C  2 YYZ  -0.081859  -0.000000  -0.000000  -0.142193   0.000000
  108  C  2 ZZX  -0.000000   0.124679  -0.000000   0.000000   0.000000
  109  C  2 ZZY  -0.000000  -0.000000   0.124679   0.000000   0.000000
  110  C  2 XYZ  -0.000000  -0.000000  -0.000000   0.000000   0.164190

                     26         27         28         29         30
                    0.3978     0.3978     0.5348     0.5393     0.5393
                     EG         EG         A2U        EU         EU  
    1  C  1  S   -0.000000   0.000000   0.040850   0.000000   0.000000
    2  C  1  S   -0.000000   0.000000   0.299466   0.000000   0.000000
    3  C  1  S   -0.000000   0.000000   0.044715   0.000000   0.000000
    4  C  1  S   -0.000000   0.000000  26.120751   0.000000   0.000000
    5  C  1  X   -0.000000   0.145967   0.000000  -0.138566   0.000000
    6  C  1  Y    0.145967   0.000000   0.000000   0.000000  -0.138566
    7  C  1  Z   -0.000000   0.000000  -0.035517   0.000000   0.000000
    8  C  1  X   -0.000000   0.436816   0.000000  -0.609077   0.000000
    9  C  1  Y    0.436816   0.000000   0.000000   0.000000  -0.609077
   10  C  1  Z   -0.000000   0.000000   0.923563   0.000000   0.000000
   11  C  1  X   -0.000000   6.149128   0.000000   0.815949   0.000000
   12  C  1  Y    6.149128   0.000000   0.000000   0.000000   0.815949
   13  C  1  Z   -0.000000   0.000000  14.121453   0.000000   0.000000
   14  C  1 XX   -0.000000   0.000000   0.002027   0.000000   0.000000
   15  C  1 YY   -0.000000   0.000000   0.002027   0.000000   0.000000
   16  C  1 ZZ   -0.000000   0.000000  -0.004054   0.000000   0.000000
   17  C  1 XY   -0.000000   0.000000   0.000000   0.000000   0.000000
   18  C  1 XZ   -0.000000  -0.022182   0.000000  -0.005784   0.000000
   19  C  1 YZ   -0.022182   0.000000   0.000000   0.000000  -0.005784
   20  C  1 XX   -0.000000   0.000000  -0.345388   0.000000   0.000000
   21  C  1 YY   -0.000000   0.000000  -0.345388   0.000000   0.000000
   22  C  1 ZZ   -0.000000   0.000000   0.690775   0.000000   0.000000
   23  C  1 XY   -0.000000   0.000000   0.000000   0.000000   0.000000
   24  C  1 XZ   -0.000000   0.457010   0.000000  -0.087622   0.000000
   25  C  1 YZ    0.457010   0.000000   0.000000   0.000000  -0.087622
   26  C  1 XXX  -0.000000   0.003844   0.000000   0.003462   0.000000
   27  C  1 YYY   0.003844   0.000000   0.000000   0.000000   0.003462
   28  C  1 ZZZ  -0.000000   0.000000   0.044073   0.000000   0.000000
   29  C  1 XXY   0.001719   0.000000   0.000000   0.000000   0.001548
   30  C  1 XXZ  -0.000000   0.000000  -0.029565   0.000000   0.000000
   31  C  1 YYX  -0.000000   0.001719   0.000000   0.001548   0.000000
   32  C  1 YYZ  -0.000000   0.000000  -0.029565   0.000000   0.000000
   33  C  1 ZZX  -0.000000  -0.006876   0.000000  -0.006193   0.000000
   34  C  1 ZZY  -0.006876   0.000000   0.000000   0.000000  -0.006193
   35  C  1 XYZ  -0.000000   0.000000   0.000000   0.000000   0.000000
   36  C  1  S   -0.000000   0.000000  22.564323   0.000000   0.000000
   37  C  1  X   -0.000000   2.404319   0.000000  -0.321005   0.000000
   38  C  1  Y    2.404319   0.000000   0.000000   0.000000  -0.321005
   39  C  1  Z   -0.000000   0.000000   3.769040   0.000000   0.000000
   40  C  1 XX   -0.000000   0.000000  -1.157995   0.000000   0.000000
   41  C  1 YY   -0.000000   0.000000  -1.157995   0.000000   0.000000
   42  C  1 ZZ   -0.000000   0.000000   2.315989   0.000000   0.000000
   43  C  1 XY   -0.000000   0.000000   0.000000   0.000000   0.000000
   44  C  1 XZ   -0.000000   3.374851   0.000000   0.338618   0.000000
   45  C  1 YZ    3.374851   0.000000   0.000000   0.000000   0.338618
   46  C  1 XXX  -0.000000  -0.189105   0.000000  -0.038462   0.000000
   47  C  1 YYY  -0.189105   0.000000   0.000000   0.000000  -0.038462
   48  C  1 ZZZ  -0.000000   0.000000   0.073440   0.000000   0.000000
   49  C  1 XXY  -0.084570   0.000000   0.000000   0.000000  -0.017201
   50  C  1 XXZ  -0.000000   0.000000  -0.049265   0.000000   0.000000
   51  C  1 YYX  -0.000000  -0.084570   0.000000  -0.017201   0.000000
   52  C  1 YYZ  -0.000000   0.000000  -0.049265   0.000000   0.000000
   53  C  1 ZZX  -0.000000   0.338282   0.000000   0.068802   0.000000
   54  C  1 ZZY   0.338282   0.000000   0.000000   0.000000   0.068802
   55  C  1 XYZ  -0.000000   0.000000   0.000000   0.000000   0.000000
   56  C  2  S   -0.000000   0.000000  -0.040850   0.000000   0.000000
   57  C  2  S   -0.000000   0.000000  -0.299466   0.000000   0.000000
   58  C  2  S   -0.000000   0.000000  -0.044715   0.000000   0.000000
   59  C  2  S   -0.000000   0.000000 -26.120751   0.000000   0.000000
   60  C  2  X   -0.000000  -0.145967   0.000000  -0.138566   0.000000
   61  C  2  Y   -0.145967   0.000000   0.000000   0.000000  -0.138566
   62  C  2  Z   -0.000000   0.000000  -0.035517   0.000000   0.000000
   63  C  2  X   -0.000000  -0.436816   0.000000  -0.609077   0.000000
   64  C  2  Y   -0.436816   0.000000   0.000000   0.000000  -0.609077
   65  C  2  Z   -0.000000   0.000000   0.923563   0.000000   0.000000
   66  C  2  X   -0.000000  -6.149128   0.000000   0.815949   0.000000
   67  C  2  Y   -6.149128   0.000000   0.000000   0.000000   0.815949
   68  C  2  Z   -0.000000   0.000000  14.121453   0.000000   0.000000
   69  C  2 XX   -0.000000   0.000000  -0.002027   0.000000   0.000000
   70  C  2 YY   -0.000000   0.000000  -0.002027   0.000000   0.000000
   71  C  2 ZZ   -0.000000   0.000000   0.004054   0.000000   0.000000
   72  C  2 XY   -0.000000   0.000000   0.000000   0.000000   0.000000
   73  C  2 XZ   -0.000000  -0.022182   0.000000   0.005784   0.000000
   74  C  2 YZ   -0.022182   0.000000   0.000000   0.000000   0.005784
   75  C  2 XX   -0.000000   0.000000   0.345388   0.000000   0.000000
   76  C  2 YY   -0.000000   0.000000   0.345388   0.000000   0.000000
   77  C  2 ZZ   -0.000000   0.000000  -0.690775   0.000000   0.000000
   78  C  2 XY   -0.000000   0.000000   0.000000   0.000000   0.000000
   79  C  2 XZ   -0.000000   0.457010   0.000000   0.087622   0.000000
   80  C  2 YZ    0.457010   0.000000   0.000000   0.000000   0.087622
   81  C  2 XXX  -0.000000  -0.003844   0.000000   0.003462   0.000000
   82  C  2 YYY  -0.003844   0.000000   0.000000   0.000000   0.003462
   83  C  2 ZZZ  -0.000000   0.000000   0.044073   0.000000   0.000000
   84  C  2 XXY  -0.001719   0.000000   0.000000   0.000000   0.001548
   85  C  2 XXZ  -0.000000   0.000000  -0.029565   0.000000   0.000000
   86  C  2 YYX  -0.000000  -0.001719   0.000000   0.001548   0.000000
   87  C  2 YYZ  -0.000000   0.000000  -0.029565   0.000000   0.000000
   88  C  2 ZZX  -0.000000   0.006876   0.000000  -0.006193   0.000000
   89  C  2 ZZY   0.006876   0.000000   0.000000   0.000000  -0.006193
   90  C  2 XYZ  -0.000000   0.000000   0.000000   0.000000   0.000000
   91  C  2  S   -0.000000   0.000000 -22.564323   0.000000   0.000000
   92  C  2  X   -0.000000  -2.404319   0.000000  -0.321005   0.000000
   93  C  2  Y   -2.404319   0.000000   0.000000   0.000000  -0.321005
   94  C  2  Z   -0.000000   0.000000   3.769040   0.000000   0.000000
   95  C  2 XX   -0.000000   0.000000   1.157995   0.000000   0.000000
   96  C  2 YY   -0.000000   0.000000   1.157995   0.000000   0.000000
   97  C  2 ZZ   -0.000000   0.000000  -2.315989   0.000000   0.000000
   98  C  2 XY   -0.000000   0.000000   0.000000   0.000000   0.000000
   99  C  2 XZ   -0.000000   3.374851   0.000000  -0.338618   0.000000
  100  C  2 YZ    3.374851   0.000000   0.000000   0.000000  -0.338618
  101  C  2 XXX  -0.000000   0.189105   0.000000  -0.038462   0.000000
  102  C  2 YYY   0.189105   0.000000   0.000000   0.000000  -0.038462
  103  C  2 ZZZ  -0.000000   0.000000   0.073440   0.000000   0.000000
  104  C  2 XXY   0.084570   0.000000   0.000000   0.000000  -0.017201
  105  C  2 XXZ  -0.000000   0.000000  -0.049265   0.000000   0.000000
  106  C  2 YYX  -0.000000   0.084570   0.000000  -0.017201   0.000000
  107  C  2 YYZ  -0.000000   0.000000  -0.049265   0.000000   0.000000
  108  C  2 ZZX  -0.000000  -0.338282   0.000000   0.068802   0.000000
  109  C  2 ZZY  -0.338282   0.000000   0.000000   0.000000   0.068802
  110  C  2 XYZ  -0.000000   0.000000   0.000000   0.000000   0.000000

                     31         32         33         34         35
                    0.5720     0.7717     0.7717     0.8574     0.8680
                     A1G        EG         EG         A2U        A1G 
    1  C  1  S   -0.058917  -0.000000   0.000000   0.030600  -0.221327
    2  C  1  S    0.058920  -0.000000   0.000000  -0.023399  -0.653432
    3  C  1  S   -0.120313  -0.000000   0.000000  -0.048492  -0.132252
    4  C  1  S   -2.511315  -0.000000   0.000000   0.151271  -0.916707
    5  C  1  X    0.000000  -0.000000  -0.223474  -0.000000  -0.000000
    6  C  1  Y    0.000000  -0.223474   0.000000  -0.000000  -0.000000
    7  C  1  Z   -0.146506  -0.000000   0.000000  -0.247550  -0.058184
    8  C  1  X    0.000000  -0.000000   0.024638  -0.000000  -0.000000
    9  C  1  Y    0.000000   0.024638   0.000000  -0.000000  -0.000000
   10  C  1  Z   -0.647770  -0.000000   0.000000  -0.542932  -0.207423
   11  C  1  X    0.000000  -0.000000   9.350921  -0.000000  -0.000000
   12  C  1  Y    0.000000   9.350921   0.000000  -0.000000  -0.000000
   13  C  1  Z    3.029657  -0.000000   0.000000   1.118784   1.986630
   14  C  1 XX    0.020350  -0.000000   0.000000  -0.018728   0.007956
   15  C  1 YY    0.020350  -0.000000   0.000000  -0.018728   0.007956
   16  C  1 ZZ   -0.040700  -0.000000   0.000000   0.037456  -0.015911
   17  C  1 XY    0.000000  -0.000000   0.000000  -0.000000  -0.000000
   18  C  1 XZ    0.000000  -0.000000  -0.040031  -0.000000  -0.000000
   19  C  1 YZ    0.000000  -0.040031   0.000000  -0.000000  -0.000000
   20  C  1 XX   -0.201841  -0.000000   0.000000  -0.217512   0.182737
   21  C  1 YY   -0.201841  -0.000000   0.000000  -0.217512   0.182737
   22  C  1 ZZ    0.403681  -0.000000   0.000000   0.435025  -0.365474
   23  C  1 XY    0.000000  -0.000000   0.000000  -0.000000  -0.000000
   24  C  1 XZ    0.000000  -0.000000   1.291644  -0.000000  -0.000000
   25  C  1 YZ    0.000000   1.291644   0.000000  -0.000000  -0.000000
   26  C  1 XXX   0.000000  -0.000000  -0.027415  -0.000000  -0.000000
   27  C  1 YYY   0.000000  -0.027415   0.000000  -0.000000  -0.000000
   28  C  1 ZZZ   0.006201  -0.000000   0.000000   0.037216   0.009993
   29  C  1 XXY   0.000000  -0.012260   0.000000  -0.000000  -0.000000
   30  C  1 XXZ  -0.004160  -0.000000   0.000000  -0.024965  -0.006703
   31  C  1 YYX   0.000000  -0.000000  -0.012260  -0.000000  -0.000000
   32  C  1 YYZ  -0.004160  -0.000000   0.000000  -0.024965  -0.006703
   33  C  1 ZZX   0.000000  -0.000000   0.049041  -0.000000  -0.000000
   34  C  1 ZZY   0.000000   0.049041   0.000000  -0.000000  -0.000000
   35  C  1 XYZ   0.000000  -0.000000   0.000000  -0.000000  -0.000000
   36  C  1  S    1.275643  -0.000000   0.000000   4.414452   0.505024
   37  C  1  X    0.000000  -0.000000   1.081020  -0.000000  -0.000000
   38  C  1  Y    0.000000   1.081020   0.000000  -0.000000  -0.000000
   39  C  1  Z    0.464186  -0.000000   0.000000   0.695976   0.955696
   40  C  1 XX   -0.612738  -0.000000   0.000000   0.216670  -0.750973
   41  C  1 YY   -0.612738  -0.000000   0.000000   0.216670  -0.750973
   42  C  1 ZZ    1.225476  -0.000000   0.000000  -0.433339   1.501947
   43  C  1 XY    0.000000  -0.000000   0.000000  -0.000000  -0.000000
   44  C  1 XZ    0.000000  -0.000000   3.521695  -0.000000  -0.000000
   45  C  1 YZ    0.000000   3.521695   0.000000  -0.000000  -0.000000
   46  C  1 XXX   0.000000  -0.000000  -0.348505  -0.000000  -0.000000
   47  C  1 YYY   0.000000  -0.348505   0.000000  -0.000000  -0.000000
   48  C  1 ZZZ   0.237219  -0.000000   0.000000  -0.298653  -0.109115
   49  C  1 XXY   0.000000  -0.155856   0.000000  -0.000000  -0.000000
   50  C  1 XXZ  -0.159131  -0.000000   0.000000   0.200342   0.073197
   51  C  1 YYX   0.000000  -0.000000  -0.155856  -0.000000  -0.000000
   52  C  1 YYZ  -0.159131  -0.000000   0.000000   0.200342   0.073197
   53  C  1 ZZX   0.000000  -0.000000   0.623424  -0.000000  -0.000000
   54  C  1 ZZY   0.000000   0.623424   0.000000  -0.000000  -0.000000
   55  C  1 XYZ   0.000000  -0.000000   0.000000  -0.000000  -0.000000
   56  C  2  S   -0.058917  -0.000000   0.000000  -0.030600  -0.221327
   57  C  2  S    0.058920  -0.000000   0.000000   0.023399  -0.653432
   58  C  2  S   -0.120313  -0.000000   0.000000   0.048492  -0.132252
   59  C  2  S   -2.511315  -0.000000   0.000000  -0.151271  -0.916707
   60  C  2  X    0.000000  -0.000000   0.223474  -0.000000  -0.000000
   61  C  2  Y    0.000000   0.223474   0.000000  -0.000000  -0.000000
   62  C  2  Z    0.146506  -0.000000   0.000000  -0.247550   0.058184
   63  C  2  X    0.000000  -0.000000  -0.024638  -0.000000  -0.000000
   64  C  2  Y    0.000000  -0.024638   0.000000  -0.000000  -0.000000
   65  C  2  Z    0.647770  -0.000000   0.000000  -0.542932   0.207423
   66  C  2  X    0.000000  -0.000000  -9.350921  -0.000000  -0.000000
   67  C  2  Y    0.000000  -9.350921   0.000000  -0.000000  -0.000000
   68  C  2  Z   -3.029657  -0.000000   0.000000   1.118784  -1.986630
   69  C  2 XX    0.020350  -0.000000   0.000000   0.018728   0.007956
   70  C  2 YY    0.020350  -0.000000   0.000000   0.018728   0.007956
   71  C  2 ZZ   -0.040700  -0.000000   0.000000  -0.037456  -0.015911
   72  C  2 XY    0.000000  -0.000000   0.000000  -0.000000  -0.000000
   73  C  2 XZ    0.000000  -0.000000  -0.040031  -0.000000  -0.000000
   74  C  2 YZ    0.000000  -0.040031   0.000000  -0.000000  -0.000000
   75  C  2 XX   -0.201841  -0.000000   0.000000   0.217512   0.182737
   76  C  2 YY   -0.201841  -0.000000   0.000000   0.217512   0.182737
   77  C  2 ZZ    0.403681  -0.000000   0.000000  -0.435025  -0.365474
   78  C  2 XY    0.000000  -0.000000   0.000000  -0.000000  -0.000000
   79  C  2 XZ    0.000000  -0.000000   1.291644  -0.000000  -0.000000
   80  C  2 YZ    0.000000   1.291644   0.000000  -0.000000  -0.000000
   81  C  2 XXX   0.000000  -0.000000   0.027415  -0.000000  -0.000000
   82  C  2 YYY   0.000000   0.027415   0.000000  -0.000000  -0.000000
   83  C  2 ZZZ  -0.006201  -0.000000   0.000000   0.037216  -0.009993
   84  C  2 XXY   0.000000   0.012260   0.000000  -0.000000  -0.000000
   85  C  2 XXZ   0.004160  -0.000000   0.000000  -0.024965   0.006703
   86  C  2 YYX   0.000000  -0.000000   0.012260  -0.000000  -0.000000
   87  C  2 YYZ   0.004160  -0.000000   0.000000  -0.024965   0.006703
   88  C  2 ZZX   0.000000  -0.000000  -0.049041  -0.000000  -0.000000
   89  C  2 ZZY   0.000000  -0.049041   0.000000  -0.000000  -0.000000
   90  C  2 XYZ   0.000000  -0.000000   0.000000  -0.000000  -0.000000
   91  C  2  S    1.275643  -0.000000   0.000000  -4.414452   0.505024
   92  C  2  X    0.000000  -0.000000  -1.081020  -0.000000  -0.000000
   93  C  2  Y    0.000000  -1.081020   0.000000  -0.000000  -0.000000
   94  C  2  Z   -0.464186  -0.000000   0.000000   0.695976  -0.955696
   95  C  2 XX   -0.612738  -0.000000   0.000000  -0.216670  -0.750973
   96  C  2 YY   -0.612738  -0.000000   0.000000  -0.216670  -0.750973
   97  C  2 ZZ    1.225476  -0.000000   0.000000   0.433339   1.501947
   98  C  2 XY    0.000000  -0.000000   0.000000  -0.000000  -0.000000
   99  C  2 XZ    0.000000  -0.000000   3.521695  -0.000000  -0.000000
  100  C  2 YZ    0.000000   3.521695   0.000000  -0.000000  -0.000000
  101  C  2 XXX   0.000000  -0.000000   0.348505  -0.000000  -0.000000
  102  C  2 YYY   0.000000   0.348505   0.000000  -0.000000  -0.000000
  103  C  2 ZZZ  -0.237219  -0.000000   0.000000  -0.298653   0.109115
  104  C  2 XXY   0.000000   0.155856   0.000000  -0.000000  -0.000000
  105  C  2 XXZ   0.159131  -0.000000   0.000000   0.200342  -0.073197
  106  C  2 YYX   0.000000  -0.000000   0.155856  -0.000000  -0.000000
  107  C  2 YYZ   0.159131  -0.000000   0.000000   0.200342  -0.073197
  108  C  2 ZZX   0.000000  -0.000000  -0.623424  -0.000000  -0.000000
  109  C  2 ZZY   0.000000  -0.623424   0.000000  -0.000000  -0.000000
  110  C  2 XYZ   0.000000  -0.000000   0.000000  -0.000000  -0.000000

                     36         37         38         39         40
                    0.9532     0.9532     1.0218     1.0218     1.0376
                     B2G        B1G        EU         EU         EU  
    1  C  1  S    0.000000   0.000000  -0.000000  -0.000000  -0.000000
    2  C  1  S    0.000000   0.000000  -0.000000  -0.000000  -0.000000
[...]
  104  C  2 XXY  -0.000000  -0.000000
  105  C  2 XXZ  -0.749588  -0.470527
  106  C  2 YYX  -0.000000  -0.000000
  107  C  2 YYZ  -0.749588  -0.470527
  108  C  2 ZZX  -0.000000  -0.000000
  109  C  2 ZZY  -0.000000  -0.000000
  110  C  2 XYZ  -0.000000  -0.000000
 ...... END OF RHF CALCULATION ......
 CPU     0: STEP CPU TIME=     3.44 TOTAL CPU TIME=        3.5 (    0.1 MIN)
 TOTAL WALL CLOCK TIME=        3.6 SECONDS, CPU UTILIZATION IS  97.76%

     ----------------------------------------------------------------
     PROPERTY VALUES FOR THE RHF   SELF-CONSISTENT FIELD WAVEFUNCTION
     ----------------------------------------------------------------

          ---------------------------------------
          MULLIKEN AND LOWDIN POPULATION ANALYSES
          ---------------------------------------

               ----- POPULATIONS IN EACH AO -----
                             MULLIKEN      LOWDIN
              1  C  1  S      1.95743     1.56428
              2  C  1  S      0.98982     0.49055
              3  C  1  S      0.21803     0.31733
              4  C  1  S      0.50627     0.14898
              5  C  1  X      0.24302     0.20529
              6  C  1  Y      0.24302     0.20529
              7  C  1  Z      0.10675     0.08722
              8  C  1  X      0.48472     0.19024
              9  C  1  Y      0.48472     0.19024
             10  C  1  Z      0.21982     0.13489
             11  C  1  X      0.24110     0.12034
             12  C  1  Y      0.24110     0.12034
             13  C  1  Z      0.00853     0.14462
             14  C  1 XX      0.00469     0.10961
             15  C  1 YY      0.00000     0.10961
             16  C  1 ZZ      0.00000     0.14081
             17  C  1 XY      0.00544     0.00000
             18  C  1 XZ      0.00544     0.00387
             19  C  1 YZ      0.00000     0.00387
             20  C  1 XX      0.00231     0.06083
             21  C  1 YY      0.00000     0.06083
             22  C  1 ZZ      0.00000     0.13157
             23  C  1 XY      0.01750     0.00000
             24  C  1 XZ      0.01750     0.02613
             25  C  1 YZ      0.00000     0.02613
             26  C  1 XXX     0.00000     0.10398
             27  C  1 YYY     0.00000     0.10398
             28  C  1 ZZZ     0.00333     0.09243
             29  C  1 XXY     0.00105     0.04636
             30  C  1 XXZ     0.00333     0.02896
             31  C  1 YYX     0.00000     0.04636
             32  C  1 YYZ     0.00000     0.02896
             33  C  1 ZZX     0.00000     0.08650
             34  C  1 ZZY     0.00000     0.08650
             35  C  1 XYZ     0.00000     0.00000
             36  C  1  S      0.00162     0.03712
             37  C  1  X      0.00428     0.02115
             38  C  1  Y      0.00428     0.02115
             39  C  1  Z     -0.00404     0.03326
             40  C  1 XX     -0.01149     0.00407
             41  C  1 YY      0.00000     0.00407
             42  C  1 ZZ      0.00000     0.04192
             43  C  1 XY      0.00109     0.00000
             44  C  1 XZ      0.00109     0.01582
             45  C  1 YZ      0.00000     0.01582
             46  C  1 XXX     0.00000     0.06132
             47  C  1 YYY     0.00000     0.06132
             48  C  1 ZZZ    -0.00048     0.16746
             49  C  1 XXY    -0.00078     0.02658
             50  C  1 XXZ    -0.00048     0.03031
             51  C  1 YYX     0.00000     0.02658
             52  C  1 YYZ     0.00000     0.03031
             53  C  1 ZZX     0.00000     0.09243
             54  C  1 ZZY     0.00000     0.09243
             55  C  1 XYZ     0.00000     0.00000
             56  C  2  S      1.95743     1.56428
             57  C  2  S      0.98982     0.49055
             58  C  2  S      0.21803     0.31733
             59  C  2  S      0.50627     0.14898
             60  C  2  X      0.24302     0.20529
             61  C  2  Y      0.24302     0.20529
             62  C  2  Z      0.10675     0.08722
             63  C  2  X      0.48472     0.19024
             64  C  2  Y      0.48472     0.19024
             65  C  2  Z      0.21982     0.13489
             66  C  2  X      0.24110     0.12034
             67  C  2  Y      0.24110     0.12034
             68  C  2  Z      0.00853     0.14462
             69  C  2 XX      0.00469     0.10961
             70  C  2 YY      0.00000     0.10961
             71  C  2 ZZ      0.00000     0.14081
             72  C  2 XY      0.00544     0.00000
             73  C  2 XZ      0.00544     0.00387
             74  C  2 YZ      0.00000     0.00387
             75  C  2 XX      0.00231     0.06083
             76  C  2 YY      0.00000     0.06083
             77  C  2 ZZ      0.00000     0.13157
             78  C  2 XY      0.01750     0.00000
             79  C  2 XZ      0.01750     0.02613
             80  C  2 YZ      0.00000     0.02613
             81  C  2 XXX     0.00000     0.10398
             82  C  2 YYY     0.00000     0.10398
             83  C  2 ZZZ     0.00333     0.09243
             84  C  2 XXY     0.00105     0.04636
             85  C  2 XXZ     0.00333     0.02896
             86  C  2 YYX     0.00000     0.04636
             87  C  2 YYZ     0.00000     0.02896
             88  C  2 ZZX     0.00000     0.08650
             89  C  2 ZZY     0.00000     0.08650
             90  C  2 XYZ     0.00000     0.00000
             91  C  2  S      0.00162     0.03712
             92  C  2  X      0.00428     0.02115
             93  C  2  Y      0.00428     0.02115
             94  C  2  Z     -0.00404     0.03326
             95  C  2 XX     -0.01149     0.00407
             96  C  2 YY      0.00000     0.00407
             97  C  2 ZZ      0.00000     0.04192
             98  C  2 XY      0.00109     0.00000
             99  C  2 XZ      0.00109     0.01582
            100  C  2 YZ      0.00000     0.01582
            101  C  2 XXX     0.00000     0.06132
            102  C  2 YYY     0.00000     0.06132
            103  C  2 ZZZ    -0.00048     0.16746
            104  C  2 XXY    -0.00078     0.02658
            105  C  2 XXZ    -0.00048     0.03031
            106  C  2 YYX     0.00000     0.02658
            107  C  2 YYZ     0.00000     0.03031
            108  C  2 ZZX     0.00000     0.09243
            109  C  2 ZZY     0.00000     0.09243
            110  C  2 XYZ     0.00000     0.00000

          ----- MULLIKEN ATOMIC OVERLAP POPULATIONS -----
          (OFF-DIAGONAL ELEMENTS NEED TO BE MULTIPLIED BY 2)

             1           2

    1    5.6559399
    2    0.3440601   5.6559399

          TOTAL MULLIKEN AND LOWDIN ATOMIC POPULATIONS
       ATOM         MULL.POP.    CHARGE          LOW.POP.     CHARGE
    1 CARBON        6.000000    0.000000         6.000000    0.000000
    2 CARBON        6.000000    0.000000         6.000000    0.000000

          MULLIKEN SPHERICAL HARMONIC POPULATIONS
       ATOM           S       P       D      F      G      H      I    TOTAL
    1 CARBON        3.67    2.28    0.04   0.01   0.00   0.00   0.00    6.00
    2 CARBON        3.67    2.28    0.04   0.01   0.00   0.00   0.00    6.00

          -------------------------------
          BOND ORDER AND VALENCE ANALYSIS     BOND ORDER THRESHOLD=0.050
          -------------------------------

                   BOND                       BOND                       BOND
  ATOM PAIR DIST  ORDER      ATOM PAIR DIST  ORDER      ATOM PAIR DIST  ORDER
    1   2  1.260  2.844

                       TOTAL       BONDED        FREE
      ATOM            VALENCE     VALENCE     VALENCE
    1 CARBON            2.844       2.844       0.000
    2 CARBON            2.844       2.844       0.000

          ---------------------
          ELECTROSTATIC MOMENTS
          ---------------------

 POINT   1           X           Y           Z (BOHR)    CHARGE
                 0.000000    0.000000    0.000000        0.00 (A.U.)
         DX          DY          DZ         /D/  (DEBYE)
     0.000000    0.000000   -0.000000    0.000000
 ...... END OF PROPERTY EVALUATION ......
 CPU     0: STEP CPU TIME=     0.03 TOTAL CPU TIME=        3.5 (    0.1 MIN)
 TOTAL WALL CLOCK TIME=        3.6 SECONDS, CPU UTILIZATION IS  98.05%
 DDI: Creating Array [0] - 6105 x 344 = 2100120 words.
 DDI: Creating Array [1] - 12100 x 10 = 121000 words.
 DDI: Creating Array [2] - 86 x 40 = 3440 words.
 DDI: Creating Array [3] - 10 x 10 = 100 words.
 DDI: Creating Array [4] - 6105 x 10 = 61050 words.

     ---------------------------
     COUPLED CLUSTER CALCULATION
     ---------------------------
 CCTYP                        =CCSD(T) 
 TOTAL NUMBER OF MOS          =    92
 NUMBER OF OCCUPIED MOS       =     6
 NUMBER OF FROZEN CORE MOS    =     2
 NUMBER OF FROZEN VIRTUAL MOS =     0
 MAXIMUM CC ITERATIONS        =    30
 MAXIMUM DIIS ITERATIONS      =     5
 CONVERGENCE CRITERION FOR CC =     7
 AMPLITUDE ACCURACY THRESHOLD = 0.0E+00

     --------------------------------------------
     PARTIAL TWO ELECTRON INTEGRAL TRANSFORMATION
     --------------------------------------------

 NUMBER OF CORE MOLECULAR ORBITALS     =    2
 NUMBER OF OCCUPIED MOLECULAR ORBITALS =    6
 TOTAL NUMBER OF MOLECULAR ORBITALS    =   92
 TOTAL NUMBER OF ATOMIC ORBITALS       =  110
 THRESHOLD FOR KEEPING TRANSFORMED 2E- INTEGRALS = 1.000E-09

 -------------------------------     ------------------------------
 DISTRIBUTED DATA TRANSFORMATION     PROGRAM WRITTEN BY G. FLETCHER
 -------------------------------     ------------------------------

 THE DISTRIBUTED MEMORY REQUIRED FOR THIS STEP IS MEMDDI=         3 MWORDS
 CREATING DISTRIBUTED STORAGE FOR [VIR VIR|VIR OCC] INTEGRALS
 CREATING DISTRIBUTED STORAGE FOR [VIR OCC|VIR OCC] INTEGRALS
 CREATING DISTRIBUTED STORAGE FOR [VIR OCC|OCC OCC] INTEGRALS
 CREATING DISTRIBUTED STORAGE FOR [OCC OCC|OCC OCC] INTEGRALS
 CREATING DISTRIBUTED STORAGE FOR [VIR VIR|OCC OCC] INTEGRALS
 FOR    1 PROCESSORS, THE REPLICATED MEMORY NEEDED IS      235318 WORDS.
 SCHWARZ INEQUALITY OVERHEAD:      6105 INTEGRALS, T=        0.00

      DIRECT 4-INDEX TRANSFORMATION 
      SCHWARZ INEQUALITY TEST SKIPPED          0 INTEGRAL BLOCKS
 ... END OF INTEGRAL TRANSFORMATION ...
 CPU     0: STEP CPU TIME=     2.71 TOTAL CPU TIME=        6.2 (    0.1 MIN)
 TOTAL WALL CLOCK TIME=        6.3 SECONDS, CPU UTILIZATION IS  98.73%
 DDI: Creating Array [5] - 344 x 344 = 118336 words.
 DDI: Creating Array [6] - 344 x 344 = 118336 words.
 DDI: Creating Array [7] - 344 x 344 = 118336 words.
 DDI: Creating Array [8] - 344 x 344 = 118336 words.
 DDI: Creating Array [9] - 344 x 344 = 118336 words.
 DDI: Creating Array [10] - 7396 x 16 = 118336 words.
 DDI: Creating Array [11] - 7396 x 16 = 118336 words.

   -----------------------
   COUPLED-CLUSTER PROGRAM
   -----------------------

   -------------------------------------------------------
   P.PIECUCH, S.A.KUCHARSKI, M.WLOCH, K.KOWALSKI, M.MUSIAL
   -------------------------------------------------------

 *****************************************************************
 THE FOLLOWING PAPERS SHOULD BE CITED WHEN USING COUPLED-CLUSTER
 OPTIONS:

 CCTYP = LCCD, CCD, CCSD, CCSD(T)
 P. PIECUCH, S.A. KUCHARSKI, K. KOWALSKI, AND M. MUSIAL,
 COMP. PHYS. COMMUN. 149, 71-96 (2002).

 CCTYP = R-CC, CR-CC, CCSD(TQ), CR-CC(Q)
 P. PIECUCH, S.A. KUCHARSKI, K. KOWALSKI, AND M. MUSIAL,
 COMP. PHYS. COMMUN. 149, 71-96 (2002);
 K. KOWALSKI AND P. PIECUCH, J. CHEM. PHYS. 113, 18-35 (2000);
 K. KOWALSKI AND P. PIECUCH, J. CHEM. PHYS. 113, 5644-5652 (2000).

 CCTYP = EOM-CCSD, CR-EOM
 P. PIECUCH, S.A. KUCHARSKI, K. KOWALSKI, AND M. MUSIAL,
 COMP. PHYS. COMMUN. 149, 71-96 (2002);
 K. KOWALSKI AND P. PIECUCH, J. CHEM. PHYS. 120, 1715-1738 (2004);
 M. WLOCH, J.R. GOUR, K. KOWALSKI, AND P. PIECUCH,
 J. CHEM. PHYS. 122, 214107-1 - 214107-15 (2005).

 CCTYP = CR-CCL
 P. PIECUCH, S.A. KUCHARSKI, K. KOWALSKI, AND M. MUSIAL,
 COMP. PHYS. COMMUN. 149, 71-96 (2002);
 P. PIECUCH AND M. WLOCH, J. CHEM. PHYS. 123,
 224105-1 - 224105-10 (2005).

 CCTYP = CR-EOML
 P. PIECUCH, S.A. KUCHARSKI, K. KOWALSKI, AND M. MUSIAL,
 COMP. PHYS. COMMUN. 149, 71-96 (2002);
 P. PIECUCH, J. R. GOUR, AND M. WLOCH,
 INT. J. QUANTUM CHEM. 109, 3268-3304 (2009);
 K. KOWALSKI AND P. PIECUCH,
 J. CHEM. PHYS. 120, 1715-1738 (2004).

 IN ADDITION, THE USE OF CCPRP=.TRUE. IN $CCINP AND/OR THE USE
 OF CCPRPE=.TRUE. IN $EOMINP SHOULD REFERENCE

 M. WLOCH, J.R. GOUR, K. KOWALSKI, AND P. PIECUCH,
 J. CHEM. PHYS. 122, 214107-1 - 214107-15 (2005).
 *****************************************************************

 PARALLELIZATION OF CLOSED SHELL CCSD(T) IS
 J.L.BENTZ, R.M.OLSON, M.S.GORDON, M.W.SCHMIDT, R.A.KENDALL
   COMPUT.PHYS.COMMUN.  176, 589-600(2007)
 R.M.OLSON, J.L.BENTZ, R.A.KENDALL, M.W.SCHMIDT, M.S.GORDON
   J.COMPUT.THEORET.CHEM. 3, 1312-1328(2007)

 THE FOLLOWING CALCULATIONS WILL BE PERFORMED:
                                                     CCSD   
                                                     CCSD[T]
                                                     CCSD(T)

 THE FOLLOWING ENERGY WILL BE CONSIDERED THE HIGHEST LEVEL:    CCSD(T)
 THE AVAILABLE REPLICATED MEMORY IS     5000000 WORDS.
 CONVERGENCE THRESHOLD:   1.0E-07
 MAXIMUM NUMBER OF ITERATIONS:   30

 RUNNING THE DISTRIBUTED DATA, PARALLEL CCSD/CCSD(T) PROGRAM...

 PARALLEL CODE WRITTEN BY RYAN M. OLSON AND JONATHAN L. BENTZ,
 BASED ON SERIAL CODE OF P.PIECUCH, S.A.KUCHARSKI, K.KOWALSKI, M.MUSIAL

 1A.  REPLICATED MEMORY REQUIRED FOR PROCESS-BASED CCSD IS      2496974 WORDS.
 1B.  REPLICATED MEMORY REQUIRED FOR    NODE-BASED CCSD IS      1801750 WORDS.
 THIS RUN WILL USE      1801750 WORDS OF REPLICATED MEMORY.
 2.       SHARED MEMORY REQUIRED FOR THE CCSD ITERS IS           361456 WORDS.
          SHARED MEMORY FOR THE (T) CORRECTION WILL BE          1509728 WORDS.
 3.  DISTRIBUTED MEMORY FOR THIS JOB IS MEMDDI=       4 MWORDS.

 EXPLANATION (WHAT TO PUT IN $SYSTEM INPUT):
 1. THE PROCESS-BASED PARALLEL CCSD WILL BE CHOSEN IF MWORDS=       3,
    OTHERWISE, ENTER MWORDS=       2 TO RUN THE NODE-BASED PARALLEL CCSD.
    IT IS ALLOCATED BY EVERY COMPUTE PROCESS, SO THE SECOND, SMALLER VALUE
    IS UNDOUBTEDLY THE WISER CHOICE.
 2. THIS MEMORY CLASS PRESENTLY HAS NO INPUT KEYWORD.
    IT IS ALLOCATED ONCE PER NODE, OUT OF THE OPERATING SYSTEM'S SYSV MEMORY.
 3. THIS VALUE INCLUDES THE INTEGRAL TRANSFORMATION'S DISTRIBUTED MEMORY,
    SO MEMDDI=      4 SHOULD BE ENOUGH FOR THE ENTIRE JOB.
    IT IS ALLOCATED ONLY ONCE, FOR THE WHOLE RUN, SPREAD ACROSS ALL NODES.

 THIS JOB IS USING   1 NODES, WITH  1 PROCESSES/NODE,
 USING INPUT MEMORY VALUES MWORDS=       5 AND MEMDDI=      10
 MOST EFFICIENT VALUES ARE MWORDS=       2 AND MEMDDI=       4
 THE INPUT VALUES MEANS EACH SMP NODE WILL ALLOCATE      58 MBYTES OF MEMORY.

 INITIALIZING INTEGRALS FOR CCSD
 DDI: Creating Array [12] - 12100 x 10 = 121000 words.
 RUNNING PROCESS-BASED CCSD ITERATIONS
 ITER:  1   CCSD    CORR. ENERGY:  -0.3051395090   CONV.:  2.0931E-02

 ITER  CPU TIME: TOTAL=    10.9  FORMULAE IN AO,MO BASIS=    10.4     0.5
 ITER WALL TIME: TOTAL=    10.9  FORMULAE IN AO,MO BASIS=    10.4     0.5
 IT IS BENEFICIAL TO ADD MORE PROCESSORS IF THE SCALABLE AO CONTRIBUTION'S TIME
 IS CONSIDERABLY LARGER THAN THE LESS SCALABLE MO CONTRIBUTION'S TIME.

 ITER:  2   CCSD    CORR. ENERGY:  -0.3375340022   CONV.: -3.8597E-02
 ITER:  3   CCSD    CORR. ENERGY:  -0.3335158329   CONV.: -1.8298E-02
 ITER:  4   CCSD    CORR. ENERGY:  -0.3372612683   CONV.:  4.7048E-02
 ITER:  5   CCSD    CORR. ENERGY:  -0.3374282690   CONV.:  4.6458E-02
 ITER:  6   CCSD    CORR. ENERGY:  -0.3387537836   CONV.:  4.1720E-02
 ITER:  7   CCSD    CORR. ENERGY:  -0.3487546068   CONV.:  6.1235E-03
 ITER:  8   CCSD    CORR. ENERGY:  -0.3517167500   CONV.: -3.1521E-03
 ITER:  9   CCSD    CORR. ENERGY:  -0.3508282680   CONV.:  4.8500E-04
 ITER: 10   CCSD    CORR. ENERGY:  -0.3508489264   CONV.:  3.1445E-04
 ITER: 11   CCSD    CORR. ENERGY:  -0.3508564704   CONV.:  1.7526E-04
 ITER: 12   CCSD    CORR. ENERGY:  -0.3508575812   CONV.:  5.1347E-05
 ITER: 13   CCSD    CORR. ENERGY:  -0.3508571853   CONV.: -3.8318E-06
 ITER: 14   CCSD    CORR. ENERGY:  -0.3508578276   CONV.: -3.4724E-06
 ITER: 15   CCSD    CORR. ENERGY:  -0.3508590887   CONV.: -1.6117E-06
 ITER: 16   CCSD    CORR. ENERGY:  -0.3508590318   CONV.: -3.0027E-07
 ITER: 17   CCSD    CORR. ENERGY:  -0.3508593584   CONV.: -3.4228E-07
 ITER: 18   CCSD    CORR. ENERGY:  -0.3508593905   CONV.:  1.0043E-07
 ITER: 19   CCSD    CORR. ENERGY:  -0.3508593988   CONV.:  8.0675E-08
 ITER: 20   CCSD    CORR. ENERGY:  -0.3508593955   CONV.:  8.0675E-08

     THE    CCSD     ITERATIONS HAVE CONVERGED

    MBPT(2) CORRELATION ENERGY:  -0.3595115787
    CCSD    CORRELATION ENERGY:  -0.3508593955

 T1 DIAGNOSTIC        =     0.03896439
 NORM OF THE T1 VECTOR=     0.11020792
 NORM OF THE T2 VECTOR=     0.50887774

 THE FIVE LARGEST T1 AMPLITUDES ARE:
 T1 AMPLITUDE IS  0.083999 FOR I=   3 -> A=   7
 T1 AMPLITUDE IS  0.042844 FOR I=   4 -> A=  34
 T1 AMPLITUDE IS  0.019693 FOR I=   5 -> A=  38
 T1 AMPLITUDE IS  0.019693 FOR I=   6 -> A=  39
 T1 AMPLITUDE IS  0.016629 FOR I=   6 -> A=  30

 THE FIVE LARGEST SPIN-UNIQUE T2 AMPLITUDES ARE:
 T2 AMPLITUDE IS -0.272497 FOR I,J=   4   4 -> A,B=   7   7
 T2 AMPLITUDE IS -0.081658 FOR I,J=   5   5 -> A,B=   7   7
 T2 AMPLITUDE IS -0.081658 FOR I,J=   6   6 -> A,B=   7   7
 T2 AMPLITUDE IS -0.072126 FOR I,J=   4   5 -> A,B=   7  16
 T2 AMPLITUDE IS  0.072126 FOR I,J=   4   6 -> A,B=   7  15
 PRINTED T2(I-ALPHA,J-BETA -> A-ALPHA,B-BETA) VALUES
 EQUAL   T2(J-ALPHA,I-BETA -> B-ALPHA,A-BETA) AMPLITUDES.

 ....... DONE WITH CC AMPLITUDE ITERATIONS .......
 CPU     0: STEP CPU TIME=   196.26 TOTAL CPU TIME=      202.5 (    3.4 MIN)
 TOTAL WALL CLOCK TIME=      202.7 SECONDS, CPU UTILIZATION IS  99.89%

 RUNNING THE DISTRIBUTED DATA, PARALLEL TRIPLES CORRECTION...

   REPLICATED MEMORY REQUIRED FOR TRIPLES IS         8084 WORDS.
       SHARED MEMORY REQUIRED FOR TRIPLES IS      1509728 WORDS.
  DISTRIBUTED MEMORY IS ALREADY ALLOCATED ABOVE.


                      SUMMARY OF RESULTS

      REFERENCE ENERGY:      -75.4012819995
        MBPT(2) ENERGY:      -75.7607935782   CORR.E=  -0.3595115787
        CCSD    ENERGY:      -75.7521413950   CORR.E=  -0.3508593955
        CCSD[T] ENERGY:      -75.7907251332   CORR.E=  -0.3894431337
        CCSD(T) ENERGY:      -75.7862721707   CORR.E=  -0.3849901713

 THE FOLLOWING METHOD AND ENERGY WILL BE CONSIDERED THE HIGHEST LEVEL RESULT:
 COUPLED-CLUSTER ENERGY E(   CCSD(T)) =      -75.7862721707

 ..... DONE WITH CC NON-ITERATIVE TRIPLES CORRECTIONS .....
 CPU     0: STEP CPU TIME=     3.14 TOTAL CPU TIME=      205.6 (    3.4 MIN)
 TOTAL WALL CLOCK TIME=      205.9 SECONDS, CPU UTILIZATION IS  99.89%
              2496974  WORDS OF DYNAMIC MEMORY USED
 EXECUTION OF GAMESS TERMINATED NORMALLY Tue Nov 29 03:47:11 2016
 DDI: 26144136 bytes (24.9 MB / 3 MWords) used by master data server.

 ----------------------------------------
 CPU timing information for all processes
 ========================================
 0: 205.438 + 0.211 = 205.650
 ----------------------------------------
 ddikick.x: exited gracefully.
unset echo
----- accounting info -----
Files used on the master node compute-3-0 were:
-rw-rw-r-- 1 sarom sarom  164608 Nov 29  2016 .//trf-ccsdt.dat
-rw-rw-r-- 1 sarom sarom     698 Nov 29  2016 .//trf-ccsdt.F05
-rw-rw-r-- 1 sarom sarom   34232 Nov 29  2016 .//trf-ccsdt.F09
-rw-rw-r-- 1 sarom sarom 2159520 Nov 29  2016 .//trf-ccsdt.F10
-rw-rw-r-- 1 sarom sarom  518144 Nov 29  2016 .//trf-ccsdt.F70
-rw-rw-r-- 1 sarom sarom 9494400 Nov 29  2016 .//trf-ccsdt.F71
-rw-rw-r-- 1 sarom sarom   11008 Nov 29  2016 .//trf-ccsdt.F73
-rw-rw-r-- 1 sarom sarom 1893376 Nov 29  2016 .//trf-ccsdt.F74
-rw-rw-r-- 1 sarom sarom     698 Nov 28 17:27 .//trf-ccsdt.inp
-rw-rw-r-- 1 sarom sarom  191149 Nov 29  2016 .//trf-ccsdt.log
Tue Nov 29 03:47:14 CST 2016
0.209u 0.292s 3:29.48 0.2%	0+0k 0+136io 0pf+0w
