----- GAMESS execution script 'rungms' -----
This job is running on host compute-3-0
under operating system Linux at Tue Nov 29 00:37:45 CST 2016
Available scratch disk space (Kbyte units) at beginning of the job is
Filesystem            1K-blocks       Used  Available Use% Mounted on
bolt.local:/export/home/sarom
                     9590469632 1553431552 7549870080  18% /home/sarom
Copying input file nmr-h2otrimer.inp to your run's scratch directory...
cp nmr-h2otrimer.inp .//nmr-h2otrimer.F05
unset echo
/home/sarom/gamessGH/ddikick.x /home/sarom/gamessGH/gamess.00.x nmr-h2otrimer -ddi 1 1 localhost -scr ./

 Distributed Data Interface kickoff program.
 Initiating 1 compute processes on 1 nodes to run the following command:
 /home/sarom/gamessGH/gamess.00.x nmr-h2otrimer 

          ******************************************************
          *         GAMESS VERSION = 18 AUG 2016 (R1)          *
          *             FROM IOWA STATE UNIVERSITY             *
          * M.W.SCHMIDT, K.K.BALDRIDGE, J.A.BOATZ, S.T.ELBERT, *
          *   M.S.GORDON, J.H.JENSEN, S.KOSEKI, N.MATSUNAGA,   *
          *          K.A.NGUYEN, S.J.SU, T.L.WINDUS,           *
          *       TOGETHER WITH M.DUPUIS, J.A.MONTGOMERY       *
          *         J.COMPUT.CHEM.  14, 1347-1363(1993)        *
          **************** 64 BIT LINUX VERSION ****************

  SINCE 1993, STUDENTS AND POSTDOCS WORKING AT IOWA STATE UNIVERSITY
  AND ALSO IN THEIR VARIOUS JOBS AFTER LEAVING ISU HAVE MADE IMPORTANT
  CONTRIBUTIONS TO THE CODE:
     IVANA ADAMOVIC, CHRISTINE AIKENS, YURI ALEXEEV, POOJA ARORA,
     ANDREY ASADCHEV, ROB BELL, PRADIPTA BANDYOPADHYAY, JONATHAN BENTZ,
     BRETT BODE, KURT BRORSEN, CALEB CARLIN, GALINA CHABAN, WEI CHEN,
     CHEOL HO CHOI, PAUL DAY, ALBERT DEFUSCO, NUWAN DESILVA, TIM DUDLEY,
     DMITRI FEDOROV, GRAHAM FLETCHER, MARK FREITAG, KURT GLAESEMANN,
     DAN KEMP, GRANT MERRILL, NORIYUKI MINEZAWA, JONATHAN MULLIN,
     TAKESHI NAGATA, SEAN NEDD, HEATHER NETZLOFF, BOSILJKA NJEGIC, RYAN OLSON,
     MIKE PAK, SPENCER PRUITT, LUKE ROSKOP, JIM SHOEMAKER, LYUDMILA SLIPCHENKO,
     TONY SMITH, SAROM SOK LEANG, JIE SONG, TETSUYA TAKETSUGU, SIMON WEBB,
     PENG XU, SOOHAENG YOO, FEDERICO ZAHARIEV

  ADDITIONAL CODE HAS BEEN PROVIDED BY COLLABORATORS IN OTHER GROUPS:
     IOWA STATE UNIVERSITY:
          JOE IVANIC, AARON WEST, LAIMUTIS BYTAUTAS, KLAUS RUEDENBERG
     UNIVERSITY OF TOKYO: KIMIHIKO HIRAO, TAKAHITO NAKAJIMA,
          TAKAO TSUNEDA, MUNEAKI KAMIYA, SUSUMU YANAGISAWA,
          KIYOSHI YAGI, MAHITO CHIBA, SEIKEN TOKURA, NAOAKI KAWAKAMI
     UNIVERSITY OF AARHUS: FRANK JENSEN
     UNIVERSITY OF IOWA: VISVALDAS KAIRYS, HUI LI
     NATIONAL INST. OF STANDARDS AND TECHNOLOGY: WALT STEVENS, DAVID GARMER
     UNIVERSITY OF PISA: BENEDETTA MENNUCCI, JACOPO TOMASI
     UNIVERSITY OF MEMPHIS: HENRY KURTZ, PRAKASHAN KORAMBATH
     UNIVERSITY OF ALBERTA: TOBY ZENG, MARIUSZ KLOBUKOWSKI
     UNIVERSITY OF NEW ENGLAND: MARK SPACKMAN
     MIE UNIVERSITY: HIROAKI UMEDA
     NAT. INST. OF ADVANCED INDUSTRIAL SCIENCE AND TECHNOLOGY: KAZUO KITAURA
     MICHIGAN STATE UNIVERSITY:
          KAROL KOWALSKI, MARTA WLOCH, JEFFREY GOUR, JESSE LUTZ,
          WEI LI, PIOTR PIECUCH
     UNIVERSITY OF SILESIA: MONIKA MUSIAL, STANISLAW KUCHARSKI
     FACULTES UNIVERSITAIRES NOTRE-DAME DE LA PAIX:
          OLIVIER QUINET, BENOIT CHAMPAGNE
     UNIVERSITY OF CALIFORNIA - SANTA BARBARA: BERNARD KIRTMAN
     INSTITUTE FOR MOLECULAR SCIENCE:
          KAZUYA ISHIMURA, MICHIO KATOUDA, AND SHIGERU NAGASE
     UNIVERSITY OF NOTRE DAME: ANNA POMOGAEVA, DAN CHIPMAN
     KYUSHU UNIVERSITY:
          HARUYUKI NAKANO,
          FENG LONG GU, JACEK KORCHOWIEC, MARCIN MAKOWSKI, AND YURIKO AOKI,
          HIROTOSHI MORI AND EISAKU MIYOSHI
     PENNSYLVANIA STATE UNIVERSITY:
          TZVETELIN IORDANOV, CHET SWALINA, JONATHAN SKONE,
          SHARON HAMMES-SCHIFFER
     WASEDA UNIVERSITY:
          MASATO KOBAYASHI, TOMOKO AKAMA, TSUGUKI TOUMA,
          TAKESHI YOSHIKAWA, YASUHIRO IKABATA, JUNJI SEINO,
          YUYA NAKAJIMA, HIROMI NAKAI
     NANJING UNIVERSITY: SHUHUA LI
     UNIVERSITY OF NEBRASKA:
          PEIFENG SU, DEJUN SI, NANDUN THELLAMUREGE, YALI WANG, HUI LI
     UNIVERSITY OF ZURICH: ROBERTO PEVERATI, KIM BALDRIDGE
     N. COPERNICUS UNIVERSITY AND JACKSON STATE UNIVERSITY:
          MARIA BARYSZ
     UNIVERSITY OF COPENHAGEN: Jimmy Kromann, CASPER STEINMANN
     TOKYO INSTITUTE OF TECHNOLOGY: HIROYA NAKATA
     NAGOYA UNIVERSITY: YOSHIO NISHIMOTO, STEPHAN IRLE
     MOSCOW STATE UNIVERSITY: VLADIMIR MIRONOV

 EXECUTION OF GAMESS BEGUN Tue Nov 29 00:37:45 2016

            ECHO OF THE FIRST FEW INPUT CARDS -
 INPUT CARD>!    Test of NMR shielding computation on the water trimer (39 AOs)             
 INPUT CARD>!                                                                               
 INPUT CARD>!    The isotropic shieldings of the nine atoms are                             
 INPUT CARD>!       334.8290, 30.2623, 32.7276, 336.6771, 33.3943, 30.2252,                 
 INPUT CARD>!       336.8400, 30.7747, 33.3408                                              
 INPUT CARD>!    The anisotropy of the third oxygen is 51.0414, and its                     
 INPUT CARD>!    diamagnetic shielding= 392.5505, paramagnetic= -55.7106.                   
 INPUT CARD>!                                                                               
 INPUT CARD>!    This run takes 141 seconds on 2.66 GHz Cloverton (30 Apr 2015)             
 INPUT CARD>!    results have not changed significantly since at least 2008                 
 INPUT CARD>!                                                                               
 INPUT CARD> $contrl scftyp=rhf runtyp=nmr $end                                             
 INPUT CARD> $system mwords=8 $end                                                          
 INPUT CARD> $basis  gbasis=n31 ngauss=6 $end                                               
 INPUT CARD> $nmr    inmem=.f. angint=.t. pdia=.t. ppara=.t. pevec=.t. angint=.t. $end      
 INPUT CARD> $guess  guess=huckel $end                                                      
 INPUT CARD> $data                                                                          
 INPUT CARD>Water H bond acceptor/donator tests                                             
 INPUT CARD>c1                                                                              
 INPUT CARD>O1          8.0    .4948284829  -3.2318875811    .2182451792                    
 INPUT CARD>H2          1.0   -.0122351360  -2.4485430344    .4158201994                    
 INPUT CARD>H3          1.0   -.0300612653  -4.0199850128    .2065169706                    
 INPUT CARD>O1          8.0   2.8516205398  -1.7519357683    .4502008517                    
 INPUT CARD>H2          1.0   3.3697431154  -1.7213607853   -.3381471813                    
 INPUT CARD>H3          1.0   2.2601884075  -2.4817188626    .3579884765                    
 INPUT CARD>O1          8.0    .3286046696   -.3976597289    .9671877218                    
 INPUT CARD>H2          1.0   1.2556368997   -.5086495524    .8287284946                    
 INPUT CARD>H3          1.0    .2241464810   -.0500939073   1.8384884395                    
 INPUT CARD> $end                                                                           
    8000000 WORDS OF MEMORY AVAILABLE

     BASIS OPTIONS
     -------------
     GBASIS=N31          IGAUSS=       6      POLAR=NONE    
     NDFUNC=       0     NFFUNC=       0     DIFFSP=       F
     NPFUNC=       0      DIFFS=       F     BASNAM=        


     RUN TITLE
     ---------
 Water H bond acceptor/donator tests                                             

 THE POINT GROUP OF THE MOLECULE IS C1      
 THE ORDER OF THE PRINCIPAL AXIS IS     0

 ATOM      ATOMIC                      COORDINATES (BOHR)
           CHARGE         X                   Y                   Z
 O1          8.0     0.9350902436       -6.1073819514        0.4124235868
 H2          1.0    -0.0231210545       -4.6270754042        0.7857862370
 H3          1.0    -0.0568075543       -7.5966701489        0.3902604862
 O1          8.0     5.3887814412       -3.3106785502        0.8507562492
 H2          1.0     6.3678911371       -3.2529002102       -0.6390055162
 H3          1.0     4.2711367708       -4.6897686289        0.6765001273
 O1          8.0     0.6209727838       -0.7514679240        1.8277197729
 H2          1.0     2.3728096805       -0.9612082778        1.5660697730
 H3          1.0     0.4235754302       -0.0946637585        3.4742393822

          INTERNUCLEAR DISTANCES (ANGS.)
          ------------------------------

                1 O1         2 H2         3 H3         4 O1         5 H2    

   1 O1      0.0000000    0.9538229 *  0.9469659 *  2.7925848 *  3.2949048  
   2 H2      0.9538229 *  0.0000000    1.5854197 *  2.9475605 *  3.5404855  
   3 H3      0.9469659 *  1.5854197 *  0.0000000    3.6752577    4.1399278  
   4 O1      2.7925848 *  2.9475605 *  3.6752577    0.0000000    0.9438636 *
   5 H2      3.2949048    3.5404855    4.1399278    0.9438636 *  0.0000000  
   6 H3      1.9232205 *  2.2734014 *  2.7630508 *  0.9438636 *  1.5145497 *
   7 O1      2.9362208 *  2.1508836 *  3.7186693    2.9098021 *  3.5643522  
   8 H2      2.8926709 *  2.3539710 *  3.7907313    2.0582049 *  2.7021681 *
   9 H3      3.5808195    2.7986460 *  4.2997660    3.4245041    4.1744046  

                6 H3         7 O1         8 H2         9 H3    

   1 O1      1.9232205 *  2.9362208 *  2.8926709 *  3.5808195  
   2 H2      2.2734014 *  2.1508836 *  2.3539710 *  2.7986460 *
   3 H3      2.7630508 *  3.7186693    3.7907313    4.2997660  
   4 O1      0.9438636 *  2.9098021 *  2.0582049 *  3.4245041  
   5 H2      1.5145497 *  3.5643522    2.7021681 *  4.1744046  
   6 H3      0.0000000    2.9061043 *  2.2635641 *  3.5000210  
   7 O1      2.9061043 *  0.0000000    0.9438636 *  0.9438636 *
   8 H2      2.2635641 *  0.9438636 *  0.0000000    1.5145497 *
   9 H3      3.5000210    0.9438636 *  1.5145497 *  0.0000000  

  * ... LESS THAN  3.000


     ATOMIC BASIS SET
     ----------------
 THE CONTRACTED PRIMITIVE FUNCTIONS HAVE BEEN UNNORMALIZED
 THE CONTRACTED BASIS FUNCTIONS ARE NOW NORMALIZED TO UNITY

  SHELL TYPE  PRIMITIVE        EXPONENT          CONTRACTION COEFFICIENT(S)

 O1        

      1   S       1          5484.6716600    0.001831074430
      1   S       2           825.2349460    0.013950172200
      1   S       3           188.0469580    0.068445078098
      1   S       4            52.9645000    0.232714335992
      1   S       5            16.8975704    0.470192897984
      1   S       6             5.7996353    0.358520852987

      2   L       7            15.5396162   -0.110777549525    0.070874268231
      2   L       8             3.5999336   -0.148026262701    0.339752839147
      2   L       9             1.0137618    1.130767015354    0.727158577316

      3   L      10             0.2700058    1.000000000000    1.000000000000

 H2        

      4   S      11            18.7311370    0.033494604338
      4   S      12             2.8253944    0.234726953484
      4   S      13             0.6401217    0.813757326146

      5   S      14             0.1612778    1.000000000000

 H3        

      6   S      15            18.7311370    0.033494604338
      6   S      16             2.8253944    0.234726953484
      6   S      17             0.6401217    0.813757326146

      7   S      18             0.1612778    1.000000000000

 O1        

      8   S      19          5484.6716600    0.001831074430
      8   S      20           825.2349460    0.013950172200
      8   S      21           188.0469580    0.068445078098
      8   S      22            52.9645000    0.232714335992
      8   S      23            16.8975704    0.470192897984
      8   S      24             5.7996353    0.358520852987

      9   L      25            15.5396162   -0.110777549525    0.070874268231
      9   L      26             3.5999336   -0.148026262701    0.339752839147
      9   L      27             1.0137618    1.130767015354    0.727158577316

     10   L      28             0.2700058    1.000000000000    1.000000000000

 H2        

     11   S      29            18.7311370    0.033494604338
     11   S      30             2.8253944    0.234726953484
     11   S      31             0.6401217    0.813757326146

     12   S      32             0.1612778    1.000000000000

 H3        

     13   S      33            18.7311370    0.033494604338
     13   S      34             2.8253944    0.234726953484
     13   S      35             0.6401217    0.813757326146

     14   S      36             0.1612778    1.000000000000

 O1        

     15   S      37          5484.6716600    0.001831074430
     15   S      38           825.2349460    0.013950172200
     15   S      39           188.0469580    0.068445078098
     15   S      40            52.9645000    0.232714335992
     15   S      41            16.8975704    0.470192897984
     15   S      42             5.7996353    0.358520852987

     16   L      43            15.5396162   -0.110777549525    0.070874268231
     16   L      44             3.5999336   -0.148026262701    0.339752839147
     16   L      45             1.0137618    1.130767015354    0.727158577316

     17   L      46             0.2700058    1.000000000000    1.000000000000

 H2        

     18   S      47            18.7311370    0.033494604338
     18   S      48             2.8253944    0.234726953484
     18   S      49             0.6401217    0.813757326146

     19   S      50             0.1612778    1.000000000000

 H3        

     20   S      51            18.7311370    0.033494604338
     20   S      52             2.8253944    0.234726953484
     20   S      53             0.6401217    0.813757326146

     21   S      54             0.1612778    1.000000000000

 TOTAL NUMBER OF BASIS SET SHELLS             =   21
 NUMBER OF CARTESIAN GAUSSIAN BASIS FUNCTIONS =   39
 NUMBER OF ELECTRONS                          =   30
 CHARGE OF MOLECULE                           =    0
 SPIN MULTIPLICITY                            =    1
 NUMBER OF OCCUPIED ORBITALS (ALPHA)          =   15
 NUMBER OF OCCUPIED ORBITALS (BETA )          =   15
 TOTAL NUMBER OF ATOMS                        =    9
 THE NUCLEAR REPULSION ENERGY IS       83.0330006939

     $CONTRL OPTIONS
     ---------------
 SCFTYP=RHF          RUNTYP=NMR          EXETYP=RUN     
 MPLEVL=       0     CITYP =NONE         CCTYP =NONE         VBTYP =NONE    
 DFTTYP=NONE         TDDFT =NONE    
 MULT  =       1     ICHARG=       0     NZVAR =       0     COORD =UNIQUE  
 PP    =NONE         RELWFN=NONE         LOCAL =NONE         NUMGRD=       F
 ISPHER=      -1     NOSYM =       0     MAXIT =      30     UNITS =ANGS    
 PLTORB=       F     MOLPLT=       F     AIMPAC=       F     FRIEND=        
 NPRINT=       7     IREST =       0     GEOM  =INPUT   
 NORMF =       0     NORMP =       0     ITOL  =      20     ICUT  =       9
 INTTYP=BEST         GRDTYP=BEST         QMTTOL= 1.0E-06

     $SYSTEM OPTIONS
     ---------------
  REPLICATED MEMORY=     8000000 WORDS (ON EVERY NODE).
 DISTRIBUTED MEMDDI=           0 MILLION WORDS IN AGGREGATE,
 MEMDDI DISTRIBUTED OVER   1 PROCESSORS IS           0 WORDS/PROCESSOR.
 TOTAL MEMORY REQUESTED ON EACH PROCESSOR=     8000000 WORDS.
 TIMLIM=      525600.00 MINUTES, OR     365.0 DAYS.
 PARALL= F  BALTYP=  DLB     KDIAG=    0  COREFL= F
 MXSEQ2=     300 MXSEQ3=     150  mem10=         0

          ----------------
          PROPERTIES INPUT
          ----------------

     MOMENTS            FIELD           POTENTIAL          DENSITY
 IEMOM =       1   IEFLD =       0   IEPOT =       0   IEDEN =       0
 WHERE =COMASS     WHERE =NUCLEI     WHERE =NUCLEI     WHERE =NUCLEI  
 OUTPUT=BOTH       OUTPUT=BOTH       OUTPUT=BOTH       OUTPUT=BOTH    
 IEMINT=       0   IEFINT=       0                     IEDINT=       0
                                                       MORB  =       0
          EXTRAPOLATION IN EFFECT
          SOSCF IN EFFECT
 ORBITAL PRINTING OPTION: NPREO=     1    39     2     1

     -------------------------------
     INTEGRAL TRANSFORMATION OPTIONS
     -------------------------------
     NWORD  =            0
     CUTOFF = 1.0E-09     MPTRAN =       0
     DIRTRF =       F     AOINTS =DUP     

          ----------------------
          INTEGRAL INPUT OPTIONS
          ----------------------
 NOPK  =       1 NORDER=       0 SCHWRZ=       T

     ------------------------------------------
     THE POINT GROUP IS C1 , NAXIS= 0, ORDER= 1
     ------------------------------------------

     DIMENSIONS OF THE SYMMETRY SUBSPACES ARE
 A   =   39

 ..... DONE SETTING UP THE RUN .....
 STEP CPU TIME =     0.02 TOTAL CPU TIME =        0.0 (    0.0 MIN)
 TOTAL WALL CLOCK TIME=        0.0 SECONDS, CPU UTILIZATION IS 100.00%

       ------------------------   ------------------------------
       RHF GIAO CHEMICAL SHIFTS   PROGRAM WRITTEN BY M.A.FREITAG
       ------------------------   ------------------------------


     --------------------
     NMR INPUT PARAMETERS
     --------------------
      INMEM= F  ANGINT= T
       PDIA= T   PPARA= T   PEVEC= T
     POEINT= F  PTEINT= F   PRMAT= F   PITER= F

          ********************
          1 ELECTRON INTEGRALS
          ********************
 ...... END OF ONE-ELECTRON INTEGRALS ......
 STEP CPU TIME =     0.01 TOTAL CPU TIME =        0.0 (    0.0 MIN)
 TOTAL WALL CLOCK TIME=        0.0 SECONDS, CPU UTILIZATION IS 150.00%

          -------------
          GUESS OPTIONS
          -------------
          GUESS =HUCKEL            NORB  =       0          NORDER=       0
          MIX   =       F          PRTMO =       F          PUNMO =       F
          TOLZ  = 1.0E-08          TOLE  = 1.0E-05
          SYMDEN=       F          PURIFY=       F

 INITIAL GUESS ORBITALS GENERATED BY HUCKEL   ROUTINE.
 HUCKEL GUESS REQUIRES     19284 WORDS.

 SYMMETRIES FOR INITIAL GUESS ORBITALS FOLLOW.   BOTH SET(S).
    15 ORBITALS ARE OCCUPIED (    3 CORE ORBITALS).
     4=A        5=A        6=A        7=A        8=A        9=A       10=A   
    11=A       12=A       13=A       14=A       15=A       16=A       17=A   
    18=A       19=A       20=A       21=A       22=A       23=A       24=A   
    25=A   
 ...... END OF INITIAL ORBITAL SELECTION ......
 STEP CPU TIME =     0.00 TOTAL CPU TIME =        0.0 (    0.0 MIN)
 TOTAL WALL CLOCK TIME=        0.0 SECONDS, CPU UTILIZATION IS 150.00%

                    ----------------------
                    AO INTEGRAL TECHNOLOGY
                    ----------------------
     S,P,L SHELL ROTATED AXIS INTEGRALS, REPROGRAMMED BY
        KAZUYA ISHIMURA (IMS) AND JOSE SIERRA (SYNSTAR).
     S,P,D,L SHELL ROTATED AXIS INTEGRALS PROGRAMMED BY
        KAZUYA ISHIMURA (INSTITUTE FOR MOLECULAR SCIENCE).
     S,P,D,F,G SHELL TO TOTAL QUARTET ANGULAR MOMENTUM SUM 5,
        ERIC PROGRAM BY GRAHAM FLETCHER (ELORET AND NASA ADVANCED
        SUPERCOMPUTING DIVISION, AMES RESEARCH CENTER).
     S,P,D,F,G,L SHELL GENERAL RYS QUADRATURE PROGRAMMED BY
        MICHEL DUPUIS (PACIFIC NORTHWEST NATIONAL LABORATORY).

          --------------------
          2 ELECTRON INTEGRALS
          --------------------

 THE -PK- OPTION IS OFF, THE INTEGRALS ARE NOT IN SUPERMATRIX FORM.
 STORING   15000 INTEGRALS/RECORD ON DISK, USING 12 BYTES/INTEGRAL.
 TWO ELECTRON INTEGRAL EVALUATION REQUIRES   89587 WORDS OF MEMORY.
 SCHWARZ INEQUALITY OVERHEAD:       777 INTEGRALS, T=        0.00
 II,JST,KST,LST =  1  1  1  1 NREC =         1 INTLOC =    1
 II,JST,KST,LST =  2  1  1  1 NREC =         1 INTLOC =    2
 II,JST,KST,LST =  3  1  1  1 NREC =         1 INTLOC =   34
 II,JST,KST,LST =  4  1  1  1 NREC =         1 INTLOC =  214
 II,JST,KST,LST =  5  1  1  1 NREC =         1 INTLOC =  719
 II,JST,KST,LST =  6  1  1  1 NREC =         1 INTLOC = 1390
 II,JST,KST,LST =  7  1  1  1 NREC =         1 INTLOC = 2260
 II,JST,KST,LST =  8  1  1  1 NREC =         1 INTLOC = 3365
 II,JST,KST,LST =  9  1  1  1 NREC =         1 INTLOC = 4031
 II,JST,KST,LST = 10  1  1  1 NREC =         1 INTLOC =10856
 II,JST,KST,LST = 11  1  1  1 NREC =         2 INTLOC =10974
 II,JST,KST,LST = 12  1  1  1 NREC =         3 INTLOC =  615
 II,JST,KST,LST = 13  1  1  1 NREC =         3 INTLOC = 7011
 II,JST,KST,LST = 14  1  1  1 NREC =         3 INTLOC =14338
 II,JST,KST,LST = 15  1  1  1 NREC =         4 INTLOC = 7716
 II,JST,KST,LST = 16  1  1  1 NREC =         4 INTLOC =12093
 II,JST,KST,LST = 17  1  1  1 NREC =         6 INTLOC =14615
 II,JST,KST,LST = 18  1  1  1 NREC =        11 INTLOC = 4429
 II,JST,KST,LST = 19  1  1  1 NREC =        12 INTLOC = 8969
 II,JST,KST,LST = 20  1  1  1 NREC =        14 INTLOC = 2300
 II,JST,KST,LST = 21  1  1  1 NREC =        15 INTLOC = 5064
 SCHWARZ INEQUALITY TEST SKIPPED        5204 INTEGRAL BLOCKS.
 TOTAL NUMBER OF NONZERO TWO-ELECTRON INTEGRALS =              241492
         17 INTEGRAL RECORDS WERE STORED ON DISK FILE  8.
  ...... END OF TWO-ELECTRON INTEGRALS .....
 STEP CPU TIME =     0.05 TOTAL CPU TIME =        0.1 (    0.0 MIN)
 TOTAL WALL CLOCK TIME=        0.1 SECONDS, CPU UTILIZATION IS  80.00%

          --------------------------
                 RHF SCF CALCULATION
          --------------------------

     NUCLEAR ENERGY =        83.0330006939
     MAXIT =   30     NPUNCH=    2
     EXTRAP=T  DAMP=F  SHIFT=F  RSTRCT=F  DIIS=F  DEM=F  SOSCF=T
     DENSITY MATRIX CONV=  1.00E-05
     SOSCF WILL OPTIMIZE     360 ORBITAL ROTATIONS, SOGTOL=   0.250
     MEMORY REQUIRED FOR RHF ITERS=     42633 WORDS.

 ITER EX DEM     TOTAL ENERGY        E CHANGE  DENSITY CHANGE     ORB. GRAD
   1  0  0     -227.3414620661  -227.3414620661   0.263532020   0.000000000
          ---------------START SECOND ORDER SCF---------------
   2  1  0     -227.9484533222    -0.6069912561   0.075151606   0.050632499
   3  2  0     -227.9859959861    -0.0375426639   0.029961928   0.016570576
   4  3  0     -227.9896854502    -0.0036894641   0.009903386   0.005069618
   5  4  0     -227.9899486671    -0.0002632170   0.002185293   0.001381457
   6  5  0     -227.9899762937    -0.0000276266   0.000781670   0.000323498
   7  6  0     -227.9899785372    -0.0000022434   0.000158854   0.000042697
   8  7  0     -227.9899785866    -0.0000000494   0.000047673   0.000018802
   9  8  0     -227.9899785946    -0.0000000080   0.000010427   0.000004589
  10  9  0     -227.9899785952    -0.0000000006   0.000002896   0.000001275
  11 10  0     -227.9899785953    -0.0000000000   0.000000484   0.000000177

          -----------------
          DENSITY CONVERGED
          -----------------
     TIME TO FORM FOCK OPERATORS=       0.1 SECONDS (       0.0 SEC/ITER)
     TIME TO SOLVE SCF EQUATIONS=       0.0 SECONDS (       0.0 SEC/ITER)

 FINAL RHF ENERGY IS     -227.9899785953 AFTER  11 ITERATIONS

          ------------
          EIGENVECTORS
          ------------

                      1          2          3          4          5
                  -20.5572   -20.5451   -20.5413    -1.3617    -1.3495
                     A          A          A          A          A   
    1  O  1  S    0.995763  -0.000200  -0.000128  -0.161145   0.127760
    2  O  1  S    0.022268   0.000138   0.000220   0.352270  -0.280786
    3  O  1  X   -0.001724  -0.000037   0.000130  -0.069265   0.057917
    4  O  1  Y   -0.000033   0.000033   0.000004   0.000442   0.004270
    5  O  1  Z    0.000333  -0.000002   0.000006   0.013899  -0.010168
    6  O  1  S   -0.008579  -0.000488  -0.000476   0.370937  -0.294766
    7  O  1  X    0.001514   0.000191  -0.000692  -0.033020   0.032854
    8  O  1  Y   -0.000253  -0.000240  -0.000190   0.004725   0.000641
    9  O  1  Z   -0.000352  -0.000040  -0.000035   0.008012  -0.005674
   10  H  2  S    0.000033  -0.000043   0.000058   0.101845  -0.076735
   11  H  2  S    0.002527   0.000695  -0.000250  -0.013493   0.017937
   12  H  3  S    0.000045   0.000061  -0.000064   0.104584  -0.084913
   13  H  3  S    0.001828  -0.000118  -0.000138  -0.004358   0.003968
   14  O  4  S    0.000150   0.000826   0.995771  -0.098676  -0.039785
   15  O  4  S    0.000179   0.000235   0.022394   0.214884   0.084772
   16  O  4  X   -0.000018  -0.000067  -0.000211  -0.008233  -0.002170
   17  O  4  Y   -0.000052   0.000101  -0.001139  -0.030869  -0.009101
   18  O  4  Z    0.000008   0.000031  -0.001532  -0.039185  -0.015495
   19  O  4  S   -0.000631  -0.000430  -0.009033   0.225120   0.098136
   20  O  4  X    0.000215   0.000380   0.000567  -0.008629  -0.006190
   21  O  4  Y    0.000329  -0.000404   0.001337  -0.013617  -0.002855
   22  O  4  Z    0.000007  -0.000139   0.001367  -0.018774  -0.006201
   23  H  5  S    0.000073   0.000035   0.000152   0.063944   0.025787
   24  H  5  S   -0.000175  -0.000141   0.001720  -0.002038   0.000949
   25  H  6  S   -0.000006   0.000080   0.000092   0.067926   0.020555
   26  H  6  S    0.000906  -0.000198   0.003116  -0.005851  -0.009406
   27  O  7  S    0.000215   0.995769  -0.000806  -0.097222  -0.167286
   28  O  7  S    0.000179   0.022308   0.000167   0.211129   0.368249
   29  O  7  X   -0.000051   0.001423   0.000057   0.037094   0.063009
   30  O  7  Y   -0.000099   0.000323   0.000010   0.006583   0.017039
   31  O  7  Z   -0.000039   0.001285  -0.000018   0.031758   0.057308
   32  O  7  S   -0.000305  -0.008790  -0.000632   0.223993   0.379941
   33  O  7  X    0.000148  -0.001632  -0.000401   0.019459   0.035619
   34  O  7  Y    0.000444  -0.000195   0.000017  -0.002798   0.010089
   35  O  7  Z    0.000171  -0.001057   0.000079   0.013632   0.028824
   36  H  8  S    0.000069   0.000063  -0.000014   0.064541   0.109920
   37  H  8  S   -0.000180   0.002854   0.000893  -0.008028  -0.019421
   38  H  9  S    0.000004   0.000130   0.000084   0.063356   0.112506
   39  H  9  S   -0.000126   0.001789  -0.000188  -0.001296  -0.005346

                      6          7          8          9         10
                   -1.3445    -0.7424    -0.7140    -0.7066    -0.5739
                     A          A          A          A          A   
    1  O  1  S    0.060502  -0.002977   0.001350   0.004907  -0.045206
    2  O  1  S   -0.134883   0.004094  -0.002613  -0.011216   0.106026
    3  O  1  X    0.032169   0.042622   0.042008  -0.082603   0.402496
    4  O  1  Y    0.002064   0.431060  -0.249276   0.063420  -0.010967
    5  O  1  Z   -0.005161   0.057635  -0.033748   0.008801  -0.078128
    6  O  1  S   -0.133362   0.025097  -0.008107  -0.019587   0.180764
    7  O  1  X    0.021747   0.029779   0.031540  -0.058521   0.306535
    8  O  1  Y    0.000969   0.239348  -0.134661   0.035564  -0.009205
    9  O  1  Z   -0.002793   0.032798  -0.018543   0.003711  -0.062113
   10  H  2  S   -0.040890   0.205429  -0.135422   0.055117  -0.099729
   11  H  2  S    0.006116   0.068217  -0.045449   0.017742  -0.039030
   12  H  3  S   -0.041433  -0.233244   0.119202  -0.013133  -0.089504
   13  H  3  S    0.002570  -0.089286   0.051518  -0.006943  -0.044640
   14  O  4  S   -0.184925   0.004206  -0.002439   0.001001   0.052493
   15  O  4  S    0.406037  -0.012389   0.003789  -0.002106  -0.121775
   16  O  4  X   -0.006251  -0.151292  -0.200307   0.272827   0.036784
   17  O  4  Y   -0.056910  -0.077774  -0.082180   0.236077  -0.162739
   18  O  4  Z   -0.075919   0.078595   0.124799  -0.166106  -0.312288
   19  O  4  S    0.424388  -0.002451   0.017791  -0.009754  -0.219787
   20  O  4  X   -0.005728  -0.088510  -0.114509   0.144883   0.015136
   21  O  4  Y   -0.033549  -0.040983  -0.038153   0.136604  -0.121983
   22  O  4  Z   -0.038284   0.040741   0.068015  -0.088411  -0.223132
   23  H  5  S    0.124621  -0.100021  -0.137067   0.194019   0.130036
   24  H  5  S   -0.004696  -0.036767  -0.057042   0.085544   0.070558
   25  H  6  S    0.117520   0.092651   0.107681  -0.206118   0.055169
   26  H  6  S   -0.027580   0.025449   0.041155  -0.070633   0.052723
   27  O  7  S    0.089720   0.001858   0.000634  -0.004074  -0.012955
   28  O  7  S   -0.196186  -0.006880  -0.002040   0.008672   0.027699
   29  O  7  X   -0.031065   0.085854   0.272829   0.204723  -0.010819
   30  O  7  Y   -0.008701  -0.086582  -0.091572  -0.098289   0.016078
   31  O  7  Z   -0.031315  -0.108721  -0.231864  -0.213433  -0.079968
   32  O  7  S   -0.209170   0.003700   0.003942   0.021384   0.065752
   33  O  7  X   -0.017286   0.045299   0.153112   0.110849  -0.002913
   34  O  7  Y   -0.002550  -0.057338  -0.045585  -0.052909   0.014938
   35  O  7  Z   -0.014336  -0.059457  -0.123050  -0.116881  -0.060169
   36  H  8  S   -0.053116   0.068887   0.192900   0.149651  -0.000613
   37  H  8  S    0.015396   0.025243   0.067821   0.053142  -0.035212
   38  H  9  S   -0.060622  -0.090751  -0.182966  -0.163128  -0.033095
   39  H  9  S    0.001679  -0.033627  -0.079279  -0.071750  -0.015957

                     11         12         13         14         15
                   -0.5616    -0.5341    -0.5071    -0.4955    -0.4868
                     A          A          A          A          A   
    1  O  1  S   -0.028748  -0.036398  -0.000324  -0.005170  -0.003802
    2  O  1  S    0.062482   0.088392   0.000049   0.011473   0.010471
    3  O  1  X    0.190290   0.304764   0.127679  -0.002425   0.033931
    4  O  1  Y    0.046763  -0.010316  -0.095071   0.041899  -0.001411
    5  O  1  Z   -0.026600  -0.072854   0.597534   0.121182  -0.117742
    6  O  1  S    0.139277   0.137210   0.001975   0.032498   0.011187
    7  O  1  X    0.135821   0.236361   0.103410  -0.013231   0.019438
    8  O  1  Y    0.037585  -0.013182  -0.072774   0.016656  -0.006218
    9  O  1  Z   -0.017311  -0.056257   0.482697   0.095582  -0.091005
   10  H  2  S   -0.030109  -0.070795  -0.008031   0.021137  -0.009567
   11  H  2  S   -0.067495  -0.011501  -0.000447  -0.025476  -0.000040
   12  H  3  S   -0.069745  -0.067231   0.001728  -0.025529  -0.007202
   13  H  3  S   -0.030544  -0.041049   0.002217  -0.018272  -0.006488
   14  O  4  S   -0.011944  -0.045387   0.002078  -0.004128   0.000411
   15  O  4  S    0.027993   0.109726  -0.004595   0.013948   0.002979
   16  O  4  X   -0.003391   0.079390   0.038266   0.234688   0.360609
   17  O  4  Y    0.177519   0.280089   0.004859  -0.202108  -0.300094
   18  O  4  Z    0.057863   0.296522   0.001336   0.170088   0.218639
   19  O  4  S    0.043505   0.168672  -0.011630   0.006049  -0.018758
   20  O  4  X   -0.009508   0.062410   0.024452   0.200305   0.289563
   21  O  4  Y    0.133510   0.210731   0.001798  -0.162272  -0.235921
   22  O  4  Z    0.047384   0.221639   0.011153   0.131137   0.179762
   23  H  5  S   -0.011749  -0.077417   0.015557  -0.008965   0.007329
   24  H  5  S   -0.002935  -0.042639   0.007006  -0.010269   0.001656
   25  H  6  S   -0.057691  -0.109717  -0.009774   0.003295  -0.005275
   26  H  6  S   -0.004758  -0.012800   0.004908   0.007976   0.030530
   27  O  7  S    0.063513  -0.028519  -0.000182  -0.000660   0.002868
   28  O  7  S   -0.148304   0.071653  -0.001773   0.004656  -0.010383
   29  O  7  X    0.339848  -0.214263  -0.008015   0.081860   0.079750
   30  O  7  Y    0.125061  -0.030818  -0.136695   0.469830  -0.321213
   31  O  7  Z    0.319874  -0.146253   0.047814  -0.186254   0.141040
   32  O  7  S   -0.261319   0.093794   0.006898  -0.003474   0.007361
   33  O  7  X    0.253326  -0.169906  -0.005155   0.057943   0.061617
   34  O  7  Y    0.087433  -0.023775  -0.112650   0.381994  -0.255110
   35  O  7  Z    0.230567  -0.106889   0.042882  -0.141646   0.118871
   36  H  8  S    0.109378  -0.070773  -0.001271   0.018989   0.028997
   37  H  8  S    0.062989   0.019936  -0.004979   0.007306  -0.029583
   38  H  9  S    0.134408  -0.047699  -0.005658  -0.006764  -0.007616
   39  H  9  S    0.070248  -0.030521   0.000510  -0.008695  -0.003469

                     16         17         18         19         20
                    0.2043     0.2463     0.2554     0.3644     0.3964
                     A          A          A          A          A   
    1  O  1  S    0.069611   0.051788  -0.005739   0.035028  -0.002615
    2  O  1  S   -0.108120  -0.062081  -0.002907  -0.069667  -0.008711
    3  O  1  X    0.106276   0.137079  -0.072063   0.069110  -0.062139
    4  O  1  Y    0.036934   0.133818   0.020232  -0.299872   0.029705
    5  O  1  Z   -0.020079  -0.002893   0.011583  -0.049778   0.005082
    6  O  1  S   -0.842233  -0.753402   0.146702  -0.422518   0.142000
    7  O  1  X    0.237392   0.273986  -0.109181   0.095143  -0.115639
    8  O  1  Y    0.111632   0.302382   0.034305  -0.810715   0.099665
    9  O  1  Z   -0.037896  -0.006360   0.016989  -0.132225   0.021489
   10  H  2  S    0.047195   0.040781  -0.018551   0.093070  -0.029694
   11  H  2  S    0.449176   0.155103  -0.221490   1.685824  -0.398819
   12  H  3  S    0.056803   0.033772   0.001406  -0.040907   0.025720
   13  H  3  S    0.869405   1.125354  -0.087726  -0.963854   0.028114
   14  O  4  S    0.048727  -0.029472   0.059829   0.002589   0.021361
   15  O  4  S   -0.081732   0.041796  -0.070711  -0.005185  -0.079314
   16  O  4  X    0.024742   0.044632  -0.099595   0.033639   0.159044
   17  O  4  Y    0.025210   0.044208   0.046955   0.019217  -0.072880
   18  O  4  Z    0.085718  -0.064646   0.174962  -0.016601  -0.099437
   19  O  4  S   -0.559883   0.374297  -0.872398  -0.019281  -0.006527
   20  O  4  X   -0.008227   0.091791  -0.202219   0.090421   0.359449
   21  O  4  Y    0.050957   0.047558   0.062185   0.045290  -0.025954
   22  O  4  Z    0.192675  -0.168140   0.394261  -0.045123  -0.217119
   23  H  5  S    0.031378  -0.023899   0.043808  -0.005962  -0.025763
   24  H  5  S    0.587325  -0.561473   1.224199  -0.162026  -0.621039
   25  H  6  S    0.027541  -0.002272   0.043121  -0.000702   0.007029
   26  H  6  S    0.276441  -0.010752   0.244882   0.173501   0.367042
   27  O  7  S    0.052842  -0.047658  -0.043497   0.009092   0.034722
   28  O  7  S   -0.086897   0.055468   0.056340  -0.052825  -0.061933
   29  O  7  X   -0.041651   0.062408  -0.029430   0.045035  -0.283564
   30  O  7  Y    0.018562   0.075199   0.052449   0.139516   0.025848
   31  O  7  Z   -0.081574   0.128106   0.139845   0.099036   0.137945
   32  O  7  S   -0.613100   0.702253   0.599175   0.139906  -0.500026
   33  O  7  X   -0.079930   0.100385  -0.046250  -0.005749  -0.648913
   34  O  7  Y   -0.015322   0.124495   0.111775   0.243716   0.152339
   35  O  7  Z   -0.196574   0.283813   0.327564   0.219650   0.359207
   36  H  8  S    0.025013  -0.042780  -0.021497  -0.004875   0.095769
   37  H  8  S    0.305483  -0.331482  -0.018661   0.039644   1.749948
   38  H  9  S    0.034866  -0.031663  -0.035484  -0.017666  -0.032076
   39  H  9  S    0.640730  -0.863458  -0.958000  -0.511070  -0.808791

                     21         22         23         24         25
                    0.4200     1.0597     1.0723     1.1250     1.1424
                     A          A          A          A          A   
    1  O  1  S    0.017348   0.009392  -0.007421   0.009279   0.027007
    2  O  1  S   -0.072634  -0.040660   0.030260  -0.008066  -0.096522
    3  O  1  X   -0.191778   0.080013  -0.005767   0.132373   0.041843
    4  O  1  Y    0.008517  -0.090309   0.080224   0.071285   0.028359
    5  O  1  Z    0.003946   0.020622  -0.320150  -0.035484  -0.623291
    6  O  1  S    0.086054   0.048143   0.026091  -0.035528  -0.006961
    7  O  1  X   -0.356780   0.049946  -0.125050   0.093367   0.258210
    8  O  1  Y   -0.081412   0.700006  -0.021774   0.521220  -0.132874
    9  O  1  Z    0.003727   0.040907   0.349326   0.088639   0.600982
   10  H  2  S   -0.022607  -0.329413  -0.188369  -0.312408   0.626417
   11  H  2  S   -0.301507  -0.123123   0.020845   0.103640  -0.370372
   12  H  3  S    0.013367   0.716382  -0.035680   0.826709   0.303801
   13  H  3  S   -0.278475  -0.157586  -0.029648  -0.301109  -0.097805
   14  O  4  S    0.038013  -0.001485   0.012821   0.005061   0.015777
   15  O  4  S   -0.058084  -0.021478  -0.059016  -0.016902  -0.074068
   16  O  4  X    0.163961   0.204195  -0.092583   0.242383  -0.116252
   17  O  4  Y    0.272286  -0.031587   0.120716  -0.064172  -0.096830
   18  O  4  Z   -0.052066   0.162532  -0.070765   0.120951  -0.311355
   19  O  4  S   -0.620768   0.135662  -0.038761   0.039472  -0.039168
   20  O  4  X    0.514245  -0.427110  -0.436230  -0.085971   0.321114
   21  O  4  Y    0.569897  -0.157498  -0.366757   0.272729   0.253407
   22  O  4  Z   -0.147350  -0.035230   0.495501  -0.161988   0.273936
   23  H  5  S   -0.034035   0.280233   0.876521  -0.181880  -0.179411
   24  H  5  S   -0.724178  -0.072778  -0.302372   0.180481   0.179169
   25  H  6  S    0.105590  -0.232305  -0.578776   0.507864   0.395650
   26  H  6  S    1.947633  -0.195010   0.305924  -0.426196  -0.196833
   27  O  7  S   -0.015595   0.003664  -0.008767  -0.004510  -0.013372
   28  O  7  S    0.029910  -0.047233   0.014493   0.013280   0.076523
   29  O  7  X    0.066206  -0.057168  -0.089857   0.176816  -0.088508
   30  O  7  Y   -0.015131   0.147007   0.281587   0.273073   0.117530
   31  O  7  Z   -0.051754  -0.058544  -0.143521   0.074480  -0.231070
   32  O  7  S    0.208139   0.096626   0.115866   0.008179  -0.003978
   33  O  7  X    0.209762   0.506305  -0.049994  -0.439893   0.237629
   34  O  7  Y   -0.076613  -0.361619  -0.170723  -0.116341  -0.217356
   35  O  7  Z   -0.131762  -0.409096   0.392869   0.281593   0.136519
   36  H  8  S   -0.037804  -0.589828   0.275852   0.421788  -0.284752
   37  H  8  S   -0.637821   0.057618  -0.297870  -0.236105   0.183312
   38  H  9  S    0.015395   0.704176  -0.413719  -0.621472   0.157448
   39  H  9  S    0.277021  -0.225169   0.159133   0.326539  -0.130577

                     26         27         28         29         30
                    1.1606     1.1742     1.1952     1.2262     1.2393
                     A          A          A          A          A   
    1  O  1  S    0.045794   0.035510   0.010836  -0.006249  -0.009003
    2  O  1  S   -0.191522  -0.120254  -0.048082   0.081617   0.050404
    3  O  1  X   -0.125659   0.372267  -0.129779   0.080518   0.080287
    4  O  1  Y   -0.063324   0.138250   0.066666   0.227015   0.026453
    5  O  1  Z    0.269107   0.258962  -0.368248  -0.318675   0.173094
    6  O  1  S   -0.035756  -0.024900  -0.030280  -0.046344  -0.019353
    7  O  1  X    0.498348  -0.151597   0.276465  -0.160724  -0.110795
    8  O  1  Y   -0.277002  -0.070269  -0.108196  -0.239533   0.086878
    9  O  1  Z   -0.399786  -0.325924   0.381038   0.358906  -0.170720
   10  H  2  S    1.018182   0.398870   0.164882  -0.056517  -0.219658
   11  H  2  S   -0.490703  -0.174264   0.037220   0.011264   0.160714
   12  H  3  S    0.196336   0.690899   0.110940   0.064790   0.049917
   13  H  3  S   -0.017512  -0.494283  -0.039335  -0.168571  -0.047324
   14  O  4  S   -0.001777  -0.008454   0.017829  -0.045752   0.058099
   15  O  4  S    0.031182   0.012446  -0.040824   0.216178  -0.348233
   16  O  4  X    0.154517  -0.384134   0.019901   0.060950  -0.202744
   17  O  4  Y   -0.026640   0.220188   0.138045   0.055476  -0.078061
   18  O  4  Z    0.318240  -0.299444   0.380359  -0.002158  -0.303210
   19  O  4  S    0.024861  -0.017386   0.021442  -0.028191   0.044706
   20  O  4  X   -0.332465   0.345774  -0.098323  -0.097787   0.246281
   21  O  4  Y    0.003926  -0.399283  -0.096486  -0.248400   0.364625
   22  O  4  Z   -0.183219   0.247995  -0.169940  -0.290702   0.646240
   23  H  5  S    0.319132  -0.061461   0.537622  -0.583302   0.574487
   24  H  5  S   -0.161318  -0.055976  -0.330738   0.254390  -0.214798
   25  H  6  S   -0.045229  -0.435781   0.259907  -0.578522   0.562403
   26  H  6  S   -0.074277   0.398742  -0.275913   0.367246  -0.093521
   27  O  7  S    0.016977  -0.006087   0.010509   0.059682   0.048104
   28  O  7  S   -0.059452  -0.000705  -0.119569  -0.323722  -0.234048
   29  O  7  X   -0.125731   0.097352   0.218878   0.154553   0.154969
   30  O  7  Y    0.185475  -0.160333  -0.427777   0.037617  -0.095167
   31  O  7  Z   -0.111504   0.234725   0.499511   0.069171  -0.078702
   32  O  7  S   -0.019631  -0.027146   0.022668   0.028233   0.011763
   33  O  7  X   -0.102779  -0.103345  -0.204493  -0.523337  -0.437939
   34  O  7  Y   -0.282258   0.203697   0.470282  -0.116511   0.033636
   35  O  7  Z    0.011756  -0.126500  -0.523560  -0.331903  -0.175740
   36  H  8  S    0.469137  -0.148011  -0.129469   0.685478   0.540285
   37  H  8  S   -0.282146   0.258305   0.202342  -0.240738  -0.167631
   38  H  9  S    0.195902  -0.253063  -0.068864   0.610916   0.658894
   39  H  9  S    0.007319   0.120776   0.102254  -0.247406  -0.384661

                     31         32         33         34         35
                    1.2628     1.3574     1.3749     1.4198     1.4491
                     A          A          A          A          A   
    1  O  1  S   -0.002973  -0.035897  -0.001238  -0.021517   0.003037
    2  O  1  S    0.105710   0.444608   0.030811   0.243053   0.038688
    3  O  1  X   -0.496113  -0.038177  -0.350201   0.384137  -0.186489
    4  O  1  Y    0.135291  -0.526121   0.515827  -0.096444  -0.000332
    5  O  1  Z    0.107054  -0.029494   0.096655  -0.038556   0.053910
    6  O  1  S   -0.195153  -0.424947  -0.141550  -0.098337  -0.167161
    7  O  1  X    0.577803   0.166509   0.495510  -0.611720   0.439527
    8  O  1  Y   -0.156236   0.802515  -0.571912  -0.005547   0.015840
    9  O  1  Z   -0.126421   0.055674  -0.111794   0.039580  -0.081051
   10  H  2  S    0.075405   0.191908  -0.305094   0.208790   0.071996
   11  H  2  S   -0.078685  -0.680602   0.736083  -0.542565   0.225598
   12  H  3  S   -0.047253  -0.193804   0.185596  -0.232021   0.107263
   13  H  3  S    0.195643   0.831043  -0.341628   0.138533   0.071331
   14  O  4  S   -0.003436   0.000683  -0.010064   0.031930  -0.013033
   15  O  4  S    0.024944  -0.044472   0.112487  -0.494049   0.226106
   16  O  4  X   -0.048527   0.028916  -0.440253  -0.283301   0.418426
   17  O  4  Y   -0.343604   0.599262   0.349399  -0.038037   0.380883
   18  O  4  Z   -0.245893  -0.116772   0.276255   0.470806  -0.243253
   19  O  4  S   -0.036354   0.209437   0.091477   0.605754  -0.212728
   20  O  4  X   -0.033742  -0.017366   0.673784   0.609051  -0.652837
   21  O  4  Y    0.231423  -0.715257  -0.368807   0.054956  -0.668302
   22  O  4  Z    0.277456   0.134252  -0.397023  -0.784627   0.405314
   23  H  5  S    0.005110  -0.115013  -0.025546   0.019544  -0.028351
   24  H  5  S    0.092679   0.278800  -0.257588  -0.884050   0.650480
   25  H  6  S   -0.246257   0.320008   0.311540  -0.112749   0.096587
   26  H  6  S    0.032581  -0.765412  -0.417776   0.590882  -0.879199
   27  O  7  S   -0.004305   0.017279   0.026512  -0.001404   0.009931
   28  O  7  S    0.019025  -0.159944  -0.355970   0.003001  -0.308024
   29  O  7  X    0.517868  -0.016123  -0.156029   0.537303   0.444368
   30  O  7  Y    0.368011   0.388404   0.169973   0.136159  -0.316227
   31  O  7  Z    0.289528   0.302147  -0.189629  -0.305383  -0.530030
   32  O  7  S   -0.117571  -0.020392   0.335335  -0.130658   0.491307
   33  O  7  X   -0.408022  -0.027051   0.180191  -0.723676  -0.592098
   34  O  7  Y   -0.445007  -0.555278  -0.108002  -0.174608   0.504384
   35  O  7  Z   -0.360186  -0.444970   0.321848   0.447992   0.908844
   36  H  8  S   -0.369783   0.006393  -0.149441  -0.334454  -0.286169
   37  H  8  S    0.294572   0.156549   0.394629   0.971521   0.771164
   38  H  9  S   -0.074568   0.024423   0.042941   0.049438  -0.029129
   39  H  9  S    0.216535   0.265568  -0.373701  -0.441131  -0.888361

                     36         37         38         39
                    1.5026     1.7571     1.7995     1.9775
                     A          A          A          A   
    1  O  1  S    0.018868   0.046225  -0.009487   0.021961
    2  O  1  S   -0.096209  -1.482063   0.084091  -0.809770
    3  O  1  X   -0.363822   0.176641   0.317603  -0.095547
    4  O  1  Y   -0.644683  -0.091777  -0.011747  -0.054957
    5  O  1  Z   -0.085953  -0.033085   0.014808  -0.018436
    6  O  1  S   -0.143426   2.560299   0.100165   1.365775
    7  O  1  X    0.540207  -0.670402  -0.701787   0.131708
    8  O  1  Y    1.233605   0.195143  -0.092736   0.238962
    9  O  1  Z    0.147274   0.133919  -0.016257   0.079497
   10  H  2  S   -0.113860  -0.225345   0.152998  -0.099942
   11  H  2  S   -0.310479  -1.046016  -0.579035  -0.425240
   12  H  3  S    0.267827  -0.369633  -0.202395  -0.090758
   13  H  3  S    0.593559  -0.381529  -0.024198  -0.073418
   14  O  4  S   -0.027178  -0.019151  -0.018255   0.027890
   15  O  4  S    0.233154   0.557741   0.846727  -1.319093
   16  O  4  X   -0.459099  -0.074873   0.019676   0.153252
   17  O  4  Y   -0.201460   0.157757  -0.290821   0.045354
   18  O  4  Z    0.091336  -0.000347  -0.040719  -0.024059
   19  O  4  S   -0.092416  -0.819228  -1.713733   2.420179
   20  O  4  X    0.550347   0.164661   0.062505  -0.484699
   21  O  4  Y    0.153052  -0.186596   0.803981  -0.391627
   22  O  4  Z   -0.210868   0.099372   0.308641  -0.219839
   23  H  5  S   -0.070050   0.102129   0.283294  -0.366981
   24  H  5  S   -0.221243   0.187796   0.136410  -0.079126
   25  H  6  S   -0.296061   0.247251   0.161045  -0.276328
   26  H  6  S    0.214495  -0.146202   1.231957  -1.140978
   27  O  7  S    0.014139  -0.003963   0.039369   0.020375
   28  O  7  S   -0.245361   0.303614  -1.323833  -0.953053
   29  O  7  X    0.025825   0.237560  -0.099319  -0.138542
   30  O  7  Y   -0.205616   0.207672   0.089136   0.029592
   31  O  7  Z   -0.186009   0.041969   0.023969   0.047801
   32  O  7  S    0.371605  -0.751973   2.249113   1.775143
   33  O  7  X   -0.202825  -0.537061   0.528068   0.553473
   34  O  7  Y    0.307091  -0.403788  -0.106728  -0.066057
   35  O  7  Z    0.378053  -0.170107   0.163624   0.042110
   36  H  8  S    0.215869  -0.039062  -0.345286  -0.128906
   37  H  8  S    0.016478   0.824053  -0.759161  -0.988307
   38  H  9  S   -0.070046   0.169546  -0.316636  -0.277747
   39  H  9  S   -0.312536   0.055541  -0.277267  -0.033154
 ...... END OF RHF CALCULATION ......
 STEP CPU TIME =     0.08 TOTAL CPU TIME =        0.2 (    0.0 MIN)
 TOTAL WALL CLOCK TIME=        0.5 SECONDS, CPU UTILIZATION IS  29.09%

     ----------------------------------------------------------------
     PROPERTY VALUES FOR THE RHF   SELF-CONSISTENT FIELD WAVEFUNCTION
     ----------------------------------------------------------------

          -----------------
          ENERGY COMPONENTS
          -----------------

         WAVEFUNCTION NORMALIZATION =       1.0000000000

                ONE ELECTRON ENERGY =    -480.0028163724
                TWO ELECTRON ENERGY =     168.9798370832
           NUCLEAR REPULSION ENERGY =      83.0330006939
                                      ------------------
                       TOTAL ENERGY =    -227.9899785953

 ELECTRON-ELECTRON POTENTIAL ENERGY =     168.9798370832
  NUCLEUS-ELECTRON POTENTIAL ENERGY =    -708.1146766933
   NUCLEUS-NUCLEUS POTENTIAL ENERGY =      83.0330006939
                                      ------------------
             TOTAL POTENTIAL ENERGY =    -456.1018389162
               TOTAL KINETIC ENERGY =     228.1118603209
                 VIRIAL RATIO (V/T) =       1.9994656932

          ---------------------------------------
          MULLIKEN AND LOWDIN POPULATION ANALYSES
          ---------------------------------------

     ATOMIC MULLIKEN POPULATION IN EACH MOLECULAR ORBITAL

                      1          2          3          4          5

                  2.000000   2.000000   2.000000   2.000000   2.000000

    1             1.999315  -0.000000  -0.000001   1.002983   0.623343
    2             0.000380   0.000013  -0.000000   0.061091   0.031638
    3             0.000278  -0.000000  -0.000000   0.072783   0.047723
    4            -0.000001   0.000001   1.999231   0.382011   0.062692
    5            -0.000000  -0.000000   0.000272   0.028045   0.004997
    6             0.000028  -0.000000   0.000477   0.029785   0.002050
    7            -0.000000   1.999271   0.000001   0.370498   1.076774
    8            -0.000000   0.000436   0.000021   0.024916   0.066974
    9            -0.000000   0.000280  -0.000000   0.027887   0.083810

                      6          7          8          9         10

                  2.000000   2.000000   2.000000   2.000000   2.000000

    1             0.139283   0.979108   0.312121   0.064445   0.974246
    2             0.009395   0.229786   0.089736   0.015674   0.048840
    3             0.011028   0.285679   0.074623   0.001018   0.040118
    4             1.315285   0.187154   0.318546   0.775424   0.762008
    5             0.104091   0.051126   0.096729   0.198907   0.087913
    6             0.071636   0.049604   0.062182   0.216643   0.035131
    7             0.309409   0.146617   0.675536   0.477062   0.040954
    8             0.014944   0.029069   0.194742   0.111329   0.004906
    9             0.024929   0.041859   0.175785   0.139499   0.005884

                     11         12         13         14         15

                  2.000000   2.000000   2.000000   2.000000   2.000000

    1             0.223407   0.535706   1.883754   0.073484   0.068907
    2             0.022014   0.020633   0.000178   0.006075   0.000328
    3             0.023343   0.023544   0.000024   0.003222   0.000180
    4             0.189504   0.942060   0.006262   0.625521   1.300644
    5             0.000603   0.028749   0.000874   0.000461   0.000179
    6             0.011847   0.044978   0.000547  -0.000164   0.001967
    7             1.369069   0.374058   0.108258   1.290740   0.619882
    8             0.070340   0.019001   0.000034   0.000296   0.007631
    9             0.089872   0.011272   0.000070   0.000364   0.000283

               ----- POPULATIONS IN EACH AO -----
                             MULLIKEN      LOWDIN
              1  O  1  S      1.99767     1.99384
              2  O  1  S      0.88532     0.85890
              3  O  1  X      0.97216     0.93619
              4  O  1  Y      0.82780     0.76597
              5  O  1  Z      1.13327     1.11290
              6  O  1  S      0.98912     0.74370
              7  O  1  X      0.73324     0.76384
              8  O  1  Y      0.49350     0.56507
              9  O  1  Z      0.84801     0.86798
             10  H  2  S      0.47394     0.45083
             11  H  2  S      0.06183     0.23228
             12  H  3  S      0.50233     0.47443
             13  H  3  S      0.08124     0.22350
             14  O  4  S      1.99772     1.99399
             15  O  4  S      0.89000     0.86429
             16  O  4  X      0.97627     0.93608
             17  O  4  Y      0.99666     0.95822
             18  O  4  Z      0.95700     0.91511
             19  O  4  S      0.99764     0.74682
             20  O  4  X      0.66416     0.70337
             21  O  4  Y      0.70746     0.74972
             22  O  4  Z      0.67944     0.73537
             23  H  5  S      0.51207     0.48310
             24  H  5  S      0.09088     0.22459
             25  H  6  S      0.48021     0.45776
             26  H  6  S      0.04651     0.23602
             27  O  7  S      1.99771     1.99401
             28  O  7  S      0.89107     0.86497
             29  O  7  X      0.92016     0.87162
             30  O  7  Y      1.09417     1.07010
             31  O  7  Z      0.91275     0.86410
             32  O  7  S      0.99546     0.74913
             33  O  7  X      0.62008     0.67230
             34  O  7  Y      0.81183     0.83321
             35  O  7  Z      0.61490     0.68261
             36  H  8  S      0.48516     0.46167
             37  H  8  S      0.05948     0.23488
             38  H  9  S      0.51224     0.48312
             39  H  9  S      0.08955     0.22441

          ----- MULLIKEN ATOMIC OVERLAP POPULATIONS -----
          (OFF-DIAGONAL ELEMENTS NEED TO BE MULTIPLIED BY 2)

             1           2           3           4           5

    1    8.3602817
    2    0.2476744   0.2889584
    3    0.2645606  -0.0196713   0.3385617
    4   -0.0109469   0.0012011   0.0003670   8.3413296
    5    0.0005728  -0.0000079  -0.0000214   0.2641545   0.3637633
    6    0.0231104  -0.0023226  -0.0003963   0.2500249  -0.0246417
    7   -0.0063966   0.0232359   0.0001765  -0.0086011   0.0003615
    8    0.0009684  -0.0023547  -0.0000066   0.0285541  -0.0012310
    9    0.0002765  -0.0009352  -0.0000063   0.0002585  -0.0000047

             6           7           8           9

    6    0.2822542
    7    0.0013077   8.3341024
    8   -0.0026309   0.2496126   0.2972424
    9    0.0000061   0.2643291  -0.0255180   0.3633885

          TOTAL MULLIKEN AND LOWDIN ATOMIC POPULATIONS
       ATOM         MULL.POP.    CHARGE          LOW.POP.     CHARGE
    1 O1            8.880101   -0.880101         8.608383   -0.608383
    2 H2            0.535778    0.464222         0.683110    0.316890
    3 H3            0.583564    0.416436         0.697930    0.302070
    4 O1            8.866341   -0.866341         8.602967   -0.602967
    5 H2            0.602945    0.397055         0.707694    0.292306
    6 H3            0.526712    0.473288         0.693777    0.306223
    7 O1            8.858128   -0.858128         8.602056   -0.602056
    8 H2            0.544636    0.455364         0.696546    0.303454
    9 H3            0.601794    0.398206         0.707536    0.292464

          -------------------------------
          BOND ORDER AND VALENCE ANALYSIS     BOND ORDER THRESHOLD=0.050
          -------------------------------

                   BOND                       BOND                       BOND
  ATOM PAIR DIST  ORDER      ATOM PAIR DIST  ORDER      ATOM PAIR DIST  ORDER
    1   2  0.954  0.716        1   3  0.947  0.786        1   6  1.923  0.051
    4   5  0.944  0.804        4   6  0.944  0.706        4   8  2.058  0.059
    7   8  0.944  0.720        7   9  0.944  0.803

                       TOTAL       BONDED        FREE
      ATOM            VALENCE     VALENCE     VALENCE
    1 O1                1.555       1.555      -0.000
    2 H2                0.770       0.770       0.000
    3 H3                0.794       0.794       0.000
    4 O1                1.573       1.573      -0.000
    5 H2                0.807       0.807       0.000
    6 H3                0.758       0.758      -0.000
    7 O1                1.574       1.574      -0.000
    8 H2                0.779       0.779       0.000
    9 H3                0.806       0.806       0.000

          ---------------------
          ELECTROSTATIC MOMENTS
          ---------------------

 POINT   1           X           Y           Z (BOHR)    CHARGE
                 2.304984   -3.406317    1.031644       -0.00 (A.U.)
         DX          DY          DZ         /D/  (DEBYE)
    -0.779055   -1.225065    0.073716    1.453666
 ...... END OF PROPERTY EVALUATION ......
 STEP CPU TIME =     0.00 TOTAL CPU TIME =        0.2 (    0.0 MIN)
 TOTAL WALL CLOCK TIME=        0.6 SECONDS, CPU UTILIZATION IS  28.57%
 NMR CHEMICAL SHIFT CALCULATION REQUIRES             5947718 WORDS OF MEMORY.

 CALCULATING GIAO ONE-ELECTRON INTEGRALS USING MCMURCHIE-DAVIDSON METHOD...
 STEP CPU TIME =     0.35 TOTAL CPU TIME =        0.5 (    0.0 MIN)
 TOTAL WALL CLOCK TIME=        0.9 SECONDS, CPU UTILIZATION IS  56.67%

 CALCULATING GIAO TWO-ELECTRON INTEGRALS USING MCMURCHIE-DAVIDSON METHOD
 CHOOSING OUT OF MEMORY OPTION USING TWO INTEGRAL PASSES...
     WORKING ON (^I J| K L) INTEGRALS...
     WORKING ON ( I J|^K L) INTEGRALS...
 STEP CPU TIME =    99.86 TOTAL CPU TIME =      100.4 (    1.7 MIN)
 TOTAL WALL CLOCK TIME=      100.8 SECONDS, CPU UTILIZATION IS  99.54%

             "DIAMAGNETIC" TERM OF SHIELDING TENSOR (PPM):

                          X             Y             Z         ISOTROPIC
                                                                SHIELDING
    1 O1        X    393.1040        3.2007       -2.1778
                Y      2.0198      405.9423        2.6227        395.7881
                Z     -1.7320        1.2012      388.3181

    2 H2        X     25.8018       -7.3619       -2.6975
                Y     -8.2256       40.1880        4.3754         29.3684
                Z     -2.1207        4.8690       22.1155

    3 H3        X     28.7521       10.5117       -0.8876
                Y      9.9153       40.1155        0.0069         30.1896
                Z     -0.1429        0.6595       21.7012

    4 O1        X    393.7169        7.4010      -10.3964
                Y      4.3902      394.5732       -3.2432        394.8395
                Z    -17.9868        5.6310      396.2284

    5 H2        X     32.0339        0.5578      -10.4224
                Y      1.5321       23.8717       -1.2159         31.0817
                Z    -13.7504        2.9609       37.3396

    6 H3        X     32.7999       13.5118        0.3733
                Y     12.0537       34.4149        0.1471         28.8165
                Z     -0.4768        1.4566       19.2346

    7 O1        X    395.7641       -4.5088       -2.8815
                Y     -2.2562      382.9107        6.9642        392.5505
                Z     -5.7037        6.6841      398.9768

    8 H2        X     43.8802       -5.4728       -4.2506
                Y     -4.4342       22.4756        2.4113         30.2084
                Z     -5.2179        1.4802       24.2695

    9 H3        X     24.0846       -2.0323       -3.1132
                Y     -1.7434       25.4695        8.5716         31.0256
                Z     -3.0926        7.2759       43.5226


             "PARAMAGNETIC" TERM OF SHIELDING TENSOR (PPM):

                          X             Y             Z         ISOTROPIC
                                                                SHIELDING
    1 O1        X    -58.7644        2.3623       -0.9228
                Y      9.5771      -36.2744        5.8455        -60.9592
                Z      1.0571       10.7180      -87.8387

    2 H2        X      2.4150       -0.0730        0.5024
                Y      2.2158        1.1578        0.8560          0.8939
                Z      0.2943        0.4104       -0.8912

    3 H3        X      2.5268       -1.2777        1.0407
                Y     -1.5501        1.5906        1.0849          2.5380
                Z      0.3158        0.2386        3.4967

    4 O1        X    -42.8441       10.0178      -17.5295
                Y     13.7297      -63.5559       -2.4261        -58.1624
                Z      0.0667       -8.2197      -68.0871

    5 H2        X      2.8735        1.1914        0.9008
                Y      0.0900        3.1940        0.6057          2.3125
                Z      3.8802       -3.9710        0.8702

    6 H3        X      3.7172       -1.2107       -0.6968
                Y      1.0167        0.2307        1.0296          1.4088
                Z      1.0255        0.3938        0.2785

    7 O1        X    -50.9454       -7.1581      -20.8231
                Y     -7.8535      -57.1460       14.3861        -55.7106
                Z     -9.7640        8.7741      -59.0403

    8 H2        X      0.8632       -0.0120       -1.8143
                Y     -0.4572        3.0185        0.1037          0.5663
                Z      0.5489        0.8994       -2.1828

    9 H3        X      4.2159        0.1231       -0.2393
                Y     -0.2891        4.3489       -1.0909          2.3153
                Z     -0.6914        0.2861       -1.6189


             GIAO CHEMICAL SHIELDING TENSOR (PPM):
                                                                ISOTROPIC
                          X             Y             Z         SHIELDING
                                                            (  ANISOTROPY )

    1 O1        X    334.3396        5.5631       -3.1006
                Y     11.5969      369.6679        8.4682
                Z     -0.6749       11.9192      300.4794
                                                                 334.8290
     EIGENVALS:      333.1267      372.5896      298.7706
                                                            (     56.6409 )
     EIGENVECS:        0.9520        0.1299        0.1083
                      -0.2744        0.9830       -0.1369
                      -0.1198        0.1613        0.9974


    2 H2        X     28.2168       -7.4349       -2.1951
                Y     -6.0098       41.3458        5.2314
                Z     -1.8263        5.2794       21.2244
                                                                  30.2623
     EIGENVALS:       25.4183       45.4541       19.9145
                                                            (     22.7877 )
     EIGENVECS:       -0.9355        0.4213        0.0582
                      -0.3444       -0.9090       -0.2161
                      -0.0261       -0.2298        0.9522


    3 H3        X     31.2789        9.2341        0.1531
                Y      8.3652       41.7061        1.0917
                Z      0.1730        0.8981       25.1979
                                                                  32.7276
     EIGENVALS:       46.7527       26.3710       25.0593
                                                            (     21.0376 )
     EIGENVECS:        0.5126       -0.8654        0.2710
                       0.8583        0.4563       -0.1982
                       0.0399        0.2217        0.9460


    4 O1        X    350.8728       17.4188      -27.9259
                Y     18.1199      331.0172       -5.6693
                Z    -17.9201       -2.5887      328.1413
                                                                 336.6771
     EIGENVALS:      371.9152      311.8018      326.3143
                                                            (     52.8571 )
     EIGENVECS:        0.8918       -0.9272       -0.0516
                       0.4494        0.6025        0.5810
                      -0.3916       -0.9214        0.3170


    5 H2        X     34.9074        1.7493       -9.5216
                Y      1.6220       27.0657       -0.6101
                Z     -9.8702       -1.0100       38.2098
                                                                  33.3943
     EIGENVALS:       46.5401       26.0536       27.5892
                                                            (     19.7187 )
     EIGENVECS:        0.6396       -0.6199       -0.4057
                       0.0773        0.7265       -0.7361
                      -0.7672       -0.4430       -0.4471


    6 H3        X     36.5170       12.3010       -0.3236
                Y     13.0704       34.6456        1.1767
                Z      0.5487        1.8504       19.5131
                                                                  30.2252
     EIGENVALS:       48.3276       23.1607       19.1875
                                                            (     27.1535 )
     EIGENVECS:        0.7203       -0.6552        0.1731
                       0.6931        0.7184       -0.2189
                       0.0582        0.2659        0.9521


    7 O1        X    344.8187      -11.6669      -23.7046
                Y    -10.1098      325.7647       21.3504
                Z    -15.4677       15.4582      339.9365
                                                                 336.8400
     EIGENVALS:      370.8675      326.4741      313.1783
                                                            (     51.0414 )
     EIGENVECS:        0.7787        0.9546       -0.0735
                      -0.4701        0.5458        0.6504
                      -0.6243        0.4702       -0.4182


    8 H2        X     44.7434       -5.4848       -6.0649
                Y     -4.8914       25.4941        2.5150
                Z     -4.6690        2.3796       22.0867
                                                                  30.7747
     EIGENVALS:       47.3630       24.4795       20.4816
                                                            (     24.8825 )
     EIGENVECS:        0.9703        0.2876        0.1825
                      -0.2402        0.8016       -0.3445
                      -0.2019        0.2360        1.0414


    9 H3        X     28.3004       -1.9093       -3.3526
                Y     -2.0325       29.8184        7.4807
                Z     -3.7840        7.5621       41.9037
                                                                  33.3408
     EIGENVALS:       27.4317       46.4204       26.1704
                                                            (     19.6194 )
     EIGENVECS:       -0.9429        0.2293        0.1872
                       0.0474       -0.4667        0.8319
                      -0.2713       -0.9735       -0.3548

 ..... DONE WITH NMR SHIELDINGS .....
 STEP CPU TIME =     0.46 TOTAL CPU TIME =      100.8 (    1.7 MIN)
 TOTAL WALL CLOCK TIME=      101.3 SECONDS, CPU UTILIZATION IS  99.55%
              5947718  WORDS OF DYNAMIC MEMORY USED
 EXECUTION OF GAMESS TERMINATED NORMALLY Tue Nov 29 00:39:26 2016
 DDI: 263640 bytes (0.3 MB / 0 MWords) used by master data server.

 ----------------------------------------
 CPU timing information for all processes
 ========================================
 0: 100.764 + 0.72 = 100.837
 ----------------------------------------
 ddikick.x: exited gracefully.
unset echo
----- accounting info -----
Files used on the master node compute-3-0 were:
-rw-rw-r-- 1 sarom sarom   26443 Nov 29  2016 .//nmr-h2otrimer.dat
-rw-rw-r-- 1 sarom sarom    1275 Nov 29  2016 .//nmr-h2otrimer.F05
-rw-rw-r-- 1 sarom sarom 3060272 Nov 29  2016 .//nmr-h2otrimer.F08
-rw-rw-r-- 1 sarom sarom 1537840 Nov 29  2016 .//nmr-h2otrimer.F10
-rw-rw-r-- 1 sarom sarom    1275 Nov 28 17:27 .//nmr-h2otrimer.inp
-rw-rw-r-- 1 sarom sarom   66019 Nov 29  2016 .//nmr-h2otrimer.log
Tue Nov 29 00:39:29 CST 2016
0.181u 0.513s 1:45.06 0.6%	0+0k 0+136io 0pf+0w
