----- GAMESS execution script 'rungms' -----
This job is running on host compute-3-0
under operating system Linux at Tue Nov 29 00:37:45 CST 2016
Available scratch disk space (Kbyte units) at beginning of the job is
Filesystem            1K-blocks       Used  Available Use% Mounted on
bolt.local:/export/home/sarom
                     9590469632 1553431552 7549870080  18% /home/sarom
Copying input file tdx-ala.inp to your run's scratch directory...
cp tdx-ala.inp .//tdx-ala.F05
unset echo
/home/sarom/gamessGH/ddikick.x /home/sarom/gamessGH/gamess.00.x tdx-ala -ddi 1 1 localhost -scr ./

 Distributed Data Interface kickoff program.
 Initiating 1 compute processes on 1 nodes to run the following command:
 /home/sarom/gamessGH/gamess.00.x tdx-ala 

          ******************************************************
          *         GAMESS VERSION = 18 AUG 2016 (R1)          *
          *             FROM IOWA STATE UNIVERSITY             *
          * M.W.SCHMIDT, K.K.BALDRIDGE, J.A.BOATZ, S.T.ELBERT, *
          *   M.S.GORDON, J.H.JENSEN, S.KOSEKI, N.MATSUNAGA,   *
          *          K.A.NGUYEN, S.J.SU, T.L.WINDUS,           *
          *       TOGETHER WITH M.DUPUIS, J.A.MONTGOMERY       *
          *         J.COMPUT.CHEM.  14, 1347-1363(1993)        *
          **************** 64 BIT LINUX VERSION ****************

  SINCE 1993, STUDENTS AND POSTDOCS WORKING AT IOWA STATE UNIVERSITY
  AND ALSO IN THEIR VARIOUS JOBS AFTER LEAVING ISU HAVE MADE IMPORTANT
  CONTRIBUTIONS TO THE CODE:
     IVANA ADAMOVIC, CHRISTINE AIKENS, YURI ALEXEEV, POOJA ARORA,
     ANDREY ASADCHEV, ROB BELL, PRADIPTA BANDYOPADHYAY, JONATHAN BENTZ,
     BRETT BODE, KURT BRORSEN, CALEB CARLIN, GALINA CHABAN, WEI CHEN,
     CHEOL HO CHOI, PAUL DAY, ALBERT DEFUSCO, NUWAN DESILVA, TIM DUDLEY,
     DMITRI FEDOROV, GRAHAM FLETCHER, MARK FREITAG, KURT GLAESEMANN,
     DAN KEMP, GRANT MERRILL, NORIYUKI MINEZAWA, JONATHAN MULLIN,
     TAKESHI NAGATA, SEAN NEDD, HEATHER NETZLOFF, BOSILJKA NJEGIC, RYAN OLSON,
     MIKE PAK, SPENCER PRUITT, LUKE ROSKOP, JIM SHOEMAKER, LYUDMILA SLIPCHENKO,
     TONY SMITH, SAROM SOK LEANG, JIE SONG, TETSUYA TAKETSUGU, SIMON WEBB,
     PENG XU, SOOHAENG YOO, FEDERICO ZAHARIEV

  ADDITIONAL CODE HAS BEEN PROVIDED BY COLLABORATORS IN OTHER GROUPS:
     IOWA STATE UNIVERSITY:
          JOE IVANIC, AARON WEST, LAIMUTIS BYTAUTAS, KLAUS RUEDENBERG
     UNIVERSITY OF TOKYO: KIMIHIKO HIRAO, TAKAHITO NAKAJIMA,
          TAKAO TSUNEDA, MUNEAKI KAMIYA, SUSUMU YANAGISAWA,
          KIYOSHI YAGI, MAHITO CHIBA, SEIKEN TOKURA, NAOAKI KAWAKAMI
     UNIVERSITY OF AARHUS: FRANK JENSEN
     UNIVERSITY OF IOWA: VISVALDAS KAIRYS, HUI LI
     NATIONAL INST. OF STANDARDS AND TECHNOLOGY: WALT STEVENS, DAVID GARMER
     UNIVERSITY OF PISA: BENEDETTA MENNUCCI, JACOPO TOMASI
     UNIVERSITY OF MEMPHIS: HENRY KURTZ, PRAKASHAN KORAMBATH
     UNIVERSITY OF ALBERTA: TOBY ZENG, MARIUSZ KLOBUKOWSKI
     UNIVERSITY OF NEW ENGLAND: MARK SPACKMAN
     MIE UNIVERSITY: HIROAKI UMEDA
     NAT. INST. OF ADVANCED INDUSTRIAL SCIENCE AND TECHNOLOGY: KAZUO KITAURA
     MICHIGAN STATE UNIVERSITY:
          KAROL KOWALSKI, MARTA WLOCH, JEFFREY GOUR, JESSE LUTZ,
          WEI LI, PIOTR PIECUCH
     UNIVERSITY OF SILESIA: MONIKA MUSIAL, STANISLAW KUCHARSKI
     FACULTES UNIVERSITAIRES NOTRE-DAME DE LA PAIX:
          OLIVIER QUINET, BENOIT CHAMPAGNE
     UNIVERSITY OF CALIFORNIA - SANTA BARBARA: BERNARD KIRTMAN
     INSTITUTE FOR MOLECULAR SCIENCE:
          KAZUYA ISHIMURA, MICHIO KATOUDA, AND SHIGERU NAGASE
     UNIVERSITY OF NOTRE DAME: ANNA POMOGAEVA, DAN CHIPMAN
     KYUSHU UNIVERSITY:
          HARUYUKI NAKANO,
          FENG LONG GU, JACEK KORCHOWIEC, MARCIN MAKOWSKI, AND YURIKO AOKI,
          HIROTOSHI MORI AND EISAKU MIYOSHI
     PENNSYLVANIA STATE UNIVERSITY:
          TZVETELIN IORDANOV, CHET SWALINA, JONATHAN SKONE,
          SHARON HAMMES-SCHIFFER
     WASEDA UNIVERSITY:
          MASATO KOBAYASHI, TOMOKO AKAMA, TSUGUKI TOUMA,
          TAKESHI YOSHIKAWA, YASUHIRO IKABATA, JUNJI SEINO,
          YUYA NAKAJIMA, HIROMI NAKAI
     NANJING UNIVERSITY: SHUHUA LI
     UNIVERSITY OF NEBRASKA:
          PEIFENG SU, DEJUN SI, NANDUN THELLAMUREGE, YALI WANG, HUI LI
     UNIVERSITY OF ZURICH: ROBERTO PEVERATI, KIM BALDRIDGE
     N. COPERNICUS UNIVERSITY AND JACKSON STATE UNIVERSITY:
          MARIA BARYSZ
     UNIVERSITY OF COPENHAGEN: Jimmy Kromann, CASPER STEINMANN
     TOKYO INSTITUTE OF TECHNOLOGY: HIROYA NAKATA
     NAGOYA UNIVERSITY: YOSHIO NISHIMOTO, STEPHAN IRLE
     MOSCOW STATE UNIVERSITY: VLADIMIR MIRONOV

 EXECUTION OF GAMESS BEGUN Tue Nov 29 00:37:45 2016

            ECHO OF THE FIRST FEW INPUT CARDS -
 INPUT CARD>!   alanine 6-31G(d), with 104 AOs, extended TDHF properties.                   
 INPUT CARD>!   This run produces dynamic ZVPA results, by producing                        
 INPUT CARD>!   the nuclear derivatives of frequency dependent alpha and beta               
 INPUT CARD>!   polarizabilities, along each normal mode of vibration.                      
 INPUT CARD>!   Your reading lesson is                                                      
 INPUT CARD>!      O.Quinet, B.Champagne, B.Kirtman  J.Comput.Chem. 22, 1920(2001)          
 INPUT CARD>!      O.Quinet, B.Kirtman, B.Champagne  J.Chem.Phys. 118, 505(2003)            
 INPUT CARD>!      O.Quinet, B.Champagne, B.Kirtman  J.Mol.Struct(Theochem) 633, 199(2003)  
 INPUT CARD>!                                                                               
 INPUT CARD>!   Results from here and there in the very lengthy log file are                
 INPUT CARD>!     FINAL E= -321.8679409838, 12 iterations                                   
 INPUT CARD>!     harmonic FREQ= 56.85, 242.93, 254.56, ... 3731.20, 3811.05, 4051.16       
 INPUT CARD>!                                                                               
 INPUT CARD>!   Raman Intensity at omega =    .040000                                       
 INPUT CARD>!   ----------------------------------------------------------------            
 INPUT CARD>!     Freq  |Mult|  Intensity     (%)  |l-depol ratio|n-depol ratio             
 INPUT CARD>!   ----------------------------------------------------------------            
 INPUT CARD>!       56.8|  1.|          .43 (   .4)|      .748250|      .855999             
 INPUT CARD>!      242.9|  1.|          .21 (   .2)|      .722385|      .838819             
 INPUT CARD>!      254.6|  1.|         2.38 (  2.2)|      .749954|      .857113             
 INPUT CARD>!     3731.2|  1.|        82.15 ( 76.8)|      .125011|      .222239             
 INPUT CARD>!     3811.0|  1.|        56.82 ( 53.2)|      .716869|      .835089             
 INPUT CARD>!     4051.2|  1.|        89.51 ( 83.7)|      .309706|      .472940             
 INPUT CARD>!   ----------------------------------------------------------------            
 INPUT CARD>!                                                                               
 INPUT CARD>!   Beta derivatives [in au]( -0.060000;  0.040000,  0.020000)                  
 INPUT CARD>!        mode    1(  56.8 cm^-1)                                                
 INPUT CARD>!                   x                y                z                         
 INPUT CARD>!       xx.         0.021835        -0.012381        -0.009945                  
 INPUT CARD>!       xy.        -0.012367         0.013818...                                
 INPUT CARD>!                                                                               
 INPUT CARD>!   Hyper Raman Intensity at omega =    .040000                                 
 INPUT CARD>!      Intensity expressed in [Ang.^6 AMU^-1 StatVolt^-2]                       
 INPUT CARD>!   ----------------------------------------------------------------            
 INPUT CARD>!     Freq  |Mult|  Intensity     (%)  |n-depol ratio|p-depol ratio             
 INPUT CARD>!   ----------------------------------------------------------------            
 INPUT CARD>!       56.8|  1.|        15.71 (   .3)|      .711739|      .552480             
 INPUT CARD>!      242.9|  1.|       204.52 (  3.9)|      .796164|      .661356             
 INPUT CARD>!      254.6|  1.|       146.90 (  2.8)|      .593370|      .421838             
 INPUT CARD>!       ...snipped...                                                           
 INPUT CARD>!     3731.2|  1.|      1408.40 ( 26.8)|      .539711|      .369592             
 INPUT CARD>!     3811.0|  1.|      1231.24 ( 23.4)|      .451675|      .291719             
 INPUT CARD>!     4051.2|  1.|      5264.96 (100.0)|      .370057|      .227037             
 INPUT CARD>!   ----------------------------------------------------------------            
 INPUT CARD>!                                                                               
 INPUT CARD>!    Polarizability s.cond order derivatives [in au]( -0.040000;  0.040000)     
 INPUT CARD>!        dQ(   1)(w=  56.8 cm^-1)                                               
 INPUT CARD>!                   x                y                z                         
 INPUT CARD>!        x.         0.000046         0.000004         0.000012                  
 INPUT CARD>!        y.         0.000004         0.000101        -0.000015                  
  140000000 WORDS OF MEMORY AVAILABLE

     BASIS OPTIONS
     -------------
     GBASIS=N31          IGAUSS=       6      POLAR=POPN31  
     NDFUNC=       1     NFFUNC=       0     DIFFSP=       F
     NPFUNC=       0      DIFFS=       F     BASNAM=        


     RUN TITLE
     ---------
 alanine...2nd simplest amino acid...at RHF/6-31G(d) geometry                    

 THE POINT GROUP OF THE MOLECULE IS C1      
 THE ORDER OF THE PRINCIPAL AXIS IS     0

 YOUR FULLY SUBSTITUTED Z-MATRIX IS
 O   
 C      1   1.1885504
 C      2   1.5219650  1  125.2335
 O      2   1.3306365  3  112.3824  1 -179.6032  0
 H      4   0.9525063  2  108.3130  3  179.0017  0
 N      3   1.4440998  2  113.0064  1  -11.8214  0
 H      6   1.0019387  3  110.6116  2  -59.7134  0
 H      6   1.0025818  3  109.9770  2   57.0552  0
 H      3   1.0847593  2  106.7453  4   49.4274  0
 C      3   1.5317986  2  109.9275  4  -67.8848  0
 H     10   1.0822854  3  108.9622  2  178.5957  0
 H     10   1.0827490  3  111.4551  2   58.0277  0
 H     10   1.0863894  3  110.6121  2  -62.6648  0

 THE MOMENTS OF INERTIA ARE (AMU-ANGSTROM**2)
 IXX=    98.209   IYY=   159.765   IZZ=   222.711

 ATOM      ATOMIC                      COORDINATES (BOHR)
           CHARGE         X                   Y                   Z
 O           8.0    -2.0923885949        2.1600590998        0.9291279778
 C           6.0    -1.3702763679        0.2702382758       -0.0464756881
 C           6.0     1.3653966337       -0.3093203313       -0.7188877095
 O           8.0    -2.9257085704       -1.6076236893       -0.6606160132
 H           1.0    -4.5938302196       -1.1443355173       -0.1680233778
 N           7.0     2.9950940893        1.8714252758       -0.5301581541
 H           1.0     2.4087449545        3.2444720497       -1.6945727815
 H           1.0     2.9071970801        2.5957888917        1.2182980586
 H           1.0     1.3709918870       -0.9576294350       -2.6635586719
 C           6.0     2.3616189837       -2.4483086556        0.9578472410
 H           1.0     4.2908653021       -2.8676844504        0.4239286353
 H           1.0     1.2273710914       -4.1403275443        0.7652995753
 H           1.0     2.3533158170       -1.8831282638        2.9314789210

          INTERNUCLEAR DISTANCES (ANGS.)
          ------------------------------

                1 O          2 C          3 C          4 O          5 H     

   1 O       0.0000000    1.1885504 *  2.4116825 *  2.2084604 *  2.2686820 *
   2 C       1.1885504 *  0.0000000    1.5219650 *  1.3306365 *  1.8639582 *
   3 C       2.4116825 *  1.5219650 *  0.0000000    2.3726133 *  3.1976096  
   4 O       2.2084604 *  1.3306365 *  2.3726133 *  0.0000000    0.9525063 *
   5 H       2.2686820 *  1.8639582 *  3.1976096    0.9525063 *  0.0000000  
   6 N       2.8049043 *  2.4738234 *  1.4440998 *  3.6346698    4.3256065  
   7 H       2.8160962 *  2.6901413 *  2.0268233 *  3.8549498    4.4472317  
   8 H       2.6601007 *  2.6619571 *  2.0198701 *  3.9323882    4.4956972  
   9 H       3.1137206    2.1081809 *  1.0847593 *  2.5320955 *  3.4229898  
  10 C       3.3915292    2.5003950 *  1.5317986 *  2.9597053 *  3.7918866  
  11 H       4.3081451    3.4342080    2.1436332 *  3.9188757    4.7994408  
  12 H       3.7695296    2.7425395 *  2.1753291 *  2.6824587 *  3.4995162  
  13 H       3.3518716    2.7684792 *  2.1675627 *  3.3820656    4.0445058  

                6 N          7 H          8 H          9 H         10 C     

   1 O       2.8049043 *  2.8160962 *  2.6601007 *  3.1137206    3.3915292  
   2 C       2.4738234 *  2.6901413 *  2.6619571 *  2.1081809 *  2.5003950 *
   3 C       1.4440998 *  2.0268233 *  2.0198701 *  1.0847593 *  1.5317986 *
   4 O       3.6346698    3.8549498    3.9323882    2.5320955 *  2.9597053 *
   5 H       4.3256065    4.4472317    4.4956972    3.4229898    3.7918866  
   6 N       0.0000000    1.0019387 *  1.0025818 *  2.0626143 *  2.4408528 *
   7 H       1.0019387 *  0.0000000    1.6010617 *  2.3471574 *  3.3235240  
   8 H       1.0025818 *  1.6010617 *  0.0000000    2.9011039 *  2.6883251 *
   9 H       2.0626143 *  2.3471574 *  2.9011039 *  0.0000000    2.1376434 *
  10 C       2.4408528 *  3.3235240    2.6883251 *  2.1376434 *  0.0000000  
  11 H       2.6484497 *  3.5651344    3.0119020    2.4654520 *  1.0822854 *
  12 H       3.3860823    4.1661369    3.6815789    2.4768244 *  1.0827490 *
  13 H       2.7236688 *  3.6546083    2.5544780 *  3.0456876    1.0863894 *

               11 H         12 H         13 H     

   1 O       4.3081451    3.7695296    3.3518716  
   2 C       3.4342080    2.7425395 *  2.7684792 *
   3 C       2.1436332 *  2.1753291 *  2.1675627 *
   4 O       3.9188757    2.6824587 *  3.3820656  
   5 H       4.7994408    3.4995162    4.0445058  
   6 N       2.6484497 *  3.3860823    2.7236688 *
   7 H       3.5651344    4.1661369    3.6546083  
   8 H       3.0119020    3.6815789    2.5544780 *
   9 H       2.4654520 *  2.4768244 *  3.0456876  
  10 C       1.0822854 *  1.0827490 *  1.0863894 *
  11 H       0.0000000    1.7647209 *  1.7559802 *
  12 H       1.7647209 *  0.0000000    1.7594673 *
  13 H       1.7559802 *  1.7594673 *  0.0000000  

  * ... LESS THAN  3.000


     ATOMIC BASIS SET
     ----------------
 THE CONTRACTED PRIMITIVE FUNCTIONS HAVE BEEN UNNORMALIZED
 THE CONTRACTED BASIS FUNCTIONS ARE NOW NORMALIZED TO UNITY

  SHELL TYPE  PRIMITIVE        EXPONENT          CONTRACTION COEFFICIENT(S)

 O         

      1   S       1          5484.6716600    0.001831074430
      1   S       2           825.2349460    0.013950172200
      1   S       3           188.0469580    0.068445078098
      1   S       4            52.9645000    0.232714335992
      1   S       5            16.8975704    0.470192897984
      1   S       6             5.7996353    0.358520852987

      2   L       7            15.5396162   -0.110777549525    0.070874268231
      2   L       8             3.5999336   -0.148026262701    0.339752839147
      2   L       9             1.0137618    1.130767015354    0.727158577316

      3   L      10             0.2700058    1.000000000000    1.000000000000

      4   D      11             0.8000000    1.000000000000

 C         

      5   S      12          3047.5248800    0.001834737132
      5   S      13           457.3695180    0.014037322813
      5   S      14           103.9486850    0.068842622264
      5   S      15            29.2101553    0.232184443216
      5   S      16             9.2866630    0.467941348435
      5   S      17             3.1639270    0.362311985337

      6   L      18             7.8682723   -0.119332419775    0.068999066591
      6   L      19             1.8812885   -0.160854151696    0.316423960957
      6   L      20             0.5442493    1.143456437840    0.744308290898

      7   L      21             0.1687145    1.000000000000    1.000000000000

      8   D      22             0.8000000    1.000000000000

 C         

      9   S      23          3047.5248800    0.001834737132
      9   S      24           457.3695180    0.014037322813
      9   S      25           103.9486850    0.068842622264
      9   S      26            29.2101553    0.232184443216
      9   S      27             9.2866630    0.467941348435
      9   S      28             3.1639270    0.362311985337

     10   L      29             7.8682723   -0.119332419775    0.068999066591
     10   L      30             1.8812885   -0.160854151696    0.316423960957
     10   L      31             0.5442493    1.143456437840    0.744308290898

     11   L      32             0.1687145    1.000000000000    1.000000000000

     12   D      33             0.8000000    1.000000000000

 O         

     13   S      34          5484.6716600    0.001831074430
     13   S      35           825.2349460    0.013950172200
     13   S      36           188.0469580    0.068445078098
     13   S      37            52.9645000    0.232714335992
     13   S      38            16.8975704    0.470192897984
     13   S      39             5.7996353    0.358520852987

     14   L      40            15.5396162   -0.110777549525    0.070874268231
     14   L      41             3.5999336   -0.148026262701    0.339752839147
     14   L      42             1.0137618    1.130767015354    0.727158577316

     15   L      43             0.2700058    1.000000000000    1.000000000000

     16   D      44             0.8000000    1.000000000000

 H         

     17   S      45            18.7311370    0.033494604338
     17   S      46             2.8253944    0.234726953484
     17   S      47             0.6401217    0.813757326146

     18   S      48             0.1612778    1.000000000000

 N         

     19   S      49          4173.5114600    0.001834772160
     19   S      50           627.4579110    0.013994627002
     19   S      51           142.9020930    0.068586551812
     19   S      52            40.2343293    0.232240873040
     19   S      53            12.8202129    0.469069948082
     19   S      54             4.3904370    0.360455199063

     20   L      55            11.6263619   -0.114961181702    0.067579743878
     20   L      56             2.7162798   -0.169117478561    0.323907295893
     20   L      57             0.7722184    1.145851947027    0.740895139755

     21   L      58             0.2120315    1.000000000000    1.000000000000

     22   D      59             0.8000000    1.000000000000

 H         

     23   S      60            18.7311370    0.033494604338
     23   S      61             2.8253944    0.234726953484
     23   S      62             0.6401217    0.813757326146

     24   S      63             0.1612778    1.000000000000

 H         

     25   S      64            18.7311370    0.033494604338
     25   S      65             2.8253944    0.234726953484
     25   S      66             0.6401217    0.813757326146

     26   S      67             0.1612778    1.000000000000

 H         

     27   S      68            18.7311370    0.033494604338
     27   S      69             2.8253944    0.234726953484
     27   S      70             0.6401217    0.813757326146

     28   S      71             0.1612778    1.000000000000

 C         

     29   S      72          3047.5248800    0.001834737132
     29   S      73           457.3695180    0.014037322813
     29   S      74           103.9486850    0.068842622264
     29   S      75            29.2101553    0.232184443216
     29   S      76             9.2866630    0.467941348435
     29   S      77             3.1639270    0.362311985337

     30   L      78             7.8682723   -0.119332419775    0.068999066591
     30   L      79             1.8812885   -0.160854151696    0.316423960957
     30   L      80             0.5442493    1.143456437840    0.744308290898

     31   L      81             0.1687145    1.000000000000    1.000000000000

     32   D      82             0.8000000    1.000000000000

 H         

     33   S      83            18.7311370    0.033494604338
     33   S      84             2.8253944    0.234726953484
     33   S      85             0.6401217    0.813757326146

     34   S      86             0.1612778    1.000000000000

 H         

     35   S      87            18.7311370    0.033494604338
     35   S      88             2.8253944    0.234726953484
     35   S      89             0.6401217    0.813757326146

     36   S      90             0.1612778    1.000000000000

 H         

     37   S      91            18.7311370    0.033494604338
     37   S      92             2.8253944    0.234726953484
     37   S      93             0.6401217    0.813757326146

     38   S      94             0.1612778    1.000000000000

 TOTAL NUMBER OF BASIS SET SHELLS             =   38
 NUMBER OF CARTESIAN GAUSSIAN BASIS FUNCTIONS =  104
 NUMBER OF ELECTRONS                          =   48
 CHARGE OF MOLECULE                           =    0
 SPIN MULTIPLICITY                            =    1
 NUMBER OF OCCUPIED ORBITALS (ALPHA)          =   24
 NUMBER OF OCCUPIED ORBITALS (BETA )          =   24
 TOTAL NUMBER OF ATOMS                        =   13
 THE NUCLEAR REPULSION ENERGY IS      251.1588785141

     $CONTRL OPTIONS
     ---------------
 SCFTYP=RHF          RUNTYP=TDHFX        EXETYP=RUN     
 MPLEVL=       0     CITYP =NONE         CCTYP =NONE         VBTYP =NONE    
 DFTTYP=NONE         TDDFT =NONE    
 MULT  =       1     ICHARG=       0     NZVAR =      33     COORD =ZMT     
 PP    =NONE         RELWFN=NONE         LOCAL =NONE         NUMGRD=       F
 ISPHER=      -1     NOSYM =       0     MAXIT =      30     UNITS =ANGS    
 PLTORB=       F     MOLPLT=       F     AIMPAC=       F     FRIEND=        
 NPRINT=       7     IREST =       0     GEOM  =INPUT   
 NORMF =       0     NORMP =       0     ITOL  =      20     ICUT  =       9
 INTTYP=BEST         GRDTYP=BEST         QMTTOL= 1.0E-06

     $SYSTEM OPTIONS
     ---------------
  REPLICATED MEMORY=   140000000 WORDS (ON EVERY NODE).
 DISTRIBUTED MEMDDI=           0 MILLION WORDS IN AGGREGATE,
 MEMDDI DISTRIBUTED OVER   1 PROCESSORS IS           0 WORDS/PROCESSOR.
 TOTAL MEMORY REQUESTED ON EACH PROCESSOR=   140000000 WORDS.
 TIMLIM=      525600.00 MINUTES, OR     365.0 DAYS.
 PARALL= F  BALTYP=  DLB     KDIAG=    0  COREFL= F
 MXSEQ2=     300 MXSEQ3=     150  mem10=         0

          ----------------
          PROPERTIES INPUT
          ----------------

     MOMENTS            FIELD           POTENTIAL          DENSITY
 IEMOM =       1   IEFLD =       0   IEPOT =       0   IEDEN =       0
 WHERE =COMASS     WHERE =NUCLEI     WHERE =NUCLEI     WHERE =NUCLEI  
 OUTPUT=BOTH       OUTPUT=BOTH       OUTPUT=BOTH       OUTPUT=BOTH    
 IEMINT=       0   IEFINT=       0                     IEDINT=       0
                                                       MORB  =       0
          EXTRAPOLATION IN EFFECT
          SOSCF IN EFFECT
 ORBITAL PRINTING OPTION: NPREO=     1   104     2     1

     -------------------------------
     INTEGRAL TRANSFORMATION OPTIONS
     -------------------------------
     NWORD  =            0
     CUTOFF = 1.0E-09     MPTRAN =       0
     DIRTRF =       F     AOINTS =DUP     

          ----------------------
          INTEGRAL INPUT OPTIONS
          ----------------------
 NOPK  =       1 NORDER=       0 SCHWRZ=       T

   --- ENCODED Z MATRIX ---
 COORD  TYPE   I   J   K   L   M   N
    1      1    2   1
    2      1    3   2
    3      2    3   2   1
    4      1    4   2
    5      2    4   2   3
    6      3    4   2   3   1
    7      1    5   4
    8      2    5   4   2
    9      3    5   4   2   3
   10      1    6   3
   11      2    6   3   2
   12      3    6   3   2   1
   13      1    7   6
   14      2    7   6   3
   15      3    7   6   3   2
   16      1    8   6
   17      2    8   6   3
   18      3    8   6   3   2
   19      1    9   3
   20      2    9   3   2
   21      3    9   3   2   4
   22      1   10   3
   23      2   10   3   2
   24      3   10   3   2   4
   25      1   11  10
   26      2   11  10   3
   27      3   11  10   3   2
   28      1   12  10
   29      2   12  10   3
   30      3   12  10   3   2
   31      1   13  10
   32      2   13  10   3
   33      3   13  10   3   2

 THE DETERMINANT OF THE G MATRIX IS 10**(   -23)


                     --------------------
                     INTERNAL COORDINATES
                     --------------------

                 - - ATOMS - -         COORDINATE      COORDINATE
 NO.   TYPE    I  J  K  L  M  N        (BOHR,RAD)       (ANG,DEG)
 ----------------------------------------------------------------
   1 STRETCH   2  1                     2.2460346       1.1885504
   2 STRETCH   3  2                     2.8760968       1.5219650
   3 BEND      3  2  1                  2.1857373     125.2335205
   4 STRETCH   4  2                     2.5145384       1.3306365
   5 BEND      4  2  3                  1.9614428     112.3823939
   6 TORSION   4  2  3  1              -3.1346673    -179.6032083
   7 STRETCH   5  4                     1.7999759       0.9525063
   8 BEND      5  4  2                  1.8904182     108.3129867
   9 TORSION   5  4  2  3               3.1241685     179.0016724
  10 STRETCH   6  3                     2.7289529       1.4440998
  11 BEND      6  3  2                  1.9723330     113.0063540
  12 TORSION   6  3  2  1              -0.2063220     -11.8213789
  13 STRETCH   7  6                     1.8933896       1.0019387
  14 BEND      7  6  3                  1.9305366     110.6115974
  15 TORSION   7  6  3  2              -1.0421957     -59.7134134
  16 STRETCH   8  6                     1.8946049       1.0025818
  17 BEND      8  6  3                  1.9194609     109.9770069
  18 TORSION   8  6  3  2               0.9958020      57.0552496
  19 STRETCH   9  3                     2.0498978       1.0847593
  20 BEND      9  3  2                  1.8630575     106.7453312
  21 TORSION   9  3  2  4               0.8626708      49.4273966
  22 STRETCH  10  3                     2.8946796       1.5317986
  23 BEND     10  3  2                  1.9185975     109.9275386
  24 TORSION  10  3  2  4              -1.1848137     -67.8848231
  25 STRETCH  11 10                     2.0452228       1.0822854
  26 BEND     11 10  3                  1.9017495     108.9622200
  27 TORSION  11 10  3  2               3.1170824     178.5956687
  28 STRETCH  12 10                     2.0460989       1.0827490
  29 BEND     12 10  3                  1.9452584     111.4550947
  30 TORSION  12 10  3  2               1.0127743      58.0276933
  31 STRETCH  13 10                     2.0529783       1.0863894
  32 BEND     13 10  3                  1.9305457     110.6121207
  33 TORSION  13 10  3  2              -1.0937073     -62.6648132

     ------------------------------------------
     THE POINT GROUP IS C1 , NAXIS= 0, ORDER= 1
     ------------------------------------------

     DIMENSIONS OF THE SYMMETRY SUBSPACES ARE
 A   =  104

 ..... DONE SETTING UP THE RUN .....
 STEP CPU TIME =     0.03 TOTAL CPU TIME =        0.0 (    0.0 MIN)
 TOTAL WALL CLOCK TIME=        0.1 SECONDS, CPU UTILIZATION IS  27.27%

          ********************
          1 ELECTRON INTEGRALS
          ********************
 ...... END OF ONE-ELECTRON INTEGRALS ......
 STEP CPU TIME =     0.01 TOTAL CPU TIME =        0.0 (    0.0 MIN)
 TOTAL WALL CLOCK TIME=        0.1 SECONDS, CPU UTILIZATION IS  33.33%

          -------------
          GUESS OPTIONS
          -------------
          GUESS =HUCKEL            NORB  =       0          NORDER=       0
          MIX   =       F          PRTMO =       F          PUNMO =       F
          TOLZ  = 1.0E-08          TOLE  = 1.0E-05
          SYMDEN=       F          PURIFY=       F

 INITIAL GUESS ORBITALS GENERATED BY HUCKEL   ROUTINE.
 HUCKEL GUESS REQUIRES     93796 WORDS.

 SYMMETRIES FOR INITIAL GUESS ORBITALS FOLLOW.   BOTH SET(S).
    24 ORBITALS ARE OCCUPIED (    6 CORE ORBITALS).
     7=A        8=A        9=A       10=A       11=A       12=A       13=A   
    14=A       15=A       16=A       17=A       18=A       19=A       20=A   
    21=A       22=A       23=A       24=A       25=A       26=A       27=A   
    28=A       29=A       30=A       31=A       32=A       33=A       34=A   
 ...... END OF INITIAL ORBITAL SELECTION ......
 STEP CPU TIME =     0.02 TOTAL CPU TIME =        0.1 (    0.0 MIN)
 TOTAL WALL CLOCK TIME=        0.1 SECONDS, CPU UTILIZATION IS  42.86%

                    ----------------------
                    AO INTEGRAL TECHNOLOGY
                    ----------------------
     S,P,L SHELL ROTATED AXIS INTEGRALS, REPROGRAMMED BY
        KAZUYA ISHIMURA (IMS) AND JOSE SIERRA (SYNSTAR).
     S,P,D,L SHELL ROTATED AXIS INTEGRALS PROGRAMMED BY
        KAZUYA ISHIMURA (INSTITUTE FOR MOLECULAR SCIENCE).
     S,P,D,F,G SHELL TO TOTAL QUARTET ANGULAR MOMENTUM SUM 5,
        ERIC PROGRAM BY GRAHAM FLETCHER (ELORET AND NASA ADVANCED
        SUPERCOMPUTING DIVISION, AMES RESEARCH CENTER).
     S,P,D,F,G,L SHELL GENERAL RYS QUADRATURE PROGRAMMED BY
        MICHEL DUPUIS (PACIFIC NORTHWEST NATIONAL LABORATORY).

          --------------------
          2 ELECTRON INTEGRALS
          --------------------

 THE -PK- OPTION IS OFF, THE INTEGRALS ARE NOT IN SUPERMATRIX FORM.
 STORING   15000 INTEGRALS/RECORD ON DISK, USING 12 BYTES/INTEGRAL.
 TWO ELECTRON INTEGRAL EVALUATION REQUIRES   91137 WORDS OF MEMORY.
 SCHWARZ INEQUALITY OVERHEAD:      5445 INTEGRALS, T=        0.00
 II,JST,KST,LST =  1  1  1  1 NREC =         1 INTLOC =    1
 II,JST,KST,LST =  2  1  1  1 NREC =         1 INTLOC =    2
 II,JST,KST,LST =  3  1  1  1 NREC =         1 INTLOC =   34
 II,JST,KST,LST =  4  1  1  1 NREC =         1 INTLOC =  214
 II,JST,KST,LST =  5  1  1  1 NREC =         1 INTLOC = 1189
 II,JST,KST,LST =  6  1  1  1 NREC =         1 INTLOC = 3244
 II,JST,KST,LST =  7  1  1  1 NREC =         2 INTLOC =  996
 II,JST,KST,LST =  8  1  1  1 NREC =         3 INTLOC = 8256
 II,JST,KST,LST =  9  1  1  1 NREC =         7 INTLOC = 6201
 II,JST,KST,LST = 10  1  1  1 NREC =         8 INTLOC = 4795
 II,JST,KST,LST = 11  1  1  1 NREC =        13 INTLOC = 4772
 II,JST,KST,LST = 12  1  1  1 NREC =        20 INTLOC = 4560
 II,JST,KST,LST = 13  1  1  1 NREC =        35 INTLOC = 4607
 II,JST,KST,LST = 14  1  1  1 NREC =        38 INTLOC =  854
 II,JST,KST,LST = 15  1  1  1 NREC =        52 INTLOC =11127
 II,JST,KST,LST = 16  1  1  1 NREC =        71 INTLOC =12476
 II,JST,KST,LST = 17  1  1  1 NREC =       108 INTLOC =13788
 II,JST,KST,LST = 18  1  1  1 NREC =       116 INTLOC = 2352
 II,JST,KST,LST = 19  1  1  1 NREC =       124 INTLOC =  614
 II,JST,KST,LST = 20  1  1  1 NREC =       128 INTLOC = 8267
 II,JST,KST,LST = 21  1  1  1 NREC =       157 INTLOC =12630
 II,JST,KST,LST = 22  1  1  1 NREC =       200 INTLOC = 6410
 II,JST,KST,LST = 23  1  1  1 NREC =       266 INTLOC = 4814
 II,JST,KST,LST = 24  1  1  1 NREC =       278 INTLOC =11029
 II,JST,KST,LST = 25  1  1  1 NREC =       294 INTLOC = 3256
 II,JST,KST,LST = 26  1  1  1 NREC =       307 INTLOC = 9439
 II,JST,KST,LST = 27  1  1  1 NREC =       324 INTLOC = 4467
 II,JST,KST,LST = 28  1  1  1 NREC =       340 INTLOC =12363
 II,JST,KST,LST = 29  1  1  1 NREC =       359 INTLOC =   10
 II,JST,KST,LST = 30  1  1  1 NREC =       370 INTLOC = 1005
 II,JST,KST,LST = 31  1  1  1 NREC =       444 INTLOC = 8004
 II,JST,KST,LST = 32  1  1  1 NREC =       537 INTLOC = 9169
 II,JST,KST,LST = 33  1  1  1 NREC =       681 INTLOC = 6272
 II,JST,KST,LST = 34  1  1  1 NREC =       702 INTLOC = 6346
 II,JST,KST,LST = 35  1  1  1 NREC =       732 INTLOC =13592
 II,JST,KST,LST = 36  1  1  1 NREC =       758 INTLOC =13260
 II,JST,KST,LST = 37  1  1  1 NREC =       791 INTLOC =12797
 II,JST,KST,LST = 38  1  1  1 NREC =       820 INTLOC =13938
 SCHWARZ INEQUALITY TEST SKIPPED       45259 INTEGRAL BLOCKS.
 TOTAL NUMBER OF NONZERO TWO-ELECTRON INTEGRALS =            12825558
        856 INTEGRAL RECORDS WERE STORED ON DISK FILE  8.
  ...... END OF TWO-ELECTRON INTEGRALS .....
 STEP CPU TIME =     0.92 TOTAL CPU TIME =        1.0 (    0.0 MIN)
 TOTAL WALL CLOCK TIME=        1.1 SECONDS, CPU UTILIZATION IS  85.96%

          --------------------------
                 RHF SCF CALCULATION
          --------------------------

     NUCLEAR ENERGY =       251.1588785141
     MAXIT =   30     NPUNCH=    2
     EXTRAP=T  DAMP=F  SHIFT=F  RSTRCT=F  DIIS=F  DEM=F  SOSCF=T
     DENSITY MATRIX CONV=  1.00E-05
     SOSCF WILL OPTIMIZE    1920 ORBITAL ROTATIONS, SOGTOL=   0.250
     MEMORY REQUIRED FOR RHF ITERS=    114848 WORDS.

 ITER EX DEM     TOTAL ENERGY        E CHANGE  DENSITY CHANGE     ORB. GRAD
   1  0  0     -320.8173954214  -320.8173954214   0.280196077   0.000000000
          ---------------START SECOND ORDER SCF---------------
   2  1  0     -321.7420223122    -0.9246268907   0.195413726   0.106490958
   3  2  0     -321.7945599520    -0.0525376398   0.100585170   0.086544782
   4  3  0     -321.8662155609    -0.0716556089   0.018906741   0.007726395
   5  4  0     -321.8677933048    -0.0015777439   0.006059829   0.002491731
   6  5  0     -321.8679262384    -0.0001329335   0.001678371   0.000800804
   7  6  0     -321.8679397105    -0.0000134722   0.000626336   0.000172077
   8  7  0     -321.8679408432    -0.0000011327   0.000261825   0.000059937
   9  8  0     -321.8679409742    -0.0000001310   0.000073485   0.000014825
  10  9  0     -321.8679409824    -0.0000000082   0.000030451   0.000004767
  11 10  0     -321.8679409837    -0.0000000013   0.000003548   0.000001336
  12 11  0     -321.8679409838    -0.0000000001   0.000001526   0.000000578

          -----------------
          DENSITY CONVERGED
          -----------------
     TIME TO FORM FOCK OPERATORS=       1.9 SECONDS (       0.2 SEC/ITER)
     TIME TO SOLVE SCF EQUATIONS=       0.0 SECONDS (       0.0 SEC/ITER)

 FINAL RHF ENERGY IS     -321.8679409838 AFTER  12 ITERATIONS

          ------------
          EIGENVECTORS
          ------------

                      1          2          3          4          5
                  -20.6194   -20.5577   -15.5455   -11.3808   -11.2752
                     A          A          A          A          A   
    1  O  1  S   -0.000310   0.994656  -0.000002  -0.000329   0.000005
    2  O  1  S    0.000005   0.021079   0.000005   0.000811  -0.000037
    3  O  1  X    0.000025   0.000507  -0.000024   0.000059  -0.000010
    4  O  1  Y    0.000042  -0.001415  -0.000007  -0.000312   0.000024
    5  O  1  Z    0.000018  -0.000720   0.000012  -0.000175  -0.000005
    6  O  1  S   -0.000204   0.004884  -0.000163  -0.004499  -0.000557
    7  O  1  X    0.000066   0.000021  -0.000064   0.000102  -0.000677
    8  O  1  Y    0.000058  -0.000114  -0.000055   0.001966  -0.000269
    9  O  1  Z    0.000004  -0.000067  -0.000033   0.000996   0.000017
   10  O  1 XX    0.000038  -0.003953  -0.000034   0.000341  -0.000008
   11  O  1 YY   -0.000052  -0.003700   0.000014   0.000159   0.000117
   12  O  1 ZZ   -0.000019  -0.004081  -0.000030   0.000378  -0.000093
   13  O  1 XY   -0.000045  -0.000130  -0.000002  -0.000143   0.000058
   14  O  1 XZ   -0.000033  -0.000108  -0.000009  -0.000034   0.000026
   15  O  1 YZ   -0.000007   0.000290   0.000027  -0.000146   0.000123
   16  C  2  S    0.000001  -0.000009  -0.000017   0.995848  -0.003099
   17  C  2  S    0.000416   0.000393  -0.000037   0.026605  -0.000034
   18  C  2  X   -0.000182   0.000060  -0.000056  -0.001069   0.000207
   19  C  2  Y   -0.000227  -0.000151  -0.000023  -0.000374  -0.000033
   20  C  2  Z   -0.000078  -0.000082   0.000011   0.000066  -0.000004
   21  C  2  S   -0.000325  -0.000570  -0.000736  -0.005989   0.004471
   22  C  2  X   -0.000366   0.000377   0.000292  -0.004341   0.004181
   23  C  2  Y    0.000251  -0.000508   0.000727   0.002741   0.001283
   24  C  2  Z    0.000194  -0.000272   0.000279   0.001746   0.000085
   25  C  2 XX   -0.000072  -0.000129  -0.000089  -0.001288  -0.000522
   26  C  2 YY   -0.000099  -0.000682  -0.000065  -0.000810  -0.000253
   27  C  2 ZZ   -0.000055  -0.000189  -0.000055  -0.002058  -0.000174
   28  C  2 XY   -0.000084   0.000257  -0.000035   0.000007   0.000018
   29  C  2 XZ   -0.000034   0.000137  -0.000013  -0.000175   0.000136
   30  C  2 YZ   -0.000010  -0.000392  -0.000015   0.000840  -0.000059
   31  C  3  S   -0.000010  -0.000004  -0.000013   0.002792   0.996002
   32  C  3  S   -0.000017  -0.000028   0.000196   0.000229   0.028829
   33  C  3  X   -0.000006   0.000008   0.000145  -0.000024  -0.000118
   34  C  3  Y   -0.000018  -0.000018   0.000202  -0.000005   0.000298
   35  C  3  Z   -0.000003  -0.000011   0.000020   0.000023   0.000248
   36  C  3  S    0.000742   0.000076   0.001621   0.003215  -0.021462
   37  C  3  X    0.000108   0.000197  -0.000000  -0.002681   0.000594
   38  C  3  Y    0.000383   0.000101   0.000484   0.000232  -0.000784
   39  C  3  Z    0.000140   0.000032   0.000014  -0.000292  -0.002027
   40  C  3 XX   -0.000067   0.000031  -0.000107  -0.000379  -0.001331
   41  C  3 YY    0.000006  -0.000018  -0.000161  -0.000225  -0.001357
   42  C  3 ZZ   -0.000032  -0.000026  -0.000092  -0.000126  -0.001240
   43  C  3 XY   -0.000014   0.000060  -0.000069   0.000034   0.000101
   44  C  3 XZ    0.000001   0.000014  -0.000003   0.000069   0.000026
   45  C  3 YZ    0.000005  -0.000016  -0.000007   0.000025   0.000024
   46  O  4  S    0.994594   0.000306  -0.000046  -0.000133  -0.000094
   47  O  4  S    0.021260  -0.000059  -0.000201   0.000546  -0.000548
   48  O  4  X   -0.000320   0.000004  -0.000022  -0.000014  -0.000120
   49  O  4  Y    0.001098  -0.000041  -0.000008   0.000136  -0.000068
   50  O  4  Z    0.000563  -0.000020  -0.000003   0.000074   0.000001
   51  O  4  S    0.004254   0.000207   0.001176  -0.001103   0.002556
   52  O  4  X    0.000341   0.000033   0.000324   0.000038   0.000719
   53  O  4  Y   -0.000467   0.000103   0.000278  -0.001640   0.000786
   54  O  4  Z   -0.000266   0.000042   0.000085  -0.000747   0.000216
   55  O  4 XX   -0.004209   0.000061  -0.000105  -0.000140  -0.000151
   56  O  4 YY   -0.004109  -0.000088  -0.000102  -0.000368  -0.000204
   57  O  4 ZZ   -0.004061  -0.000089  -0.000138   0.000335  -0.000372
   58  O  4 XY   -0.000007   0.000051   0.000050  -0.000445   0.000073
   59  O  4 XZ    0.000031  -0.000002   0.000017  -0.000095  -0.000002
   60  O  4 YZ   -0.000039  -0.000012   0.000012  -0.000351   0.000094
   61  H  5  S    0.000431  -0.000032  -0.000017   0.000345  -0.000037
   62  H  5  S   -0.000262  -0.000006   0.000060   0.000052   0.000448
   63  N  6  S    0.000011   0.000008   0.995005  -0.000033  -0.000236
   64  N  6  S    0.000052   0.000036   0.025043  -0.000187  -0.000022
   65  N  6  X    0.000000  -0.000011  -0.001419   0.000052  -0.000064
   66  N  6  Y   -0.000001   0.000002   0.000316   0.000021  -0.000022
   67  N  6  Z   -0.000003   0.000000   0.000307  -0.000016   0.000029
   68  N  6  S   -0.000471  -0.000205  -0.002588   0.000811   0.004236
   69  N  6  X    0.000158   0.000089   0.001285  -0.000160  -0.001017
   70  N  6  Y    0.000160   0.000095  -0.000021  -0.000384  -0.001431
   71  N  6  Z    0.000010   0.000010  -0.000197   0.000134   0.000023
   72  N  6 XX    0.000010   0.000016  -0.003282  -0.000023  -0.000293
   73  N  6 YY    0.000019  -0.000007  -0.003394  -0.000011  -0.000428
   74  N  6 ZZ    0.000019   0.000020  -0.003384  -0.000122  -0.000059
   75  N  6 XY   -0.000016  -0.000008  -0.000119   0.000021  -0.000225
   76  N  6 XZ    0.000002   0.000003  -0.000051  -0.000053  -0.000063
   77  N  6 YZ    0.000004  -0.000005   0.000019   0.000019  -0.000080
   78  H  7  S    0.000019   0.000025   0.000326  -0.000044  -0.000052
   79  H  7  S   -0.000010  -0.000020   0.000569   0.000084   0.000100
   80  H  8  S    0.000019   0.000033   0.000317  -0.000083  -0.000081
   81  H  8  S   -0.000032  -0.000067   0.000553   0.000032   0.000269
   82  H  9  S    0.000035   0.000008  -0.000085  -0.000200   0.000301
   83  H  9  S   -0.000042  -0.000035  -0.000140   0.000074   0.002656
   84  C 10  S   -0.000002   0.000005  -0.000014  -0.000097   0.005763
   85  C 10  S   -0.000014   0.000017  -0.000042  -0.000369   0.000068
   86  C 10  X   -0.000024  -0.000014   0.000004   0.000177  -0.000089
   87  C 10  Y    0.000013   0.000002  -0.000047  -0.000057   0.000142
   88  C 10  Z    0.000006   0.000001   0.000017  -0.000026  -0.000110
   89  C 10  S    0.000109  -0.000102   0.000126   0.001265   0.005365
   90  C 10  X    0.000007   0.000067  -0.000001  -0.001014  -0.000839
   91  C 10  Y   -0.000188  -0.000057  -0.000040   0.000668   0.002078
   92  C 10  Z   -0.000066  -0.000013   0.000028   0.000094  -0.000962
   93  C 10 XX    0.000019   0.000003  -0.000020  -0.000040  -0.000183
   94  C 10 YY   -0.000022   0.000005  -0.000049  -0.000037  -0.000240
   95  C 10 ZZ    0.000002   0.000014  -0.000039  -0.000103  -0.000262
   96  C 10 XY   -0.000001  -0.000001   0.000015  -0.000055   0.000046
   97  C 10 XZ    0.000002  -0.000002   0.000017   0.000012  -0.000069
   98  C 10 YZ    0.000006   0.000001   0.000005  -0.000044   0.000192
   99  H 11  S   -0.000017  -0.000002   0.000002   0.000022  -0.000168
  100  H 11  S   -0.000050  -0.000044  -0.000063   0.000646  -0.000079
  101  H 12  S    0.000040   0.000014  -0.000017  -0.000127  -0.000158
  102  H 12  S   -0.000226  -0.000007   0.000027  -0.000115   0.000016
  103  H 13  S    0.000006   0.000005   0.000008  -0.000156  -0.000247
  104  H 13  S    0.000048   0.000043  -0.000114  -0.000224  -0.000222

                      6          7          8          9         10
                  -11.2254    -1.4807    -1.3719    -1.2017    -1.0215
                     A          A          A          A          A   
    1  O  1  S    0.000020  -0.107396  -0.165783   0.027320  -0.019293
    2  O  1  S    0.000087   0.236022   0.357549  -0.059181   0.043914
    3  O  1  X    0.000046   0.019484   0.044949   0.011734  -0.017827
    4  O  1  Y   -0.000032  -0.081314  -0.087785   0.014182   0.005425
    5  O  1  Z    0.000017  -0.040063  -0.047028   0.004145   0.000231
    6  O  1  S   -0.000335   0.200929   0.353333  -0.063105   0.043621
    7  O  1  X   -0.000249   0.000764   0.019405   0.005780  -0.008183
    8  O  1  Y    0.000193  -0.030735  -0.035238   0.007403   0.005457
    9  O  1  Z   -0.000084  -0.014100  -0.019321   0.002572   0.001196
   10  O  1 XX    0.000055  -0.001747  -0.000770   0.001598   0.000168
   11  O  1 YY    0.000052   0.009857   0.006943  -0.002041   0.000628
   12  O  1 ZZ    0.000081   0.001898  -0.001012   0.000730   0.000192
   13  O  1 XY    0.000045  -0.002709  -0.006142  -0.000605   0.001898
   14  O  1 XZ    0.000003  -0.000991  -0.003410  -0.000296   0.000509
   15  O  1 YZ    0.000008   0.005884   0.006884  -0.001679   0.000793
   16  C  2  S   -0.000017  -0.116933  -0.049812  -0.012386   0.046720
   17  C  2  S   -0.000357   0.223866   0.095686   0.029769  -0.100455
   18  C  2  X   -0.000105  -0.091441   0.004250   0.069677  -0.091712
   19  C  2  Y    0.000089   0.010682   0.207790  -0.029291   0.056476
   20  C  2  Z    0.000004   0.019550   0.093891  -0.024414   0.027371
   21  C  2  S    0.002083   0.046465   0.027310   0.010904  -0.053356
   22  C  2  X    0.000841   0.022224   0.005247  -0.003603  -0.015400
   23  C  2  Y   -0.000618  -0.000839  -0.030953  -0.005343   0.016422
   24  C  2  Z    0.000005  -0.003645  -0.014602  -0.002304   0.008084
   25  C  2 XX   -0.000031  -0.002872  -0.014882   0.008808  -0.006782
   26  C  2 YY   -0.000048   0.014922   0.007069  -0.003392   0.001285
   27  C  2 ZZ   -0.000134  -0.012789  -0.001387  -0.000490   0.002671
   28  C  2 XY   -0.000025   0.006833  -0.028899  -0.000248   0.003967
   29  C  2 XZ    0.000024   0.000205  -0.012002  -0.001593   0.002328
   30  C  2 YZ   -0.000017   0.016974   0.012572  -0.001855  -0.001218
   31  C  3  S   -0.006037  -0.016243  -0.007258  -0.109914   0.097950
   32  C  3  S    0.000189   0.030945   0.012094   0.204904  -0.186354
   33  C  3  X    0.000045  -0.022449  -0.002908   0.047101   0.052026
   34  C  3  Y   -0.000084   0.004884   0.012775   0.068676   0.113698
   35  C  3  Z    0.000030   0.005480   0.005470   0.013150  -0.033610
   36  C  3  S    0.001674   0.005419   0.006741   0.137622  -0.186734
   37  C  3  X    0.000926   0.000321   0.011437  -0.006624   0.012540
   38  C  3  Y   -0.001672   0.001566   0.013560   0.009461   0.021052
   39  C  3  Z    0.000504  -0.001137   0.008772   0.004538  -0.013244
   40  C  3 XX   -0.000236   0.007179   0.000932   0.002554  -0.002558
   41  C  3 YY   -0.000315  -0.000040   0.001321   0.012803   0.003964
   42  C  3 ZZ   -0.000182   0.000125  -0.000433  -0.001667  -0.009141
   43  C  3 XY    0.000076  -0.001327  -0.001963   0.012182   0.012314
   44  C  3 XZ   -0.000097  -0.002022  -0.001464   0.002009  -0.000549
   45  C  3 YZ    0.000182   0.000416   0.000863   0.001750   0.006655
   46  O  4  S    0.000025  -0.157635   0.132588   0.007764  -0.020883
   47  O  4  S    0.000122   0.355439  -0.296722  -0.015706   0.046422
   48  O  4  X    0.000007   0.004192   0.015225   0.018397  -0.091384
   49  O  4  Y   -0.000001   0.082179  -0.032241  -0.004673  -0.006849
   50  O  4  Z   -0.000019   0.037545  -0.017753  -0.004817   0.005187
   51  O  4  S   -0.000769   0.322858  -0.303875  -0.026951   0.066277
   52  O  4  X   -0.000331   0.000543   0.005309   0.005066  -0.042109
   53  O  4  Y   -0.000035   0.044318  -0.016688  -0.004847  -0.001428
   54  O  4  Z   -0.000028   0.020534  -0.008808  -0.002942   0.002558
   55  O  4 XX    0.000016   0.016684  -0.014530  -0.000192   0.003782
   56  O  4 YY    0.000110   0.012080  -0.000824  -0.000208  -0.001352
   57  O  4 ZZ    0.000049   0.002066  -0.000136   0.000514  -0.000362
   58  O  4 XY   -0.000018   0.002629   0.002615   0.001228  -0.006552
   59  O  4 XZ    0.000007  -0.002115   0.004155   0.000775  -0.004204
   60  O  4 YZ    0.000006   0.006525  -0.001498  -0.000776   0.000430
   61  H  5  S    0.000004   0.087217  -0.077666  -0.012240   0.051623
   62  H  5  S    0.000006  -0.004776   0.006235  -0.002665   0.008856
   63  N  6  S   -0.000042  -0.005110  -0.008545  -0.168980  -0.093406
   64  N  6  S   -0.000252   0.012472   0.017797   0.350291   0.192427
   65  N  6  X    0.000011  -0.006038  -0.007485  -0.078360  -0.008191
   66  N  6  Y    0.000090  -0.002331  -0.001219  -0.010264   0.086022
   67  N  6  Z   -0.000073   0.000796   0.001660   0.013528   0.009065
   68  N  6  S    0.000882   0.002673   0.005378   0.346811   0.245446
   69  N  6  X   -0.000269   0.001028  -0.003428  -0.036579  -0.014666
   70  N  6  Y   -0.000518   0.000524   0.004020   0.002444   0.031602
   71  N  6  Z    0.000451  -0.000089   0.000203   0.007357   0.008143
   72  N  6 XX   -0.000127   0.001076   0.001414   0.000155  -0.005537
   73  N  6 YY   -0.000011   0.001045   0.000304   0.010740   0.001964
   74  N  6 ZZ   -0.000082   0.000866   0.000432   0.011200   0.010313
   75  N  6 XY    0.000065   0.000308   0.000103   0.003814  -0.007911
   76  N  6 XZ    0.000031  -0.000027  -0.000181   0.002994   0.002289
   77  N  6 YZ   -0.000059  -0.000062   0.000019  -0.001268  -0.000952
   78  H  7  S    0.000016   0.003331   0.004729   0.105607   0.089508
   79  H  7  S    0.000355  -0.000046   0.000929   0.000175   0.012797
   80  H  8  S   -0.000142   0.003705   0.005692   0.106614   0.080415
   81  H  8  S   -0.000167  -0.000047   0.001469  -0.000928   0.009235
   82  H  9  S   -0.000111   0.006151   0.001183   0.049800  -0.066498
   83  H  9  S   -0.000036   0.000225   0.000223   0.005693  -0.011608
   84  C 10  S    0.995721  -0.003562  -0.000313  -0.039908   0.131710
   85  C 10  S    0.028663   0.006072   0.002454   0.073813  -0.244239
   86  C 10  X   -0.000160  -0.003220   0.000139  -0.008950   0.025810
   87  C 10  Y    0.000231   0.002883   0.001804   0.033072  -0.025630
   88  C 10  Z   -0.000049  -0.002107   0.000349  -0.019122   0.025073
   89  C 10  S   -0.015092   0.004976  -0.004101   0.051520  -0.221423
   90  C 10  X    0.000405  -0.001022   0.002806  -0.000811   0.006237
   91  C 10  Y   -0.000681   0.001646  -0.005778   0.003264   0.004438
   92  C 10  Z    0.000278  -0.000526  -0.003735  -0.004926   0.001356
   93  C 10 XX   -0.001810   0.000148  -0.000308   0.000782  -0.006243
   94  C 10 YY   -0.001818   0.000267   0.000045   0.004695  -0.006310
   95  C 10 ZZ   -0.001851   0.000103   0.000446   0.002484  -0.005992
   96  C 10 XY    0.000033  -0.000359  -0.000058  -0.002378   0.001697
   97  C 10 XZ   -0.000031   0.000423  -0.000051   0.001274  -0.001664
   98  C 10 YZ    0.000048  -0.000458  -0.000040  -0.003926   0.001610
   99  H 11  S    0.000151   0.000708   0.000159   0.019255  -0.076280
  100  H 11  S    0.002399   0.000032  -0.002163   0.001938  -0.012537
  101  H 12  S    0.000129   0.001854  -0.000149   0.015885  -0.084517
  102  H 12  S    0.002551   0.001295  -0.004305  -0.001134  -0.011515
  103  H 13  S    0.000173   0.001215   0.000912   0.019691  -0.079070
  104  H 13  S    0.002701  -0.000229   0.004635   0.005152  -0.014639

                     11         12         13         14         15
                   -0.9090    -0.8040    -0.7120    -0.7068    -0.6757
                     A          A          A          A          A   
    1  O  1  S   -0.040984   0.024144   0.056076   0.065545  -0.029563
    2  O  1  S    0.091582  -0.052320  -0.131433  -0.148439   0.069788
    3  O  1  X   -0.041243  -0.038389   0.222529  -0.061622  -0.125936
    4  O  1  Y    0.028680  -0.075599  -0.152999  -0.284359   0.062214
    5  O  1  Z    0.028095  -0.015504  -0.047496  -0.136193   0.139287
    6  O  1  S    0.117664  -0.086239  -0.195081  -0.257579   0.109164
    7  O  1  X   -0.016820  -0.026188   0.128789  -0.044180  -0.073300
    8  O  1  Y    0.016403  -0.041286  -0.085788  -0.157807   0.031916
    9  O  1  Z    0.015588  -0.007169  -0.022738  -0.076304   0.085980
   10  O  1 XX    0.000678  -0.004684   0.003227  -0.008717  -0.000428
   11  O  1 YY   -0.000578   0.008296   0.005819   0.017401   0.002407
   12  O  1 ZZ   -0.001888   0.000470  -0.004720   0.001289  -0.004965
   13  O  1 XY    0.002600   0.003115  -0.016174  -0.000410   0.007087
   14  O  1 XZ    0.001335   0.002867  -0.006680  -0.000108   0.006943
   15  O  1 YZ   -0.001379   0.002194   0.002852   0.013202  -0.008851
   16  C  2  S    0.094126  -0.058565  -0.055264  -0.046743   0.029316
   17  C  2  S   -0.205181   0.127698   0.128353   0.114073  -0.066519
   18  C  2  X   -0.096829  -0.145914   0.188979  -0.210993  -0.080600
   19  C  2  Y    0.096506  -0.124368   0.122975   0.087134  -0.142321
   20  C  2  Z    0.077565  -0.011051   0.100118   0.050488   0.047531
   21  C  2  S   -0.133217   0.085263   0.114714   0.011324  -0.070299
   22  C  2  X   -0.041327   0.000515   0.079196  -0.066158  -0.046663
   23  C  2  Y    0.018042  -0.009105  -0.018806   0.012645  -0.011687
   24  C  2  Z    0.016595   0.002376   0.004770   0.010214   0.041985
   25  C  2 XX   -0.005441  -0.008318   0.001869   0.008652   0.003907
   26  C  2 YY   -0.001484   0.010914  -0.005791  -0.009362  -0.000278
   27  C  2 ZZ    0.005540  -0.006680  -0.002459  -0.006599   0.001597
   28  C  2 XY   -0.003786   0.013428  -0.006819  -0.001801   0.008871
   29  C  2 XZ    0.001787   0.007222  -0.003881  -0.003545   0.001658
   30  C  2 YZ   -0.005250   0.007067  -0.001078  -0.000563  -0.001098
   31  C  3  S    0.054251   0.098359   0.010788  -0.017256  -0.029357
   32  C  3  S   -0.108242  -0.189528  -0.021990   0.029224   0.056210
   33  C  3  X    0.144914  -0.037695  -0.130803   0.108892   0.150288
   34  C  3  Y   -0.056563  -0.016338   0.074367   0.017683  -0.008811
   35  C  3  Z    0.056195   0.088470   0.200369  -0.044551   0.122938
   36  C  3  S   -0.113465  -0.232218  -0.037563   0.081515   0.103737
   37  C  3  X    0.035406   0.014580  -0.017919   0.034219   0.052430
   38  C  3  Y   -0.019782   0.003166   0.036248   0.025138  -0.013509
   39  C  3  Z    0.025124   0.033447   0.105517  -0.014730   0.076585
   40  C  3 XX   -0.012361   0.005379   0.010537  -0.002295   0.000064
   41  C  3 YY    0.009163   0.001254  -0.001840   0.002346   0.000623
   42  C  3 ZZ   -0.000425  -0.008846  -0.011748   0.001957  -0.002507
   43  C  3 XY    0.000608  -0.001707  -0.006616   0.003844   0.009576
   44  C  3 XZ    0.007016  -0.000345  -0.004667   0.001974   0.007835
   45  C  3 YZ   -0.008424  -0.005950  -0.001485   0.000248   0.001322
   46  O  4  S   -0.024264   0.017352   0.004500   0.052544  -0.000169
   47  O  4  S    0.057702  -0.046347  -0.009613  -0.124156   0.000060
   48  O  4  X   -0.225490   0.317757  -0.169633  -0.140179   0.103856
   49  O  4  Y   -0.064564   0.144954  -0.085993   0.303090   0.034523
   50  O  4  Z    0.019083   0.033473   0.061755   0.135207   0.103237
   51  O  4  S    0.072529  -0.039618  -0.020331  -0.192584   0.000648
   52  O  4  X   -0.120738   0.192794  -0.115041  -0.091231   0.073708
   53  O  4  Y   -0.036603   0.086263  -0.049183   0.201341   0.017459
   54  O  4  Z    0.010774   0.020957   0.046197   0.088619   0.067736
   55  O  4 XX    0.011508  -0.020963   0.010542  -0.004841  -0.005850
   56  O  4 YY   -0.005874   0.010789  -0.007719   0.017345   0.000118
   57  O  4 ZZ    0.002054  -0.002166   0.002922  -0.003486   0.003681
   58  O  4 XY   -0.016386   0.020213  -0.008949  -0.008731   0.005184
   59  O  4 XZ   -0.009364   0.013466  -0.005578  -0.005258   0.004033
   60  O  4 YZ    0.000127   0.005090   0.002194   0.014055   0.006163
   61  H  5  S    0.115237  -0.148098   0.080259   0.089473  -0.034042
   62  H  5  S    0.028723  -0.050272   0.027844   0.023423  -0.013603
   63  N  6  S   -0.024044  -0.033067   0.012174  -0.002421  -0.004412
   64  N  6  S    0.049145   0.071843  -0.028641   0.011048   0.013816
   65  N  6  X    0.034416   0.053248  -0.029813  -0.001675   0.048092
   66  N  6  Y    0.023718   0.153412   0.020556  -0.102817  -0.217530
   67  N  6  Z    0.028167   0.061613   0.176036  -0.055843   0.253468
   68  N  6  S    0.074707   0.099955  -0.041057  -0.015049  -0.000463
   69  N  6  X    0.007567   0.027865  -0.020051   0.015969   0.037697
   70  N  6  Y    0.008196   0.078474   0.016561  -0.045494  -0.119010
   71  N  6  Z    0.010263   0.029752   0.094406  -0.030302   0.142636
   72  N  6 XX   -0.005854  -0.008403   0.002556   0.001254  -0.003700
   73  N  6 YY    0.001237  -0.000100  -0.008235   0.002895  -0.004808
   74  N  6 ZZ    0.004413   0.012604   0.005336  -0.004134   0.007144
   75  N  6 XY   -0.003399  -0.013136   0.000785   0.006378   0.017292
   76  N  6 XZ   -0.000987  -0.001439  -0.011341   0.003035  -0.015270
   77  N  6 YZ    0.000126   0.000205   0.006808  -0.001704   0.015868
   78  H  7  S    0.011974   0.057189  -0.062266  -0.018430  -0.192450
   79  H  7  S    0.004634   0.017021  -0.032385  -0.013792  -0.095648
   80  H  8  S    0.034528   0.087220   0.088376  -0.049333   0.095372
   81  H  8  S    0.012357   0.025700   0.034246  -0.033166   0.048651
   82  H  9  S   -0.055405  -0.116507  -0.128665   0.033285  -0.038186
   83  H  9  S   -0.011143  -0.045441  -0.066450   0.010795  -0.017383
   84  C 10  S   -0.123732  -0.049041   0.002291  -0.000108   0.025332
   85  C 10  S    0.230522   0.089160  -0.000734   0.001406  -0.041365
   86  C 10  X    0.038912   0.015475  -0.046233   0.051734   0.009403
   87  C 10  Y   -0.033356  -0.067248   0.041817   0.027168   0.165050
   88  C 10  Z    0.031048   0.072841   0.081856  -0.026661  -0.042590
   89  C 10  S    0.244715   0.124225  -0.025375   0.003971  -0.099344
   90  C 10  X    0.007191  -0.001586  -0.021877   0.027467   0.002504
   91  C 10  Y   -0.008992  -0.019490   0.005985   0.002447   0.054185
   92  C 10  Z    0.010323   0.024702   0.034509  -0.013086  -0.010987
   93  C 10 XX    0.006681   0.005602  -0.003707   0.000066  -0.005408
   94  C 10 YY    0.002773  -0.001241   0.001087  -0.001406  -0.000134
   95  C 10 ZZ    0.005332   0.001170   0.002155   0.000630   0.001357
   96  C 10 XY    0.004632   0.004869  -0.002220  -0.001841  -0.008646
   97  C 10 XZ   -0.004418  -0.002925   0.001284  -0.002282   0.001839
   98  C 10 YZ    0.005965   0.009281   0.004285  -0.002401  -0.007257
   99  H 11  S    0.104357   0.043393  -0.041306   0.027778  -0.028589
  100  H 11  S    0.034239   0.020226  -0.021625   0.011652  -0.014196
  101  H 12  S    0.089343   0.059934  -0.011549  -0.029627  -0.099707
  102  H 12  S    0.028469   0.023296  -0.010634  -0.029700  -0.064805
  103  H 13  S    0.098477   0.064924   0.050864  -0.010222  -0.017380
  104  H 13  S    0.032323   0.027976   0.035438  -0.005449  -0.003223

                     16         17         18         19         20
                   -0.6358    -0.6064    -0.5970    -0.5480    -0.5322
                     A          A          A          A          A   
    1  O  1  S   -0.004403  -0.016086  -0.021938  -0.005552   0.002420
    2  O  1  S    0.011201   0.038851   0.056299   0.013651  -0.005528
    3  O  1  X   -0.022423  -0.121964  -0.080271   0.138356  -0.016633
    4  O  1  Y   -0.080129   0.158587   0.216985   0.151447  -0.090457
    5  O  1  Z    0.218168   0.029374   0.079618   0.093969   0.023435
    6  O  1  S    0.011958   0.063601   0.076463   0.029941  -0.013222
    7  O  1  X   -0.015429  -0.080175  -0.053610   0.093067  -0.013903
    8  O  1  Y   -0.052548   0.098236   0.137475   0.099797  -0.060726
    9  O  1  Z    0.141371   0.016759   0.050046   0.060389   0.020573
   10  O  1 XX    0.001112   0.002263   0.005111   0.007280  -0.001522
   11  O  1 YY    0.013190  -0.010428  -0.010651  -0.008619   0.006108
   12  O  1 ZZ   -0.014488   0.003632   0.003576  -0.002170  -0.002687
   13  O  1 XY   -0.002346   0.007864   0.006752  -0.004624  -0.001023
   14  O  1 XZ    0.005660   0.002239   0.002364  -0.002278   0.001496
   15  O  1 YZ   -0.013788  -0.003446  -0.007448  -0.008093  -0.000599
   16  C  2  S    0.004279   0.001558   0.004647  -0.019576  -0.000500
   17  C  2  S   -0.009109  -0.004018  -0.009468   0.039327  -0.000730
   18  C  2  X    0.023994   0.051248   0.064325   0.118220  -0.001906
   19  C  2  Y   -0.124356  -0.098659  -0.141437  -0.097557   0.025225
   20  C  2  Z    0.211349  -0.113741  -0.101658  -0.025758   0.043704
   21  C  2  S   -0.007316   0.011559   0.009553   0.086122   0.009748
   22  C  2  X    0.005959  -0.018606  -0.009630   0.070009   0.002660
   23  C  2  Y   -0.043404   0.019383   0.027730  -0.008011  -0.013648
   24  C  2  Z    0.114034  -0.021172  -0.002411   0.014988   0.007578
   25  C  2 XX    0.001206   0.022252   0.018800   0.004179  -0.003159
   26  C  2 YY   -0.002588  -0.014263  -0.008971  -0.000926  -0.004193
   27  C  2 ZZ    0.003540  -0.001335  -0.001790  -0.001751   0.005622
   28  C  2 XY    0.004143  -0.003418   0.012753   0.018357  -0.013468
   29  C  2 XZ   -0.016533   0.000788   0.006460  -0.000383  -0.000932
   30  C  2 YZ   -0.004253  -0.008390  -0.009013  -0.002602   0.006929
   31  C  3  S   -0.009029  -0.018075  -0.004930   0.010341  -0.008926
   32  C  3  S    0.017891   0.025367   0.010811  -0.018981   0.013439
   33  C  3  X   -0.020441  -0.165498  -0.038586  -0.097350  -0.035358
   34  C  3  Y   -0.064823  -0.161698   0.181171   0.044152  -0.259170
   35  C  3  Z   -0.001376  -0.020390   0.099971  -0.027343   0.020695
   36  C  3  S    0.032147   0.120694   0.022024  -0.037474   0.056884
   37  C  3  X   -0.011894  -0.076130  -0.043067  -0.030824   0.003910
   38  C  3  Y   -0.025692  -0.074816   0.082228   0.023686  -0.119300
   39  C  3  Z   -0.019635  -0.009826   0.047450  -0.025274   0.012482
   40  C  3 XX   -0.004944  -0.003313   0.008206   0.011489  -0.005599
   41  C  3 YY    0.000960  -0.006923   0.000240  -0.005068  -0.012295
   42  C  3 ZZ    0.004348   0.009611  -0.010319  -0.005354   0.018085
   43  C  3 XY    0.001225  -0.011926   0.007742  -0.010307  -0.017078
   44  C  3 XZ   -0.008661   0.000560  -0.003320  -0.001139   0.002914
   45  C  3 YZ   -0.004947   0.002422  -0.008060   0.006401  -0.007681
   46  O  4  S    0.012610   0.044199   0.019926   0.012352  -0.002741
   47  O  4  S   -0.029235  -0.099213  -0.046801  -0.029564   0.008702
   48  O  4  X    0.012735  -0.191516  -0.057086  -0.032719  -0.024662
   49  O  4  Y   -0.112654   0.262188   0.204765   0.094850  -0.038504
   50  O  4  Z    0.397275   0.037428   0.043027   0.172649  -0.110087
   51  O  4  S   -0.050278  -0.192877  -0.078791  -0.047244   0.000735
   52  O  4  X    0.013099  -0.130019  -0.032098  -0.024174  -0.023185
   53  O  4  Y   -0.081538   0.184298   0.144216   0.072748  -0.026248
   54  O  4  Z    0.282585   0.022279   0.027899   0.130317  -0.087101
   55  O  4 XX    0.001586   0.008288   0.001581   0.001977   0.002845
   56  O  4 YY   -0.014225   0.012216   0.007690  -0.000407   0.000142
   57  O  4 ZZ    0.015987  -0.004918  -0.003719   0.002451  -0.001469
   58  O  4 XY   -0.000099  -0.012471  -0.003939  -0.001928  -0.000517
   59  O  4 XZ    0.000123  -0.008382  -0.002709  -0.003238   0.000246
   60  O  4 YZ    0.018741   0.005279   0.003962   0.008866  -0.004469
   61  H  5  S    0.030095   0.117427   0.051797   0.047251  -0.004750
   62  H  5  S    0.016194   0.062614   0.026876   0.019376   0.001093
   63  N  6  S   -0.002756   0.010655   0.008072   0.014231   0.011402
   64  N  6  S    0.005830  -0.024475  -0.016001  -0.031387  -0.019415
   65  N  6  X   -0.005905   0.051233  -0.136268  -0.028172   0.132871
   66  N  6  Y    0.081279   0.202625  -0.070913   0.068038   0.227764
   67  N  6  Z   -0.153877   0.177060  -0.171539   0.033915  -0.064067
   68  N  6  S    0.011750  -0.039063  -0.036780  -0.056904  -0.060175
   69  N  6  X   -0.004133   0.027513  -0.082928  -0.024741   0.092288
   70  N  6  Y    0.047412   0.118498  -0.044457   0.046201   0.158461
   71  N  6  Z   -0.093678   0.111978  -0.112600   0.023204  -0.051832
   72  N  6 XX   -0.000471  -0.007717   0.012978   0.003520  -0.010442
   73  N  6 YY    0.005598  -0.002682   0.001411  -0.002246   0.009846
   74  N  6 ZZ   -0.004393   0.015126  -0.014466   0.001318   0.008146
   75  N  6 XY   -0.006665  -0.011357   0.003834  -0.005101  -0.016848
   76  N  6 XZ    0.007990  -0.006881   0.006354  -0.001742   0.005552
   77  N  6 YZ   -0.010576   0.010454  -0.013698   0.001587  -0.007441
   78  H  7  S    0.098223   0.001865   0.054043   0.009696   0.106060
   79  H  7  S    0.049732   0.005285   0.032166   0.008168   0.073281
   80  H  8  S   -0.066020   0.138942  -0.122442   0.024773   0.010505
   81  H  8  S   -0.033737   0.082577  -0.067964   0.023681   0.016985
   82  H  9  S    0.018279   0.059553  -0.095928  -0.005492   0.054793
   83  H  9  S   -0.004972   0.030005  -0.074727  -0.016697   0.051499
   84  C 10  S    0.006112   0.001175  -0.006307  -0.000568  -0.004912
   85  C 10  S   -0.015466  -0.001269   0.006250   0.002165   0.010978
   86  C 10  X   -0.108831  -0.158337  -0.005559   0.351641   0.086219
   87  C 10  Y   -0.013414  -0.039687   0.091223  -0.039280   0.337018
   88  C 10  Z   -0.035574  -0.062080   0.240987  -0.117312   0.050832
   89  C 10  S   -0.006182  -0.016515   0.040122   0.008717  -0.002807
   90  C 10  X   -0.061633  -0.074789  -0.010950   0.199132   0.058940
   91  C 10  Y    0.002351  -0.029766   0.052142  -0.024244   0.186955
   92  C 10  Z   -0.013246  -0.019884   0.121334  -0.068683   0.040069
   93  C 10 XX   -0.003170  -0.004486  -0.010523   0.026433  -0.007212
   94  C 10 YY    0.004356   0.006416  -0.004140  -0.013168  -0.015443
   95  C 10 ZZ   -0.002721  -0.003723   0.014982  -0.011208   0.019939
   96  C 10 XY    0.002415   0.004612  -0.003039  -0.014415  -0.022761
   97  C 10 XZ    0.004220   0.006999  -0.001514  -0.011997   0.002115
   98  C 10 YZ   -0.003174  -0.002997   0.009246   0.000692  -0.004221
   99  H 11  S   -0.060682  -0.079057  -0.050689   0.247546   0.003347
  100  H 11  S   -0.033982  -0.052830  -0.033656   0.188554  -0.001268
  101  H 12  S    0.040757   0.073608  -0.057567  -0.101639  -0.224764
  102  H 12  S    0.031832   0.036744  -0.053129  -0.085491  -0.182416
  103  H 13  S   -0.029951  -0.043358   0.166850  -0.083874   0.104802
  104  H 13  S   -0.021594  -0.032614   0.115912  -0.066461   0.087221

                     21         22         23         24         25
                   -0.5094    -0.4835    -0.4544    -0.4024     0.1867
                     A          A          A          A          A   
    1  O  1  S   -0.001517  -0.000198  -0.002931  -0.002869  -0.003410
    2  O  1  S    0.003010  -0.001189   0.008547  -0.002343   0.002188
    3  O  1  X    0.046836   0.084121   0.484545  -0.150910   0.047182
    4  O  1  Y    0.023332  -0.175500   0.184109   0.001284  -0.132392
    5  O  1  Z    0.045612   0.414340  -0.023949   0.005411   0.286889
    6  O  1  S    0.012998   0.009681   0.008459   0.059002   0.062366
    7  O  1  X    0.032531   0.067802   0.366580  -0.125541   0.074186
    8  O  1  Y    0.012882  -0.136462   0.137729  -0.017666  -0.197412
    9  O  1  Z    0.033278   0.315974  -0.018010  -0.004587   0.378783
   10  O  1 XX    0.001625   0.002927   0.010693  -0.004999  -0.003479
   11  O  1 YY   -0.000247   0.018855  -0.011750  -0.003873  -0.002104
   12  O  1 ZZ   -0.002545  -0.023318   0.001890  -0.001229   0.002176
   13  O  1 XY   -0.002186  -0.009581  -0.016871   0.002205   0.001027
   14  O  1 XZ    0.000148   0.007360  -0.009948   0.001499  -0.004810
   15  O  1 YZ   -0.002977  -0.019736  -0.001663  -0.000150   0.003878
   16  C  2  S   -0.003101  -0.000451   0.006362  -0.039063   0.000832
   17  C  2  S    0.006011   0.000674  -0.015654   0.087216   0.009084
   18  C  2  X    0.018362   0.023863  -0.069313   0.194516  -0.062955
   19  C  2  Y   -0.023216  -0.068666   0.007393  -0.036063   0.184705
   20  C  2  Z    0.009500   0.142303   0.001866  -0.054492  -0.401395
   21  C  2  S    0.019734  -0.015864  -0.040797   0.171036  -0.137792
   22  C  2  X    0.018648   0.002888   0.047582   0.075196  -0.117520
   23  C  2  Y   -0.004388  -0.050829   0.040815  -0.085653   0.205615
   24  C  2  Z   -0.010893   0.089247   0.003337  -0.050900  -0.522273
   25  C  2 XX    0.004087  -0.001897  -0.023530   0.014826  -0.005828
   26  C  2 YY   -0.003993  -0.030696   0.025345  -0.013129  -0.012759
   27  C  2 ZZ    0.000143   0.031424  -0.003217   0.000722   0.015490
   28  C  2 XY    0.001846   0.010176   0.034824  -0.018461   0.011593
   29  C  2 XZ    0.015176   0.000294   0.020653  -0.009550  -0.015003
   30  C  2 YZ    0.005216   0.030524   0.006848  -0.006422   0.009009
   31  C  3  S   -0.005161   0.004683   0.022281   0.010730  -0.010011
   32  C  3  S    0.020025  -0.016822  -0.042597  -0.024722   0.012572
   33  C  3  X    0.074408  -0.018179   0.130158  -0.178158   0.006927
   34  C  3  Y   -0.072243   0.060789  -0.102634   0.037065   0.003592
   35  C  3  Z    0.318175  -0.104935  -0.072978   0.038386  -0.032298
   36  C  3  S   -0.017860   0.011684  -0.115411   0.020911   0.163385
   37  C  3  X    0.049678  -0.019946   0.106044  -0.046176  -0.178591
   38  C  3  Y   -0.043521   0.043977  -0.068751   0.054919   0.126669
   39  C  3  Z    0.199587  -0.032670  -0.050958   0.023944  -0.343137
   40  C  3 XX    0.004728  -0.000777  -0.002480   0.032636   0.007490
   41  C  3 YY    0.014845  -0.004513  -0.004579  -0.021119   0.004174
   42  C  3 ZZ   -0.022045   0.005256   0.008766  -0.011669  -0.014831
   43  C  3 XY   -0.003936   0.005471   0.003671   0.002430  -0.017326
   44  C  3 XZ   -0.002807  -0.003316   0.001001  -0.009034   0.027620
   45  C  3 YZ   -0.022096   0.009386  -0.001356  -0.003686  -0.011600
   46  O  4  S   -0.000929   0.000994  -0.006964   0.017488  -0.005808
   47  O  4  S    0.002707  -0.000999   0.005540  -0.029796   0.012577
   48  O  4  X   -0.024476  -0.053867   0.039286  -0.083040   0.020211
   49  O  4  Y    0.119311   0.161218   0.185372  -0.063820  -0.077345
   50  O  4  Z   -0.182477  -0.311884   0.087791  -0.012005   0.169252
   51  O  4  S    0.003910  -0.009972   0.094452  -0.143842   0.055982
   52  O  4  X   -0.022296  -0.047038   0.028993  -0.074383   0.006163
   53  O  4  Y    0.093793   0.133463   0.156245  -0.058100  -0.094617
   54  O  4  Z   -0.144680  -0.266043   0.075664  -0.012080   0.237338
   55  O  4 XX    0.000026   0.001049  -0.009254   0.012696  -0.005237
   56  O  4 YY    0.008304   0.010000   0.004904  -0.002002   0.006228
   57  O  4 ZZ   -0.007818  -0.009700  -0.003708   0.002543  -0.001692
   58  O  4 XY   -0.002542  -0.003578  -0.000773  -0.002179   0.007928
   59  O  4 XZ    0.001777   0.001884   0.000153  -0.002920  -0.018331
   60  O  4 YZ   -0.005629  -0.008268   0.006296  -0.002620  -0.006687
   61  H  5  S    0.000654   0.002738   0.005741   0.038431  -0.006524
   62  H  5  S   -0.003110  -0.001418  -0.043982   0.059492  -0.090301
   63  N  6  S   -0.005934  -0.002996  -0.019575  -0.051625   0.004410
   64  N  6  S    0.011091   0.009421   0.044947   0.124330  -0.005254
   65  N  6  X   -0.025636  -0.002975   0.212423   0.458823   0.038381
   66  N  6  Y    0.003485  -0.032441  -0.072891  -0.141009   0.011511
   67  N  6  Z   -0.159486   0.020905  -0.052654  -0.106458   0.018553
   68  N  6  S    0.032697  -0.002078   0.076281   0.196088  -0.040922
   69  N  6  X   -0.022676   0.007231   0.156196   0.427229   0.073859
   70  N  6  Y    0.004172  -0.020205  -0.059184  -0.104926  -0.004491
   71  N  6  Z   -0.121915   0.007554  -0.041574  -0.095328   0.105142
   72  N  6 XX    0.001506   0.000744  -0.009520  -0.016468   0.000345
   73  N  6 YY    0.007378  -0.002030   0.003482   0.001592   0.004242
   74  N  6 ZZ   -0.011415   0.002238   0.002516   0.005285  -0.000268
   75  N  6 XY   -0.002872   0.002840   0.002370   0.009557   0.000754
   76  N  6 XZ    0.004253  -0.000629   0.002492   0.007066   0.002638
   77  N  6 YZ   -0.017954   0.004810   0.000854  -0.002636  -0.000489
   78  H  7  S    0.083602  -0.024701  -0.030993  -0.061439   0.001865
   79  H  7  S    0.063015  -0.040633  -0.001564  -0.046653   0.061717
   80  H  8  S   -0.100734   0.013126  -0.025125  -0.057647  -0.003411
   81  H  8  S   -0.079757   0.028838   0.018265  -0.046596  -0.050271
   82  H  9  S   -0.192049   0.055151   0.050302  -0.065186  -0.074248
   83  H  9  S   -0.159188   0.077927   0.050453  -0.074773  -0.529174
   84  C 10  S   -0.015091   0.008121  -0.000829   0.013379  -0.058307
   85  C 10  S    0.031944  -0.010997   0.001184  -0.025631   0.072875
   86  C 10  X   -0.079767   0.017824  -0.098799   0.037840  -0.019357
   87  C 10  Y    0.070640  -0.101498   0.033178  -0.084655   0.074148
   88  C 10  Z   -0.289907   0.065927   0.035604   0.035442  -0.039814
   89  C 10  S    0.038566  -0.043290  -0.003337  -0.064832   0.841689
   90  C 10  X   -0.039831   0.027166  -0.069453   0.025891   0.185718
   91  C 10  Y    0.015905  -0.067846   0.024886  -0.041120   0.215196
   92  C 10  Z   -0.158221   0.025981   0.029907   0.031583  -0.067171
   93  C 10 XX    0.004800   0.001298  -0.010420   0.007546  -0.010592
   94  C 10 YY    0.012973  -0.000690   0.002106  -0.002081   0.004170
   95  C 10 ZZ   -0.021106   0.002148   0.007569  -0.006079   0.004067
   96  C 10 XY   -0.005193   0.005754   0.005965   0.001428   0.008679
   97  C 10 XZ    0.003382  -0.002549   0.003249  -0.001966   0.003981
   98  C 10 YZ   -0.015250   0.005275  -0.001204   0.004100  -0.004860
   99  H 11  S    0.006382   0.007635  -0.079383   0.029766  -0.043933
  100  H 11  S    0.000683   0.000177  -0.063979   0.063414  -0.520929
  101  H 12  S    0.024090   0.038981   0.018442   0.020194   0.027378
  102  H 12  S    0.004977   0.025118   0.012915   0.030223   0.007243
  103  H 13  S   -0.173432   0.021264   0.036562  -0.011317   0.015911
  104  H 13  S   -0.167077   0.042188   0.037688  -0.018453  -0.250122

                     26         27         28         29         30
                    0.2224     0.2360     0.2765     0.2909     0.3204
                     A          A          A          A          A   
    1  O  1  S    0.025546  -0.011363  -0.003729   0.004742  -0.013201
    2  O  1  S   -0.029298   0.011718  -0.002739  -0.019593   0.018635
    3  O  1  X    0.034380   0.101550   0.012934  -0.016483   0.014634
    4  O  1  Y   -0.010546   0.010108   0.012787   0.016805  -0.002881
    5  O  1  Z    0.048765  -0.026618   0.017906  -0.080143  -0.038867
    6  O  1  S   -0.369588   0.175000   0.120108  -0.013094   0.181444
    7  O  1  X    0.003511   0.089282   0.032061  -0.041661   0.031599
    8  O  1  Y    0.100095  -0.047620  -0.016329   0.055037  -0.057936
    9  O  1  Z    0.139398  -0.063789   0.004205  -0.134278  -0.114195
   10  O  1 XX    0.012724  -0.002082  -0.002956  -0.002591  -0.004038
   11  O  1 YY   -0.003731  -0.002518   0.001574  -0.000815   0.005381
   12  O  1 ZZ    0.011369  -0.005734  -0.005535  -0.006395  -0.008018
   13  O  1 XY    0.006472  -0.001416  -0.003992   0.004196  -0.002999
   14  O  1 XZ    0.003456  -0.002408  -0.002869   0.001348  -0.003818
   15  O  1 YZ   -0.010596   0.002681  -0.002792  -0.004230   0.002899
   16  C  2  S   -0.017270   0.000879   0.004475  -0.002366   0.008188
   17  C  2  S   -0.013404   0.026824  -0.024754   0.031261   0.052661
   18  C  2  X   -0.027142  -0.019107  -0.003235   0.023670   0.030543
   19  C  2  Y   -0.000340  -0.053003  -0.008082  -0.087551  -0.055009
   20  C  2  Z   -0.087092   0.000931   0.061767   0.151933   0.080271
   21  C  2  S    0.496007  -0.197336  -0.039880  -0.023772  -0.533435
   22  C  2  X   -0.057797   0.226818  -0.062284   0.113040   0.029055
   23  C  2  Y    0.185385  -0.038753  -0.148109  -0.073118   0.004657
   24  C  2  Z   -0.058513  -0.000466  -0.143583   0.266903   0.135185
   25  C  2 XX   -0.012306  -0.009593   0.000065  -0.000761   0.003702
   26  C  2 YY    0.004726   0.009361  -0.002446   0.005457   0.000647
   27  C  2 ZZ    0.007370   0.001695   0.000539  -0.000592  -0.001460
   28  C  2 XY   -0.002995  -0.009022   0.007739  -0.006098   0.001115
   29  C  2 XZ    0.000964  -0.003570   0.004755  -0.002568  -0.004234
   30  C  2 YZ    0.003698   0.004819  -0.003276  -0.002139   0.004967
   31  C  3  S    0.047779  -0.004133   0.048025  -0.036207  -0.070429
   32  C  3  S   -0.033031  -0.001933  -0.026369   0.042877   0.047319
   33  C  3  X    0.086650  -0.005584  -0.012560   0.052222   0.038752
   34  C  3  Y    0.029726  -0.084287   0.063924   0.023953  -0.081351
   35  C  3  Z    0.049764  -0.075673   0.156126  -0.108356  -0.024706
   36  C  3  S   -0.799785   0.120266  -0.983428   0.669589   1.392374
   37  C  3  X    0.003411  -0.000729  -0.044116   0.147757  -0.139538
   38  C  3  Y    0.098468  -0.471772   0.434838   0.071051  -0.717159
   39  C  3  Z    0.119824  -0.301373   0.565601  -0.519474  -0.112704
   40  C  3 XX    0.006597  -0.001507   0.000129  -0.000158   0.007788
   41  C  3 YY   -0.002361   0.005372  -0.004887  -0.008338  -0.013318
   42  C  3 ZZ    0.000034  -0.008923   0.015287   0.006878   0.001404
   43  C  3 XY    0.000303   0.012401   0.001932   0.004099  -0.004976
   44  C  3 XZ    0.006840   0.002638   0.006135  -0.008978   0.007525
   45  C  3 YZ   -0.001826   0.001226   0.003323  -0.003157   0.011504
   46  O  4  S    0.065349   0.048677   0.003807   0.005735  -0.003529
   47  O  4  S   -0.071949  -0.060291   0.001010   0.019331  -0.015448
   48  O  4  X    0.155162   0.145458   0.010935   0.059985  -0.014347
   49  O  4  Y   -0.055888  -0.033236   0.010259  -0.020241   0.050596
   50  O  4  Z   -0.020658  -0.050537   0.018746  -0.078701  -0.031205
   51  O  4  S   -0.855817  -0.586838  -0.115066  -0.142409   0.167509
   52  O  4  X    0.395723   0.373487  -0.001418   0.126599  -0.005359
   53  O  4  Y   -0.189816  -0.029244  -0.025197   0.021350   0.097065
   54  O  4  Z   -0.100830  -0.094274   0.011243  -0.109930  -0.014765
   55  O  4 XX    0.022310   0.022619  -0.002474   0.013608  -0.000954
   56  O  4 YY    0.023491   0.018981  -0.000949   0.008355  -0.004294
   57  O  4 ZZ    0.030415   0.017824   0.007884   0.013170  -0.011693
   58  O  4 XY    0.006978   0.011296  -0.003024   0.008739  -0.003140
   59  O  4 XZ    0.002331   0.005933  -0.000355   0.011224   0.001811
   60  O  4 YZ   -0.010591  -0.001047   0.002162   0.004919   0.005037
   61  H  5  S    0.071076   0.069813   0.002165   0.000289   0.011385
   62  H  5  S    1.168428   1.103040   0.031489   0.337370  -0.041285
   63  N  6  S    0.048393  -0.084195  -0.010575   0.067099   0.009471
   64  N  6  S   -0.052611   0.077147   0.007275  -0.042072  -0.029687
   65  N  6  X    0.001028  -0.073043   0.037920   0.053244   0.026351
   66  N  6  Y   -0.084722   0.071537   0.001612  -0.098750  -0.001786
   67  N  6  Z   -0.012579   0.011776   0.164006  -0.014773   0.112627
   68  N  6  S   -0.674620   1.363027   0.161498  -1.187135   0.046541
   69  N  6  X    0.052187  -0.299770   0.113050   0.205826   0.017324
   70  N  6  Y   -0.354441   0.281539  -0.017408  -0.216098  -0.055542
   71  N  6  Z   -0.052043   0.080178   0.449601  -0.019355   0.441941
   72  N  6 XX    0.014353  -0.024761  -0.008479   0.021355  -0.007325
   73  N  6 YY    0.014255  -0.020075  -0.005287   0.023204   0.013147
   74  N  6 ZZ    0.011590  -0.022357   0.001240   0.023128  -0.003641
   75  N  6 XY    0.001043  -0.003662   0.000092   0.007677   0.003018
   76  N  6 XZ   -0.001037   0.000849  -0.008965   0.001362  -0.004636
   77  N  6 YZ   -0.004538   0.003294  -0.003988   0.009051  -0.007278
   78  H  7  S    0.029585  -0.028298   0.007967  -0.006528   0.055576
   79  H  7  S    0.626955  -0.869339   0.535379   0.708293   0.691566
   80  H  8  S    0.006102  -0.019580  -0.022096   0.048878  -0.041951
   81  H  8  S    0.477992  -0.688965  -0.902689   0.743557  -0.588224
   82  H  9  S   -0.033934  -0.000424   0.057679   0.012795   0.023712
   83  H  9  S    0.448174  -0.500613   1.374436  -0.803824  -0.801429
   84  C 10  S    0.037350  -0.027807  -0.057272  -0.088013   0.065854
   85  C 10  S   -0.041125   0.021422   0.020150   0.043888  -0.033947
   86  C 10  X    0.002660   0.025399   0.015030   0.055895   0.217294
   87  C 10  Y    0.065466  -0.020896   0.051399  -0.140346   0.070892
   88  C 10  Z   -0.050597   0.044197   0.166276   0.060217   0.038703
   89  C 10  S   -0.587446   0.418702   1.177561   1.801995  -1.258219
   90  C 10  X   -0.045027   0.068783   0.000026   0.099130   1.191644
   91  C 10  Y    0.349897  -0.113450   0.214593  -0.341963   0.194679
   92  C 10  Z   -0.253089   0.248610   0.480734   0.376154   0.420015
   93  C 10 XX    0.001898   0.000442  -0.002552  -0.006441  -0.005581
   94  C 10 YY    0.008754  -0.013626   0.001963  -0.004060   0.009502
   95  C 10 ZZ   -0.000794   0.005254  -0.012480  -0.012021   0.003555
   96  C 10 XY    0.005302  -0.003382  -0.000032   0.000998   0.007537
   97  C 10 XZ   -0.001887   0.003457  -0.001560  -0.001106   0.007574
   98  C 10 YZ    0.000783  -0.002125   0.000678  -0.004356  -0.006994
   99  H 11  S   -0.009248   0.013494   0.008958   0.004960  -0.050021
  100  H 11  S    0.245521  -0.202765  -0.146835  -0.833561  -0.779548
  101  H 12  S    0.018198  -0.039296   0.012197   0.017874   0.031865
  102  H 12  S    0.565765  -0.300739  -0.046207  -0.906426   1.583554
  103  H 13  S   -0.014698   0.027947  -0.026379  -0.030273  -0.008487
  104  H 13  S    0.362550  -0.295546  -1.286471  -0.910551   0.019261

[...]
   zy.         0.001000        -0.000031         0.000324
   zz.         0.001483         0.000322         0.000152

  x   :       -0.024482  B(i)=(B(i,j,j)+B(j,i,j)+B(j,j,i))/5
  y   :       -0.009125
  z   :       -0.000535
  BAR :        0.021533  BAR=B(i)*MU(i)/|MU|

  Anisotropy :       -0.000000  =(Bxyz-Bxzy+Byzx-Byxz+Bzxy-Bzyx)/6

  x   :       -0.040803  B(i)=(B(i,j,j)+B(j,i,j)+B(j,j,i))/3
  y   :       -0.015209
  z   :       -0.000892
  VEC :        0.043555  norm of Beta VEC

    dQ(  18)(w=1401.3 cm^-1)dQ(  33)(w=4051.2 cm^-1)( -0.060000;  0.040000,  0.020000)
               x                y                z
   xx.        -0.014221        -0.005784        -0.000976
   xy.        -0.005770        -0.000581         0.000305
   xz.        -0.000973         0.000306         0.000664
   yx.        -0.005747        -0.000584         0.000300
   yy.        -0.000587         0.000023        -0.000070
   yz.         0.000298        -0.000070         0.000163
   zx.        -0.000966         0.000304         0.000660
   zy.         0.000301        -0.000070         0.000162
   zz.         0.000658         0.000161         0.000146

  x   :       -0.008486  B(i)=(B(i,j,j)+B(j,i,j)+B(j,j,i))/5
  y   :       -0.003349
  z   :       -0.000538
  BAR :        0.007690  BAR=B(i)*MU(i)/|MU|

  Anisotropy :       -0.000000  =(Bxyz-Bxzy+Byzx-Byxz+Bzxy-Bzyx)/6

  x   :       -0.014144  B(i)=(B(i,j,j)+B(j,i,j)+B(j,j,i))/3
  y   :       -0.005582
  z   :       -0.000896
  VEC :        0.015232  norm of Beta VEC

    dQ(  19)(w=1433.0 cm^-1)dQ(  33)(w=4051.2 cm^-1)( -0.060000;  0.040000,  0.020000)
               x                y                z
   xx.         0.015482         0.008344         0.001073
   xy.         0.008341         0.000591        -0.000917
   xz.         0.001074        -0.000917        -0.001073
   yx.         0.008336         0.000605        -0.000912
   yy.         0.000613        -0.000071         0.000050
   yz.        -0.000910         0.000050        -0.000238
   zx.         0.001076        -0.000913        -0.001069
   zy.        -0.000910         0.000050        -0.000234
   zz.        -0.001067        -0.000233        -0.000105

  x   :        0.009009  B(i)=(B(i,j,j)+B(j,i,j)+B(j,j,i))/5
  y   :        0.004821
  z   :        0.000611
  BAR :       -0.009157  BAR=B(i)*MU(i)/|MU|

  Anisotropy :        0.000000  =(Bxyz-Bxzy+Byzx-Byxz+Bzxy-Bzyx)/6

  x   :        0.015015  B(i)=(B(i,j,j)+B(j,i,j)+B(j,j,i))/3
  y   :        0.008035
  z   :        0.001019
  VEC :        0.017060  norm of Beta VEC

    dQ(  20)(w=1515.5 cm^-1)dQ(  33)(w=4051.2 cm^-1)( -0.060000;  0.040000,  0.020000)
               x                y                z
   xx.        -0.009308        -0.000777         0.001036
   xy.        -0.000763        -0.000912        -0.000386
   xz.         0.001041        -0.000384        -0.000349
   yx.        -0.000740        -0.000904        -0.000386
   yy.        -0.000899        -0.000122        -0.000012
   yz.        -0.000384        -0.000011        -0.000060
   zx.         0.001050        -0.000381        -0.000354
   zy.        -0.000381        -0.000009        -0.000060
   zz.        -0.000357        -0.000060        -0.000138

  x   :       -0.006340  B(i)=(B(i,j,j)+B(j,i,j)+B(j,j,i))/5
  y   :       -0.000566
  z   :        0.000536
  BAR :        0.004022  BAR=B(i)*MU(i)/|MU|

  Anisotropy :        0.000000  =(Bxyz-Bxzy+Byzx-Byxz+Bzxy-Bzyx)/6

  x   :       -0.010566  B(i)=(B(i,j,j)+B(j,i,j)+B(j,j,i))/3
  y   :       -0.000943
  z   :        0.000894
  VEC :        0.010646  norm of Beta VEC

    dQ(  21)(w=1548.0 cm^-1)dQ(  33)(w=4051.2 cm^-1)( -0.060000;  0.040000,  0.020000)
               x                y                z
   xx.         0.007138         0.000620        -0.000539
   xy.         0.000601         0.000565         0.000035
   xz.        -0.000546         0.000032        -0.000047
   yx.         0.000570         0.000563         0.000039
   yy.         0.000562         0.000019        -0.000069
   yz.         0.000037        -0.000070         0.000020
   zx.        -0.000557         0.000029        -0.000042
   zy.         0.000031        -0.000072         0.000020
   zz.        -0.000039         0.000020         0.000010

  x   :        0.004595  B(i)=(B(i,j,j)+B(j,i,j)+B(j,j,i))/5
  y   :        0.000382
  z   :       -0.000365
  BAR :       -0.002899  BAR=B(i)*MU(i)/|MU|

  Anisotropy :       -0.000000  =(Bxyz-Bxzy+Byzx-Byxz+Bzxy-Bzyx)/6

  x   :        0.007658  B(i)=(B(i,j,j)+B(j,i,j)+B(j,j,i))/3
  y   :        0.000636
  z   :       -0.000608
  VEC :        0.007709  norm of Beta VEC

    dQ(  22)(w=1573.9 cm^-1)dQ(  33)(w=4051.2 cm^-1)( -0.060000;  0.040000,  0.020000)
               x                y                z
   xx.         0.010400         0.001693        -0.000661
   xy.         0.001673         0.000541         0.000130
   xz.        -0.000671         0.000126        -0.000076
   yx.         0.001640         0.000533         0.000134
   yy.         0.000529         0.000172        -0.000105
   yz.         0.000132        -0.000106        -0.000042
   zx.        -0.000686         0.000123        -0.000070
   zy.         0.000125        -0.000107        -0.000041
   zz.        -0.000066        -0.000041         0.000049

  x   :        0.006518  B(i)=(B(i,j,j)+B(j,i,j)+B(j,j,i))/5
  y   :        0.001080
  z   :       -0.000438
  BAR :       -0.004549  BAR=B(i)*MU(i)/|MU|

  Anisotropy :        0.000000  =(Bxyz-Bxzy+Byzx-Byxz+Bzxy-Bzyx)/6

  x   :        0.010864  B(i)=(B(i,j,j)+B(j,i,j)+B(j,j,i))/3
  y   :        0.001800
  z   :       -0.000730
  VEC :        0.011036  norm of Beta VEC

    dQ(  23)(w=1639.8 cm^-1)dQ(  33)(w=4051.2 cm^-1)( -0.060000;  0.040000,  0.020000)
               x                y                z
   xx.        -0.002910        -0.000517        -0.000131
   xy.        -0.000515        -0.000185        -0.000044
   xz.        -0.000133        -0.000044         0.000203
   yx.        -0.000512        -0.000182        -0.000044
   yy.        -0.000180        -0.000107         0.000038
   yz.        -0.000043         0.000038         0.000005
   zx.        -0.000134        -0.000043         0.000200
   zy.        -0.000043         0.000038         0.000005
   zz.         0.000199         0.000005        -0.000007

  x   :       -0.001735  B(i)=(B(i,j,j)+B(j,i,j)+B(j,j,i))/5
  y   :       -0.000370
  z   :       -0.000061
  BAR :        0.001317  BAR=B(i)*MU(i)/|MU|

  Anisotropy :       -0.000000  =(Bxyz-Bxzy+Byzx-Byxz+Bzxy-Bzyx)/6

  x   :       -0.002892  B(i)=(B(i,j,j)+B(j,i,j)+B(j,j,i))/3
  y   :       -0.000617
  z   :       -0.000102
  VEC :        0.002959  norm of Beta VEC

    dQ(  24)(w=1644.0 cm^-1)dQ(  33)(w=4051.2 cm^-1)( -0.060000;  0.040000,  0.020000)
               x                y                z
   xx.         0.003177         0.000372         0.000261
   xy.         0.000365         0.000216         0.000056
   xz.         0.000258         0.000055        -0.000055
   yx.         0.000352         0.000214         0.000058
   yy.         0.000212         0.000032        -0.000009
   yz.         0.000058        -0.000009        -0.000011
   zx.         0.000253         0.000055        -0.000052
   zy.         0.000056        -0.000009        -0.000011
   zz.        -0.000050        -0.000010        -0.000011

  x   :        0.002003  B(i)=(B(i,j,j)+B(j,i,j)+B(j,j,i))/5
  y   :        0.000230
  z   :        0.000143
  BAR :       -0.001384  BAR=B(i)*MU(i)/|MU|

  Anisotropy :        0.000000  =(Bxyz-Bxzy+Byzx-Byxz+Bzxy-Bzyx)/6

  x   :        0.003339  B(i)=(B(i,j,j)+B(j,i,j)+B(j,j,i))/3
  y   :        0.000384
  z   :        0.000238
  VEC :        0.003370  norm of Beta VEC

    dQ(  25)(w=1849.3 cm^-1)dQ(  33)(w=4051.2 cm^-1)( -0.060000;  0.040000,  0.020000)
               x                y                z
   xx.        -0.002035        -0.001095        -0.000114
   xy.        -0.001092        -0.000181         0.000097
   xz.        -0.000112         0.000098         0.000018
   yx.        -0.001087        -0.000181         0.000095
   yy.        -0.000181         0.000057         0.000014
   yz.         0.000095         0.000015         0.000006
   zx.        -0.000109         0.000097         0.000020
   zy.         0.000096         0.000015         0.000006
   zz.         0.000020         0.000006         0.000048

  x   :       -0.001318  B(i)=(B(i,j,j)+B(j,i,j)+B(j,j,i))/5
  y   :       -0.000617
  z   :       -0.000030
  BAR :        0.001257  BAR=B(i)*MU(i)/|MU|

  Anisotropy :        0.000000  =(Bxyz-Bxzy+Byzx-Byxz+Bzxy-Bzyx)/6

  x   :       -0.002197  B(i)=(B(i,j,j)+B(j,i,j)+B(j,j,i))/3
  y   :       -0.001028
  z   :       -0.000050
  VEC :        0.002426  norm of Beta VEC

    dQ(  26)(w=2027.7 cm^-1)dQ(  33)(w=4051.2 cm^-1)( -0.060000;  0.040000,  0.020000)
               x                y                z
   xx.        -0.006533         0.000946         0.001442
   xy.         0.000961         0.000871         0.000088
   xz.         0.001446         0.000091         0.000117
   yx.         0.000986         0.000855         0.000080
   yy.         0.000846         0.000298         0.000052
   yz.         0.000077         0.000051        -0.000208
   zx.         0.001455         0.000087         0.000103
   zy.         0.000082         0.000050        -0.000205
   zz.         0.000096        -0.000203        -0.000431

  x   :       -0.003342  B(i)=(B(i,j,j)+B(j,i,j)+B(j,j,i))/5
  y   :        0.000634
  z   :        0.000641
  BAR :        0.001313  BAR=B(i)*MU(i)/|MU|

  Anisotropy :        0.000000  =(Bxyz-Bxzy+Byzx-Byxz+Bzxy-Bzyx)/6

  x   :       -0.005571  B(i)=(B(i,j,j)+B(j,i,j)+B(j,j,i))/3
  y   :        0.001057
  z   :        0.001068
  VEC :        0.005770  norm of Beta VEC

    dQ(  27)(w=3212.6 cm^-1)dQ(  33)(w=4051.2 cm^-1)( -0.060000;  0.040000,  0.020000)
               x                y                z
   xx.         0.000998         0.000944        -0.000790
   xy.         0.000944         0.000125         0.000119
   xz.        -0.000796         0.000119         0.000393
   yx.         0.000946         0.000128         0.000117
   yy.         0.000129         0.000003         0.000075
   yz.         0.000116         0.000075        -0.000073
   zx.        -0.000806         0.000118         0.000392
   zy.         0.000116         0.000074        -0.000073
   zz.         0.000391        -0.000073         0.000025

  x   :        0.000910  B(i)=(B(i,j,j)+B(j,i,j)+B(j,j,i))/5
  y   :        0.000525
  z   :       -0.000418
  BAR :       -0.000843  BAR=B(i)*MU(i)/|MU|

  Anisotropy :       -0.000000  =(Bxyz-Bxzy+Byzx-Byxz+Bzxy-Bzyx)/6

  x   :        0.001517  B(i)=(B(i,j,j)+B(j,i,j)+B(j,j,i))/3
  y   :        0.000875
  z   :       -0.000697
  VEC :        0.001885  norm of Beta VEC

    dQ(  28)(w=3242.7 cm^-1)dQ(  33)(w=4051.2 cm^-1)( -0.060000;  0.040000,  0.020000)
               x                y                z
   xx.        -0.004843        -0.001955        -0.001344
   xy.        -0.001954        -0.000522        -0.000203
   xz.        -0.001348        -0.000203        -0.000112
   yx.        -0.001952        -0.000522        -0.000205
   yy.        -0.000522        -0.000134         0.000020
   yz.        -0.000206         0.000020         0.000021
   zx.        -0.001355        -0.000204        -0.000108
   zy.        -0.000205         0.000018         0.000022
   zz.        -0.000105         0.000022         0.000150

  x   :       -0.003284  B(i)=(B(i,j,j)+B(j,i,j)+B(j,j,i))/5
  y   :       -0.001240
  z   :       -0.000708
  BAR :        0.003049  BAR=B(i)*MU(i)/|MU|

  Anisotropy :        0.000000  =(Bxyz-Bxzy+Byzx-Byxz+Bzxy-Bzyx)/6

  x   :       -0.005474  B(i)=(B(i,j,j)+B(j,i,j)+B(j,j,i))/3
  y   :       -0.002066
  z   :       -0.001180
  VEC :        0.005969  norm of Beta VEC

    dQ(  29)(w=3285.9 cm^-1)dQ(  33)(w=4051.2 cm^-1)( -0.060000;  0.040000,  0.020000)
               x                y                z
   xx.        -0.001756        -0.001619        -0.000868
   xy.        -0.001621        -0.000415         0.000017
   xz.        -0.000872         0.000017         0.000400
   yx.        -0.001623        -0.000419         0.000017
   yy.        -0.000421        -0.000058         0.000045
   yz.         0.000017         0.000045         0.000044
   zx.        -0.000878         0.000017         0.000398
   zy.         0.000017         0.000045         0.000043
   zz.         0.000397         0.000043         0.000026

  x   :       -0.001066  B(i)=(B(i,j,j)+B(j,i,j)+B(j,j,i))/5
  y   :       -0.000981
  z   :       -0.000481
  BAR :        0.001498  BAR=B(i)*MU(i)/|MU|

  Anisotropy :        0.000000  =(Bxyz-Bxzy+Byzx-Byxz+Bzxy-Bzyx)/6

  x   :       -0.001776  B(i)=(B(i,j,j)+B(j,i,j)+B(j,j,i))/3
  y   :       -0.001635
  z   :       -0.000801
  VEC :        0.002544  norm of Beta VEC

    dQ(  30)(w=3313.0 cm^-1)dQ(  33)(w=4051.2 cm^-1)( -0.060000;  0.040000,  0.020000)
               x                y                z
   xx.        -0.001765        -0.001055         0.000362
   xy.        -0.001058        -0.000090        -0.000044
   xz.         0.000363        -0.000044        -0.000022
   yx.        -0.001062        -0.000092        -0.000044
   yy.        -0.000092        -0.000328         0.000059
   yz.        -0.000044         0.000059         0.000016
   zx.         0.000364        -0.000044        -0.000022
   zy.        -0.000043         0.000059         0.000015
   zz.        -0.000021         0.000015         0.000018

  x   :       -0.001127  B(i)=(B(i,j,j)+B(j,i,j)+B(j,j,i))/5
  y   :       -0.000822
  z   :        0.000264
  BAR :        0.001237  BAR=B(i)*MU(i)/|MU|

  Anisotropy :        0.000000  =(Bxyz-Bxzy+Byzx-Byxz+Bzxy-Bzyx)/6

  x   :       -0.001878  B(i)=(B(i,j,j)+B(j,i,j)+B(j,j,i))/3
  y   :       -0.001371
  z   :        0.000440
  VEC :        0.002366  norm of Beta VEC

    dQ(  31)(w=3731.2 cm^-1)dQ(  33)(w=4051.2 cm^-1)( -0.060000;  0.040000,  0.020000)
               x                y                z
   xx.        -0.002043        -0.002253         0.000036
   xy.        -0.002260        -0.000235         0.000102
   xz.         0.000035         0.000101         0.000550
   yx.        -0.002272        -0.000243         0.000105
   yy.        -0.000248         0.000196        -0.000055
   yz.         0.000105        -0.000055         0.000190
   zx.         0.000033         0.000102         0.000544
   zy.         0.000104        -0.000055         0.000188
   zz.         0.000540         0.000187        -0.000112

  x   :       -0.001044  B(i)=(B(i,j,j)+B(j,i,j)+B(j,j,i))/5
  y   :       -0.001126
  z   :       -0.000079
  BAR :        0.001504  BAR=B(i)*MU(i)/|MU|

  Anisotropy :       -0.000000  =(Bxyz-Bxzy+Byzx-Byxz+Bzxy-Bzyx)/6

  x   :       -0.001741  B(i)=(B(i,j,j)+B(j,i,j)+B(j,j,i))/3
  y   :       -0.001877
  z   :       -0.000132
  VEC :        0.002563  norm of Beta VEC

    dQ(  32)(w=3811.0 cm^-1)dQ(  33)(w=4051.2 cm^-1)( -0.060000;  0.040000,  0.020000)
               x                y                z
   xx.        -0.000915         0.000658        -0.001647
   xy.         0.000661        -0.000025         0.000146
   xz.        -0.001655         0.000146         0.000456
   yx.         0.000666        -0.000020         0.000140
   yy.        -0.000017        -0.000119         0.000188
   yz.         0.000135         0.000187        -0.000050
   zx.        -0.001669         0.000137         0.000456
   zy.         0.000133         0.000185        -0.000050
   zz.         0.000455        -0.000051         0.000107

  x   :       -0.000288  B(i)=(B(i,j,j)+B(j,i,j)+B(j,j,i))/5
  y   :        0.000296
  z   :       -0.000818
  BAR :        0.000129  BAR=B(i)*MU(i)/|MU|

  Anisotropy :        0.000000  =(Bxyz-Bxzy+Byzx-Byxz+Bzxy-Bzyx)/6

  x   :       -0.000480  B(i)=(B(i,j,j)+B(j,i,j)+B(j,j,i))/3
  y   :        0.000493
  z   :       -0.001363
  VEC :        0.001527  norm of Beta VEC

    dQ(  33)(w=4051.2 cm^-1)dQ(  33)(w=4051.2 cm^-1)( -0.060000;  0.040000,  0.020000)
               x                y                z
   xx.         0.123846         0.014074        -0.012914
   xy.         0.014114         0.003785        -0.000328
   xz.        -0.012888        -0.000322        -0.000452
   yx.         0.014181         0.003811        -0.000345
   yy.         0.003826         0.001244         0.000060
   yz.        -0.000350         0.000061         0.000037
   zx.        -0.012842        -0.000330        -0.000387
   zy.        -0.000340         0.000062         0.000043
   zz.        -0.000348         0.000046         0.000765

  x   :        0.076355  B(i)=(B(i,j,j)+B(j,i,j)+B(j,j,i))/5
  y   :        0.009245
  z   :       -0.007233
  BAR :       -0.050154  BAR=B(i)*MU(i)/|MU|

  Anisotropy :        0.000000  =(Bxyz-Bxzy+Byzx-Byxz+Bzxy-Bzyx)/6

  x   :        0.127258  B(i)=(B(i,j,j)+B(j,i,j)+B(j,j,i))/3
  y   :        0.015409
  z   :       -0.012055
  VEC :        0.128753  norm of Beta VEC
 STEP CPU TIME =   398.96 TOTAL CPU TIME =     7439.4 (  124.0 MIN)
 TOTAL WALL CLOCK TIME=     7470.2 SECONDS, CPU UTILIZATION IS  99.59%
$TDHFX : read keyword = [$END                                                                            ]
$TDHFX Parameters:end
            125334324  WORDS OF DYNAMIC MEMORY USED
 EXECUTION OF GAMESS TERMINATED NORMALLY Tue Nov 29 02:42:17 2016
 DDI: 263640 bytes (0.3 MB / 0 MWords) used by master data server.

 ----------------------------------------
 CPU timing information for all processes
 ========================================
 0: 7427.588 + 11.799 = 7439.388
 ----------------------------------------
 ddikick.x: exited gracefully.
unset echo
----- accounting info -----
Files used on the master node compute-3-0 were:
-rw-rw-r-- 1 sarom sarom    234919 Nov 29  2016 .//tdx-ala.dat
-rw-rw-r-- 1 sarom sarom      6207 Nov 29  2016 .//tdx-ala.F05
-rw-rw-r-- 1 sarom sarom 154093696 Nov 29  2016 .//tdx-ala.F08
-rw-rw-r-- 1 sarom sarom   3108400 Nov 29  2016 .//tdx-ala.F10
-rw-rw-r-- 1 sarom sarom   1703832 Nov 29  2016 .//tdx-ala.F18
-rw-rw-r-- 1 sarom sarom 550318336 Nov 29  2016 .//tdx-ala.F201
-rw-rw-r-- 1 sarom sarom  30371424 Nov 29  2016 .//tdx-ala.F202
-rw-rw-r-- 1 sarom sarom  16873120 Nov 29  2016 .//tdx-ala.F203
-rw-rw-r-- 1 sarom sarom     10624 Nov 29  2016 .//tdx-ala.F204
-rw-rw-r-- 1 sarom sarom   1038568 Nov 29  2016 .//tdx-ala.F205
-rw-rw-r-- 1 sarom sarom  60747664 Nov 29  2016 .//tdx-ala.F206
-rw-rw-r-- 1 sarom sarom   1038568 Nov 29  2016 .//tdx-ala.F207
-rw-rw-r-- 1 sarom sarom   3894168 Nov 29  2016 .//tdx-ala.F208
-rw-rw-r-- 1 sarom sarom  60745256 Nov 29  2016 .//tdx-ala.F209
-rw-rw-r-- 1 sarom sarom  50633360 Nov 29  2016 .//tdx-ala.F210
-rw-rw-r-- 1 sarom sarom   1038568 Nov 29  2016 .//tdx-ala.F211
-rw-rw-r-- 1 sarom sarom   3894168 Nov 29  2016 .//tdx-ala.F212
-rw-rw-r-- 1 sarom sarom   3894168 Nov 29  2016 .//tdx-ala.F213
-rw-rw-r-- 1 sarom sarom  50621448 Nov 29  2016 .//tdx-ala.F214
-rw-rw-r-- 1 sarom sarom   1038568 Nov 29  2016 .//tdx-ala.F215
-rw-rw-r-- 1 sarom sarom   3894168 Nov 29  2016 .//tdx-ala.F216
-rw-rw-r-- 1 sarom sarom   3894168 Nov 29  2016 .//tdx-ala.F217
-rw-rw-r-- 1 sarom sarom  10123808 Nov 29  2016 .//tdx-ala.F218
-rw-rw-r-- 1 sarom sarom      7160 Nov 29  2016 .//tdx-ala.F219
-rw-rw-r-- 1 sarom sarom   3894168 Nov 29  2016 .//tdx-ala.F220
-rw-rw-r-- 1 sarom sarom 202515976 Nov 29  2016 .//tdx-ala.F221
-rw-rw-r-- 1 sarom sarom  11681640 Nov 29  2016 .//tdx-ala.F222
-rw-rw-r-- 1 sarom sarom 202475552 Nov 29  2016 .//tdx-ala.F223
-rw-rw-r-- 1 sarom sarom 202475552 Nov 29  2016 .//tdx-ala.F224
-rw-rw-r-- 1 sarom sarom    121208 Nov 29  2016 .//tdx-ala.F225
-rw-rw-r-- 1 sarom sarom      6207 Nov 28 17:27 .//tdx-ala.inp
-rw-rw-r-- 1 sarom sarom   2104512 Nov 29  2016 .//tdx-ala.log
Tue Nov 29 02:42:20 CST 2016
0.191u 0.768s 2:04:35.92 0.0%	0+0k 0+152io 0pf+0w
