----- GAMESS execution script 'rungms' -----
This job is running on host compute-3-0
under operating system Linux at Tue Nov 29 00:37:45 CST 2016
Available scratch disk space (Kbyte units) at beginning of the job is
Filesystem            1K-blocks       Used  Available Use% Mounted on
bolt.local:/export/home/sarom
                     9590469632 1553431552 7549870080  18% /home/sarom
Copying input file vibdecomp.inp to your run's scratch directory...
cp vibdecomp.inp .//vibdecomp.F05
unset echo
/home/sarom/gamessGH/ddikick.x /home/sarom/gamessGH/gamess.00.x vibdecomp -ddi 1 1 localhost -scr ./

 Distributed Data Interface kickoff program.
 Initiating 1 compute processes on 1 nodes to run the following command:
 /home/sarom/gamessGH/gamess.00.x vibdecomp 

          ******************************************************
          *         GAMESS VERSION = 18 AUG 2016 (R1)          *
          *             FROM IOWA STATE UNIVERSITY             *
          * M.W.SCHMIDT, K.K.BALDRIDGE, J.A.BOATZ, S.T.ELBERT, *
          *   M.S.GORDON, J.H.JENSEN, S.KOSEKI, N.MATSUNAGA,   *
          *          K.A.NGUYEN, S.J.SU, T.L.WINDUS,           *
          *       TOGETHER WITH M.DUPUIS, J.A.MONTGOMERY       *
          *         J.COMPUT.CHEM.  14, 1347-1363(1993)        *
          **************** 64 BIT LINUX VERSION ****************

  SINCE 1993, STUDENTS AND POSTDOCS WORKING AT IOWA STATE UNIVERSITY
  AND ALSO IN THEIR VARIOUS JOBS AFTER LEAVING ISU HAVE MADE IMPORTANT
  CONTRIBUTIONS TO THE CODE:
     IVANA ADAMOVIC, CHRISTINE AIKENS, YURI ALEXEEV, POOJA ARORA,
     ANDREY ASADCHEV, ROB BELL, PRADIPTA BANDYOPADHYAY, JONATHAN BENTZ,
     BRETT BODE, KURT BRORSEN, CALEB CARLIN, GALINA CHABAN, WEI CHEN,
     CHEOL HO CHOI, PAUL DAY, ALBERT DEFUSCO, NUWAN DESILVA, TIM DUDLEY,
     DMITRI FEDOROV, GRAHAM FLETCHER, MARK FREITAG, KURT GLAESEMANN,
     DAN KEMP, GRANT MERRILL, NORIYUKI MINEZAWA, JONATHAN MULLIN,
     TAKESHI NAGATA, SEAN NEDD, HEATHER NETZLOFF, BOSILJKA NJEGIC, RYAN OLSON,
     MIKE PAK, SPENCER PRUITT, LUKE ROSKOP, JIM SHOEMAKER, LYUDMILA SLIPCHENKO,
     TONY SMITH, SAROM SOK LEANG, JIE SONG, TETSUYA TAKETSUGU, SIMON WEBB,
     PENG XU, SOOHAENG YOO, FEDERICO ZAHARIEV

  ADDITIONAL CODE HAS BEEN PROVIDED BY COLLABORATORS IN OTHER GROUPS:
     IOWA STATE UNIVERSITY:
          JOE IVANIC, AARON WEST, LAIMUTIS BYTAUTAS, KLAUS RUEDENBERG
     UNIVERSITY OF TOKYO: KIMIHIKO HIRAO, TAKAHITO NAKAJIMA,
          TAKAO TSUNEDA, MUNEAKI KAMIYA, SUSUMU YANAGISAWA,
          KIYOSHI YAGI, MAHITO CHIBA, SEIKEN TOKURA, NAOAKI KAWAKAMI
     UNIVERSITY OF AARHUS: FRANK JENSEN
     UNIVERSITY OF IOWA: VISVALDAS KAIRYS, HUI LI
     NATIONAL INST. OF STANDARDS AND TECHNOLOGY: WALT STEVENS, DAVID GARMER
     UNIVERSITY OF PISA: BENEDETTA MENNUCCI, JACOPO TOMASI
     UNIVERSITY OF MEMPHIS: HENRY KURTZ, PRAKASHAN KORAMBATH
     UNIVERSITY OF ALBERTA: TOBY ZENG, MARIUSZ KLOBUKOWSKI
     UNIVERSITY OF NEW ENGLAND: MARK SPACKMAN
     MIE UNIVERSITY: HIROAKI UMEDA
     NAT. INST. OF ADVANCED INDUSTRIAL SCIENCE AND TECHNOLOGY: KAZUO KITAURA
     MICHIGAN STATE UNIVERSITY:
          KAROL KOWALSKI, MARTA WLOCH, JEFFREY GOUR, JESSE LUTZ,
          WEI LI, PIOTR PIECUCH
     UNIVERSITY OF SILESIA: MONIKA MUSIAL, STANISLAW KUCHARSKI
     FACULTES UNIVERSITAIRES NOTRE-DAME DE LA PAIX:
          OLIVIER QUINET, BENOIT CHAMPAGNE
     UNIVERSITY OF CALIFORNIA - SANTA BARBARA: BERNARD KIRTMAN
     INSTITUTE FOR MOLECULAR SCIENCE:
          KAZUYA ISHIMURA, MICHIO KATOUDA, AND SHIGERU NAGASE
     UNIVERSITY OF NOTRE DAME: ANNA POMOGAEVA, DAN CHIPMAN
     KYUSHU UNIVERSITY:
          HARUYUKI NAKANO,
          FENG LONG GU, JACEK KORCHOWIEC, MARCIN MAKOWSKI, AND YURIKO AOKI,
          HIROTOSHI MORI AND EISAKU MIYOSHI
     PENNSYLVANIA STATE UNIVERSITY:
          TZVETELIN IORDANOV, CHET SWALINA, JONATHAN SKONE,
          SHARON HAMMES-SCHIFFER
     WASEDA UNIVERSITY:
          MASATO KOBAYASHI, TOMOKO AKAMA, TSUGUKI TOUMA,
          TAKESHI YOSHIKAWA, YASUHIRO IKABATA, JUNJI SEINO,
          YUYA NAKAJIMA, HIROMI NAKAI
     NANJING UNIVERSITY: SHUHUA LI
     UNIVERSITY OF NEBRASKA:
          PEIFENG SU, DEJUN SI, NANDUN THELLAMUREGE, YALI WANG, HUI LI
     UNIVERSITY OF ZURICH: ROBERTO PEVERATI, KIM BALDRIDGE
     N. COPERNICUS UNIVERSITY AND JACKSON STATE UNIVERSITY:
          MARIA BARYSZ
     UNIVERSITY OF COPENHAGEN: Jimmy Kromann, CASPER STEINMANN
     TOKYO INSTITUTE OF TECHNOLOGY: HIROYA NAKATA
     NAGOYA UNIVERSITY: YOSHIO NISHIMOTO, STEPHAN IRLE
     MOSCOW STATE UNIVERSITY: VLADIMIR MIRONOV

 EXECUTION OF GAMESS BEGUN Tue Nov 29 00:37:45 2016

            ECHO OF THE FIRST FEW INPUT CARDS -
 INPUT CARD>!  CH4 - vibrational decomposition test, method of                              
 INPUT CARD>!  J.A.Boatz & M.S.Gordon, J.Phys.Chem. 93, 1819-1826(1989)                     
 INPUT CARD>!                                                                               
 INPUT CARD>!  intrinsic frequency for CH stretch=3278.8 and HCH bend=1435.2                
 INPUT CARD>!                                                                               
 INPUT CARD>!  This run takes 0 seconds on anything (30 Apr 2015)                           
 INPUT CARD>!  results have not changed since 1999                                          
 INPUT CARD>!                                                                               
 INPUT CARD> $contrl scftyp=rhf runtyp=hessian nzvar=10 $end                                
 INPUT CARD> $system mwords=1 $end                                                          
 INPUT CARD> $basis  gbasis=n31 ngauss=6 ndfunc=1 $end                                      
 INPUT CARD> $force  rdhess=.t. decomp=.t. purify=.t. projct=.f.  $end                      
 INPUT CARD> $guess  guess=skip    $end                                                     
 INPUT CARD> $zmat   izmat(1)=1,1,2,  1,1,3,   1,1,4, 1,1,5,                                
 INPUT CARD>                  2,2,1,3,  2,2,1,4  2,3,1,5,                                   
 INPUT CARD>                  2,4,1,5, 2,3,1,4, 2,2,1,5  $end                               
 INPUT CARD> $data                                                                          
 INPUT CARD>methane - test of vibrational decomposition                                     
 INPUT CARD>Td                                                                              
 INPUT CARD>                                                                                
 INPUT CARD>C  6.0      0.0    0.0    0.0                                                   
 INPUT CARD>H  1.0      0.6256629914       .6256629914       .6256629914                    
 INPUT CARD> $end                                                                           
 INPUT CARD> $GRAD                                                                          
 INPUT CARD>E=      -40.1951719156  GMAX=   -.0000094  GRMS=    .0000084                    
 INPUT CARD>C            6.    0.0000000000E+00    0.0000000000E+00    0.0000000000E+00     
 INPUT CARD>H            1.    9.3661812510E-06   -9.3661812510E-06   -9.3661812510E-06     
 INPUT CARD>H            1.   -9.3661812510E-06    9.3661812510E-06   -9.3661812510E-06     
 INPUT CARD>H            1.   -9.3661812510E-06   -9.3661812510E-06    9.3661812510E-06     
 INPUT CARD>H            1.    9.3661812510E-06    9.3661812510E-06    9.3661812510E-06     
 INPUT CARD> $END                                                                           
 INPUT CARD> $HESS                                                                          
 INPUT CARD>ENERGY IS      -40.1951719156 E(NUC) IS       13.5137440372                     
 INPUT CARD> 1  1 6.22223085E-01 0.00000000E+00 0.00000000E+00-1.55555771E-01 9.79795619E-02
 INPUT CARD> 1  2 9.79795619E-02-1.55555771E-01 9.79795619E-02-9.79795619E-02-1.55555771E-01
 INPUT CARD> 1  3-9.79795619E-02 9.79795619E-02-1.55555771E-01-9.79795619E-02-9.79795619E-02
 INPUT CARD> 2  1 0.00000000E+00 6.22223085E-01 0.00000000E+00 9.79795619E-02-1.55555771E-01
 INPUT CARD> 2  2-9.79795619E-02 9.79795619E-02-1.55555771E-01 9.79795619E-02-9.79795619E-02
 INPUT CARD> 2  3-1.55555771E-01 9.79795619E-02-9.79795619E-02-1.55555771E-01-9.79795619E-02
 INPUT CARD> 3  1 0.00000000E+00 0.00000000E+00 6.22223085E-01 9.79795619E-02-9.79795619E-02
 INPUT CARD> 3  2-1.55555771E-01-9.79795619E-02 9.79795619E-02-1.55555771E-01 9.79795619E-02
 INPUT CARD> 3  3 9.79795619E-02-1.55555771E-01-9.79795619E-02-9.79795619E-02-1.55555771E-01
 INPUT CARD> 4  1-1.55555771E-01 9.79795619E-02 9.79795619E-02 1.62893527E-01-1.08805905E-01
 INPUT CARD> 4  2-1.08805905E-01-1.20237365E-02 1.08263429E-02 1.32718190E-02-1.20237365E-02
 INPUT CARD> 4  3 1.32718190E-02 1.08263429E-02 1.67097169E-02-1.32718190E-02-1.32718190E-02
 INPUT CARD> 5  1 9.79795619E-02-1.55555771E-01-9.79795619E-02-1.08805905E-01 1.62893527E-01
 INPUT CARD> 5  2 1.08805905E-01 1.08263429E-02-1.20237365E-02-1.32718190E-02-1.32718190E-02
 INPUT CARD> 5  3 1.67097169E-02 1.32718190E-02 1.32718190E-02-1.20237365E-02-1.08263429E-02
 INPUT CARD> 6  1 9.79795619E-02-9.79795619E-02-1.55555771E-01-1.08805905E-01 1.08805905E-01
 INPUT CARD> 6  2 1.62893527E-01-1.32718190E-02 1.32718190E-02 1.67097169E-02 1.08263429E-02
    1000000 WORDS OF MEMORY AVAILABLE

     BASIS OPTIONS
     -------------
     GBASIS=N31          IGAUSS=       6      POLAR=POPN31  
     NDFUNC=       1     NFFUNC=       0     DIFFSP=       F
     NPFUNC=       0      DIFFS=       F     BASNAM=        


     RUN TITLE
     ---------
 methane - test of vibrational decomposition                                     

 THE POINT GROUP OF THE MOLECULE IS TD      
 THE ORDER OF THE PRINCIPAL AXIS IS     0

 ATOM      ATOMIC                      COORDINATES (BOHR)
           CHARGE         X                   Y                   Z
 C           6.0     0.0000000000        0.0000000000        0.0000000000
 H           1.0     1.1823316144       -1.1823316144       -1.1823316144
 H           1.0    -1.1823316144        1.1823316144       -1.1823316144
 H           1.0    -1.1823316144       -1.1823316144        1.1823316144
 H           1.0     1.1823316144        1.1823316144        1.1823316144

          INTERNUCLEAR DISTANCES (ANGS.)
          ------------------------------

                1 C          2 H          3 H          4 H          5 H     

   1 C       0.0000000    1.0836801 *  1.0836801 *  1.0836801 *  1.0836801 *
   2 H       1.0836801 *  0.0000000    1.7696422 *  1.7696422 *  1.7696422 *
   3 H       1.0836801 *  1.7696422 *  0.0000000    1.7696422 *  1.7696422 *
   4 H       1.0836801 *  1.7696422 *  1.7696422 *  0.0000000    1.7696422 *
   5 H       1.0836801 *  1.7696422 *  1.7696422 *  1.7696422 *  0.0000000  

  * ... LESS THAN  3.000


     ATOMIC BASIS SET
     ----------------
 THE CONTRACTED PRIMITIVE FUNCTIONS HAVE BEEN UNNORMALIZED
 THE CONTRACTED BASIS FUNCTIONS ARE NOW NORMALIZED TO UNITY

  SHELL TYPE  PRIMITIVE        EXPONENT          CONTRACTION COEFFICIENT(S)

 C         

      1   S       1          3047.5248800    0.001834737132
      1   S       2           457.3695180    0.014037322813
      1   S       3           103.9486850    0.068842622264
      1   S       4            29.2101553    0.232184443216
      1   S       5             9.2866630    0.467941348435
      1   S       6             3.1639270    0.362311985337

      2   L       7             7.8682723   -0.119332419775    0.068999066591
      2   L       8             1.8812885   -0.160854151696    0.316423960957
      2   L       9             0.5442493    1.143456437840    0.744308290898

      3   L      10             0.1687145    1.000000000000    1.000000000000

      4   D      11             0.8000000    1.000000000000

 H         

     11   S      12            18.7311370    0.033494604338
     11   S      13             2.8253944    0.234726953484
     11   S      14             0.6401217    0.813757326146

     12   S      15             0.1612778    1.000000000000

 TOTAL NUMBER OF BASIS SET SHELLS             =   12
 NUMBER OF CARTESIAN GAUSSIAN BASIS FUNCTIONS =   23
 NUMBER OF ELECTRONS                          =   10
 CHARGE OF MOLECULE                           =    0
 SPIN MULTIPLICITY                            =    1
 NUMBER OF OCCUPIED ORBITALS (ALPHA)          =    5
 NUMBER OF OCCUPIED ORBITALS (BETA )          =    5
 TOTAL NUMBER OF ATOMS                        =    5
 THE NUCLEAR REPULSION ENERGY IS       13.5137440372

     $CONTRL OPTIONS
     ---------------
 SCFTYP=RHF          RUNTYP=HESSIAN      EXETYP=RUN     
 MPLEVL=       0     CITYP =NONE         CCTYP =NONE         VBTYP =NONE    
 DFTTYP=NONE         TDDFT =NONE    
 MULT  =       1     ICHARG=       0     NZVAR =      10     COORD =UNIQUE  
 PP    =NONE         RELWFN=NONE         LOCAL =NONE         NUMGRD=       F
 ISPHER=      -1     NOSYM =       0     MAXIT =      30     UNITS =ANGS    
 PLTORB=       F     MOLPLT=       F     AIMPAC=       F     FRIEND=        
 NPRINT=       7     IREST =       0     GEOM  =INPUT   
 NORMF =       0     NORMP =       0     ITOL  =      20     ICUT  =       9
 INTTYP=BEST         GRDTYP=BEST         QMTTOL= 1.0E-06

     $SYSTEM OPTIONS
     ---------------
  REPLICATED MEMORY=     1000000 WORDS (ON EVERY NODE).
 DISTRIBUTED MEMDDI=           0 MILLION WORDS IN AGGREGATE,
 MEMDDI DISTRIBUTED OVER   1 PROCESSORS IS           0 WORDS/PROCESSOR.
 TOTAL MEMORY REQUESTED ON EACH PROCESSOR=     1000000 WORDS.
 TIMLIM=      525600.00 MINUTES, OR     365.0 DAYS.
 PARALL= F  BALTYP=  DLB     KDIAG=    0  COREFL= F
 MXSEQ2=     300 MXSEQ3=     150  mem10=         0

          ----------------
          PROPERTIES INPUT
          ----------------

     MOMENTS            FIELD           POTENTIAL          DENSITY
 IEMOM =       1   IEFLD =       0   IEPOT =       0   IEDEN =       0
 WHERE =COMASS     WHERE =NUCLEI     WHERE =NUCLEI     WHERE =NUCLEI  
 OUTPUT=BOTH       OUTPUT=BOTH       OUTPUT=BOTH       OUTPUT=BOTH    
 IEMINT=       0   IEFINT=       0                     IEDINT=       0
                                                       MORB  =       0
          EXTRAPOLATION IN EFFECT
          DIIS IN EFFECT
 ORBITAL PRINTING OPTION: NPREO=     1    23     2     1

     -------------------------------
     INTEGRAL TRANSFORMATION OPTIONS
     -------------------------------
     NWORD  =            0
     CUTOFF = 1.0E-09     MPTRAN =       0
     DIRTRF =       F     AOINTS =DUP     

          ----------------------
          INTEGRAL INPUT OPTIONS
          ----------------------
 NOPK  =       1 NORDER=       0 SCHWRZ=       F

     --------------------------------
     THE POINT GROUP IS TD , ORDER=24
     --------------------------------

     DIMENSIONS OF THE SYMMETRY SUBSPACES ARE
 A1  =    6     A2  =    0     E   =    1     T1  =    0     T2  =    5

 ..... DONE SETTING UP THE RUN .....
 STEP CPU TIME =     0.03 TOTAL CPU TIME =        0.0 (    0.0 MIN)
 TOTAL WALL CLOCK TIME=        0.1 SECONDS, CPU UTILIZATION IS  27.27%

     ---------------------------------
     HESSIAN MATRIX CONTROL PARAMETERS
     ---------------------------------
     METHOD=ANALYTIC   NVIB  =       2   VIBSIZ= 0.01000
     RDHESS=       T   PURIFY=       T   PRTIFC=       F
     VIBANL=       T   DECOMP=       T   PROJCT=       F
     SCLFAC= 1.00000   PRTSCN=       F   NPRT  =       0
     PULCOR=       F   NPUN  =       0   REDOVB=       T
     HSSTYP=GENERAL 
     THERMOCHEMISTRY WILL BE PRINTED FOR    1 TEMPERATURES:
      298.15000

   --- ENCODED Z MATRIX ---
 COORD  TYPE   I   J   K   L   M   N
    1      1    1   2
    2      1    1   3
    3      1    1   4
    4      1    1   5
    5      2    2   1   3
    6      2    2   1   4
    7      2    3   1   5
    8      2    4   1   5
    9      2    3   1   4
   10      2    2   1   5
 WARNING. NUMBER OF INTERNAL COORDINATES IS GREATER THAN (3N-6), BUT NO SYMMETRY COORDINATES ARE GIVEN.


                     --------------------
                     INTERNAL COORDINATES
                     --------------------

                 - - ATOMS - -         COORDINATE      COORDINATE
 NO.   TYPE    I  J  K  L  M  N        (BOHR,RAD)       (ANG,DEG)
 ----------------------------------------------------------------
   1 STRETCH   1  2                     2.0478584       1.0836801
   2 STRETCH   1  3                     2.0478584       1.0836801
   3 STRETCH   1  4                     2.0478584       1.0836801
   4 STRETCH   1  5                     2.0478584       1.0836801
   5 BEND      2  1  3                  1.9106332     109.4712206
   6 BEND      2  1  4                  1.9106332     109.4712206
   7 BEND      3  1  5                  1.9106332     109.4712206
   8 BEND      4  1  5                  1.9106332     109.4712206
   9 BEND      3  1  4                  1.9106332     109.4712206
  10 BEND      2  1  5                  1.9106332     109.4712206

 $HESS GROUP READ FROM CARDS
 ENERGY IS      -40.1951719156 E(NUC) IS       13.5137440372                     
 THE HESSIAN MATRIX HAS BEEN PURIFIED

          ---------------
          ENERGY GRADIENT
          ---------------

 UNITS ARE HARTREE/BOHR    E'X               E'Y               E'Z 
    1 C               -0.000000000       0.000000000       0.000000000
    2 H                0.000009366      -0.000009366      -0.000009366
    3 H               -0.000009366       0.000009366      -0.000009366
    4 H               -0.000009366      -0.000009366       0.000009366
    5 H                0.000009366       0.000009366       0.000009366

          -------------------------------
          CARTESIAN FORCE CONSTANT MATRIX
          -------------------------------

                                   1                          2
                               C                          H         
                          X        Y        Z        X        Y        Z
  1   C            X 0.622223 0.000000 0.000000-0.155556 0.097980 0.097980
                   Y 0.000000 0.622223 0.000000 0.097980-0.155556-0.097980
                   Z 0.000000 0.000000 0.622223 0.097980-0.097980-0.155556
  2   H            X-0.155556 0.097980 0.097980 0.162892-0.108807-0.108807
                   Y 0.097980-0.155556-0.097980-0.108807 0.162892 0.108807
                   Z 0.097980-0.097980-0.155556-0.108807 0.108807 0.162892
  3   H            X-0.155556 0.097980-0.097980-0.012024 0.010827-0.013273
                   Y 0.097980-0.155556 0.097980 0.010827-0.012024 0.013273
                   Z-0.097980 0.097980-0.155556 0.013273-0.013273 0.016712
  4   H            X-0.155556-0.097980 0.097980-0.012024-0.013273 0.010827
                   Y-0.097980-0.155556 0.097980 0.013273 0.016712-0.013273
                   Z 0.097980 0.097980-0.155556 0.010827 0.013273-0.012024
  5   H            X-0.155556-0.097980-0.097980 0.016712 0.013273 0.013273
                   Y-0.097980-0.155556-0.097980-0.013273-0.012024-0.010827
                   Z-0.097980-0.097980-0.155556-0.013273-0.010827-0.012024

                                   3                          4
                               H                          H         
                          X        Y        Z        X        Y        Z
  3   H            X 0.162892-0.108807 0.108807 0.016712-0.013273 0.013273
                   Y-0.108807 0.162892-0.108807 0.013273-0.012024 0.010827
                   Z 0.108807-0.108807 0.162892-0.013273 0.010827-0.012024
  4   H            X 0.016712 0.013273-0.013273 0.162892 0.108807-0.108807
                   Y-0.013273-0.012024 0.010827 0.108807 0.162892-0.108807
                   Z 0.013273 0.010827-0.012024-0.108807-0.108807 0.162892
  5   H            X-0.012024-0.013273-0.010827-0.012024-0.010827-0.013273
                   Y 0.013273 0.016712 0.013273-0.010827-0.012024-0.013273
                   Z-0.010827-0.013273-0.012024 0.013273 0.013273 0.016712

                                   5
                               H         
                          X        Y        Z
  5   H            X 0.162892 0.108807 0.108807
                   Y 0.108807 0.162892 0.108807
                   Z 0.108807 0.108807 0.162892

          --------------------------------------------------------
          NORMAL COORDINATE ANALYSIS IN THE HARMONIC APPROXIMATION
          --------------------------------------------------------

          ATOMIC WEIGHTS (AMU)

    1     C                12.00000
    2     H                 1.00782
    3     H                 1.00782
    4     H                 1.00782
    5     H                 1.00782

 MODES    1 TO    6 ARE TAKEN AS ROTATIONS AND TRANSLATIONS.


 -------------------------------------------------------------------------------
         INTRINSIC VIBRATIONAL FREQUENCIES AND FORCE CONSTANTS
 FREQUENCIES AND FORCE CONSTANTS IN PARENTHESES SCALED BY 1.000 AND 1.000, RESP.
 -------------------------------------------------------------------------------
 INTERNAL COORDINATE        INTRINSIC FREQUENCIES
                                 (CM**-1)
 --------------------------------------------------

 STR.  1  2               3278.8       (3278.8    )
 STR.  1  3               3278.8       (3278.8    )
 STR.  1  4               3278.8       (3278.8    )
 STR.  1  5               3278.8       (3278.8    )
 BEND  2  1  3            1435.2       (1435.2    )
 BEND  2  1  4            1435.2       (1435.2    )
 BEND  3  1  5            1435.2       (1435.2    )
 BEND  4  1  5            1435.2       (1435.2    )
 BEND  3  1  4            1435.2       (1435.2    )
 BEND  2  1  5            1435.2       (1435.2    )

 --------------------------------------------------------------------
 INTERNAL COORDINATE                INTRINSIC FORCE CONSTANTS
                            (HARTREES/BOHR**2)        (MDYN/ANG)
 --------------------------------------------------------------------

 STR.  1  2                  0.3783  (  0.3783)      5.889  (  5.889)
 STR.  1  3                  0.3783  (  0.3783)      5.889  (  5.889)
 STR.  1  4                  0.3783  (  0.3783)      5.889  (  5.889)
 STR.  1  5                  0.3783  (  0.3783)      5.889  (  5.889)



      ------------------------------------
      TOTAL ENERGY DISTRIBUTION MATRIX M     (VIBR. CONTRIBUTIONS SUM TO 100 %)
      ------------------------------------

 PULAY AND TOROK, ACTA CHIM. ACAD. SCI. HUNG. 47, 273-297 (1966)


                              1           2           3           4
                          0.33317E-04 0.22413E-04 0.12300E-04 0.28135E-04
                               I           I                        

 STR.  1  2              0.00000000  0.00000000  0.00000000  0.00000000
 STR.  1  3              0.00000000  0.00000000  0.00000000  0.00000000
 STR.  1  4              0.00000000  0.00000000  0.00000000  0.00000000
 STR.  1  5              0.00000000  0.00000000  0.00000000  0.00000000
 BEND  2  1  3           0.00000000  0.00000000  0.00000000  0.00000000
 BEND  2  1  4           0.00000000  0.00000000  0.00000000  0.00000000
 BEND  3  1  5           0.00000000  0.00000000  0.00000000  0.00000000
 BEND  4  1  5           0.00000000  0.00000000  0.00000000  0.00000000
 BEND  3  1  4           0.00000000  0.00000000  0.00000000  0.00000000
 BEND  2  1  5           0.00000000  0.00000000  0.00000000  0.00000000

                              5           6           7           8
                          0.42594E-04 0.47427E-04  1488.0      1488.0    

 STR.  1  2              0.00000000  0.00000000 -0.00086221 -0.00003007
 STR.  1  3              0.00000000  0.00000000 -0.00183143 -0.00041384
 STR.  1  4              0.00000000  0.00000000 -0.00038512 -0.00045323
 STR.  1  5              0.00000000  0.00000000 -0.00003835 -0.00221995
 BEND  2  1  3           0.00000000  0.00000000  0.02902944  0.10733049
 BEND  2  1  4           0.00000000  0.00000000  0.38614114  0.11533793
 BEND  3  1  5           0.00000000  0.00000000  0.38614114  0.11533793
 BEND  4  1  5           0.00000000  0.00000000  0.02902944  0.10733049
 BEND  3  1  4           0.00000000  0.00000000  0.08638797  0.27889013
 BEND  2  1  5           0.00000000  0.00000000  0.08638797  0.27889013

                              9          10          11          12
                           1488.0      1702.6      1702.6      3197.0    

 STR.  1  2             -0.00144554  0.00000000  0.00000000  0.25000000
 STR.  1  3             -0.00009255  0.00000000  0.00000000  0.25000000
 STR.  1  4             -0.00149948  0.00000000  0.00000000  0.25000000
 STR.  1  5             -0.00007953  0.00000000 -0.00000000  0.25000000
 BEND  2  1  3           0.36519862  0.00393787  0.32939546  0.00000000
 BEND  2  1  4           0.00007948  0.27922141  0.05411192 -0.00000000
 BEND  3  1  5           0.00007948  0.27922141  0.05411192  0.00000000
 BEND  4  1  5           0.36519862  0.00393787  0.32939546  0.00000000
 BEND  3  1  4           0.13628045  0.21684072  0.11649261 -0.00000000
 BEND  2  1  5           0.13628045  0.21684072  0.11649261  0.00000000

                             13          14          15
                           3301.5      3301.5      3301.5    

 STR.  1  2              0.49563005  0.25030835  0.00639942
 STR.  1  3              0.18570156  0.00023104  0.56640522
 STR.  1  4              0.26388721  0.10296305  0.38548756
 STR.  1  5              0.05789827  0.64961465  0.04482490
 BEND  2  1  3          -0.00011586 -0.00036563 -0.00107705
 BEND  2  1  4          -0.00005627 -0.00104774 -0.00045454
 BEND  3  1  5          -0.00005627 -0.00104774 -0.00045454
 BEND  4  1  5          -0.00011586 -0.00036563 -0.00107705
 BEND  3  1  4          -0.00138641 -0.00014518 -0.00002696
 BEND  2  1  5          -0.00138641 -0.00014518 -0.00002696



          ------------------------------------
          NORMAL MODES IN INTERNAL COORDINATES
          ------------------------------------


                              1           2           3           4
                          0.33317E-04 0.22413E-04 0.12300E-04 0.28135E-04
                               I           I                        

 STR.  1  2              0.00000000  0.00000000 -0.00000000 -0.00000000
 STR.  1  3             -0.00000000  0.00000000 -0.00000000 -0.00000000
 STR.  1  4              0.00000000 -0.00000000  0.00000000 -0.00000000
 STR.  1  5             -0.00000000  0.00000000 -0.00000000  0.00000000
 BEND  2  1  3          -0.00000000 -0.00000000  0.00000000 -0.00000000
 BEND  2  1  4           0.00000000  0.00000000 -0.00000000 -0.00000000
 BEND  3  1  5           0.00000000 -0.00000000  0.00000000 -0.00000000
 BEND  4  1  5          -0.00000000  0.00000000 -0.00000000  0.00000000
 BEND  3  1  4          -0.00000000 -0.00000000  0.00000000 -0.00000000
 BEND  2  1  5           0.00000000 -0.00000000 -0.00000000  0.00000000

                              5           6           7           8
                          0.42594E-04 0.47427E-04  1488.0      1488.0    

 STR.  1  2             -0.00000000 -0.00000000 -0.01592556 -0.00297430
 STR.  1  3              0.00000000  0.00000000  0.02321045 -0.01103333
 STR.  1  4             -0.00000000 -0.00000000 -0.01064350 -0.01154645
 STR.  1  5              0.00000000  0.00000000  0.00335862  0.02555409
 BEND  2  1  3          -0.00000000 -0.00000000 -0.12871920  0.24750590
 BEND  2  1  4           0.00000000  0.00000000  0.46945832  0.25657249
 BEND  3  1  5          -0.00000000 -0.00000000 -0.46945832 -0.25657249
 BEND  4  1  5           0.00000000 -0.00000000  0.12871920 -0.24750590
 BEND  3  1  4          -0.00000000  0.00000000 -0.22204992  0.39897031
 BEND  2  1  5           0.00000000  0.00000000  0.22204992 -0.39897031

                              9          10          11          12
                           1488.0      1702.6      1702.6      3197.0    

 STR.  1  2             -0.02062073 -0.00000000  0.00000000  0.49805516
 STR.  1  3             -0.00521780 -0.00000000  0.00000000  0.49805516
 STR.  1  4              0.02100190  0.00000000  0.00000000  0.49805516
 STR.  1  5              0.00483662  0.00000000  0.00000000  0.49805516
 BEND  2  1  3           0.45655023 -0.05286873  0.48353391 -0.00000000
 BEND  2  1  4          -0.00673508  0.44518702 -0.19598129 -0.00000000
 BEND  3  1  5           0.00673508  0.44518702 -0.19598129  0.00000000
 BEND  4  1  5          -0.45655023 -0.05286873  0.48353391  0.00000000
 BEND  3  1  4          -0.27889504 -0.39231829 -0.28755262 -0.00000000
 BEND  2  1  5           0.27889504 -0.39231829 -0.28755262  0.00000000

                             13          14          15
                           3301.5      3301.5      3301.5    

 STR.  1  2             -0.73803762 -0.52449017 -0.08386293
 STR.  1  3              0.45175968  0.01593474 -0.78897512
 STR.  1  4              0.53852871 -0.33638792  0.65088591
 STR.  1  5             -0.25225076  0.84494335  0.22195214
 BEND  2  1  3           0.01571838  0.02792275  0.04792406
 BEND  2  1  4           0.01095424  0.04726739 -0.03113297
 BEND  3  1  5          -0.01095424 -0.04726739  0.03113297
 BEND  4  1  5          -0.01571838 -0.02792275 -0.04792406
 BEND  3  1  4          -0.05437279  0.01759481  0.00758193
 BEND  2  1  5           0.05437279 -0.01759481 -0.00758193

 ANALYZING SYMMETRY OF NORMAL MODES...
 WATCH OUT!! THE COUNTING OF DEGENERATE MODES COUNTS INDIVIDUAL MODES,
 E.G. 2*E MEANS ONE (1) SET OF DEGENERATE E MODES

 --- SYMMETRY FOR NORMAL MODES ---
 INCLUDING TRANSLATION AND ROTATION
    1*A1     0*A2     2*E      6*T1    10*T2  
 EXCLUDING TRANSLATION AND ROTATION (SAYVETZ < 0.01)
    1*A1     0*A2     2*E      0*T1     6*T2  

     FREQUENCIES IN CM**-1, IR INTENSITIES IN DEBYE**2/AMU-ANGSTROM**2,
     REDUCED MASSES IN AMU.

                            1           2           3           4           5
       FREQUENCY:         0.00        0.00        0.00        0.00        0.00  
        SYMMETRY:         T2          T2          T2          T2          T1  
    REDUCED MASS:      2.53372     2.52035     2.08607     1.30387     1.01249

  1   C            X  0.03758395  0.20833084  0.08636785  0.04341263 -0.00257580
                   Y  0.19181408 -0.09255963  0.12986955  0.00579024 -0.00877402
                   Z -0.12877272 -0.05125081  0.15065499  0.13688477  0.01830605
  2   H            X -0.05707419  0.03486487  0.08272253  0.01500526  0.01963950
                   Y  0.15901379 -0.19814998  0.05860635  0.13452642 -0.39724533
                   Z -0.19063057 -0.11912641  0.21827287 -0.02025878  0.42899266
  3   H            X  0.14605913  0.20491548 -0.05816453  0.25128951  0.41216963
                   Y  0.36214711 -0.02809938 -0.08228071  0.37081067 -0.00471520
                   Z -0.06691488  0.01662480  0.08303712  0.29402832 -0.39238056
  4   H            X -0.07089123  0.21174620  0.23090024 -0.16446425 -0.41732124
                   Y  0.22461437  0.01303073  0.20113274 -0.12294594  0.37969728
                   Z -0.20444761  0.05775491  0.36645058 -0.19972829 -0.00796808
  5   H            X  0.13224208  0.38179681  0.09001318  0.07182000 -0.02479111
                   Y  0.02148106 -0.15701987  0.34201980 -0.35923019 -0.01283285
                   Z -0.05309783 -0.16025652 -0.06514059  0.47349783  0.04458018

 TRANS. SAYVETZ    X  0.60251953  3.33981419  1.38458893  0.69596085 -0.04129349
                   Y  3.07502910 -1.48385112  2.08197767  0.09282513 -0.14065901
                   Z -2.06439416 -0.82161703  2.41519540  2.19444081  0.29346977
               TOTAL  3.75240683  3.74582801  3.47633231  2.30402874  0.32804666

   ROT. SAYVETZ    X  0.65552688 -0.19603983 -1.35084302  2.35340865 -1.83223806
                   Y -0.06585664  0.84307539  0.70626437 -0.85541153 -2.08270060
                   Z -0.96820110 -0.81051789  0.67151471 -1.12620952 -1.87092947
               TOTAL  1.17109605  1.18581068  1.66568852  2.74565275  3.34591022

                            6           7           8           9          10
       FREQUENCY:         0.00     1487.99     1487.99     1487.99     1702.61  
        SYMMETRY:         T1          T2          T2          T2          E   
    REDUCED MASS:      1.12747     1.17814     1.17814     1.17814     1.00782

  1   C            X  0.09062552  0.04759445 -0.08551578  0.05977870 -0.00000000
                   Y  0.00643716 -0.10062427 -0.05499406  0.00144361 -0.00000000
                   Z -0.03740902  0.02758983 -0.05305072 -0.09785754  0.00000000
  2   H            X  0.54636069 -0.00480675  0.45703353  0.00273793  0.32799170
                   Y  0.25797712  0.26203994  0.22454141 -0.29971066  0.37219180
                   Z  0.16678618 -0.35989171  0.21511478  0.18197210 -0.04420009
  3   H            X  0.10344059  0.09860104  0.25819732 -0.36403603 -0.32799170
                   Y -0.18494298  0.15863215  0.42337762  0.06706330 -0.37219180
                   Z -0.24160423  0.19563800  0.10071814  0.40061438 -0.04420009
  4   H            X  0.07781045 -0.38195055  0.25091359  0.00814862 -0.32799170
                   Y -0.24510281  0.33701806  0.10286104  0.29111627  0.37219180
                   Z -0.30176406  0.01725209  0.42123472  0.17656141  0.04420009
  5   H            X -0.36510965 -0.27854275  0.05207738 -0.35862534  0.32799170
                   Y  0.19781729  0.44042585 -0.09597517 -0.07565768 -0.37219180
                   Z  0.22694601 -0.18150579 -0.10540180  0.40602507  0.04420009

 TRANS. SAYVETZ    X  1.45284488 -0.00000000  0.00000000 -0.00000000  0.00000000
                   Y  0.10319597  0.00000000  0.00000000 -0.00000000 -0.00000000
                   Z -0.59971529  0.00000000  0.00000000  0.00000000  0.00000000
               TOTAL  1.57514002  0.00000000  0.00000000  0.00000000  0.00000000

   ROT. SAYVETZ    X  0.28674182 -0.00000000  0.00000000  0.00000000  0.00000000
                   Y -2.23326670  0.00000000 -0.00000000 -0.00000000 -0.00000000
                   Z  2.11110488  0.00000000 -0.00000000  0.00000000 -0.00000000
               TOTAL  3.08649718  0.00000000  0.00000000  0.00000000  0.00000000

                           11          12          13          14          15
       FREQUENCY:      1702.61     3197.04     3301.54     3301.54     3301.54  
        SYMMETRY:         E           A1          T2          T2          T2  
    REDUCED MASS:      1.00782     1.00782     1.10239     1.10239     1.10239

  1   C            X  0.00000000  0.00000000  0.08331747 -0.02696118 -0.01161807
                   Y -0.00000000  0.00000000 -0.01678559 -0.07242959  0.04770622
                   Z -0.00000000 -0.00000000 -0.02408587 -0.04278708 -0.07343584
  2   H            X  0.24040397  0.28755228 -0.37709668 -0.28363507 -0.04667864
                   Y -0.16384716 -0.28755228  0.38917943  0.26558487  0.05323255
                   Z  0.40425113 -0.28755228  0.38785363  0.27096820  0.03123213
  3   H            X -0.24040397 -0.28755228 -0.22495514 -0.01336485  0.41718847
                   Y  0.16384716  0.28755228  0.23703789 -0.00468535 -0.41063456
                   Z  0.40425113 -0.28755228 -0.24446049 -0.01623897  0.40596184
  4   H            X -0.24040397 -0.28755228 -0.27106827  0.17387595 -0.34802126
                   Y -0.16384716 -0.28755228 -0.28924783  0.16561850 -0.33724747
                   Z -0.40425113  0.28755228  0.28182523 -0.18654282  0.33257475
  5   H            X  0.24040397  0.28755228 -0.11892674  0.44414617  0.11584585
                   Y  0.16384716  0.28755228 -0.13710630  0.43588873  0.12661964
                   Z -0.40425113  0.28755228 -0.13843209  0.44127206  0.10461922

 TRANS. SAYVETZ    X  0.00000000  0.00000000 -0.00000000 -0.00000000  0.00000000
                   Y  0.00000000  0.00000000 -0.00000000  0.00000000 -0.00000000
                   Z -0.00000000 -0.00000000 -0.00000000 -0.00000000  0.00000000
               TOTAL  0.00000000  0.00000000  0.00000000  0.00000000  0.00000000

   ROT. SAYVETZ    X -0.00000000 -0.00000000  0.00000000 -0.00000000 -0.00000000
                   Y -0.00000000  0.00000000 -0.00000000  0.00000000  0.00000000
                   Z -0.00000000  0.00000000  0.00000000  0.00000000  0.00000000
               TOTAL  0.00000000  0.00000000  0.00000000  0.00000000  0.00000000

 REFERENCE ON SAYVETZ CONDITIONS - A. SAYVETZ, J.CHEM.PHYS., 7, 383-389(1939).

 NOTE - THE MODES J,K ARE ORTHONORMALIZED ACCORDING TO
 SUM ON I   M(I) * (X(I,J)*X(I,K) + Y(I,J)*Y(I,K) + Z(I,J)*Z(I,K)) = DELTA(J,K)

     -------------------------------
     THERMOCHEMISTRY AT T=  298.15 K
     -------------------------------

 USING IDEAL GAS, RIGID ROTOR, HARMONIC NORMAL MODE APPROXIMATIONS.
 P=  1.01325E+05 PASCAL.
 ALL FREQUENCIES ARE SCALED BY   1.00000
 THE MOMENTS OF INERTIA ARE (IN AMU*BOHR**2)
     11.27077    11.27077    11.27077
 THE ROTATIONAL SYMMETRY NUMBER IS 12.0
 THE ROTATIONAL CONSTANTS ARE (IN GHZ)
    159.97911   159.97911   159.97911
      7 -     15 VIBRATIONAL MODES ARE USED IN THERMOCHEMISTRY.
 THE HARMONIC ZERO POINT ENERGY IS (SCALED BY   1.000)
        0.047775 HARTREE/MOLECULE    10485.417146 CM**-1/MOLECULE 
       29.979342 KCAL/MOL              125.433567 KJ/MOL

               Q               LN Q
 ELEC.     1.00000E+00       0.000000
 TRANS.    2.52294E+06      14.740935
 ROT.      3.56936E+01       3.574972
 VIB.      1.00283E+00       0.002826
 TOT.      9.03077E+07      18.318733

              E         H         G         CV        CP        S
           KJ/MOL    KJ/MOL    KJ/MOL   J/MOL-K   J/MOL-K   J/MOL-K
 ELEC.      0.000     0.000     0.000     0.000     0.000     0.000
 TRANS.     3.718     6.197   -36.542    12.472    20.786   143.348
 ROT.       3.718     3.718    -8.862    12.472    12.472    42.195
 VIB.     125.485   125.485   125.427     1.285     1.285     0.197
 TOTAL    132.922   135.401    80.023    26.228    34.543   185.741
 VIB. THERMAL CORRECTION E(T)-E(0) = H(T)-H(0) =    51.712 J/MOL

              E         H         G         CV        CP        S
         KCAL/MOL  KCAL/MOL  KCAL/MOL CAL/MOL-K CAL/MOL-K CAL/MOL-K
 ELEC.      0.000     0.000     0.000     0.000     0.000     0.000
 TRANS.     0.889     1.481    -8.734     2.981     4.968    34.261
 ROT.       0.889     0.889    -2.118     2.981     2.981    10.085
 VIB.      29.992    29.992    29.978     0.307     0.307     0.047
 TOTAL     31.769    32.362    19.126     6.269     8.256    44.393
 VIB. THERMAL CORRECTION E(T)-E(0) = H(T)-H(0) =    12.360 CAL/MOL
 ......END OF NORMAL COORDINATE ANALYSIS......
 STEP CPU TIME =     0.00 TOTAL CPU TIME =        0.0 (    0.0 MIN)
 TOTAL WALL CLOCK TIME=        0.1 SECONDS, CPU UTILIZATION IS  25.00%
               580000  WORDS OF DYNAMIC MEMORY USED
 EXECUTION OF GAMESS TERMINATED NORMALLY Tue Nov 29 00:37:45 2016
 DDI: 263640 bytes (0.3 MB / 0 MWords) used by master data server.

 ----------------------------------------
 CPU timing information for all processes
 ========================================
 0: 0.20 + 0.28 = 0.49
 ----------------------------------------
 ddikick.x: exited gracefully.
unset echo
----- accounting info -----
Files used on the master node compute-3-0 were:
-rw-rw-r-- 1 sarom sarom    9533 Nov 29  2016 .//vibdecomp.dat
-rw-rw-r-- 1 sarom sarom    4955 Nov 29  2016 .//vibdecomp.F05
-rw-rw-r-- 1 sarom sarom       0 Nov 29  2016 .//vibdecomp.F08
-rw-rw-r-- 1 sarom sarom 1341520 Nov 29  2016 .//vibdecomp.F10
-rw-rw-r-- 1 sarom sarom    4955 Nov 28 17:27 .//vibdecomp.inp
-rw-rw-r-- 1 sarom sarom   39371 Nov 29  2016 .//vibdecomp.log
Tue Nov 29 00:37:51 CST 2016
0.201u 0.577s 0:06.15 12.5%	0+0k 0+144io 0pf+0w
