----- GAMESS execution script 'rungms' -----
This job is running on host compute-3-0
under operating system Linux at Tue Nov 29 00:37:51 CST 2016
Available scratch disk space (Kbyte units) at beginning of the job is
Filesystem            1K-blocks       Used  Available Use% Mounted on
bolt.local:/export/home/sarom
                     9590469632 1553718272 7549583360  18% /home/sarom
Copying input file vscf-h2o.inp to your run's scratch directory...
cp vscf-h2o.inp .//vscf-h2o.F05
unset echo
/home/sarom/gamessGH/ddikick.x /home/sarom/gamessGH/gamess.00.x vscf-h2o -ddi 1 1 localhost -scr ./

 Distributed Data Interface kickoff program.
 Initiating 1 compute processes on 1 nodes to run the following command:
 /home/sarom/gamessGH/gamess.00.x vscf-h2o 

          ******************************************************
          *         GAMESS VERSION = 18 AUG 2016 (R1)          *
          *             FROM IOWA STATE UNIVERSITY             *
          * M.W.SCHMIDT, K.K.BALDRIDGE, J.A.BOATZ, S.T.ELBERT, *
          *   M.S.GORDON, J.H.JENSEN, S.KOSEKI, N.MATSUNAGA,   *
          *          K.A.NGUYEN, S.J.SU, T.L.WINDUS,           *
          *       TOGETHER WITH M.DUPUIS, J.A.MONTGOMERY       *
          *         J.COMPUT.CHEM.  14, 1347-1363(1993)        *
          **************** 64 BIT LINUX VERSION ****************

  SINCE 1993, STUDENTS AND POSTDOCS WORKING AT IOWA STATE UNIVERSITY
  AND ALSO IN THEIR VARIOUS JOBS AFTER LEAVING ISU HAVE MADE IMPORTANT
  CONTRIBUTIONS TO THE CODE:
     IVANA ADAMOVIC, CHRISTINE AIKENS, YURI ALEXEEV, POOJA ARORA,
     ANDREY ASADCHEV, ROB BELL, PRADIPTA BANDYOPADHYAY, JONATHAN BENTZ,
     BRETT BODE, KURT BRORSEN, CALEB CARLIN, GALINA CHABAN, WEI CHEN,
     CHEOL HO CHOI, PAUL DAY, ALBERT DEFUSCO, NUWAN DESILVA, TIM DUDLEY,
     DMITRI FEDOROV, GRAHAM FLETCHER, MARK FREITAG, KURT GLAESEMANN,
     DAN KEMP, GRANT MERRILL, NORIYUKI MINEZAWA, JONATHAN MULLIN,
     TAKESHI NAGATA, SEAN NEDD, HEATHER NETZLOFF, BOSILJKA NJEGIC, RYAN OLSON,
     MIKE PAK, SPENCER PRUITT, LUKE ROSKOP, JIM SHOEMAKER, LYUDMILA SLIPCHENKO,
     TONY SMITH, SAROM SOK LEANG, JIE SONG, TETSUYA TAKETSUGU, SIMON WEBB,
     PENG XU, SOOHAENG YOO, FEDERICO ZAHARIEV

  ADDITIONAL CODE HAS BEEN PROVIDED BY COLLABORATORS IN OTHER GROUPS:
     IOWA STATE UNIVERSITY:
          JOE IVANIC, AARON WEST, LAIMUTIS BYTAUTAS, KLAUS RUEDENBERG
     UNIVERSITY OF TOKYO: KIMIHIKO HIRAO, TAKAHITO NAKAJIMA,
          TAKAO TSUNEDA, MUNEAKI KAMIYA, SUSUMU YANAGISAWA,
          KIYOSHI YAGI, MAHITO CHIBA, SEIKEN TOKURA, NAOAKI KAWAKAMI
     UNIVERSITY OF AARHUS: FRANK JENSEN
     UNIVERSITY OF IOWA: VISVALDAS KAIRYS, HUI LI
     NATIONAL INST. OF STANDARDS AND TECHNOLOGY: WALT STEVENS, DAVID GARMER
     UNIVERSITY OF PISA: BENEDETTA MENNUCCI, JACOPO TOMASI
     UNIVERSITY OF MEMPHIS: HENRY KURTZ, PRAKASHAN KORAMBATH
     UNIVERSITY OF ALBERTA: TOBY ZENG, MARIUSZ KLOBUKOWSKI
     UNIVERSITY OF NEW ENGLAND: MARK SPACKMAN
     MIE UNIVERSITY: HIROAKI UMEDA
     NAT. INST. OF ADVANCED INDUSTRIAL SCIENCE AND TECHNOLOGY: KAZUO KITAURA
     MICHIGAN STATE UNIVERSITY:
          KAROL KOWALSKI, MARTA WLOCH, JEFFREY GOUR, JESSE LUTZ,
          WEI LI, PIOTR PIECUCH
     UNIVERSITY OF SILESIA: MONIKA MUSIAL, STANISLAW KUCHARSKI
     FACULTES UNIVERSITAIRES NOTRE-DAME DE LA PAIX:
          OLIVIER QUINET, BENOIT CHAMPAGNE
     UNIVERSITY OF CALIFORNIA - SANTA BARBARA: BERNARD KIRTMAN
     INSTITUTE FOR MOLECULAR SCIENCE:
          KAZUYA ISHIMURA, MICHIO KATOUDA, AND SHIGERU NAGASE
     UNIVERSITY OF NOTRE DAME: ANNA POMOGAEVA, DAN CHIPMAN
     KYUSHU UNIVERSITY:
          HARUYUKI NAKANO,
          FENG LONG GU, JACEK KORCHOWIEC, MARCIN MAKOWSKI, AND YURIKO AOKI,
          HIROTOSHI MORI AND EISAKU MIYOSHI
     PENNSYLVANIA STATE UNIVERSITY:
          TZVETELIN IORDANOV, CHET SWALINA, JONATHAN SKONE,
          SHARON HAMMES-SCHIFFER
     WASEDA UNIVERSITY:
          MASATO KOBAYASHI, TOMOKO AKAMA, TSUGUKI TOUMA,
          TAKESHI YOSHIKAWA, YASUHIRO IKABATA, JUNJI SEINO,
          YUYA NAKAJIMA, HIROMI NAKAI
     NANJING UNIVERSITY: SHUHUA LI
     UNIVERSITY OF NEBRASKA:
          PEIFENG SU, DEJUN SI, NANDUN THELLAMUREGE, YALI WANG, HUI LI
     UNIVERSITY OF ZURICH: ROBERTO PEVERATI, KIM BALDRIDGE
     N. COPERNICUS UNIVERSITY AND JACKSON STATE UNIVERSITY:
          MARIA BARYSZ
     UNIVERSITY OF COPENHAGEN: Jimmy Kromann, CASPER STEINMANN
     TOKYO INSTITUTE OF TECHNOLOGY: HIROYA NAKATA
     NAGOYA UNIVERSITY: YOSHIO NISHIMOTO, STEPHAN IRLE
     MOSCOW STATE UNIVERSITY: VLADIMIR MIRONOV

 EXECUTION OF GAMESS BEGUN Tue Nov 29 00:37:51 2016

            ECHO OF THE FIRST FEW INPUT CARDS -
 INPUT CARD>!   Test of VSCF anharmonic frequency computation for water...MP2/TZV(d,p)      
 INPUT CARD>!   MP2 level $HESS and $DIPDR, and RHF level $VEC are included below.          
 INPUT CARD>!   VSCF restart is present, but is intentially not used.                       
 INPUT CARD>!                                                                               
 INPUT CARD>!   RESULTS OF VIBRATIONAL SCF CALCULATION: (FREQUENCIES IN CM-1)               
 INPUT CARD>!   MODE  HARMONIC   DIAGONAL     VSCF      PT2-VSCF   VCI-VSCF  DPT2-VSCF      
 INPUT CARD>!     9    4014.85    4058.00    3813.08    3763.20    3831.43       0.00       
 INPUT CARD>!     8    3876.74    3742.53    3721.53    3673.95    3683.87       0.00       
 INPUT CARD>!     7    1603.34    1581.86    1538.94    1532.19    1554.51       0.00       
 INPUT CARD>!              the anharmonic ZPE is 4694.56 wavenumbers.                       
 INPUT CARD>!   The intensities for the PT2-VSCF solution are 50.01, 2.23, 82.43 km/mol     
 INPUT CARD>!                                                                               
 INPUT CARD>!   This run takes 61 seconds on 2.66 GHz Cloverton (14 Jul 2016)               
 INPUT CARD>!   results haven't changed much since 2008                                     
 INPUT CARD>!                                                                               
 INPUT CARD>!   ------------------------------------------------------------------------    
 INPUT CARD>!   information about grid density, and overtone/combinations follows.          
 INPUT CARD>!                                                                               
 INPUT CARD>!                            ------- ngrid=8 -------  ------- ngrid=16 ------   
 INPUT CARD>!     harmonic     harmonic    pt2-vscf   pt2-vscf      pt2-vscf   pt2-vscf     
 INPUT CARD>!    frequencies intensities frequencies intensities  frequencies intensities   
 INPUT CARD>!      4014.85      50.35       3763.20     49.69       3797.42      49.32      
 INPUT CARD>!      3876.74       7.05       3673.95      5.46       3699.03       5.33      
 INPUT CARD>!      1603.34      76.12       1532.19     77.20       1547.73      76.76      
 INPUT CARD>!                                                                               
 INPUT CARD>!    experimental results: fundamental frequencies= 3756, 3652, 1595            
 INPUT CARD>!                                                                               
 INPUT CARD>!    For ngrid=16,                   (intensities are in parenthesis)           
 INPUT CARD>!    The following results are easily generated by reading in the restart       
 INPUT CARD>!    data, and adjusting the requested states as shown.                         
 INPUT CARD>! x  IEXC=2 1st overtones=  7,423.11  7,280.14 3,070.14 (0.05, 0.96, 1.81)      
 INPUT CARD>! x  IEXC=3 2nd overtones= 10,928.41 10,776.20 4,562.90 (2.33, 0.04, 0.05)      
 INPUT CARD>! x  IEXC=1 IEXC2=1 produces the same first overtones, and the combinations     
 INPUT CARD>!             110= 7,320.19(5.62)   101=5,276.68(5.18)   011=5,276.71(0.00)     
 INPUT CARD>! x  IEXC=2 IEXC2=1 produced the same   2nd overtones, and the combinations     
 INPUT CARD>!             120=10,535.22(0.61)   102=6,746.67(0.03)   012=6,777.78(0.00)     
 INPUT CARD>! x  IEXC=1 IEXC2=2 produced the same first overtones, and the combinations     
 INPUT CARD>!             210=10,644.99(0.05)   201=8,796.02(1.47)   021=8,771.23(0.00)     
 INPUT CARD>!    the last two seem very strange, why do we have to do two separate          
 INPUT CARD>!    runs to get the full set of 1+2 modes?  How to guess which state           
 INPUT CARD>!    would appear in which of the two runs?                                     
 INPUT CARD>!                                                                               
 INPUT CARD>!    There's no way to get the 111 state, seemingly.                            
 INPUT CARD>!                                                                               
 INPUT CARD> $contrl scftyp=rhf mplevl=2 coord=zmt runtyp=vscf nzvar=3 $end                 
 INPUT CARD> $system mwords=9 memddi=20 $end                                                
 INPUT CARD> $basis  gbasis=tzv ndfunc=1 npfunc=1 $end                                      
 INPUT CARD> $guess  guess=moread norb=32 $end                                              
 INPUT CARD> $vscf   petyp=direct ngrid=8 ncoup=2 iexc=1 iexc2=0                            
 INPUT CARD>         readv=.f. vdpt=.f. vci=.t. $end                                        
    9000000 WORDS OF MEMORY AVAILABLE

     BASIS OPTIONS
     -------------
     GBASIS=TZV          IGAUSS=       0      POLAR=HONDO7  
     NDFUNC=       1     NFFUNC=       0     DIFFSP=       F
     NPFUNC=       1      DIFFS=       F     BASNAM=        


     RUN TITLE
     ---------
 Water...TZP basis                                                               

 THE POINT GROUP OF THE MOLECULE IS CNV     
 THE ORDER OF THE PRINCIPAL AXIS IS     2

 YOUR FULLY SUBSTITUTED Z-MATRIX IS
 O   
 H      1   0.9576197
 H      1   0.9576197  2  104.9666

 THE MOMENTS OF INERTIA ARE (AMU-ANGSTROM**2)
 IXX=     0.609   IYY=     1.163   IZZ=     1.772

 ATOM      ATOMIC                      COORDINATES (BOHR)
           CHARGE         X                   Y                   Z
 O           8.0     0.0000000000        0.0000000000       -0.1233365597
 H           1.0    -1.4353619135        0.0000000000        0.9787201016
 H           1.0     1.4353619135        0.0000000000        0.9787201016

          INTERNUCLEAR DISTANCES (ANGS.)
          ------------------------------

                1 O          2 H          3 H     

   1 O       0.0000000    0.9576197 *  0.9576197 *
   2 H       0.9576197 *  0.0000000    1.5191217 *
   3 H       0.9576197 *  1.5191217 *  0.0000000  

  * ... LESS THAN  3.000


     ATOMIC BASIS SET
     ----------------
 THE CONTRACTED PRIMITIVE FUNCTIONS HAVE BEEN UNNORMALIZED
 THE CONTRACTED BASIS FUNCTIONS ARE NOW NORMALIZED TO UNITY

  SHELL TYPE  PRIMITIVE        EXPONENT          CONTRACTION COEFFICIENT(S)

 O         

      1   S       1         18050.0000000    0.000756999830
      1   S       2          2660.0000000    0.006065998635
      1   S       3           585.7000000    0.032781992623
      1   S       4           160.9000000    0.132608970160
      1   S       5            51.1600000    0.396838910703
      1   S       6            17.9000000    0.542571877910

      2   S       7            17.9000000    0.262489933687
      2   S       8             6.6390000    0.769827805517

      3   S       9             2.0770000    1.000000000000

      4   S      10             0.7736000    1.000000000000

      5   S      11             0.2558000    1.000000000000

      6   P      12            49.8300000    0.016357993061
      6   P      13            11.4900000    0.106452954840
      6   P      14             3.6090000    0.349301851817
      6   P      15             1.3210000    0.657182721206

      7   P      16             0.4821000    1.000000000000

      8   P      17             0.1651000    1.000000000000

      9   D      18             1.2800000    1.000000000000

 H         

     14   S      19            33.6400000    0.025373656982
     14   S      20             5.0580000    0.189681435760
     14   S      21             1.1470000    0.852921469637

     15   S      22             0.3211000    1.000000000000

     16   S      23             0.1013000    1.000000000000

     17   P      24             1.0000000    1.000000000000

 TOTAL NUMBER OF BASIS SET SHELLS             =   17
 NUMBER OF CARTESIAN GAUSSIAN BASIS FUNCTIONS =   32
 NUMBER OF ELECTRONS                          =   10
 CHARGE OF MOLECULE                           =    0
 SPIN MULTIPLICITY                            =    1
 NUMBER OF OCCUPIED ORBITALS (ALPHA)          =    5
 NUMBER OF OCCUPIED ORBITALS (BETA )          =    5
 TOTAL NUMBER OF ATOMS                        =    3
 THE NUCLEAR REPULSION ENERGY IS        9.1898874447

     $CONTRL OPTIONS
     ---------------
 SCFTYP=RHF          RUNTYP=VSCF         EXETYP=RUN     
 MPLEVL=       2     CITYP =NONE         CCTYP =NONE         VBTYP =NONE    
 DFTTYP=NONE         TDDFT =NONE    
 MULT  =       1     ICHARG=       0     NZVAR =       3     COORD =ZMT     
 PP    =NONE         RELWFN=NONE         LOCAL =NONE         NUMGRD=       F
 ISPHER=      -1     NOSYM =       0     MAXIT =      30     UNITS =ANGS    
 PLTORB=       F     MOLPLT=       F     AIMPAC=       F     FRIEND=        
 NPRINT=       7     IREST =       0     GEOM  =INPUT   
 NORMF =       0     NORMP =       0     ITOL  =      20     ICUT  =       9
 INTTYP=BEST         GRDTYP=BEST         QMTTOL= 1.0E-06

     $SYSTEM OPTIONS
     ---------------
  REPLICATED MEMORY=     9000000 WORDS (ON EVERY NODE).
 DISTRIBUTED MEMDDI=          20 MILLION WORDS IN AGGREGATE,
 MEMDDI DISTRIBUTED OVER   1 PROCESSORS IS    20000000 WORDS/PROCESSOR.
 TOTAL MEMORY REQUESTED ON EACH PROCESSOR=    29000000 WORDS.
 TIMLIM=      525600.00 MINUTES, OR     365.0 DAYS.
 PARALL= F  BALTYP=  DLB     KDIAG=    0  COREFL= F
 MXSEQ2=     300 MXSEQ3=     150  mem10=         0

          ----------------
          PROPERTIES INPUT
          ----------------

     MOMENTS            FIELD           POTENTIAL          DENSITY
 IEMOM =       1   IEFLD =       0   IEPOT =       0   IEDEN =       0
 WHERE =COMASS     WHERE =NUCLEI     WHERE =NUCLEI     WHERE =NUCLEI  
 OUTPUT=BOTH       OUTPUT=BOTH       OUTPUT=BOTH       OUTPUT=BOTH    
 IEMINT=       0   IEFINT=       0                     IEDINT=       0
                                                       MORB  =       0
          EXTRAPOLATION IN EFFECT
          SOSCF IN EFFECT
 ORBITAL PRINTING OPTION: NPREO=     1    32     2     1

     -------------------------------
     INTEGRAL TRANSFORMATION OPTIONS
     -------------------------------
     NWORD  =            0
     CUTOFF = 1.0E-09     MPTRAN =       0
     DIRTRF =       F     AOINTS =DUP     

          ----------------------
          INTEGRAL INPUT OPTIONS
          ----------------------
 NOPK  =       1 NORDER=       0 SCHWRZ=       F

          -----------------------
          MP2 CONTROL INFORMATION
          -----------------------
          NACORE =        1  NBCORE =        1
          LMOMP2 =        F  AOINTS = DUP     
          METHOD =        2  NWORD  =               0
          MP2PRP =        F  OSPT   = NONE    
          CUTOFF = 1.00E-09  CPHFBS = BASISAO 
          CODE   = IMS     

          NUMBER OF CORE -A-  ORBITALS =     1
          NUMBER OF CORE -B-  ORBITALS =     1
          NUMBER OF OCC. -A-  ORBITALS =     5
          NUMBER OF OCC. -B-  ORBITALS =     5
          NUMBER OF MOLECULAR ORBITALS =    32
          NUMBER OF   BASIS  FUNCTIONS =    32


   --- ENCODED Z MATRIX ---
 COORD  TYPE   I   J   K   L   M   N
    1      1    3   1
    2      1    2   1
    3      2    2   1   3

 THE DETERMINANT OF THE G MATRIX IS 10**(    -1)


                     --------------------
                     INTERNAL COORDINATES
                     --------------------

                 - - ATOMS - -         COORDINATE      COORDINATE
 NO.   TYPE    I  J  K  L  M  N        (BOHR,RAD)       (ANG,DEG)
 ----------------------------------------------------------------
   1 STRETCH   3  1                     1.8096388       0.9576197
   2 STRETCH   2  1                     1.8096388       0.9576197
   3 BEND      2  1  3                  1.8320129     104.9666058

     ------------------------------------------
     THE POINT GROUP IS CNV, NAXIS= 2, ORDER= 4
     ------------------------------------------

     DIMENSIONS OF THE SYMMETRY SUBSPACES ARE
 A1  =   16     A2  =    2     B1  =    9     B2  =    5

 ..... DONE SETTING UP THE RUN .....
 STEP CPU TIME =     0.22 TOTAL CPU TIME =        0.2 (    0.0 MIN)
 TOTAL WALL CLOCK TIME=        0.2 SECONDS, CPU UTILIZATION IS  91.67%

               ---------------------
               VSCF INPUT PARAMETERS
               ---------------------
       PETYP=   DIRECT     NCOUP=       2     NGRID=       8
      PESALL=        T    CUTOFF= 0.0E+00
      INTCRD=        F     STPSZ= 5.0E-01
        DMDR=        F     MPDIP=       T    PROJCT=       T
       READV=        F     VCFCT=    1.00
        VDPT=        F       VCI=       T     SFACT= 1.0E-04
       ICAS1=        1     ICAS2=       3
        IEXC=        1     IEXC2=       0



 PES NEEDED FOR VSCF CALCULATION IS GOING TO BE
 GENERATED USING NORMAL MODE DISPLACEMENTS
 IN INTERNAL COORDINATES OF INTTYP=    0


 $HESS GROUP READ FROM CARDS
 ENERGY IS      -76.2740333612 E(NUC) IS        9.1898874447                     
         5605 WORDS OF MEMORY ARE NEEDED FOR VSCF STORAGE

 HARMONIC VIBRATIONAL ANALYSIS FOR THE INPUT HESSIAN

          --------------------------------------------------------
          NORMAL COORDINATE ANALYSIS IN THE HARMONIC APPROXIMATION
          --------------------------------------------------------

          ATOMIC WEIGHTS (AMU)

    1     O                15.99491
    2     H                 1.00782
    3     H                 1.00782

 MODES    1 TO    6 ARE TAKEN AS ROTATIONS AND TRANSLATIONS.

 ANALYZING SYMMETRY OF NORMAL MODES...

 --- SYMMETRY FOR NORMAL MODES ---
 INCLUDING TRANSLATION AND ROTATION
    7*A1     5*A2     6*B1     6*B2  
 EXCLUDING TRANSLATION AND ROTATION (SAYVETZ < 0.01)
    2*A1     0*A2     1*B1     0*B2  

     FREQUENCIES IN CM**-1, IR INTENSITIES IN DEBYE**2/AMU-ANGSTROM**2,
     REDUCED MASSES IN AMU.

                            1           2           3           4           5
       FREQUENCY:         0.00        0.00        0.00        0.00        0.00  
        SYMMETRY:         B2          B2          B2          B2          B2  
    REDUCED MASS:      1.23750     1.40205    15.99491     1.51899     2.05600
    IR INTENSITY:      2.13954     2.19248     0.91543     2.12709     1.68692

  1   O            X  0.07680275  0.06873236  0.00000000 -0.11966460  0.14728824
                   Y  0.00000000  0.00000000  0.25003978  0.00000000  0.00000000
                   Z  0.08052857  0.11847828  0.00000000  0.09018944 -0.11100897
  2   H            X  0.34868613 -0.25672223  0.00000000 -0.05041805  0.06205666
                   Y -0.00000000 -0.00000000  0.00000000  0.77311338  0.62811739
                   Z  0.43464017 -0.30540658  0.00000000  0.18037888 -0.22201793
  3   H            X  0.34868613 -0.25672223  0.00000000 -0.05041805  0.06205666
                   Y  0.53737946  0.41861412  0.00000000 -0.02353097  0.02896291
                   Z -0.27358304  0.54236313  0.00000000  0.00000000  0.00000000

 TRANS. SAYVETZ    X  1.93128230  0.58190578  0.00000000 -2.01564969  2.48094669
                   Y  0.54158445  0.42188978  3.99936370  0.75544789  0.66222195
                   Z  1.45036457  2.13386013  0.00000000  1.62436229 -1.99933365
               TOTAL  2.47522169  2.25165814  3.99936370  2.69668279  3.25437696

   ROT. SAYVETZ    X -0.53005959 -0.41291200  0.49326776 -0.73937204 -0.64812994
                   Y  1.56087106 -1.86842115  0.00000000  0.39754158 -0.48931095
                   Z  0.77736970  0.60556452  0.00000000 -1.15242064 -0.86673304
               TOTAL  1.82252168  2.00703819  0.49326776  1.42575722  1.18773894

                            6           7           8           9
       FREQUENCY:         0.00     1603.35     3876.75     4014.86  
        SYMMETRY:         B2          A1          A1          B1  
    REDUCED MASS:      1.64460     1.08241     1.04541     1.08232
    IR INTENSITY:      1.92951     1.80153     0.16685     1.19158

  1   O            X -0.10625947 -0.00000000 -0.00000000 -0.06776850
                   Y -0.00000000  0.00000000 -0.00000000 -0.00000000
                   Z -0.12059811 -0.06780668 -0.04898124  0.00000000
  2   H            X -0.11420440  0.41244796 -0.57096809  0.53776752
                   Y -0.00000000  0.00000000 -0.00000000  0.00000000
                   Z -0.13094589  0.53807043  0.38868381 -0.41289257
  3   H            X -0.11420440 -0.41244796  0.57096809  0.53776752
                   Y  0.72582969  0.00000000 -0.00000000 -0.00000000
                   Z -0.11025033  0.53807043  0.38868381  0.41289257

 TRANS. SAYVETZ    X -1.92980678 -0.00000000  0.00000000 -0.00000000
                   Y  0.73150930  0.00000000 -0.00000000  0.00000000
                   Z -2.17203952 -0.00000000  0.00000000 -0.00000000
               TOTAL  2.99616684  0.00000000  0.00000000  0.00000000

   ROT. SAYVETZ    X -0.71594286 -0.00000000  0.00000000 -0.00000000
                   Y -0.04561147 -0.00000000  0.00000000  0.00000000
                   Z  1.04998059  0.00000000  0.00000000 -0.00000000
               TOTAL  1.27165791  0.00000000  0.00000000  0.00000000

 REFERENCE ON SAYVETZ CONDITIONS - A. SAYVETZ, J.CHEM.PHYS., 7, 383-389(1939).

 NOTE - THE MODES J,K ARE ORTHONORMALIZED ACCORDING TO
 SUM ON I   M(I) * (X(I,J)*X(I,K) + Y(I,J)*Y(I,K) + Z(I,J)*Z(I,K)) = DELTA(J,K)

  MODE FREQ(CM**-1)  SYMMETRY  RED. MASS  IR INTENS.
     1       0.000    B2       1.237495    2.139536
     2       0.000    B2       1.402048    2.192479
     3       0.000    B2      15.994910    0.915427
     4       0.000    B2       1.518990    2.127090
     5       0.000    B2       2.056001    1.686916
     6       0.000    B2       1.644599    1.929508
     7    1603.346    A1       1.082410    1.801533
     8    3876.753    A1       1.045414    0.166845
     9    4014.857    B1       1.082320    1.191582

     -------------------------------
     THERMOCHEMISTRY AT T=  298.15 K
     -------------------------------

 USING IDEAL GAS, RIGID ROTOR, HARMONIC NORMAL MODE APPROXIMATIONS.
 P=  1.01325E+05 PASCAL.
 ALL FREQUENCIES ARE SCALED BY   1.00000
 THE MOMENTS OF INERTIA ARE (IN AMU*BOHR**2)
      2.17409     4.15277     6.32686
 THE ROTATIONAL SYMMETRY NUMBER IS  2.0
 THE ROTATIONAL CONSTANTS ARE (IN GHZ)
    829.35301   434.18921   284.98939
      7 -      9 VIBRATIONAL MODES ARE USED IN THERMOCHEMISTRY.
 THE HARMONIC ZERO POINT ENERGY IS (SCALED BY   1.000)
        0.021631 HARTREE/MOLECULE     4747.478124 CM**-1/MOLECULE 
       13.573735 KCAL/MOL               56.792506 KJ/MOL

               Q               LN Q
 ELEC.     1.00000E+00       0.000000
 TRANS.    3.00431E+06      14.915558
 ROT.      4.27773E+01       3.756007
 VIB.      1.00044E+00       0.000436
 TOT.      1.28572E+08      18.672002

              E         H         G         CV        CP        S
           KJ/MOL    KJ/MOL    KJ/MOL   J/MOL-K   J/MOL-K   J/MOL-K
 ELEC.      0.000     0.000     0.000     0.000     0.000     0.000
 TRANS.     3.718     6.197   -36.975    12.472    20.786   144.800
 ROT.       3.718     3.718    -9.311    12.472    12.472    43.701
 VIB.      56.801    56.801    56.791     0.217     0.217     0.032
 TOTAL     64.238    66.717    10.506    25.161    33.475   188.532
 VIB. THERMAL CORRECTION E(T)-E(0) = H(T)-H(0) =     8.372 J/MOL

              E         H         G         CV        CP        S
         KCAL/MOL  KCAL/MOL  KCAL/MOL CAL/MOL-K CAL/MOL-K CAL/MOL-K
 ELEC.      0.000     0.000     0.000     0.000     0.000     0.000
 TRANS.     0.889     1.481    -8.837     2.981     4.968    34.608
 ROT.       0.889     0.889    -2.225     2.981     2.981    10.445
 VIB.      13.576    13.576    13.573     0.052     0.052     0.008
 TOTAL     15.353    15.946     2.511     6.014     8.001    45.060
 VIB. THERMAL CORRECTION E(T)-E(0) = H(T)-H(0) =     2.001 CAL/MOL
 ......DONE WITH HARMONIC NORMAL MODES.....
 STEP CPU TIME =     0.01 TOTAL CPU TIME =        0.2 (    0.0 MIN)
 TOTAL WALL CLOCK TIME=        0.3 SECONDS, CPU UTILIZATION IS  92.00%
 AMP=    7.0000000000000000     


 VSCF: MP2 ENERGY AND MP2 DIPOLE AT INPUT GEOMETRY



          ********************
          1 ELECTRON INTEGRALS
          ********************
 ...... END OF ONE-ELECTRON INTEGRALS ......
 STEP CPU TIME =     0.00 TOTAL CPU TIME =        0.2 (    0.0 MIN)
 TOTAL WALL CLOCK TIME=        0.3 SECONDS, CPU UTILIZATION IS  88.46%

          -------------
          GUESS OPTIONS
          -------------
          GUESS =MOREAD            NORB  =      32          NORDER=       0
          MIX   =       F          PRTMO =       F          PUNMO =       F
          TOLZ  = 1.0E-08          TOLE  = 1.0E-05
          SYMDEN=       F          PURIFY=       F

 INITIAL GUESS ORBITALS GENERATED BY MOREAD   ROUTINE.

 SYMMETRIES FOR INITIAL GUESS ORBITALS FOLLOW.   BOTH SET(S).
     5 ORBITALS ARE OCCUPIED (    1 CORE ORBITALS).
     1=A1       2=A1       3=B1       4=A1       5=B2       6=A1       7=B1  
     8=B1       9=A1      10=B2      11=A1      12=B1      13=A1      14=A1  
    15=A2      16=B2      17=B1      18=A1      19=B1      20=B1      21=A1  
    22=B2      23=A1      24=B1      25=B2      26=A1      27=A2      28=A1  
    29=A1      30=B1      31=A1      32=A1  
 ...... END OF INITIAL ORBITAL SELECTION ......
 STEP CPU TIME =     0.01 TOTAL CPU TIME =        0.2 (    0.0 MIN)
 TOTAL WALL CLOCK TIME=        0.3 SECONDS, CPU UTILIZATION IS  88.89%

                    ----------------------
                    AO INTEGRAL TECHNOLOGY
                    ----------------------
     S,P,L SHELL ROTATED AXIS INTEGRALS, REPROGRAMMED BY
        KAZUYA ISHIMURA (IMS) AND JOSE SIERRA (SYNSTAR).
     S,P,D,L SHELL ROTATED AXIS INTEGRALS PROGRAMMED BY
        KAZUYA ISHIMURA (INSTITUTE FOR MOLECULAR SCIENCE).
     S,P,D,F,G SHELL TO TOTAL QUARTET ANGULAR MOMENTUM SUM 5,
        ERIC PROGRAM BY GRAHAM FLETCHER (ELORET AND NASA ADVANCED
        SUPERCOMPUTING DIVISION, AMES RESEARCH CENTER).
     S,P,D,F,G,L SHELL GENERAL RYS QUADRATURE PROGRAMMED BY
        MICHEL DUPUIS (PACIFIC NORTHWEST NATIONAL LABORATORY).

          --------------------
          2 ELECTRON INTEGRALS
          --------------------

 THE -PK- OPTION IS OFF, THE INTEGRALS ARE NOT IN SUPERMATRIX FORM.
 STORING   15000 INTEGRALS/RECORD ON DISK, USING 12 BYTES/INTEGRAL.
 TWO ELECTRON INTEGRAL EVALUATION REQUIRES   90549 WORDS OF MEMORY.
 II,JST,KST,LST =  1  1  1  1 NREC =         1 INTLOC =    1
 II,JST,KST,LST =  2  1  1  1 NREC =         1 INTLOC =    2
 II,JST,KST,LST =  3  1  1  1 NREC =         1 INTLOC =    7
 II,JST,KST,LST =  4  1  1  1 NREC =         1 INTLOC =   22
 II,JST,KST,LST =  5  1  1  1 NREC =         1 INTLOC =   56
 II,JST,KST,LST =  6  1  1  1 NREC =         1 INTLOC =  121
 II,JST,KST,LST =  7  1  1  1 NREC =         1 INTLOC =  220
 II,JST,KST,LST =  8  1  1  1 NREC =         1 INTLOC =  496
 II,JST,KST,LST =  9  1  1  1 NREC =         1 INTLOC = 1057
 II,JST,KST,LST = 10  1  1  1 NREC =         1 INTLOC = 3607
 II,JST,KST,LST = 11  1  1  1 NREC =         1 INTLOC = 3607
 II,JST,KST,LST = 12  1  1  1 NREC =         1 INTLOC = 3607
 II,JST,KST,LST = 13  1  1  1 NREC =         1 INTLOC = 3607
 II,JST,KST,LST = 14  1  1  1 NREC =         1 INTLOC = 3607
 II,JST,KST,LST = 15  1  1  1 NREC =         1 INTLOC = 6558
 II,JST,KST,LST = 16  1  1  1 NREC =         1 INTLOC =10512
 II,JST,KST,LST = 17  1  1  1 NREC =         2 INTLOC =  691
 TOTAL NUMBER OF NONZERO TWO-ELECTRON INTEGRALS =               36729
          3 INTEGRAL RECORDS WERE STORED ON DISK FILE  8.
  ...... END OF TWO-ELECTRON INTEGRALS .....
 STEP CPU TIME =     0.03 TOTAL CPU TIME =        0.3 (    0.0 MIN)
 TOTAL WALL CLOCK TIME=        0.3 SECONDS, CPU UTILIZATION IS  84.37%

          --------------------------
                 RHF SCF CALCULATION
          --------------------------

     NUCLEAR ENERGY =         9.1898874447
     MAXIT =   30     NPUNCH=    2
     EXTRAP=T  DAMP=F  SHIFT=F  RSTRCT=F  DIIS=F  DEM=F  SOSCF=T
     DENSITY MATRIX CONV=  1.00E-06
     SOSCF WILL OPTIMIZE     135 ORBITAL ROTATIONS, SOGTOL=   0.250
     MEMORY REQUIRED FOR RHF ITERS=     38156 WORDS.

 ITER EX DEM     TOTAL ENERGY        E CHANGE  DENSITY CHANGE     ORB. GRAD
   1  0  0      -76.0553351621   -76.0553351621   0.000000737   0.000000000
          ---------------START SECOND ORDER SCF---------------
   2  1  0      -76.0553351621    -0.0000000000   0.000000177   0.000000142
   3  2  0      -76.0553351621    -0.0000000000   0.000000125   0.000000062

          -----------------
          DENSITY CONVERGED
          -----------------
     TIME TO FORM FOCK OPERATORS=       0.0 SECONDS (       0.0 SEC/ITER)
     TIME TO SOLVE SCF EQUATIONS=       0.0 SECONDS (       0.0 SEC/ITER)

 FINAL RHF ENERGY IS      -76.0553351621 AFTER   3 ITERATIONS

          ------------
          EIGENVECTORS
          ------------

                      1          2          3          4          5
                  -20.5600    -1.3520    -0.7181    -0.5793    -0.5071
                     A1         A1         B1         A1         B2  
    1  O  1  S    0.549371  -0.119159  -0.000000   0.039998  -0.000000
    2  O  1  S    0.478632  -0.205763  -0.000000   0.071665  -0.000000
    3  O  1  S    0.035700   0.035632  -0.000000  -0.021035  -0.000000
    4  O  1  S    0.034543   0.612195  -0.000000  -0.212217  -0.000000
    5  O  1  S   -0.002037   0.324500  -0.000000  -0.261032  -0.000000
    6  O  1  X   -0.000000  -0.000000   0.398202  -0.000000  -0.000000
    7  O  1  Y   -0.000000  -0.000000  -0.000000  -0.000000   0.500783
    8  O  1  Z    0.001714   0.067735  -0.000000   0.440256  -0.000000
    9  O  1  X   -0.000000  -0.000000   0.286511  -0.000000  -0.000000
   10  O  1  Y   -0.000000  -0.000000  -0.000000  -0.000000   0.396875
   11  O  1  Z   -0.001093   0.054609  -0.000000   0.325896  -0.000000
   12  O  1  X   -0.000000  -0.000000   0.095848  -0.000000  -0.000000
   13  O  1  Y   -0.000000  -0.000000  -0.000000  -0.000000   0.291948
   14  O  1  Z    0.000199   0.000793  -0.000000   0.217669  -0.000000
   15  O  1 XX   -0.010785  -0.014495  -0.000000   0.000701  -0.000000
   16  O  1 YY   -0.010522  -0.029164  -0.000000  -0.007956  -0.000000
   17  O  1 ZZ   -0.010706  -0.017056  -0.000000   0.024021  -0.000000
   18  O  1 XY   -0.000000  -0.000000  -0.000000  -0.000000  -0.000000
   19  O  1 XZ   -0.000000  -0.000000   0.028983  -0.000000  -0.000000
   20  O  1 YZ   -0.000000  -0.000000  -0.000000  -0.000000   0.018131
   21  H  2  S    0.000227   0.092974  -0.149437   0.088891  -0.000000
   22  H  2  S    0.000215   0.069522  -0.206361   0.129940  -0.000000
   23  H  2  S    0.000137   0.006491  -0.044195   0.011418  -0.000000
   24  H  2  X    0.000116   0.016603  -0.014851   0.021709  -0.000000
   25  H  2  Y   -0.000000  -0.000000  -0.000000  -0.000000   0.025025
   26  H  2  Z   -0.000008  -0.010425   0.020090   0.007292  -0.000000
   27  H  3  S    0.000227   0.092974   0.149437   0.088891  -0.000000
   28  H  3  S    0.000215   0.069522   0.206361   0.129940  -0.000000
   29  H  3  S    0.000137   0.006491   0.044195   0.011418  -0.000000
   30  H  3  X   -0.000116  -0.016603  -0.014851  -0.021709  -0.000000
   31  H  3  Y   -0.000000  -0.000000  -0.000000  -0.000000   0.025025
   32  H  3  Z   -0.000008  -0.010425  -0.020090   0.007292  -0.000000

                      6          7          8          9         10
                    0.1362     0.1911     0.5227     0.5287     0.5516
                     A1         B1         B1         A1         B2  
    1  O  1  S    0.031407  -0.000000  -0.000000  -0.028381   0.000000
    2  O  1  S    0.095407  -0.000000  -0.000000  -0.058680   0.000000
    3  O  1  S   -1.095164  -0.000000  -0.000000   0.139323   0.000000
    4  O  1  S    2.180627  -0.000000  -0.000000  -0.163149   0.000000
    5  O  1  S   -1.272853  -0.000000  -0.000000   1.064799   0.000000
    6  O  1  X   -0.000000   0.195616   0.103465  -0.000000   0.000000
    7  O  1  Y   -0.000000  -0.000000  -0.000000  -0.000000  -0.275243
    8  O  1  Z   -0.123255  -0.000000  -0.000000  -0.152745   0.000000
    9  O  1  X   -0.000000   0.013070   0.099395  -0.000000   0.000000
   10  O  1  Y   -0.000000  -0.000000  -0.000000  -0.000000  -0.740029
   11  O  1  Z   -0.082078  -0.000000  -0.000000  -0.414185   0.000000
   12  O  1  X   -0.000000   0.821649   1.552307  -0.000000   0.000000
   13  O  1  Y   -0.000000  -0.000000  -0.000000  -0.000000   1.285603
   14  O  1  Z   -0.237805  -0.000000  -0.000000   1.643215   0.000000
   15  O  1 XX   -0.517755  -0.000000  -0.000000   0.043195   0.000000
   16  O  1 YY   -0.524738  -0.000000  -0.000000   0.056252   0.000000
   17  O  1 ZZ   -0.526983  -0.000000  -0.000000   0.044782   0.000000
   18  O  1 XY   -0.000000  -0.000000  -0.000000  -0.000000   0.000000
   19  O  1 XZ   -0.000000  -0.011242  -0.020897  -0.000000   0.000000
   20  O  1 YZ   -0.000000  -0.000000  -0.000000  -0.000000  -0.008933
   21  H  2  S    0.028312   0.018665   0.065588  -0.020622   0.000000
   22  H  2  S   -0.041217  -0.117674   1.275751  -0.989359   0.000000
   23  H  2  S    0.900713   1.933523  -0.028448   0.084239   0.000000
   24  H  2  X   -0.021789  -0.025233   0.013823  -0.009971   0.000000
   25  H  2  Y   -0.000000  -0.000000  -0.000000  -0.000000  -0.002684
   26  H  2  Z    0.010520   0.024889   0.006719   0.008390   0.000000
   27  H  3  S    0.028312  -0.018665  -0.065588  -0.020622   0.000000
   28  H  3  S   -0.041217   0.117674  -1.275751  -0.989359   0.000000
   29  H  3  S    0.900713  -1.933523   0.028448   0.084239   0.000000
   30  H  3  X    0.021789  -0.025233   0.013823   0.009971   0.000000
   31  H  3  Y   -0.000000  -0.000000  -0.000000  -0.000000  -0.002684
   32  H  3  Z    0.010520  -0.024889  -0.006719   0.008390   0.000000

                     11         12         13         14         15
                    0.6220     0.7307     1.0453     1.8904     1.9212
                     A1         B1         A1         A1         A2  
    1  O  1  S    0.030463   0.000000  -0.101743  -0.016558  -0.000000
    2  O  1  S    0.034431   0.000000   0.045436  -0.008578  -0.000000
    3  O  1  S    0.493666   0.000000  -6.387822  -0.544362  -0.000000
    4  O  1  S   -1.225192   0.000000  14.958215   1.439047  -0.000000
    5  O  1  S   -0.641611   0.000000  -5.097729  -1.045472  -0.000000
    6  O  1  X    0.000000  -0.345469  -0.000000  -0.000000  -0.000000
    7  O  1  Y    0.000000   0.000000  -0.000000  -0.000000  -0.000000
    8  O  1  Z   -0.274153   0.000000   0.050781  -0.156789  -0.000000
    9  O  1  X    0.000000  -1.018329  -0.000000  -0.000000  -0.000000
   10  O  1  Y    0.000000   0.000000  -0.000000  -0.000000  -0.000000
   11  O  1  Z   -0.756457   0.000000  -0.150259  -0.053811  -0.000000
   12  O  1  X    0.000000   1.857605  -0.000000  -0.000000  -0.000000
   13  O  1  Y    0.000000   0.000000  -0.000000  -0.000000  -0.000000
   14  O  1  Z    0.135552   0.000000  -0.787225  -0.545451  -0.000000
   15  O  1 XX    0.255589   0.000000  -3.129881  -0.474950  -0.000000
   16  O  1 YY    0.245959   0.000000  -3.156221  -0.288166  -0.000000
   17  O  1 ZZ    0.229149   0.000000  -3.149428  -0.015401  -0.000000
   18  O  1 XY    0.000000   0.000000  -0.000000  -0.000000  -0.251428
   19  O  1 XZ    0.000000  -0.023822  -0.000000  -0.000000  -0.000000
   20  O  1 YZ    0.000000   0.000000  -0.000000  -0.000000  -0.000000
   21  H  2  S    0.072715  -0.058843  -0.007773  -0.145215  -0.000000
   22  H  2  S    1.388823  -0.523372   0.821994   0.643300  -0.000000
   23  H  2  S   -0.643410   1.683452   0.553165  -0.046408  -0.000000
   24  H  2  X    0.021021  -0.023590   0.036985   0.359794  -0.000000
   25  H  2  Y    0.000000   0.000000  -0.000000  -0.000000   0.635533
   26  H  2  Z   -0.031834   0.010173  -0.064027   0.503447  -0.000000
   27  H  3  S    0.072715   0.058843  -0.007773  -0.145215  -0.000000
   28  H  3  S    1.388823   0.523372   0.821994   0.643300  -0.000000
   29  H  3  S   -0.643410  -1.683452   0.553165  -0.046408  -0.000000
   30  H  3  X   -0.021021  -0.023590  -0.036985  -0.359794  -0.000000
   31  H  3  Y    0.000000   0.000000  -0.000000  -0.000000  -0.635533
   32  H  3  Z   -0.031834  -0.010173  -0.064027   0.503447  -0.000000

                     16         17         18         19         20
                    2.1271     2.1835     2.2824     2.3741     2.6968
                     B2         B1         A1         B1         B1  
    1  O  1  S   -0.000000   0.000000   0.017699   0.000000   0.000000
    2  O  1  S   -0.000000   0.000000   0.141900   0.000000   0.000000
    3  O  1  S   -0.000000   0.000000  -2.783562   0.000000   0.000000
    4  O  1  S   -0.000000   0.000000   5.574768   0.000000   0.000000
    5  O  1  S   -0.000000   0.000000   0.341811   0.000000   0.000000
    6  O  1  X   -0.000000  -0.115950  -0.000000  -0.567149  -0.667660
    7  O  1  Y   -0.296527   0.000000  -0.000000   0.000000   0.000000
    8  O  1  Z   -0.000000   0.000000  -0.565454   0.000000   0.000000
    9  O  1  X   -0.000000   0.067781  -0.000000   0.889833   2.127712
   10  O  1  Y    0.104187   0.000000  -0.000000   0.000000   0.000000
   11  O  1  Z   -0.000000   0.000000   0.962130   0.000000   0.000000
   12  O  1  X   -0.000000   0.614327  -0.000000  -0.575260  -0.885971
   13  O  1  Y   -0.315679   0.000000  -0.000000   0.000000   0.000000
   14  O  1  Z   -0.000000   0.000000   0.067712   0.000000   0.000000
   15  O  1 XX   -0.000000   0.000000  -1.154704   0.000000   0.000000
   16  O  1 YY   -0.000000   0.000000  -1.531809   0.000000   0.000000
   17  O  1 ZZ   -0.000000   0.000000  -1.276966   0.000000   0.000000
   18  O  1 XY   -0.000000   0.000000  -0.000000   0.000000   0.000000
   19  O  1 XZ   -0.000000   0.291483  -0.000000   0.181024  -0.166162
   20  O  1 YZ    0.267623   0.000000  -0.000000   0.000000   0.000000
   21  H  2  S   -0.000000  -0.701242   0.852389  -0.529236   0.010906
   22  H  2  S   -0.000000   1.267356  -1.745360   0.953135   0.764282
   23  H  2  S   -0.000000  -0.348086   0.510237  -0.740928  -0.670294
   24  H  2  X   -0.000000  -0.336664  -0.177968   0.445482   0.303615
   25  H  2  Y    0.654636   0.000000  -0.000000   0.000000   0.000000
   26  H  2  Z   -0.000000  -0.282430   0.177502   0.321526  -0.689102
   27  H  3  S   -0.000000   0.701242   0.852389   0.529236  -0.010906
   28  H  3  S   -0.000000  -1.267356  -1.745360  -0.953135  -0.764282
   29  H  3  S   -0.000000   0.348086   0.510237   0.740928   0.670294
   30  H  3  X   -0.000000  -0.336664   0.177968   0.445482   0.303615
   31  H  3  Y    0.654636   0.000000  -0.000000   0.000000   0.000000
   32  H  3  Z   -0.000000   0.282430   0.177502  -0.321526   0.689102

                     21         22         23         24         25
                    2.7114     2.7171     3.0556     3.2497     3.5361
                     A1         B2         A1         B1         B2  
    1  O  1  S   -0.037185  -0.000000  -0.017462   0.000000  -0.000000
    2  O  1  S   -0.085355  -0.000000   0.080689   0.000000  -0.000000
    3  O  1  S    0.971535  -0.000000  -2.792932   0.000000  -0.000000
    4  O  1  S   -1.585979  -0.000000   5.988537   0.000000  -0.000000
    5  O  1  S    0.304048  -0.000000   0.055691   0.000000  -0.000000
    6  O  1  X    0.000000  -0.000000  -0.000000   0.904890  -0.000000
    7  O  1  Y    0.000000  -1.168028  -0.000000   0.000000  -0.201200
    8  O  1  Z   -0.773938  -0.000000   0.744049   0.000000  -0.000000
    9  O  1  X    0.000000  -0.000000  -0.000000  -0.499866  -0.000000
   10  O  1  Y    0.000000   1.656176  -0.000000   0.000000   0.422992
   11  O  1  Z    1.653948  -0.000000  -0.323269   0.000000  -0.000000
   12  O  1  X    0.000000  -0.000000  -0.000000   0.706438  -0.000000
   13  O  1  Y    0.000000  -0.668593  -0.000000   0.000000  -0.012191
   14  O  1  Z   -0.614296  -0.000000   0.388588   0.000000  -0.000000
   15  O  1 XX    0.426860  -0.000000  -1.502751   0.000000  -0.000000
   16  O  1 YY    0.928901  -0.000000  -1.063659   0.000000  -0.000000
   17  O  1 ZZ    0.268163  -0.000000  -1.349968   0.000000  -0.000000
   18  O  1 XY    0.000000  -0.000000  -0.000000   0.000000  -0.000000
   19  O  1 XZ    0.000000  -0.000000  -0.000000   0.102942  -0.000000
   20  O  1 YZ    0.000000  -0.197232  -0.000000   0.000000   0.982198
   21  H  2  S   -0.324725  -0.000000   0.356672  -0.522251  -0.000000
   22  H  2  S   -0.067837  -0.000000  -0.904798   1.015011  -0.000000
   23  H  2  S    0.008471  -0.000000   0.156892   0.039135  -0.000000
   24  H  2  X   -0.443268  -0.000000  -0.571095   0.593953  -0.000000
   25  H  2  Y    0.000000  -0.167312  -0.000000   0.000000  -0.438051
   26  H  2  Z    0.148633  -0.000000   0.431971  -0.361306  -0.000000
   27  H  3  S   -0.324725  -0.000000   0.356672   0.522251  -0.000000
   28  H  3  S   -0.067837  -0.000000  -0.904798  -1.015011  -0.000000
   29  H  3  S    0.008471  -0.000000   0.156892  -0.039135  -0.000000
   30  H  3  X    0.443268  -0.000000   0.571095   0.593953  -0.000000
   31  H  3  Y    0.000000  -0.167312  -0.000000   0.000000  -0.438051
   32  H  3  Z    0.148633  -0.000000   0.431971   0.361306  -0.000000

                     26         27         28         29         30
                    3.5547     3.5918     3.8283     4.7885     5.1184
                     A1         A2         A1         A1         B1  
    1  O  1  S    0.059859   0.000000   0.004861  -0.010796  -0.000000
    2  O  1  S    0.696340   0.000000   0.032811   0.397881  -0.000000
    3  O  1  S  -17.613695   0.000000  -0.707399 -12.131492  -0.000000
    4  O  1  S   35.589530   0.000000   1.459869  24.889903  -0.000000
    5  O  1  S   -5.136468   0.000000  -0.600701  -1.436075  -0.000000
    6  O  1  X    0.000000   0.000000  -0.000000   0.000000  -0.161345
    7  O  1  Y    0.000000   0.000000  -0.000000   0.000000  -0.000000
    8  O  1  Z   -0.120372   0.000000   0.181849  -0.091838  -0.000000
    9  O  1  X    0.000000   0.000000  -0.000000   0.000000   1.943551
   10  O  1  Y    0.000000   0.000000  -0.000000   0.000000  -0.000000
   11  O  1  Z   -0.030990   0.000000  -0.531981   1.556379  -0.000000
   12  O  1  X    0.000000   0.000000  -0.000000   0.000000  -0.481638
   13  O  1  Y    0.000000   0.000000  -0.000000   0.000000  -0.000000
   14  O  1  Z   -0.645490   0.000000  -0.121636  -0.284214  -0.000000
   15  O  1 XX   -9.131183   0.000000   0.387707  -5.143820  -0.000000
   16  O  1 YY   -8.351463   0.000000  -0.096106  -6.945924  -0.000000
   17  O  1 ZZ   -8.859745   0.000000  -1.343466  -5.747661  -0.000000
   18  O  1 XY    0.000000   1.023957  -0.000000   0.000000  -0.000000
   19  O  1 XZ    0.000000   0.000000  -0.000000   0.000000   1.419920
   20  O  1 YZ    0.000000   0.000000  -0.000000   0.000000  -0.000000
   21  H  2  S   -0.228303   0.000000   0.029697  -0.657019   0.675202
   22  H  2  S    0.832761   0.000000   0.301083  -0.809938   0.674513
   23  H  2  S    0.342359   0.000000  -0.014962   0.323452  -0.377597
   24  H  2  X    0.192119   0.000000   0.388887  -0.906104   0.744805
   25  H  2  Y    0.000000   0.401403  -0.000000   0.000000  -0.000000
   26  H  2  Z   -0.144632   0.000000   0.351983   0.590559  -0.654769
   27  H  3  S   -0.228303   0.000000   0.029697  -0.657019  -0.675202
   28  H  3  S    0.832761   0.000000   0.301083  -0.809938  -0.674513
   29  H  3  S    0.342359   0.000000  -0.014962   0.323452   0.377597
   30  H  3  X   -0.192119   0.000000  -0.388887   0.906104   0.744805
   31  H  3  Y    0.000000  -0.401403  -0.000000   0.000000  -0.000000
   32  H  3  Z   -0.144632   0.000000   0.351983   0.590559   0.654769

                     31         32
                    7.7190    47.5517
                     A1         A1  
    1  O  1  S   -0.211572   1.816703
    2  O  1  S   -0.482100  -2.834362
    3  O  1  S  -11.654019   0.091894
    4  O  1  S   27.696894   3.353391
    5  O  1  S   -2.291687   0.026977
    6  O  1  X    0.000000  -0.000000
    7  O  1  Y    0.000000  -0.000000
    8  O  1  Z   -0.027169   0.003219
    9  O  1  X    0.000000  -0.000000
   10  O  1  Y    0.000000  -0.000000
   11  O  1  Z   -0.050347  -0.108955
   12  O  1  X    0.000000  -0.000000
   13  O  1  Y    0.000000  -0.000000
   14  O  1  Z   -0.172517   0.044803
   15  O  1 XX   -7.890858  -1.334308
   16  O  1 YY   -7.804086  -1.263795
   17  O  1 ZZ   -7.872475  -1.309481
   18  O  1 XY    0.000000  -0.000000
   19  O  1 XZ    0.000000  -0.000000
   20  O  1 YZ    0.000000  -0.000000
   21  H  2  S   -0.027251   0.036081
   22  H  2  S    0.181177   0.041687
   23  H  2  S    0.160203  -0.034189
   24  H  2  X    0.100050   0.071213
   25  H  2  Y    0.000000  -0.000000
   26  H  2  Z   -0.057209  -0.047976
   27  H  3  S   -0.027251   0.036081
   28  H  3  S    0.181177   0.041687
   29  H  3  S    0.160203  -0.034189
   30  H  3  X   -0.100050  -0.071213
   31  H  3  Y    0.000000  -0.000000
   32  H  3  Z   -0.057209  -0.047976
 ...... END OF RHF CALCULATION ......
 STEP CPU TIME =     0.00 TOTAL CPU TIME =        0.3 (    0.0 MIN)
 TOTAL WALL CLOCK TIME=        0.3 SECONDS, CPU UTILIZATION IS  77.14%

     ----------------------------------------------------------------
     PROPERTY VALUES FOR THE RHF   SELF-CONSISTENT FIELD WAVEFUNCTION
     ----------------------------------------------------------------

          -----------------
          ENERGY COMPONENTS
          -----------------

         WAVEFUNCTION NORMALIZATION =       1.0000000000

                ONE ELECTRON ENERGY =    -123.0574730542
                TWO ELECTRON ENERGY =      37.8122504474
           NUCLEAR REPULSION ENERGY =       9.1898874447
                                      ------------------
                       TOTAL ENERGY =     -76.0553351621

 ELECTRON-ELECTRON POTENTIAL ENERGY =      37.8122504474
  NUCLEUS-ELECTRON POTENTIAL ENERGY =    -199.0686441638
   NUCLEUS-NUCLEUS POTENTIAL ENERGY =       9.1898874447
                                      ------------------
             TOTAL POTENTIAL ENERGY =    -152.0665062717
               TOTAL KINETIC ENERGY =      76.0111711096
                 VIRIAL RATIO (V/T) =       2.0005810206

  ...... PI ENERGY ANALYSIS ......

 ENERGY ANALYSIS:
            FOCK ENERGY=    -47.4329732947
          BARE H ENERGY=   -123.0574730542
     ELECTRONIC ENERGY =    -85.2452231744
         KINETIC ENERGY=     76.0111711096
          N-N REPULSION=      9.1898874447
           TOTAL ENERGY=    -76.0553357297
        SIGMA PART(1+2)=    -77.7021372711
               (K,V1,2)=     71.5086012969   -180.4940433943     31.2833048263
           PI PART(1+2)=     -7.5430859033
               (K,V1,2)=      4.5025698128    -18.5746007695      6.5289450534
  SIGMA SKELETON, ERROR=    -68.5122498264     -0.0000000000
             MIXED PART= 0.00000E+00 0.00000E+00 0.00000E+00 0.00000E+00
 ...... END OF PI ENERGY ANALYSIS ......

          ---------------------------------------
          MULLIKEN AND LOWDIN POPULATION ANALYSES
          ---------------------------------------

     ATOMIC MULLIKEN POPULATION IN EACH MOLECULAR ORBITAL

                      1          2          3          4          5

                  2.000000   2.000000   2.000000   2.000000   2.000000

    1             1.999859   1.641830   1.245908   1.750572   1.972167
    2             0.000071   0.179085   0.377046   0.124714   0.013916
    3             0.000071   0.179085   0.377046   0.124714   0.013916

               ----- POPULATIONS IN EACH AO -----
                             MULLIKEN      LOWDIN
              1  O  1  S      1.06437     1.04249
              2  O  1  S      0.86879     0.81779
              3  O  1  S      0.08922     0.30969
              4  O  1  S      1.17735     0.39143
              5  O  1  S      0.67878     0.41509
              6  O  1  X      0.57481     0.50568
              7  O  1  Y      0.82256     0.77034
              8  O  1  Z      0.68311     0.61991
              9  O  1  X      0.52233     0.52984
             10  O  1  Y      0.73426     0.75490
             11  O  1  Z      0.60934     0.64696
             12  O  1  X      0.13992     0.24535
             13  O  1  Y      0.41437     0.40877
             14  O  1  Z      0.31092     0.35697
             15  O  1 XX     -0.02213     0.19859
             16  O  1 YY     -0.03558     0.19401
             17  O  1 ZZ     -0.03191     0.19076
             18  O  1 XY      0.00000     0.00000
             19  O  1 XZ      0.00885     0.01051
             20  O  1 YZ      0.00097     0.00046
             21  H  2  S      0.26667     0.26790
             22  H  2  S      0.35212     0.32229
             23  H  2  S      0.02940     0.09823
             24  H  2  X      0.01858     0.04053
             25  H  2  Y      0.01392     0.03276
             26  H  2  Z      0.01414     0.03351
             27  H  3  S      0.26667     0.26790
             28  H  3  S      0.35212     0.32229
             29  H  3  S      0.02940     0.09823
             30  H  3  X      0.01858     0.04053
             31  H  3  Y      0.01392     0.03276
             32  H  3  Z      0.01414     0.03351

          ----- MULLIKEN ATOMIC OVERLAP POPULATIONS -----
          (OFF-DIAGONAL ELEMENTS NEED TO BE MULTIPLIED BY 2)

             1           2           3

    1    7.9550205
    2    0.3276579   0.3998927
    3    0.3276579  -0.0327187   0.3998927

          TOTAL MULLIKEN AND LOWDIN ATOMIC POPULATIONS
       ATOM         MULL.POP.    CHARGE          LOW.POP.     CHARGE
    1 O             8.610336   -0.610336         8.409559   -0.409559
    2 H             0.694832    0.305168         0.795221    0.204779
    3 H             0.694832    0.305168         0.795221    0.204779

          -------------------------------
          BOND ORDER AND VALENCE ANALYSIS     BOND ORDER THRESHOLD=0.050
          -------------------------------

                   BOND                       BOND                       BOND
  ATOM PAIR DIST  ORDER      ATOM PAIR DIST  ORDER      ATOM PAIR DIST  ORDER
    1   2  0.958  0.919        1   3  0.958  0.919

                       TOTAL       BONDED        FREE
      ATOM            VALENCE     VALENCE     VALENCE
    1 O                 1.838       1.838       0.000
    2 H                 0.923       0.923       0.000
    3 H                 0.923       0.923       0.000

          ---------------------
          ELECTROSTATIC MOMENTS
          ---------------------

 POINT   1           X           Y           Z (BOHR)    CHARGE
                 0.000000    0.000000   -0.000000       -0.00 (A.U.)
         DX          DY          DZ         /D/  (DEBYE)
     0.000000    0.000000    2.298610    2.298610
 ...... END OF PROPERTY EVALUATION ......
 STEP CPU TIME =     0.01 TOTAL CPU TIME =        0.3 (    0.0 MIN)
 TOTAL WALL CLOCK TIME=        0.4 SECONDS, CPU UTILIZATION IS  77.78%

 THE USE OF POINT GROUP SYMMETRY HAS BEEN TURNED OFF.

 -------------------------------   -----------------------------
 MP2 ENERGY GRADIENT CALCULATION   PROGRAM WRITTEN BY K.ISHIMURA
 -------------------------------   -----------------------------
 NUMBER OF OCCUPIED ORBITALS            =    5
 NUMBER OF VIRTUAL ORBITALS             =   27
 NUMBER OF ACTIVE OCCUPIED ORBITALS     =    4
 NUMBER OF ACTIVE VIRTUAL ORBITALS      =   27
 NUMBER OF BASIS FUNCTIONS              =   32
 NUMBER OF BASIS SHELLS                 =   17
 AO INTEGRAL THRESHOLD                  = 1.00E-09
 HALF-TRANSFORMED INTEGRAL THRESHOLD    = 7.90E-13
   REQUIRED DISK =         0 MBYTES/PROCESSOR

 MAXIMUM MEMORY USED DURING MP2 GRADIENT=       61487 WORDS, OR       1 MWORDS.
 BEGINNING    1ST SHELL LOOP...
 .... DONE WITH 1ST THREE INDEX TRANSFORMATIONS ....
 STEP CPU TIME =     0.09 TOTAL CPU TIME =        0.4 (    0.0 MIN)
 TOTAL WALL CLOCK TIME=        0.4 SECONDS, CPU UTILIZATION IS  84.09%

 RESULTS OF MOLLER-PLESSET 2ND ORDER CORRECTION ARE
               E(0)=       -76.0553351621
               E(1)=         0.0
               E(2)=        -0.2186982004
             E(MP2)=       -76.2740333625
 .... DONE WITH 4TH INDEX TRANSFORMATION AND ENERGY ....
 STEP CPU TIME =     0.00 TOTAL CPU TIME =        0.4 (    0.0 MIN)
 TOTAL WALL CLOCK TIME=        0.5 SECONDS, CPU UTILIZATION IS  82.22%
 .... DONE WITH 1ST THREE INDEX TRANSFORMATIONS FOR GRADIENT ....
 STEP CPU TIME =     0.07 TOTAL CPU TIME =        0.4 (    0.0 MIN)
 TOTAL WALL CLOCK TIME=        0.5 SECONDS, CPU UTILIZATION IS  84.62%
 .... DONE WITH 4TH INDEX TRANSFORMATION FOR GRADIENT ....
 STEP CPU TIME =     0.00 TOTAL CPU TIME =        0.4 (    0.0 MIN)
 TOTAL WALL CLOCK TIME=        0.6 SECONDS, CPU UTILIZATION IS  75.86%
 CYCLE  1  Z-VECTOR ERROR= -0.224113E-02
 CYCLE  2  Z-VECTOR ERROR=  0.675265E-03
 CYCLE  3  Z-VECTOR ERROR= -0.769207E-04
 CYCLE  4  Z-VECTOR ERROR=  0.717563E-05
 CYCLE  5  Z-VECTOR ERROR= -0.157883E-05
 CYCLE  6  Z-VECTOR ERROR=  0.247038E-06
 CYCLE  7  Z-VECTOR ERROR= -0.350331E-07
 CYCLE  8  Z-VECTOR ERROR=  0.568654E-08
 CYCLE  9  Z-VECTOR ERROR= -0.889055E-09
 CYCLE 10  Z-VECTOR ERROR=  0.779004E-10
 .... DONE WITH RESPONSE EQUATIONS AND DENSITY ....
 STEP CPU TIME =     0.01 TOTAL CPU TIME =        0.4 (    0.0 MIN)
 TOTAL WALL CLOCK TIME=        0.6 SECONDS, CPU UTILIZATION IS  72.58%

 MP2 NATURAL ORBITAL OCCUPATION NUMBERS ARE
  2.0000 1.9857 1.9719 1.9689 1.9679 0.0239 0.0225 0.0200 0.0113 0.0054
  0.0050 0.0042 0.0038 0.0036 0.0010 0.0008 0.0007 0.0006 0.0005 0.0004
  0.0004 0.0004 0.0003 0.0003 0.0001 0.0001 0.0001 0.0001 0.0000 0.0000
 -0.0000-0.0000
 THERE ARE     9.8944 ELECTRONS IN PRINCIPAL MP2 NATURAL ORBITALS.
 THERE ARE     0.1056 ELECTRONS IN SECONDARY MP2 NATURAL ORBITALS.
 THE MP2 NATURAL ORBITALS HAVE BEEN PUNCHED.
 ..... DONE WITH MP2 ENERGY .....
 STEP CPU TIME =     0.01 TOTAL CPU TIME =        0.5 (    0.0 MIN)
 TOTAL WALL CLOCK TIME=        0.6 SECONDS, CPU UTILIZATION IS  74.19%

     -------------------------------------------------
     MP2 PROPERTIES...FOR THE FIRST ORDER WAVEFUNCTION
          USING THE RESPONSE (OR RELAXED) DENSITY
     -------------------------------------------------

          -----------------
          ENERGY COMPONENTS
          -----------------

         WAVEFUNCTION NORMALIZATION =       1.0000000000

                ONE ELECTRON ENERGY =    -122.8457979033
                TWO ELECTRON ENERGY =      37.3818770961
           NUCLEAR REPULSION ENERGY =       9.1898874447
                                      ------------------
                       TOTAL ENERGY =     -76.2740333625

 ELECTRON-ELECTRON POTENTIAL ENERGY =      37.3818770961
  NUCLEUS-ELECTRON POTENTIAL ENERGY =    -199.1430846879
   NUCLEUS-NUCLEUS POTENTIAL ENERGY =       9.1898874447
                                      ------------------
             TOTAL POTENTIAL ENERGY =    -152.5713201470
               TOTAL KINETIC ENERGY =      76.2972867845
                 VIRIAL RATIO (V/T) =       1.9996952261

          ---------------------------------------
          MULLIKEN AND LOWDIN POPULATION ANALYSES
          ---------------------------------------

               ----- POPULATIONS IN EACH AO -----
                             MULLIKEN      LOWDIN
              1  O  1  S      1.06439     1.04287
              2  O  1  S      0.86787     0.81776
              3  O  1  S      0.12443     0.31451
              4  O  1  S      1.08824     0.38850
              5  O  1  S      0.68963     0.41652
              6  O  1  X      0.59758     0.52344
              7  O  1  Y      0.82064     0.76237
              8  O  1  Z      0.69335     0.62464
              9  O  1  X      0.49345     0.51115
             10  O  1  Y      0.68343     0.72518
             11  O  1  Z      0.56436     0.62109
             12  O  1  X      0.13508     0.24221
             13  O  1  Y      0.45736     0.43762
             14  O  1  Z      0.32907     0.36918
             15  O  1 XX     -0.00643     0.19847
             16  O  1 YY     -0.02028     0.19382
             17  O  1 ZZ     -0.01691     0.19032
             18  O  1 XY      0.00338     0.00332
             19  O  1 XZ      0.01096     0.01342
             20  O  1 YZ      0.00428     0.00375
             21  H  2  S      0.26864     0.26753
             22  H  2  S      0.35421     0.32179
             23  H  2  S      0.03651     0.10146
             24  H  2  X      0.01796     0.04008
             25  H  2  Y      0.01594     0.03437
             26  H  2  Z      0.01481     0.03469
             27  H  3  S      0.26864     0.26753
             28  H  3  S      0.35421     0.32179
             29  H  3  S      0.03651     0.10146
             30  H  3  X      0.01796     0.04008
             31  H  3  Y      0.01594     0.03437
             32  H  3  Z      0.01481     0.03469

          ----- MULLIKEN ATOMIC OVERLAP POPULATIONS -----
          (OFF-DIAGONAL ELEMENTS NEED TO BE MULTIPLIED BY 2)

             1           2           3

    1    7.9657680
    2    0.3090539   0.4345946
    3    0.3090539  -0.0355864   0.4345946

          TOTAL MULLIKEN AND LOWDIN ATOMIC POPULATIONS
       ATOM         MULL.POP.    CHARGE          LOW.POP.     CHARGE
    1 O             8.583876   -0.583876         8.400140   -0.400140
    2 H             0.708062    0.291938         0.799930    0.200070
    3 H             0.708062    0.291938         0.799930    0.200070

          -------------------------------
          BOND ORDER AND VALENCE ANALYSIS     BOND ORDER THRESHOLD=0.050
          -------------------------------

                   BOND                       BOND                       BOND
  ATOM PAIR DIST  ORDER      ATOM PAIR DIST  ORDER      ATOM PAIR DIST  ORDER
    1   2  0.958  0.888        1   3  0.958  0.888

                       TOTAL       BONDED        FREE
      ATOM            VALENCE     VALENCE     VALENCE
    1 O                 2.100       1.775       0.324
    2 H                 0.937       0.891       0.047
    3 H                 0.937       0.891       0.047

          ---------------------
          ELECTROSTATIC MOMENTS
          ---------------------

 POINT   1           X           Y           Z (BOHR)    CHARGE
                 0.000000    0.000000   -0.000000        0.00 (A.U.)
         DX          DY          DZ         /D/  (DEBYE)
    -0.000000    0.000000    2.231635    2.231635
 ...... END OF PROPERTY EVALUATION ......
 STEP CPU TIME =     0.01 TOTAL CPU TIME =        0.5 (    0.0 MIN)
 TOTAL WALL CLOCK TIME=        0.6 SECONDS, CPU UTILIZATION IS  74.60%
 MODE # 1   QRANGE=   28.635414     DEL-Q=    8.181547
 MODE # 2   QRANGE=   29.140997     DEL-Q=    8.325999
 MODE # 3   QRANGE=   45.313210     DEL-Q=   12.946631


 STARTING DIAGONAL POTENTIAL ON A GRID OF   8 POINTS FOR   3 NORMAL MODES


 VSCF: MP2 ENERGY AND MP2 DIPOLE FOR GRID POINT  1 ALONG MODE  9

 ATOM      ATOMIC                      COORDINATES (BOHR)
           CHARGE         X                   Y                   Z
   1        8.0     0.0454516783        0.0000000000       -0.1233365597
   2        1.0    -1.7960373800        0.0000000000        1.2556431525
   3        1.0     1.0746864471        0.0000000000        0.7017970506
 ...... END OF ONE-ELECTRON INTEGRALS ......
 STEP CPU TIME =     0.00 TOTAL CPU TIME =        0.5 (    0.0 MIN)
 TOTAL WALL CLOCK TIME=        0.6 SECONDS, CPU UTILIZATION IS  74.60%
 TOTAL NUMBER OF NONZERO TWO-ELECTRON INTEGRALS =               69287
          5 INTEGRAL RECORDS WERE STORED ON DISK FILE  8.
  ...... END OF TWO-ELECTRON INTEGRALS .....
 STEP CPU TIME =     0.02 TOTAL CPU TIME =        0.5 (    0.0 MIN)
 TOTAL WALL CLOCK TIME=        0.7 SECONDS, CPU UTILIZATION IS  75.38%

          --------------------------
                 RHF SCF CALCULATION
          --------------------------
     DENSITY MATRIX CONV=  1.00E-06

 ITER EX DEM     TOTAL ENERGY        E CHANGE  DENSITY CHANGE     ORB. GRAD
          ---------------START SECOND ORDER SCF---------------
   1  0  0      -75.8355480324   -75.8355480324   0.087068415   0.108485964
   2  1  0      -75.8790918144    -0.0435437820   0.043525219   0.015958269
   3  2  0      -75.8822849370    -0.0031931226   0.011695458   0.006391035
   4  3  0      -75.8825876177    -0.0003026806   0.005822383   0.002357849
   5  4  0      -75.8826522588    -0.0000646411   0.003562572   0.002326488
   6  5  0      -75.8826589039    -0.0000066451   0.002460174   0.000267397
   7  6  0      -75.8826596192    -0.0000007153   0.000327619   0.000147793
   8  7  0      -75.8826596797    -0.0000000605   0.000119225   0.000034092
   9  8  0      -75.8826596857    -0.0000000059   0.000033095   0.000005534
  10  9  0      -75.8826596862    -0.0000000006   0.000009235   0.000003629
  11 10  0      -75.8826596863    -0.0000000001   0.000002992   0.000000759
  12 11  0      -75.8826596863    -0.0000000000   0.000000646   0.000000123
  13 12  0      -75.8826596863    -0.0000000000   0.000000108   0.000000032

          -----------------
          DENSITY CONVERGED
          -----------------
     TIME TO FORM FOCK OPERATORS=       0.0 SECONDS (       0.0 SEC/ITER)
     TIME TO SOLVE SCF EQUATIONS=       0.0 SECONDS (       0.0 SEC/ITER)

 FINAL RHF ENERGY IS      -75.8826596863 AFTER  13 ITERATIONS
 ...... END OF RHF CALCULATION ......
 STEP CPU TIME =     0.02 TOTAL CPU TIME =        0.5 (    0.0 MIN)
 TOTAL WALL CLOCK TIME=        0.7 SECONDS, CPU UTILIZATION IS  72.86%

 -------------------------------   -----------------------------
 MP2 ENERGY GRADIENT CALCULATION   PROGRAM WRITTEN BY K.ISHIMURA
 -------------------------------   -----------------------------
 NUMBER OF OCCUPIED ORBITALS            =    5
 NUMBER OF VIRTUAL ORBITALS             =   27
 NUMBER OF ACTIVE OCCUPIED ORBITALS     =    4
 NUMBER OF ACTIVE VIRTUAL ORBITALS      =   27
 NUMBER OF BASIS FUNCTIONS              =   32
 NUMBER OF BASIS SHELLS                 =   17
 AO INTEGRAL THRESHOLD                  = 1.00E-09
 HALF-TRANSFORMED INTEGRAL THRESHOLD    = 9.32E-13
   REQUIRED DISK =         0 MBYTES/PROCESSOR

 MAXIMUM MEMORY USED DURING MP2 GRADIENT=       61487 WORDS, OR       1 MWORDS.
 BEGINNING    1ST SHELL LOOP...
 .... DONE WITH 1ST THREE INDEX TRANSFORMATIONS ....
 STEP CPU TIME =     0.08 TOTAL CPU TIME =        0.6 (    0.0 MIN)
 TOTAL WALL CLOCK TIME=        0.8 SECONDS, CPU UTILIZATION IS  74.68%

 RESULTS OF MOLLER-PLESSET 2ND ORDER CORRECTION ARE
               E(0)=       -75.8826596863
               E(1)=         0.0
               E(2)=        -0.2179881199
             E(MP2)=       -76.1006478062
 .... DONE WITH 4TH INDEX TRANSFORMATION AND ENERGY ....
 STEP CPU TIME =     0.01 TOTAL CPU TIME =        0.6 (    0.0 MIN)
 TOTAL WALL CLOCK TIME=        0.8 SECONDS, CPU UTILIZATION IS  75.00%
 .... DONE WITH 1ST THREE INDEX TRANSFORMATIONS FOR GRADIENT ....
 STEP CPU TIME =     0.07 TOTAL CPU TIME =        0.7 (    0.0 MIN)
 TOTAL WALL CLOCK TIME=        0.9 SECONDS, CPU UTILIZATION IS  76.14%
 .... DONE WITH 4TH INDEX TRANSFORMATION FOR GRADIENT ....
 STEP CPU TIME =     0.01 TOTAL CPU TIME =        0.7 (    0.0 MIN)
 TOTAL WALL CLOCK TIME=        1.5 SECONDS, CPU UTILIZATION IS  43.87%
 CYCLE  1  Z-VECTOR ERROR= -0.317956E-02
 CYCLE  2  Z-VECTOR ERROR=  0.915573E-03
 CYCLE  3  Z-VECTOR ERROR= -0.165592E-03
 CYCLE  4  Z-VECTOR ERROR=  0.354312E-04
 CYCLE  5  Z-VECTOR ERROR= -0.115721E-04
 CYCLE  6  Z-VECTOR ERROR=  0.152757E-05
 CYCLE  7  Z-VECTOR ERROR= -0.228980E-06
 CYCLE  8  Z-VECTOR ERROR=  0.281192E-07
 CYCLE  9  Z-VECTOR ERROR= -0.385145E-08
 CYCLE 10  Z-VECTOR ERROR=  0.630613E-09
 CYCLE 11  Z-VECTOR ERROR= -0.104536E-09
 CYCLE 12  Z-VECTOR ERROR=  0.109322E-10
 .... DONE WITH RESPONSE EQUATIONS AND DENSITY ....
 STEP CPU TIME =     0.01 TOTAL CPU TIME =        0.7 (    0.0 MIN)
 TOTAL WALL CLOCK TIME=        1.6 SECONDS, CPU UTILIZATION IS  44.23%
 ..... DONE WITH MP2 ENERGY .....
 STEP CPU TIME =     0.00 TOTAL CPU TIME =        0.7 (    0.0 MIN)
 TOTAL WALL CLOCK TIME=        1.6 SECONDS, CPU UTILIZATION IS  43.95%


 VSCF: MP2 ENERGY AND MP2 DIPOLE FOR GRID POINT  2 ALONG MODE  9

 ATOM      ATOMIC                      COORDINATES (BOHR)
           CHARGE         X                   Y                   Z
   1        8.0     0.0324654845        0.0000000000       -0.1233365597
   2        1.0    -1.6929872467        0.0000000000        1.1765222808
   3        1.0     1.1777365804        0.0000000000        0.7809179223
 ...... END OF ONE-ELECTRON INTEGRALS ......
 STEP CPU TIME =     0.01 TOTAL CPU TIME =        0.7 (    0.0 MIN)
 TOTAL WALL CLOCK TIME=        1.6 SECONDS, CPU UTILIZATION IS  44.59%
 TOTAL NUMBER OF NONZERO TWO-ELECTRON INTEGRALS =               69287
          5 INTEGRAL RECORDS WERE STORED ON DISK FILE  8.
  ...... END OF TWO-ELECTRON INTEGRALS .....
 STEP CPU TIME =     0.02 TOTAL CPU TIME =        0.7 (    0.0 MIN)
 TOTAL WALL CLOCK TIME=        1.7 SECONDS, CPU UTILIZATION IS  43.64%

          --------------------------
                 RHF SCF CALCULATION
          --------------------------
     DENSITY MATRIX CONV=  1.00E-06

 ITER EX DEM     TOTAL ENERGY        E CHANGE  DENSITY CHANGE     ORB. GRAD
          ---------------START SECOND ORDER SCF---------------
   1  0  0      -75.9727965988   -75.9727965988   0.021888440   0.034896083
   2  1  0      -75.9765748331    -0.0037782343   0.008003167   0.004413343
   3  2  0      -75.9768267798    -0.0002519468   0.002198380   0.002550415
   4  3  0      -75.9768656036    -0.0000388238   0.000601492   0.000578872
   5  4  0      -75.9768680659    -0.0000024622   0.000342038   0.000104129
   6  5  0      -75.9768681923    -0.0000001264   0.000095861   0.000017373
   7  6  0      -75.9768681977    -0.0000000054   0.000027834   0.000007888
   8  7  0      -75.9768681983    -0.0000000006   0.000003380   0.000001314
   9  8  0      -75.9768681983    -0.0000000000   0.000002475   0.000000432
  10  9  0      -75.9768681983    -0.0000000000   0.000000289   0.000000085
  11 10  0      -75.9768681983    -0.0000000000   0.000000070   0.000000020

          -----------------
          DENSITY CONVERGED
          -----------------
     TIME TO FORM FOCK OPERATORS=       0.0 SECONDS (       0.0 SEC/ITER)
     TIME TO SOLVE SCF EQUATIONS=       0.0 SECONDS (       0.0 SEC/ITER)

 FINAL RHF ENERGY IS      -75.9768681983 AFTER  11 ITERATIONS
 ...... END OF RHF CALCULATION ......
 STEP CPU TIME =     0.01 TOTAL CPU TIME =        0.7 (    0.0 MIN)
 TOTAL WALL CLOCK TIME=        2.9 SECONDS, CPU UTILIZATION IS  25.52%

 -------------------------------   -----------------------------
 MP2 ENERGY GRADIENT CALCULATION   PROGRAM WRITTEN BY K.ISHIMURA
 -------------------------------   -----------------------------
 NUMBER OF OCCUPIED ORBITALS            =    5
 NUMBER OF VIRTUAL ORBITALS             =   27
 NUMBER OF ACTIVE OCCUPIED ORBITALS     =    4
 NUMBER OF ACTIVE VIRTUAL ORBITALS      =   27
 NUMBER OF BASIS FUNCTIONS              =   32
 NUMBER OF BASIS SHELLS                 =   17
 AO INTEGRAL THRESHOLD                  = 1.00E-09
 HALF-TRANSFORMED INTEGRAL THRESHOLD    = 1.32E-12
   REQUIRED DISK =         0 MBYTES/PROCESSOR

 MAXIMUM MEMORY USED DURING MP2 GRADIENT=       61487 WORDS, OR       1 MWORDS.
 BEGINNING    1ST SHELL LOOP...
 .... DONE WITH 1ST THREE INDEX TRANSFORMATIONS ....
 STEP CPU TIME =     0.08 TOTAL CPU TIME =        0.8 (    0.0 MIN)
 TOTAL WALL CLOCK TIME=        3.0 SECONDS, CPU UTILIZATION IS  27.46%

 RESULTS OF MOLLER-PLESSET 2ND ORDER CORRECTION ARE
               E(0)=       -75.9768681983
               E(1)=         0.0
               E(2)=        -0.2182316056
             E(MP2)=       -76.1950998039
 .... DONE WITH 4TH INDEX TRANSFORMATION AND ENERGY ....
 STEP CPU TIME =     0.02 TOTAL CPU TIME =        0.8 (    0.0 MIN)
 TOTAL WALL CLOCK TIME=        3.0 SECONDS, CPU UTILIZATION IS  28.14%
 .... DONE WITH 1ST THREE INDEX TRANSFORMATIONS FOR GRADIENT ....
 STEP CPU TIME =     0.06 TOTAL CPU TIME =        0.9 (    0.0 MIN)
 TOTAL WALL CLOCK TIME=        3.0 SECONDS, CPU UTILIZATION IS  29.47%
 .... DONE WITH 4TH INDEX TRANSFORMATION FOR GRADIENT ....
 STEP CPU TIME =     0.01 TOTAL CPU TIME =        0.9 (    0.0 MIN)
 TOTAL WALL CLOCK TIME=        3.0 SECONDS, CPU UTILIZATION IS  29.70%
 CYCLE  1  Z-VECTOR ERROR= -0.293195E-02
 CYCLE  2  Z-VECTOR ERROR=  0.847842E-03
 CYCLE  3  Z-VECTOR ERROR= -0.125791E-03
 CYCLE  4  Z-VECTOR ERROR=  0.230195E-04
 CYCLE  5  Z-VECTOR ERROR= -0.766704E-05
 CYCLE  6  Z-VECTOR ERROR=  0.107554E-05
 CYCLE  7  Z-VECTOR ERROR= -0.129860E-06
 CYCLE  8  Z-VECTOR ERROR=  0.217264E-07
 CYCLE  9  Z-VECTOR ERROR= -0.429783E-08
 CYCLE 10  Z-VECTOR ERROR=  0.622279E-09
 CYCLE 11  Z-VECTOR ERROR= -0.912088E-10
 .... DONE WITH RESPONSE EQUATIONS AND DENSITY ....
 STEP CPU TIME =     0.00 TOTAL CPU TIME =        0.9 (    0.0 MIN)
 TOTAL WALL CLOCK TIME=        3.0 SECONDS, CPU UTILIZATION IS  29.51%
 ..... DONE WITH MP2 ENERGY .....
 STEP CPU TIME =     0.00 TOTAL CPU TIME =        0.9 (    0.0 MIN)
 TOTAL WALL CLOCK TIME=        3.0 SECONDS, CPU UTILIZATION IS  29.51%


 VSCF: MP2 ENERGY AND MP2 DIPOLE FOR GRID POINT  3 ALONG MODE  9

 ATOM      ATOMIC                      COORDINATES (BOHR)
           CHARGE         X                   Y                   Z
   1        8.0     0.0194792907        0.0000000000       -0.1233365597
   2        1.0    -1.5899371134        0.0000000000        1.0974014091
   3        1.0     1.2807867136        0.0000000000        0.8600387940
 ...... END OF ONE-ELECTRON INTEGRALS ......
 STEP CPU TIME =     0.00 TOTAL CPU TIME =        0.9 (    0.0 MIN)
 TOTAL WALL CLOCK TIME=        3.0 SECONDS, CPU UTILIZATION IS  29.51%
 TOTAL NUMBER OF NONZERO TWO-ELECTRON INTEGRALS =               69287
          5 INTEGRAL RECORDS WERE STORED ON DISK FILE  8.
  ...... END OF TWO-ELECTRON INTEGRALS .....
 STEP CPU TIME =     0.03 TOTAL CPU TIME =        0.9 (    0.0 MIN)
 TOTAL WALL CLOCK TIME=        3.1 SECONDS, CPU UTILIZATION IS  30.10%

          --------------------------
                 RHF SCF CALCULATION
          --------------------------
     DENSITY MATRIX CONV=  1.00E-06

 ITER EX DEM     TOTAL ENERGY        E CHANGE  DENSITY CHANGE     ORB. GRAD
          ---------------START SECOND ORDER SCF---------------
   1  0  0      -76.0254292521   -76.0254292521   0.017785065   0.031580990
   2  1  0      -76.0289472678    -0.0035180157   0.010663007   0.004343181
   3  2  0      -76.0291865298    -0.0002392620   0.002797958   0.001872328
   4  3  0      -76.0292119138    -0.0000253839   0.000644889   0.000584466
   5  4  0      -76.0292150097    -0.0000030959   0.000346760   0.000085629
   6  5  0      -76.0292151040    -0.0000000943   0.000097888   0.000016067
   7  6  0      -76.0292151089    -0.0000000049   0.000019504   0.000005847
   8  7  0      -76.0292151092    -0.0000000003   0.000003114   0.000000964
   9  8  0      -76.0292151092    -0.0000000000   0.000001465   0.000000221
  10  9  0      -76.0292151092    -0.0000000000   0.000000205   0.000000053

          -----------------
          DENSITY CONVERGED
          -----------------
     TIME TO FORM FOCK OPERATORS=       0.0 SECONDS (       0.0 SEC/ITER)
     TIME TO SOLVE SCF EQUATIONS=       0.0 SECONDS (       0.0 SEC/ITER)

 FINAL RHF ENERGY IS      -76.0292151092 AFTER  10 ITERATIONS
 ...... END OF RHF CALCULATION ......
 STEP CPU TIME =     0.02 TOTAL CPU TIME =        1.0 (    0.0 MIN)
 TOTAL WALL CLOCK TIME=        3.2 SECONDS, CPU UTILIZATION IS  29.87%

 -------------------------------   -----------------------------
 MP2 ENERGY GRADIENT CALCULATION   PROGRAM WRITTEN BY K.ISHIMURA
 -------------------------------   -----------------------------
 NUMBER OF OCCUPIED ORBITALS            =    5
 NUMBER OF VIRTUAL ORBITALS             =   27
 NUMBER OF ACTIVE OCCUPIED ORBITALS     =    4
 NUMBER OF ACTIVE VIRTUAL ORBITALS      =   27
 NUMBER OF BASIS FUNCTIONS              =   32
 NUMBER OF BASIS SHELLS                 =   17
 AO INTEGRAL THRESHOLD                  = 1.00E-09
 HALF-TRANSFORMED INTEGRAL THRESHOLD    = 8.20E-13
   REQUIRED DISK =         0 MBYTES/PROCESSOR

 MAXIMUM MEMORY USED DURING MP2 GRADIENT=       61487 WORDS, OR       1 MWORDS.
 BEGINNING    1ST SHELL LOOP...
 .... DONE WITH 1ST THREE INDEX TRANSFORMATIONS ....
 STEP CPU TIME =     0.09 TOTAL CPU TIME =        1.0 (    0.0 MIN)
 TOTAL WALL CLOCK TIME=        3.3 SECONDS, CPU UTILIZATION IS  31.80%

 RESULTS OF MOLLER-PLESSET 2ND ORDER CORRECTION ARE
               E(0)=       -76.0292151092
               E(1)=         0.0
               E(2)=        -0.2185011757
             E(MP2)=       -76.2477162849
 .... DONE WITH 4TH INDEX TRANSFORMATION AND ENERGY ....
 STEP CPU TIME =     0.02 TOTAL CPU TIME =        1.1 (    0.0 MIN)
 TOTAL WALL CLOCK TIME=        3.3 SECONDS, CPU UTILIZATION IS  32.32%
 .... DONE WITH 1ST THREE INDEX TRANSFORMATIONS FOR GRADIENT ....
 STEP CPU TIME =     0.06 TOTAL CPU TIME =        1.1 (    0.0 MIN)
 TOTAL WALL CLOCK TIME=        3.3 SECONDS, CPU UTILIZATION IS  33.43%
 .... DONE WITH 4TH INDEX TRANSFORMATION FOR GRADIENT ....
 STEP CPU TIME =     0.00 TOTAL CPU TIME =        1.1 (    0.0 MIN)
 TOTAL WALL CLOCK TIME=        3.4 SECONDS, CPU UTILIZATION IS  33.14%
 CYCLE  1  Z-VECTOR ERROR= -0.256369E-02
 CYCLE  2  Z-VECTOR ERROR=  0.757475E-03
 CYCLE  3  Z-VECTOR ERROR= -0.956569E-04
 CYCLE  4  Z-VECTOR ERROR=  0.129311E-04
 CYCLE  5  Z-VECTOR ERROR= -0.387850E-05
 CYCLE  6  Z-VECTOR ERROR=  0.748617E-06
 CYCLE  7  Z-VECTOR ERROR= -0.995137E-07
 CYCLE  8  Z-VECTOR ERROR=  0.182011E-07
 CYCLE  9  Z-VECTOR ERROR= -0.313707E-08
 CYCLE 10  Z-VECTOR ERROR=  0.422085E-09
 CYCLE 11  Z-VECTOR ERROR= -0.604847E-10
 .... DONE WITH RESPONSE EQUATIONS AND DENSITY ....
 STEP CPU TIME =     0.02 TOTAL CPU TIME =        1.1 (    0.0 MIN)
 TOTAL WALL CLOCK TIME=        3.4 SECONDS, CPU UTILIZATION IS  33.53%
 ..... DONE WITH MP2 ENERGY .....
 STEP CPU TIME =     0.00 TOTAL CPU TIME =        1.1 (    0.0 MIN)
 TOTAL WALL CLOCK TIME=        3.4 SECONDS, CPU UTILIZATION IS  33.43%


 VSCF: MP2 ENERGY AND MP2 DIPOLE FOR GRID POINT  4 ALONG MODE  9

 ATOM      ATOMIC                      COORDINATES (BOHR)
           CHARGE         X                   Y                   Z
   1        8.0     0.0064930969        0.0000000000       -0.1233365597
   2        1.0    -1.4868869802        0.0000000000        1.0182805374
   3        1.0     1.3838368469        0.0000000000        0.9391596657
 ...... END OF ONE-ELECTRON INTEGRALS ......
 STEP CPU TIME =     0.00 TOTAL CPU TIME =        1.1 (    0.0 MIN)
 TOTAL WALL CLOCK TIME=        3.4 SECONDS, CPU UTILIZATION IS  33.43%
 TOTAL NUMBER OF NONZERO TWO-ELECTRON INTEGRALS =               69287
          5 INTEGRAL RECORDS WERE STORED ON DISK FILE  8.
  ...... END OF TWO-ELECTRON INTEGRALS .....
 STEP CPU TIME =     0.02 TOTAL CPU TIME =        1.2 (    0.0 MIN)
 TOTAL WALL CLOCK TIME=        3.4 SECONDS, CPU UTILIZATION IS  33.82%

          --------------------------
                 RHF SCF CALCULATION
          --------------------------
     DENSITY MATRIX CONV=  1.00E-06

 ITER EX DEM     TOTAL ENERGY        E CHANGE  DENSITY CHANGE     ORB. GRAD
          ---------------START SECOND ORDER SCF---------------
   1  0  0      -76.0489129168   -76.0489129168   0.015859487   0.028871360
   2  1  0      -76.0522898363    -0.0033769195   0.009142425   0.004315998
   3  2  0      -76.0525260475    -0.0002362111   0.003457357   0.001438418
   4  3  0      -76.0525428711    -0.0000168236   0.000685742   0.000525415
   5  4  0      -76.0525453584    -0.0000024873   0.000495540   0.000122735
   6  5  0      -76.0525454479    -0.0000000895   0.000116658   0.000018050
   7  6  0      -76.0525454536    -0.0000000056   0.000023536   0.000004663
   8  7  0      -76.0525454539    -0.0000000003   0.000004811   0.000001291
   9  8  0      -76.0525454539    -0.0000000000   0.000001522   0.000000228
  10  9  0      -76.0525454539    -0.0000000000   0.000000153   0.000000065

          -----------------
          DENSITY CONVERGED
          -----------------
     TIME TO FORM FOCK OPERATORS=       0.0 SECONDS (       0.0 SEC/ITER)
     TIME TO SOLVE SCF EQUATIONS=       0.0 SECONDS (       0.0 SEC/ITER)

 FINAL RHF ENERGY IS      -76.0525454539 AFTER  10 ITERATIONS
 ...... END OF RHF CALCULATION ......
 STEP CPU TIME =     0.01 TOTAL CPU TIME =        1.2 (    0.0 MIN)
 TOTAL WALL CLOCK TIME=        3.5 SECONDS, CPU UTILIZATION IS  33.91%

 -------------------------------   -----------------------------
 MP2 ENERGY GRADIENT CALCULATION   PROGRAM WRITTEN BY K.ISHIMURA
 -------------------------------   -----------------------------
 NUMBER OF OCCUPIED ORBITALS            =    5
 NUMBER OF VIRTUAL ORBITALS             =   27
 NUMBER OF ACTIVE OCCUPIED ORBITALS     =    4
 NUMBER OF ACTIVE VIRTUAL ORBITALS      =   27
 NUMBER OF BASIS FUNCTIONS              =   32
 NUMBER OF BASIS SHELLS                 =   17
 AO INTEGRAL THRESHOLD                  = 1.00E-09
 HALF-TRANSFORMED INTEGRAL THRESHOLD    = 7.90E-13
   REQUIRED DISK =         0 MBYTES/PROCESSOR

 MAXIMUM MEMORY USED DURING MP2 GRADIENT=       61487 WORDS, OR       1 MWORDS.
 BEGINNING    1ST SHELL LOOP...
 .... DONE WITH 1ST THREE INDEX TRANSFORMATIONS ....
 STEP CPU TIME =     0.08 TOTAL CPU TIME =        1.3 (    0.0 MIN)
 TOTAL WALL CLOCK TIME=        3.5 SECONDS, CPU UTILIZATION IS  35.31%

 RESULTS OF MOLLER-PLESSET 2ND ORDER CORRECTION ARE
               E(0)=       -76.0525454539
               E(1)=         0.0
               E(2)=        -0.2186745350
             E(MP2)=       -76.2712199888
 .... DONE WITH 4TH INDEX TRANSFORMATION AND ENERGY ....
 STEP CPU TIME =     0.00 TOTAL CPU TIME =        1.3 (    0.0 MIN)
 TOTAL WALL CLOCK TIME=        3.5 SECONDS, CPU UTILIZATION IS  35.31%
 .... DONE WITH 1ST THREE INDEX TRANSFORMATIONS FOR GRADIENT ....
 STEP CPU TIME =     0.06 TOTAL CPU TIME =        1.3 (    0.0 MIN)
 TOTAL WALL CLOCK TIME=        3.6 SECONDS, CPU UTILIZATION IS  36.39%
 .... DONE WITH 4TH INDEX TRANSFORMATION FOR GRADIENT ....
 STEP CPU TIME =     0.00 TOTAL CPU TIME =        1.3 (    0.0 MIN)
 TOTAL WALL CLOCK TIME=        3.6 SECONDS, CPU UTILIZATION IS  36.29%
 CYCLE  1  Z-VECTOR ERROR= -0.228273E-02
 CYCLE  2  Z-VECTOR ERROR=  0.686429E-03
 CYCLE  3  Z-VECTOR ERROR= -0.791652E-04
 CYCLE  4  Z-VECTOR ERROR=  0.778928E-05
 CYCLE  5  Z-VECTOR ERROR= -0.176591E-05
 CYCLE  6  Z-VECTOR ERROR=  0.280630E-06
 CYCLE  7  Z-VECTOR ERROR= -0.482662E-07
 CYCLE  8  Z-VECTOR ERROR=  0.945034E-08
 CYCLE  9  Z-VECTOR ERROR= -0.199050E-08
 CYCLE 10  Z-VECTOR ERROR=  0.277888E-09
 CYCLE 11  Z-VECTOR ERROR= -0.428025E-10
 .... DONE WITH RESPONSE EQUATIONS AND DENSITY ....
 STEP CPU TIME =     0.00 TOTAL CPU TIME =        1.3 (    0.0 MIN)
 TOTAL WALL CLOCK TIME=        3.6 SECONDS, CPU UTILIZATION IS  36.19%
 ..... DONE WITH MP2 ENERGY .....
 STEP CPU TIME =     0.01 TOTAL CPU TIME =        1.3 (    0.0 MIN)
 TOTAL WALL CLOCK TIME=        3.6 SECONDS, CPU UTILIZATION IS  36.46%


 VSCF: MP2 ENERGY AND MP2 DIPOLE FOR GRID POINT  5 ALONG MODE  9

 ATOM      ATOMIC                      COORDINATES (BOHR)
[...]
   10             0.001282   0.000000  -0.000000   0.000000   0.000000
   11             0.000000   0.005935  -0.011937   0.000103   0.016666
   12            -0.009345   0.000000  -0.000000   0.000000   0.000000
   13             0.000000  -0.073580   0.009503  -0.989430   0.023446
   14             0.140736   0.000000  -0.000000   0.000000  -0.000000
   15             0.000000  -0.024028   0.005563  -0.079858   0.001762
   16            -0.000000   0.017061  -0.238950   0.079900  -0.010887
   17             0.000000  -0.007456  -0.969886  -0.028686   0.016106
   18            -0.000000   0.021314   0.035220   0.021533   0.267110
   19             0.000000  -0.011670   0.004427   0.020088   0.962520

                     16         17         18         19

                  0.072229   0.076080   0.077024   0.095773

    1             0.000000   0.026063   0.014079   0.012754
    2             0.000000   0.000000   0.000000   0.000000
    3             0.000000   0.020522   0.008031  -0.046713
    4            -0.000000  -0.003299   0.006320   0.000078
    5             0.000000   0.183815   0.089664   0.062726
    6             0.000000   0.115592   0.042309   0.007033
    7            -0.000000  -0.009479   0.022722   0.000039
    8             0.000121   0.000000   0.000000  -0.000000
    9            -0.000000  -0.868128  -0.319019  -0.288189
   10            -0.999964   0.000000   0.000000   0.000000
   11            -0.000000  -0.269257  -0.115579   0.954080
   12             0.001579  -0.000000   0.000000  -0.000000
   13            -0.000000  -0.038858   0.074280  -0.001914
   14             0.008364  -0.000000   0.000000  -0.000000
   15             0.000000   0.350475  -0.928671  -0.013522
   16             0.000000   0.011625   0.000484   0.000965
   17             0.000000   0.010011   0.002874  -0.008607
   18             0.000000  -0.013662   0.078139   0.001262
   19             0.000000   0.027178  -0.012601  -0.009260



 E(DIAG)=     8829.53 (WITHOUT MODE COUPLING)
 E(VSCF)=     8526.98
 E(VMP2)=     8457.77

 SOLVING VSCF FOR  1 QUANTA IN MODE   2

 -----------------------
 VIBRATIONAL STATE #   2
 -----------------------
        CONFIGURATION: 010

  ITERATION         E(SCF)           E(MP1)         E(TOTAL)
       1            8378.42           -95.52          8473.94
       2            8338.81           -97.31          8436.12
       3            8338.10           -97.35          8435.44
       4            8338.08           -97.35          8435.43
 VSCF CONVERGED IN    4 ITERATIONS
 MP2 (   3) :-0.3048931E-03
 NUMBER OF VIRTUAL STATES IS     37
 NUMBER OF SELECTED STATES IS    14
 VIBRATIONAL VIRTUAL CI EIGENVALUES
      #    EIGENVALUE  DETERMINANT
     ===   ==========  ===========
       1      4680.55  000
       2      6242.76  001
       3      7903.98  002
       4      8379.42  010
       5      8682.48  100
       6      9978.46  011
       7     10395.43  101
       8     11706.51  012
       9     12193.38  102
      10     12209.36  020
      11     12479.41  110
      12     12869.45  200
      13     13845.77  021
      14     15196.66  201
      15     15573.60  022
      16     16834.49  120
      17     16978.22  210
      18     17287.13  202
      19     22719.01  220

 VIBRATIONAL VIRTUAL CI EIGENVECTORS

                      1          2          3          4          5

                  0.021326   0.028444   0.036013   0.038179   0.039560

    1            -0.999107   0.011137   0.005794   0.001496  -0.000000
    2            -0.000000   0.000000  -0.000000  -0.000000   0.988116
    3            -0.000562   0.014035  -0.147787  -0.983126  -0.000000
    4             0.011118   0.999140   0.016910   0.012580  -0.000000
    5            -0.007760   0.009876  -0.002052  -0.094181  -0.000000
    6            -0.002577   0.000539   0.009004  -0.005674   0.000000
    7             0.006698  -0.012976   0.985317  -0.147102  -0.000000
    8            -0.000000   0.000000  -0.000000  -0.000000   0.148862
    9            -0.036729   0.001882  -0.000905  -0.026397   0.000000
   10             0.000000   0.000000  -0.000000  -0.000000  -0.004154
   11             0.002358   0.000456  -0.005714  -0.041639  -0.000000
   12            -0.000000   0.000000   0.000000  -0.000000   0.037188
   13            -0.006167   0.006255   0.011924  -0.004737   0.000000
   14            -0.000000   0.000000   0.000000  -0.000000   0.008182
   15            -0.003468   0.006681   0.014010  -0.003848   0.000000
   16            -0.005756  -0.027211   0.041025  -0.009504   0.000000
   17            -0.000328   0.006714  -0.004158  -0.006020  -0.000000
   18             0.010029   0.015975  -0.066649   0.009953   0.000000
   19            -0.003456  -0.001997   0.019754   0.008203   0.000000

                      6          7          8          9         10

                  0.045465   0.047365   0.053339   0.055557   0.055630

    1             0.006839   0.000000  -0.010282  -0.000000   0.007872
    2             0.000000   0.037986  -0.000000  -0.032040   0.000000
    3             0.004134   0.000000   0.002293  -0.000000   0.020898
    4            -0.026157   0.000000   0.015889  -0.000000   0.004463
    5            -0.008980  -0.000000  -0.017338   0.000000  -0.102304
    6            -0.016771   0.000000   0.137048   0.000000  -0.969588
    7             0.043871  -0.000000  -0.067659   0.000000   0.001340
    8            -0.000000  -0.000741   0.000000   0.258284  -0.000000
    9            -0.012045   0.000000   0.001860   0.000000  -0.164683
   10            -0.000000  -0.002045   0.000000   0.034520  -0.000000
   11            -0.001878   0.000000   0.004706   0.000000  -0.054983
   12            -0.000000  -0.998621   0.000000   0.033459   0.000000
   13            -0.086912   0.000000  -0.006455  -0.000000  -0.004868
   14            -0.000000  -0.036182  -0.000000  -0.964340  -0.000000
   15            -0.001742  -0.000000  -0.084371   0.000000  -0.013199
   16            -0.993944   0.000000  -0.004519  -0.000000   0.019106
   17             0.032069  -0.000000  -0.042620   0.000000  -0.028895
   18            -0.003130  -0.000000  -0.980513   0.000000  -0.130740
   19            -0.017228   0.000000   0.074482  -0.000000   0.016669

                     11         12         13         14         15

                  0.056860   0.058638   0.063086   0.069241   0.070959

    1            -0.000000   0.019741  -0.001040   0.003620  -0.003020
    2            -0.142455  -0.000000   0.000000   0.000000   0.000000
    3            -0.000000   0.095763  -0.007950  -0.004370   0.011291
    4            -0.000000   0.008712  -0.004424   0.008730   0.000136
    5             0.000000  -0.922358   0.016663   0.066743  -0.009214
    6            -0.000000   0.151716  -0.025515  -0.008946   0.005420
    7            -0.000000   0.013665  -0.000993   0.009583  -0.011704
    8             0.939814   0.000000  -0.000000  -0.000000  -0.000000
    9             0.000000  -0.326833   0.007566   0.057101   0.012596
   10             0.166248   0.000000   0.000000   0.000000   0.000000
   11             0.000000  -0.020667   0.007249   0.010091   0.012980
   12            -0.015944   0.000000   0.000000   0.000000   0.000000
   13             0.000000  -0.080112  -0.070370  -0.984054   0.040200
   14             0.261846   0.000000   0.000000   0.000000   0.000000
   15             0.000000  -0.025636  -0.011199  -0.097663  -0.042301
   16            -0.000000   0.018293   0.037728   0.082160  -0.022969
   17            -0.000000   0.018040   0.994065  -0.076612  -0.042497
   18            -0.000000   0.037451  -0.042022   0.017485   0.082659
   19             0.000000  -0.005609   0.049447   0.032817   0.993335

                     16         17         18         19

                  0.076704   0.077358   0.078766   0.103515

    1            -0.000000   0.024998   0.012859  -0.014439
    2             0.029398   0.000000   0.000000  -0.000000
    3            -0.000000   0.005637   0.001476   0.039381
    4             0.000000  -0.003216   0.003601   0.000212
    5            -0.000000   0.310792   0.134429  -0.099482
    6            -0.000000   0.122647   0.043304   0.004418
    7             0.000000  -0.008769   0.017333   0.000261
    8            -0.166967  -0.000000  -0.000000   0.000000
    9             0.000000  -0.809600  -0.286369   0.350607
   10             0.985469   0.000000   0.000000  -0.000000
   11             0.000000  -0.332807  -0.136222  -0.930114
   12            -0.000398  -0.000000   0.000000   0.000000
   13             0.000000  -0.062783   0.082736   0.002021
   14            -0.010433  -0.000000   0.000000   0.000000
   15            -0.000000   0.340273  -0.929706   0.013678
   16            -0.000000   0.009886  -0.002466  -0.001718
   17            -0.000000   0.003078   0.002955   0.006113
   18             0.000000  -0.017524   0.077306  -0.002097
   19            -0.000000   0.035587  -0.042655   0.007170



 E(DIAG)=     8514.06 (WITHOUT MODE COUPLING)
 E(VSCF)=     8435.43
 E(VMP2)=     8368.51

 SOLVING VSCF FOR  1 QUANTA IN MODE   3

 -----------------------
 VIBRATIONAL STATE #   3
 -----------------------
        CONFIGURATION: 001

  ITERATION         E(SCF)           E(MP1)         E(TOTAL)
       1            6175.74          -110.86          6286.60
       2            6140.55          -112.66          6253.21
       3            6140.17          -112.68          6252.85
       4            6140.16          -112.68          6252.84
 VSCF CONVERGED IN    4 ITERATIONS
 MP2 (   4) :-0.1188476E-03
 NUMBER OF VIRTUAL STATES IS     37
 NUMBER OF SELECTED STATES IS    14
 VIBRATIONAL VIRTUAL CI EIGENVALUES
      #    EIGENVALUE  DETERMINANT
     ===   ==========  ===========
       1      4648.84  000
       2      6250.07  001
       3      7966.41  002
       4      8322.83  010
       5      8528.19  100
       6      9951.20  011
       7     10319.03  101
       8     11725.56  012
       9     12151.70  102
      10     12169.30  020
      11     12356.72  110
      12     12532.89  200
      13     13844.94  021
      14     14980.12  201
      15     15615.85  022
      16     16706.57  210
      17     16791.70  120
      18     17107.28  202
      19     22600.37  220

 VIBRATIONAL VIRTUAL CI EIGENVECTORS

                      1          2          3          4          5

                  0.021182   0.028477   0.036298   0.037922   0.038857

    1             0.998798  -0.000460   0.004469  -0.028084   0.000000
    2             0.000000   0.000000  -0.000000   0.000000   0.982566
    3             0.027522   0.014662  -0.201207   0.971829  -0.000000
    4             0.000109   0.999685   0.005250  -0.015082   0.000000
    5             0.002712   0.010133  -0.007715   0.099981  -0.000000
    6            -0.002790   0.000891   0.003280   0.035063  -0.000000
    7             0.000328  -0.001579   0.977339   0.200349  -0.000000
    8             0.000000   0.000000  -0.000000   0.000000   0.179602
    9             0.037797   0.001708  -0.001708   0.024983   0.000000
   10             0.000000   0.000000  -0.000000   0.000000  -0.004656
   11            -0.001291   0.000510  -0.008340   0.043041  -0.000000
   12             0.000000   0.000000   0.000000   0.000000   0.045489
   13             0.006251   0.000396   0.011569   0.006460   0.000000
   14             0.000000   0.000000   0.000000   0.000000   0.014693
   15             0.003558   0.006581   0.007974   0.004072   0.000000
   16             0.005860   0.000133   0.042439   0.022593  -0.000000
   17             0.000469   0.000287  -0.003894   0.006432  -0.000000
   18            -0.010111   0.016113  -0.044030  -0.001597   0.000000
   19             0.003252  -0.001682   0.013449  -0.008829   0.000000

                      6          7          8          9         10

                  0.045341   0.047017   0.053426   0.055367   0.055447

    1             0.006369   0.000000  -0.009495   0.000000   0.003144
    2             0.000000   0.046061  -0.000000   0.062350  -0.000000
    3             0.015926  -0.000000   0.004367   0.000000   0.063819
    4             0.000310   0.000000   0.016373   0.000000   0.005149
    5            -0.009123  -0.000000  -0.020284  -0.000000  -0.228053
    6            -0.016539   0.000000   0.162578  -0.000000  -0.931077
    7             0.047223  -0.000000  -0.044236   0.000000   0.005979
    8            -0.000000   0.004129   0.000000  -0.408067   0.000000
    9            -0.012759   0.000000   0.004440  -0.000000  -0.222728
   10            -0.000000  -0.001921   0.000000  -0.074475   0.000000
   11            -0.001632   0.000000   0.005318  -0.000000  -0.055513
   12            -0.000000  -0.998073   0.000000  -0.036223   0.000000
   13            -0.092484   0.000000  -0.005715  -0.000000  -0.014795
   14            -0.000000  -0.041325  -0.000000   0.907048  -0.000000
   15            -0.002645  -0.000000  -0.088727  -0.000000  -0.019786
   16            -0.993948   0.000000   0.006172   0.000000   0.024812
   17             0.001839   0.000000  -0.043456  -0.000000  -0.036363
   18            -0.011234  -0.000000  -0.979022  -0.000000  -0.147267
   19            -0.018219   0.000000   0.049581   0.000000   0.004263

                     11         12         13         14         15

                  0.056301   0.057104   0.063082   0.068254   0.071151

    1            -0.000000  -0.014025  -0.000718   0.003644  -0.003307
    2            -0.163928   0.000000   0.000000   0.000000   0.000000
    3            -0.000000  -0.088020  -0.006955  -0.004309   0.011493
    4            -0.000000  -0.007158   0.000609   0.000118   0.001020
    5             0.000000   0.889904   0.018166   0.063582  -0.008009
    6            -0.000000  -0.292256  -0.036176  -0.010401  -0.004123
    7            -0.000000  -0.012901   0.000895   0.008481  -0.007689
    8             0.872940  -0.000000  -0.000000  -0.000000  -0.000000
    9             0.000000   0.319152   0.007401   0.063737   0.014805
   10             0.188215  -0.000000   0.000000   0.000000   0.000000
   11            -0.000000   0.017636   0.007204   0.012894   0.014140
   12            -0.021647   0.000000   0.000000  -0.000000   0.000000
   13             0.000000   0.079426  -0.100030  -0.981205   0.028291
   14             0.418580  -0.000000   0.000000   0.000000   0.000000
   15             0.000000   0.025617  -0.014461  -0.096483  -0.061265
   16             0.000000  -0.016359   0.010983   0.089956  -0.021710
   17            -0.000000  -0.024791   0.991455  -0.103672  -0.048285
   18            -0.000000  -0.066832  -0.045732   0.017399   0.057820
   19             0.000000   0.003476   0.052870   0.017356   0.994282

                     16         17         18         19

                  0.076121   0.076509   0.077946   0.102975

    1             0.028627   0.000000   0.012173  -0.016231
    2            -0.000000   0.041010   0.000000  -0.000000
    3            -0.001116  -0.000000  -0.001340   0.042392
    4            -0.003469  -0.000000   0.003975   0.000307
    5             0.336309   0.000000   0.122846  -0.113005
    6             0.130073   0.000000   0.036908  -0.003693
    7            -0.005813  -0.000000   0.010513   0.000461
    8             0.000000  -0.197947  -0.000000   0.000000
    9            -0.807445  -0.000000  -0.227886   0.371560
   10            -0.000000   0.979287   0.000000  -0.000000
   11            -0.363673  -0.000000  -0.123312  -0.920201
   12            -0.000000  -0.000335   0.000000   0.000000
   13            -0.063195  -0.000000   0.084277   0.002319
   14             0.000000  -0.011480   0.000000   0.000000
   15             0.280931   0.000000  -0.947904   0.014884
   16             0.010148   0.000000  -0.003230  -0.001913
   17             0.002058   0.000000   0.003404   0.006097
   18            -0.014138  -0.000000   0.083595  -0.002528
   19             0.040762   0.000000  -0.059149   0.007340



 E(DIAG)=     6353.38 (WITHOUT MODE COUPLING)
 E(VSCF)=     6252.84
 E(VMP2)=     6226.76

 (CUMULATIVE SCALING FACTOR FOR COUPLING POTENTIAL 1.00)

 RESULTS OF VIBRATIONAL SCF CALCULATION: (FREQUENCIES IN CM-1)
 MODE  HARMONIC   DIAGONAL     VSCF      PT2-VSCF   VCI-VSCF  DPT2-VSCF
   9    4014.85    4058.00    3813.08    3763.20    3831.43       0.00
   8    3876.74    3742.53    3721.53    3673.95    3683.87       0.00
   7    1603.34    1581.86    1538.94    1532.19    1554.51       0.00

     -------------------------------
     THERMOCHEMISTRY AT T=  298.15 K
     -------------------------------

 USING IDEAL GAS, RIGID ROTOR, ANHARMONIC APPROXIMATIONS.
 P=  1.01325E+05 PASCAL.
 ALL FREQUENCIES ARE SCALED BY   1.00000
 THE MOMENTS OF INERTIA ARE (IN AMU*BOHR**2)
      2.17409     4.15277     6.32686
 THE ROTATIONAL SYMMETRY NUMBER IS  2.0
 THE ROTATIONAL CONSTANTS ARE (IN GHZ)
    829.35301   434.18921   284.98939
      1 -      3 VIBRATIONAL MODES ARE USED IN THERMOCHEMISTRY.
 THE ANHARMONIC ZERO POINT ENERGY IS (SCALED BY   1.000)
        0.021390 HARTREE/MOLECULE     4694.565226 CM**-1/MOLECULE 
       13.422449 KCAL/MOL               56.159527 KJ/MOL

               Q               LN Q
 ELEC.     1.00000E+00       0.000000
 TRANS.    3.00431E+06      14.915558
 ROT.      4.27773E+01       3.756007
 VIB.      1.00062E+00       0.000615
 TOT.      1.28595E+08      18.672181

              E         H         G         CV        CP        S
           KJ/MOL    KJ/MOL    KJ/MOL   J/MOL-K   J/MOL-K   J/MOL-K
 ELEC.      0.000     0.000     0.000     0.000     0.000     0.000
 TRANS.     3.718     6.197   -36.975    12.472    20.786   144.800
 ROT.       3.718     3.718    -9.311    12.472    12.472    43.701
 VIB.      56.171    56.171    56.158     0.280     0.280     0.043
 TOTAL     63.608    66.087     9.872    25.223    33.538   188.544
 VIB. THERMAL CORRECTION E(T)-E(0) = H(T)-H(0) =    11.280 J/MOL

              E         H         G         CV        CP        S
         KCAL/MOL  KCAL/MOL  KCAL/MOL CAL/MOL-K CAL/MOL-K CAL/MOL-K
 ELEC.      0.000     0.000     0.000     0.000     0.000     0.000
 TRANS.     0.889     1.481    -8.837     2.981     4.968    34.608
 ROT.       0.889     0.889    -2.225     2.981     2.981    10.445
 VIB.      13.425    13.425    13.422     0.067     0.067     0.010
 TOTAL     15.203    15.795     2.360     6.028     8.016    45.063
 VIB. THERMAL CORRECTION E(T)-E(0) = H(T)-H(0) =     2.696 CAL/MOL

 IR INTENSITIES ARE CALCULATED USING DIPOLE MOMENTS
 MODE   FREQUENCY, CM-1  INTENSITY, KM/MOL
   9        3763.20         50.01
   8        3673.95          2.23
   7        1532.19         82.43
 ......FINISHED VIBRATIONAL SCF......
 STEP CPU TIME =     0.01 TOTAL CPU TIME =       42.9 (    0.7 MIN)
 TOTAL WALL CLOCK TIME=       55.7 SECONDS, CPU UTILIZATION IS  76.89%
               580000  WORDS OF DYNAMIC MEMORY USED
 EXECUTION OF GAMESS TERMINATED NORMALLY Tue Nov 29 00:38:47 2016
 DDI: 263640 bytes (0.3 MB / 0 MWords) used by master data server.

 ----------------------------------------
 CPU timing information for all processes
 ========================================
 0: 38.418 + 4.457 = 42.875
 ----------------------------------------
 ddikick.x: exited gracefully.
unset echo
----- accounting info -----
Files used on the master node compute-3-0 were:
-rw-rw-r-- 1 sarom sarom  108524 Nov 29  2016 .//vscf-h2o.dat
-rw-rw-r-- 1 sarom sarom  110848 Nov 29  2016 .//vscf-h2o.F05
-rw-rw-r-- 1 sarom sarom  900080 Nov 29  2016 .//vscf-h2o.F08
-rw-rw-r-- 1 sarom sarom 2028640 Nov 29  2016 .//vscf-h2o.F10
-rw-rw-r-- 1 sarom sarom  110848 Nov 28 17:27 .//vscf-h2o.inp
-rw-rw-r-- 1 sarom sarom 1190436 Nov 29  2016 .//vscf-h2o.log
-rw-rw-r-- 1 sarom sarom   23460 Nov 29  2016 .//vscf-h2o.rst
Tue Nov 29 00:38:50 CST 2016
0.207u 0.084s 0:59.41 0.4%	0+0k 0+352io 0pf+0w
