----- GAMESS execution script 'rungms' -----
This job is running on host compute-3-0
under operating system Linux at Tue Nov 29 00:37:45 CST 2016
Available scratch disk space (Kbyte units) at beginning of the job is
Filesystem            1K-blocks       Used  Available Use% Mounted on
bolt.local:/export/home/sarom
                     9590469632 1553431552 7549870080  18% /home/sarom
Copying input file vscf-h2co-qff1.inp to your run's scratch directory...
cp vscf-h2co-qff1.inp .//vscf-h2co-qff1.F05
unset echo
/home/sarom/gamessGH/ddikick.x /home/sarom/gamessGH/gamess.00.x vscf-h2co-qff1 -ddi 1 1 localhost -scr ./

 Distributed Data Interface kickoff program.
 Initiating 1 compute processes on 1 nodes to run the following command:
 /home/sarom/gamessGH/gamess.00.x vscf-h2co-qff1 

          ******************************************************
          *         GAMESS VERSION = 18 AUG 2016 (R1)          *
          *             FROM IOWA STATE UNIVERSITY             *
          * M.W.SCHMIDT, K.K.BALDRIDGE, J.A.BOATZ, S.T.ELBERT, *
          *   M.S.GORDON, J.H.JENSEN, S.KOSEKI, N.MATSUNAGA,   *
          *          K.A.NGUYEN, S.J.SU, T.L.WINDUS,           *
          *       TOGETHER WITH M.DUPUIS, J.A.MONTGOMERY       *
          *         J.COMPUT.CHEM.  14, 1347-1363(1993)        *
          **************** 64 BIT LINUX VERSION ****************

  SINCE 1993, STUDENTS AND POSTDOCS WORKING AT IOWA STATE UNIVERSITY
  AND ALSO IN THEIR VARIOUS JOBS AFTER LEAVING ISU HAVE MADE IMPORTANT
  CONTRIBUTIONS TO THE CODE:
     IVANA ADAMOVIC, CHRISTINE AIKENS, YURI ALEXEEV, POOJA ARORA,
     ANDREY ASADCHEV, ROB BELL, PRADIPTA BANDYOPADHYAY, JONATHAN BENTZ,
     BRETT BODE, KURT BRORSEN, CALEB CARLIN, GALINA CHABAN, WEI CHEN,
     CHEOL HO CHOI, PAUL DAY, ALBERT DEFUSCO, NUWAN DESILVA, TIM DUDLEY,
     DMITRI FEDOROV, GRAHAM FLETCHER, MARK FREITAG, KURT GLAESEMANN,
     DAN KEMP, GRANT MERRILL, NORIYUKI MINEZAWA, JONATHAN MULLIN,
     TAKESHI NAGATA, SEAN NEDD, HEATHER NETZLOFF, BOSILJKA NJEGIC, RYAN OLSON,
     MIKE PAK, SPENCER PRUITT, LUKE ROSKOP, JIM SHOEMAKER, LYUDMILA SLIPCHENKO,
     TONY SMITH, SAROM SOK LEANG, JIE SONG, TETSUYA TAKETSUGU, SIMON WEBB,
     PENG XU, SOOHAENG YOO, FEDERICO ZAHARIEV

  ADDITIONAL CODE HAS BEEN PROVIDED BY COLLABORATORS IN OTHER GROUPS:
     IOWA STATE UNIVERSITY:
          JOE IVANIC, AARON WEST, LAIMUTIS BYTAUTAS, KLAUS RUEDENBERG
     UNIVERSITY OF TOKYO: KIMIHIKO HIRAO, TAKAHITO NAKAJIMA,
          TAKAO TSUNEDA, MUNEAKI KAMIYA, SUSUMU YANAGISAWA,
          KIYOSHI YAGI, MAHITO CHIBA, SEIKEN TOKURA, NAOAKI KAWAKAMI
     UNIVERSITY OF AARHUS: FRANK JENSEN
     UNIVERSITY OF IOWA: VISVALDAS KAIRYS, HUI LI
     NATIONAL INST. OF STANDARDS AND TECHNOLOGY: WALT STEVENS, DAVID GARMER
     UNIVERSITY OF PISA: BENEDETTA MENNUCCI, JACOPO TOMASI
     UNIVERSITY OF MEMPHIS: HENRY KURTZ, PRAKASHAN KORAMBATH
     UNIVERSITY OF ALBERTA: TOBY ZENG, MARIUSZ KLOBUKOWSKI
     UNIVERSITY OF NEW ENGLAND: MARK SPACKMAN
     MIE UNIVERSITY: HIROAKI UMEDA
     NAT. INST. OF ADVANCED INDUSTRIAL SCIENCE AND TECHNOLOGY: KAZUO KITAURA
     MICHIGAN STATE UNIVERSITY:
          KAROL KOWALSKI, MARTA WLOCH, JEFFREY GOUR, JESSE LUTZ,
          WEI LI, PIOTR PIECUCH
     UNIVERSITY OF SILESIA: MONIKA MUSIAL, STANISLAW KUCHARSKI
     FACULTES UNIVERSITAIRES NOTRE-DAME DE LA PAIX:
          OLIVIER QUINET, BENOIT CHAMPAGNE
     UNIVERSITY OF CALIFORNIA - SANTA BARBARA: BERNARD KIRTMAN
     INSTITUTE FOR MOLECULAR SCIENCE:
          KAZUYA ISHIMURA, MICHIO KATOUDA, AND SHIGERU NAGASE
     UNIVERSITY OF NOTRE DAME: ANNA POMOGAEVA, DAN CHIPMAN
     KYUSHU UNIVERSITY:
          HARUYUKI NAKANO,
          FENG LONG GU, JACEK KORCHOWIEC, MARCIN MAKOWSKI, AND YURIKO AOKI,
          HIROTOSHI MORI AND EISAKU MIYOSHI
     PENNSYLVANIA STATE UNIVERSITY:
          TZVETELIN IORDANOV, CHET SWALINA, JONATHAN SKONE,
          SHARON HAMMES-SCHIFFER
     WASEDA UNIVERSITY:
          MASATO KOBAYASHI, TOMOKO AKAMA, TSUGUKI TOUMA,
          TAKESHI YOSHIKAWA, YASUHIRO IKABATA, JUNJI SEINO,
          YUYA NAKAJIMA, HIROMI NAKAI
     NANJING UNIVERSITY: SHUHUA LI
     UNIVERSITY OF NEBRASKA:
          PEIFENG SU, DEJUN SI, NANDUN THELLAMUREGE, YALI WANG, HUI LI
     UNIVERSITY OF ZURICH: ROBERTO PEVERATI, KIM BALDRIDGE
     N. COPERNICUS UNIVERSITY AND JACKSON STATE UNIVERSITY:
          MARIA BARYSZ
     UNIVERSITY OF COPENHAGEN: Jimmy Kromann, CASPER STEINMANN
     TOKYO INSTITUTE OF TECHNOLOGY: HIROYA NAKATA
     NAGOYA UNIVERSITY: YOSHIO NISHIMOTO, STEPHAN IRLE
     MOSCOW STATE UNIVERSITY: VLADIMIR MIRONOV

 EXECUTION OF GAMESS BEGUN Tue Nov 29 00:37:45 2016

            ECHO OF THE FIRST FEW INPUT CARDS -
 INPUT CARD>!    H2CO...VSCF calculation using the 1MR QFF approximation,                   
 INPUT CARD>!    and the electronic structure level is MP2/aug-cc-pVTZ.                     
 INPUT CARD>!    The equilibrium geometry has E(MP2)= -114.3164101837                       
 INPUT CARD>!                                                                               
 INPUT CARD>!    Combining results found in two places in the log file,                     
 INPUT CARD>!      RESULTS OF VIBRATIONAL SCF CALCULATION: (FREQUENCIES IN CM-1)            
 INPUT CARD>!          MODE      HARMONIC     DIAGONAL   R intens                           
 INPUT CARD>!           12        3047.62      3120.54    87.40                             
 INPUT CARD>!           11        2973.65      2918.13    68.87                             
 INPUT CARD>!           10        1752.93      1737.08    63.30                             
 INPUT CARD>!            9        1540.13      1541.27    11.29                             
 INPUT CARD>!            8        1266.75      1278.52     9.50                             
 INPUT CARD>!            7        1196.90      1216.25     6.89                             
 INPUT CARD>!    There's no real VSCF since this is only single mode coupling.              
 INPUT CARD>!                                                                               
 INPUT CARD>!    This file reads the completed $VIBSCF, to shorten the run.                 
 INPUT CARD>!    This run takes 0 seconds on 2.66 GHz Cloverton (30 Apr 2015)               
 INPUT CARD>!                                                                               
 INPUT CARD>!    The real run (READV=.FALSE.) performs 37 MP2 calculations,                 
 INPUT CARD>!    namely one at the equilibrium geometry, and also six energies              
 INPUT CARD>!    along each of the six normal mode of vibration, and requires               
 INPUT CARD>!    run time of 40 minutes on 2.66 GHz Cloverton.                              
 INPUT CARD>!                                                                               
 INPUT CARD> $contrl scftyp=rhf mplevl=2 runtyp=vscf ispher=1 $end                          
 INPUT CARD> $system mwords=15 $end                                                         
 INPUT CARD> $guess  guess=huckel $end                                                      
 INPUT CARD> $vscf   petyp=qff ncoup=1 readv=.true. ngrid=12 $end                           
 INPUT CARD> $data                                                                          
 INPUT CARD>H2CO: MP2/aug-cc-pVTZ  (QFF CC-VSCF, NCOUP=1)                                   
 INPUT CARD>Cnv 2                                                                           
 INPUT CARD>                                                                                
 INPUT CARD>C           6.0   0.0000000000   0.0000000000  -0.5326033874                    
 INPUT CARD> S   8                                                                          
 INPUT CARD>  1        8236.000000         0.5310000000E-03                                 
 INPUT CARD>  2        1235.000000         0.4108000000E-02                                 
 INPUT CARD>  3        280.8000000         0.2108700000E-01                                 
 INPUT CARD>  4        79.27000000         0.8185300000E-01                                 
 INPUT CARD>  5        25.59000000         0.2348170000                                     
 INPUT CARD>  6        8.997000000         0.4344010000                                     
 INPUT CARD>  7        3.319000000         0.3461290000                                     
 INPUT CARD>  8       0.3643000000        -0.8983000000E-02                                 
 INPUT CARD> S   8                                                                          
 INPUT CARD>  1        8236.000000        -0.1130000000E-03                                 
 INPUT CARD>  2        1235.000000        -0.8780000000E-03                                 
 INPUT CARD>  3        280.8000000        -0.4540000000E-02                                 
 INPUT CARD>  4        79.27000000        -0.1813300000E-01                                 
 INPUT CARD>  5        25.59000000        -0.5576000000E-01                                 
 INPUT CARD>  6        8.997000000        -0.1268950000                                     
 INPUT CARD>  7        3.319000000        -0.1703520000                                     
 INPUT CARD>  8       0.3643000000         0.5986840000                                     
   15000000 WORDS OF MEMORY AVAILABLE


     RUN TITLE
     ---------
 H2CO: MP2/aug-cc-pVTZ  (QFF CC-VSCF, NCOUP=1)                                   

 THE POINT GROUP OF THE MOLECULE IS CNV     
 THE ORDER OF THE PRINCIPAL AXIS IS     2
 *** WARNING! ATOM   1 SHELL    1 TYPE S HAS NORMALIZATION   1.02152578
 *** WARNING! ATOM   1 SHELL    2 TYPE S HAS NORMALIZATION   1.73798437
 *** WARNING! ATOM   1 SHELL    5 TYPE P HAS NORMALIZATION   2.80994848
 *** WARNING! ATOM   2 SHELL   15 TYPE S HAS NORMALIZATION   1.02401242
 *** WARNING! ATOM   2 SHELL   16 TYPE S HAS NORMALIZATION   1.71509575
 *** WARNING! ATOM   2 SHELL   19 TYPE P HAS NORMALIZATION   2.58434766
 *** WARNING! ATOM   3 SHELL   29 TYPE S HAS NORMALIZATION   4.20152657

 ATOM      ATOMIC                      COORDINATES (BOHR)
           CHARGE         X                   Y                   Z
 C           6.0     0.0000000000        0.0000000000       -1.0064744623
 O           8.0     0.0000000000        0.0000000000        1.2855858368
 H           1.0    -1.7685199822        0.0000000000       -2.0994519252
 H           1.0     1.7685199822        0.0000000000       -2.0994519252

          INTERNUCLEAR DISTANCES (ANGS.)
          ------------------------------

                1 C          2 O          3 H          4 H     

   1 C       0.0000000    1.2129062 *  1.1001623 *  1.1001623 *
   2 O       1.2129062 *  0.0000000    2.0210237 *  2.0210237 *
   3 H       1.1001623 *  2.0210237 *  0.0000000    1.8717211 *
   4 H       1.1001623 *  2.0210237 *  1.8717211 *  0.0000000  

  * ... LESS THAN  3.000


     ATOMIC BASIS SET
     ----------------
 THE CONTRACTED PRIMITIVE FUNCTIONS HAVE BEEN UNNORMALIZED
 THE CONTRACTED BASIS FUNCTIONS ARE NOW NORMALIZED TO UNITY

  SHELL TYPE  PRIMITIVE        EXPONENT          CONTRACTION COEFFICIENT(S)

 C         

      1   S       1          8236.0000000    0.000542430189
      1   S       2          1235.0000000    0.004196427901
      1   S       3           280.8000000    0.021540914108
      1   S       4            79.2700000    0.083614949614
      1   S       5            25.5900000    0.239871618922
      1   S       6             8.9970000    0.443751820060
      1   S       7             3.3190000    0.353579696469
      1   S       8             0.3643000   -0.009176366076

      2   S       9          8236.0000000   -0.000196392234
      2   S      10          1235.0000000   -0.001525950274
      2   S      11           280.8000000   -0.007890449028
      2   S      12            79.2700000   -0.031514870532
      2   S      13            25.5900000   -0.096910008320
      2   S      14             8.9970000   -0.220541526288
      2   S      15             3.3190000   -0.296069112937
      2   S      16             0.3643000    1.040503432950

      3   S      17             0.9059000    1.000000000000

      4   S      18             0.1285000    1.000000000000

      5   P      19            18.7100000    0.039426387165
      5   P      20             4.1330000    0.244088984924
      5   P      21             1.2000000    0.815492008943

      6   P      22             0.3827000    1.000000000000

      7   P      23             0.1209000    1.000000000000

      8   D      24             1.0970000    1.000000000000

      9   D      25             0.3180000    1.000000000000

     10   F      26             0.7610000    1.000000000000

     11   S      27             0.0440200    1.000000000000

     12   P      28             0.0356900    1.000000000000

     13   D      29             0.1000000    1.000000000000

     14   F      30             0.2680000    1.000000000000

 O         

     15   S      31         15330.0000000    0.000520198307
     15   S      32          2299.0000000    0.004023344781
     15   S      33           522.4000000    0.020729083329
     15   S      34           147.3000000    0.081082327080
     15   S      35            47.5500000    0.236226352118
     15   S      36            16.7600000    0.443518209420
     15   S      37             6.2070000    0.358670588689
     15   S      38             0.6882000   -0.008349797237

     16   S      39         15330.0000000   -0.000197236012
     16   S      40          2299.0000000   -0.001535010700
     16   S      41           522.4000000   -0.007951183914
     16   S      42           147.3000000   -0.032113452892
     16   S      43            47.5500000   -0.100269643049
     16   S      44            16.7600000   -0.234047111838
     16   S      45             6.2070000   -0.301410927756
     16   S      46             0.6882000    1.034919649508

     17   S      47             1.7520000    1.000000000000

     18   S      48             0.2384000    1.000000000000

     19   P      49            34.4600000    0.041163489568
     19   P      50             7.7490000    0.257762835858
     19   P      51             2.2800000    0.802419274427

     20   P      52             0.7156000    1.000000000000

     21   P      53             0.2140000    1.000000000000

     22   D      54             2.3140000    1.000000000000

     23   D      55             0.6450000    1.000000000000

     24   F      56             1.4280000    1.000000000000

     25   S      57             0.0737600    1.000000000000

     26   P      58             0.0597400    1.000000000000

     27   D      59             0.2140000    1.000000000000

     28   F      60             0.5000000    1.000000000000

 H         

     38   S      61            33.8700000    0.025494863235
     38   S      62             5.0950000    0.190362765893
     38   S      63             1.1590000    0.852162022245

     39   S      64             0.3258000    1.000000000000

     40   S      65             0.1027000    1.000000000000

     41   P      66             1.4070000    1.000000000000

     42   P      67             0.3880000    1.000000000000

     43   D      68             1.0570000    1.000000000000

     44   S      69             0.0252600    1.000000000000

     45   P      70             0.1020000    1.000000000000

     46   D      71             0.2470000    1.000000000000

 TOTAL NUMBER OF BASIS SET SHELLS             =   46
 NUMBER OF CARTESIAN GAUSSIAN BASIS FUNCTIONS =  160
 NOTE: THIS RUN WILL RESTRICT THE MO VARIATION SPACE TO SPHERICAL HARMONICS.
 THE NUMBER OF ORBITALS KEPT IN THE VARIATIONAL SPACE WILL BE PRINTED LATER.
 NUMBER OF ELECTRONS                          =   16
 CHARGE OF MOLECULE                           =    0
 SPIN MULTIPLICITY                            =    1
 NUMBER OF OCCUPIED ORBITALS (ALPHA)          =    8
 NUMBER OF OCCUPIED ORBITALS (BETA )          =    8
 TOTAL NUMBER OF ATOMS                        =    4
 THE NUCLEAR REPULSION ENERGY IS       31.1859508748

     $CONTRL OPTIONS
     ---------------
 SCFTYP=RHF          RUNTYP=VSCF         EXETYP=RUN     
 MPLEVL=       2     CITYP =NONE         CCTYP =NONE         VBTYP =NONE    
 DFTTYP=NONE         TDDFT =NONE    
 MULT  =       1     ICHARG=       0     NZVAR =       0     COORD =UNIQUE  
 PP    =NONE         RELWFN=NONE         LOCAL =NONE         NUMGRD=       F
 ISPHER=       1     NOSYM =       0     MAXIT =      30     UNITS =ANGS    
 PLTORB=       F     MOLPLT=       F     AIMPAC=       F     FRIEND=        
 NPRINT=       7     IREST =       0     GEOM  =INPUT   
 NORMF =       0     NORMP =       0     ITOL  =      20     ICUT  =       9
 INTTYP=BEST         GRDTYP=BEST         QMTTOL= 1.0E-06

     $SYSTEM OPTIONS
     ---------------
  REPLICATED MEMORY=    15000000 WORDS (ON EVERY NODE).
 DISTRIBUTED MEMDDI=           0 MILLION WORDS IN AGGREGATE,
 MEMDDI DISTRIBUTED OVER   1 PROCESSORS IS           0 WORDS/PROCESSOR.
 TOTAL MEMORY REQUESTED ON EACH PROCESSOR=    15000000 WORDS.
 TIMLIM=      525600.00 MINUTES, OR     365.0 DAYS.
 PARALL= F  BALTYP=  DLB     KDIAG=    0  COREFL= F
 MXSEQ2=     300 MXSEQ3=     150  mem10=         0

          ----------------
          PROPERTIES INPUT
          ----------------

     MOMENTS            FIELD           POTENTIAL          DENSITY
 IEMOM =       1   IEFLD =       0   IEPOT =       0   IEDEN =       0
 WHERE =COMASS     WHERE =NUCLEI     WHERE =NUCLEI     WHERE =NUCLEI  
 OUTPUT=BOTH       OUTPUT=BOTH       OUTPUT=BOTH       OUTPUT=BOTH    
 IEMINT=       0   IEFINT=       0                     IEDINT=       0
                                                       MORB  =       0
          EXTRAPOLATION IN EFFECT
          SOSCF IN EFFECT
 ORBITAL PRINTING OPTION: NPREO=     1   160     2     1

     -------------------------------
     INTEGRAL TRANSFORMATION OPTIONS
     -------------------------------
     NWORD  =            0
     CUTOFF = 1.0E-09     MPTRAN =       0
     DIRTRF =       F     AOINTS =DUP     

          ----------------------
          INTEGRAL INPUT OPTIONS
          ----------------------
 NOPK  =       1 NORDER=       0 SCHWRZ=       F

          -----------------------
          MP2 CONTROL INFORMATION
          -----------------------
          NACORE =        2  NBCORE =        2
          LMOMP2 =        F  AOINTS = DUP     
          METHOD =        2  NWORD  =               0
          MP2PRP =        F  OSPT   = NONE    
          CUTOFF = 1.00E-09  CPHFBS = BASISAO 
          CODE   = IMS     

          NUMBER OF CORE -A-  ORBITALS =     2
          NUMBER OF CORE -B-  ORBITALS =     2
          NUMBER OF OCC. -A-  ORBITALS =     8
          NUMBER OF OCC. -B-  ORBITALS =     8
          NUMBER OF MOLECULAR ORBITALS =   160
          NUMBER OF   BASIS  FUNCTIONS =   160


     ------------------------------------------
     THE POINT GROUP IS CNV, NAXIS= 2, ORDER= 4
     ------------------------------------------

 -- VARIATIONAL SPACE WILL BE RESTRICTED TO PURE SPHERICAL HARMONICS ONLY --
 AFTER EXCLUDING CONTAMINANT COMBINATIONS FROM THE CARTESIAN GAUSSIAN BASIS
 SET, THE NUMBER OF SPHERICAL HARMONICS KEPT IN THE VARIATION SPACE IS  138

     DIMENSIONS OF THE SYMMETRY SUBSPACES ARE
 A1  =   54     A2  =   17     B1  =   38     B2  =   29

 ..... DONE SETTING UP THE RUN .....
 STEP CPU TIME =     0.06 TOTAL CPU TIME =        0.1 (    0.0 MIN)
 TOTAL WALL CLOCK TIME=        0.1 SECONDS, CPU UTILIZATION IS  50.00%

               ---------------------
               VSCF INPUT PARAMETERS
               ---------------------
       PETYP=   QFF        NCOUP=       1     NGRID=      12
      PESALL=        T    CUTOFF= 0.0E+00
      INTCRD=        F     STPSZ= 5.0E-01
        DMDR=        F     MPDIP=       T    PROJCT=       T
       READV=        T     VCFCT=    1.00
        VDPT=        F       VCI=       F     SFACT= 1.0E-04
       ICAS1=        1     ICAS2=       6
        IEXC=        1     IEXC2=       0



 PES NEEDED FOR VSCF CALCULATION IS GOING TO BE
 GENERATED USING NORMAL MODE DISPLACEMENTS
 IN INTERNAL COORDINATES OF INTTYP=    0


 $HESS GROUP READ FROM CARDS
 BLANK TITLE                                                                     
        34676 WORDS OF MEMORY ARE NEEDED FOR VSCF STORAGE

 HARMONIC VIBRATIONAL ANALYSIS FOR THE INPUT HESSIAN

          --------------------------------------------------------
          NORMAL COORDINATE ANALYSIS IN THE HARMONIC APPROXIMATION
          --------------------------------------------------------

          ATOMIC WEIGHTS (AMU)

    1     C                12.00000
    2     O                15.99491
    3     H                 1.00782
    4     H                 1.00782

 MODES    1 TO    6 ARE TAKEN AS ROTATIONS AND TRANSLATIONS.

 ANALYZING SYMMETRY OF NORMAL MODES...

 --- SYMMETRY FOR NORMAL MODES ---
 INCLUDING TRANSLATION AND ROTATION
    7*A1     5*A2     7*B1     5*B2  
 EXCLUDING TRANSLATION AND ROTATION (SAYVETZ < 0.01)
    3*A1     0*A2     2*B1     1*B2  

     FREQUENCIES IN CM**-1, IR INTENSITIES IN DEBYE**2/AMU-ANGSTROM**2,
     REDUCED MASSES IN AMU.

                            1           2           3           4           5
       FREQUENCY:         0.00        0.00        0.00        0.00        0.00  
        SYMMETRY:         B1          B1          B2          B2          B2  
    REDUCED MASS:      2.62685     7.61937     7.48782     7.68712     2.21937

  1   C            X  0.23363843  0.03447297  0.04819566 -0.00134925 -0.00107272
                   Y -0.01000616  0.00517310  0.04519693  0.16809804  0.14372725
                   Z  0.00392646 -0.14317230  0.08369405  0.04124934 -0.06355842
  2   O            X -0.01628603  0.14576726  0.15666591  0.05211125 -0.08344653
                   Y  0.02688366  0.01504777 -0.13362264  0.17772157 -0.08547869
                   Z  0.00392646 -0.14317230  0.08369405  0.04124934 -0.06355842
  3   H            X  0.35281584 -0.01859813 -0.00352878 -0.02684209  0.03820754
                   Y -0.02076141 -0.07410439  0.20357288  0.19820753  0.61389098
                   Z -0.18891157 -0.05729927  0.16738810  0.08249868 -0.12711684
  4   H            X  0.35281584 -0.01859813 -0.00352878 -0.02684209  0.03820754
                   Y -0.03443300  0.07503305  0.05736254  0.12881051 -0.10784107
                   Z  0.19676450 -0.22904534  0.00000000  0.00000000 -0.00000000

 TRANS. SAYVETZ    X  3.25432083  2.70772240  3.07709234  0.76321951 -1.27057940
                   Y  0.25430144  0.30370087 -1.33194165  5.18939384  0.86751285
                   Z  0.11783538 -4.29668095  2.51170527  1.23791576 -1.90742382
               TOTAL  3.26636778  5.08777574  4.18941872  5.38931794  2.45055426

   ROT. SAYVETZ    X -0.75439821 -0.20193737  3.65686723 -0.19680158  4.68727034
                   Y -5.79837797  2.58208563  2.51656646  1.24031165 -1.91111548
                   Z -0.02436767  0.26581640 -0.26059926 -0.12369038 -1.28638537
               TOTAL  5.84729831  2.60357510  4.44676249  1.26190457  5.22280126

                            6           7           8           9          10
       FREQUENCY:         0.00     1196.90     1266.76     1540.14     1752.94  
        SYMMETRY:         B2          B2          B1          A1          A1  
    REDUCED MASS:      1.26222     1.36158     1.33349     1.15500     5.77059

  1   C            X  0.00355762  0.00000000 -0.12631473 -0.00000000 -0.00000000
                   Y  0.10180432 -0.14793612 -0.00000000  0.00000000  0.00000000
                   Z -0.00787429  0.00000000 -0.00000000  0.02327070  0.21523608
  2   O            X -0.04679671 -0.00000000  0.06777235 -0.00000000  0.00000000
                   Y -0.05949724  0.03583615  0.00000000 -0.00000000 -0.00000000
                   Z -0.00787429 -0.00000000 -0.00000000 -0.09002774 -0.14523410
  3   H            X  0.02756927 -0.00000000  0.21420593 -0.31138455  0.19057828
                   Y -0.41603722  0.59635225  0.00000000 -0.00000000 -0.00000000
                   Z -0.04672695  0.00000000 -0.56462083  0.57586246 -0.12890460
  4   H            X  0.02756927 -0.00000000  0.21420593  0.31138455 -0.19057828
                   Y  0.77348035  0.59635225  0.00000000 -0.00000000  0.00000000
                   Z  0.03097837 -0.00000000  0.56462083  0.57586246 -0.12890460

 TRANS. SAYVETZ    X -0.65024769 -0.00000000  0.00000000 -0.00000000  0.00000000
                   Y  0.63023887  0.00000000  0.00000000 -0.00000000 -0.00000000
                   Z -0.23631176  0.00000000 -0.00000000  0.00000000 -0.00000000
               TOTAL  0.93587731  0.00000000  0.00000000  0.00000000  0.00000000

   ROT. SAYVETZ    X  3.29862314 -0.00000000  0.00000000 -0.00000000 -0.00000000
                   Y -1.16824670  0.00000000  0.00000000 -0.00000000  0.00000000
                   Z  2.12014694  0.00000000  0.00000000 -0.00000000  0.00000000
               TOTAL  4.09154470  0.00000000  0.00000000  0.00000000  0.00000000

                           11          12
       FREQUENCY:      2973.65     3047.62  
        SYMMETRY:         A1          B1  
    REDUCED MASS:      1.04390     1.12210

  1   C            X -0.00000000 -0.09625056
                   Y -0.00000000 -0.00000000
                   Z -0.05606812  0.00000000
  2   O            X  0.00000000  0.00065119
                   Y -0.00000000 -0.00000000
                   Z -0.00058898 -0.00000000
  3   H            X  0.60235991  0.56785206
                   Y  0.00000000  0.00000000
                   Z  0.33847055  0.34424570
  4   H            X -0.60235991  0.56785206
                   Y -0.00000000 -0.00000000
                   Z  0.33847055 -0.34424570

 TRANS. SAYVETZ    X  0.00000000  0.00000000
                   Y  0.00000000 -0.00000000
                   Z -0.00000000 -0.00000000
               TOTAL  0.00000000  0.00000000

   ROT. SAYVETZ    X  0.00000000 -0.00000000
                   Y -0.00000000 -0.00000000
                   Z -0.00000000 -0.00000000
               TOTAL  0.00000000  0.00000000

 REFERENCE ON SAYVETZ CONDITIONS - A. SAYVETZ, J.CHEM.PHYS., 7, 383-389(1939).

 NOTE - THE MODES J,K ARE ORTHONORMALIZED ACCORDING TO
 SUM ON I   M(I) * (X(I,J)*X(I,K) + Y(I,J)*Y(I,K) + Z(I,J)*Z(I,K)) = DELTA(J,K)

     -------------------------------
     THERMOCHEMISTRY AT T=  298.15 K
     -------------------------------

 USING IDEAL GAS, RIGID ROTOR, HARMONIC NORMAL MODE APPROXIMATIONS.
 P=  1.01325E+05 PASCAL.
 ALL FREQUENCIES ARE SCALED BY   1.00000
 THE MOMENTS OF INERTIA ARE (IN AMU*BOHR**2)
      6.30427    46.87272    53.17700
 THE ROTATIONAL SYMMETRY NUMBER IS  2.0
 THE ROTATIONAL CONSTANTS ARE (IN GHZ)
    286.01046    38.46775    33.90730
      7 -     12 VIBRATIONAL MODES ARE USED IN THERMOCHEMISTRY.
 THE HARMONIC ZERO POINT ENERGY IS (SCALED BY   1.000)
        0.026832 HARTREE/MOLECULE     5889.007429 CM**-1/MOLECULE 
       16.837534 KCAL/MOL               70.448242 KJ/MOL

               Q               LN Q
 ELEC.     1.00000E+00       0.000000
 TRANS.    6.46197E+06      15.681445
 ROT.      7.09498E+02       6.564557
 VIB.      1.00615E+00       0.006127
 TOT.      4.61293E+09      22.252129

              E         H         G         CV        CP        S
           KJ/MOL    KJ/MOL    KJ/MOL   J/MOL-K   J/MOL-K   J/MOL-K
 ELEC.      0.000     0.000     0.000     0.000     0.000     0.000
 TRANS.     3.718     6.197   -38.873    12.472    20.786   151.168
 ROT.       3.718     3.718   -16.273    12.472    12.472    67.052
 VIB.      70.542    70.542    70.433     1.957     1.957     0.365
 TOTAL     77.979    80.458    15.287    26.900    35.214   218.585
 VIB. THERMAL CORRECTION E(T)-E(0) = H(T)-H(0) =    93.559 J/MOL

              E         H         G         CV        CP        S
         KCAL/MOL  KCAL/MOL  KCAL/MOL CAL/MOL-K CAL/MOL-K CAL/MOL-K
 ELEC.      0.000     0.000     0.000     0.000     0.000     0.000
 TRANS.     0.889     1.481    -9.291     2.981     4.968    36.130
 ROT.       0.889     0.889    -3.889     2.981     2.981    16.026
 VIB.      16.860    16.860    16.834     0.468     0.468     0.087
 TOTAL     18.637    19.230     3.654     6.429     8.416    52.243
 VIB. THERMAL CORRECTION E(T)-E(0) = H(T)-H(0) =    22.361 CAL/MOL
 ......DONE WITH HARMONIC NORMAL MODES.....
 STEP CPU TIME =     0.00 TOTAL CPU TIME =        0.1 (    0.0 MIN)
 TOTAL WALL CLOCK TIME=        0.1 SECONDS, CPU UTILIZATION IS  46.15%
 AMP=    7.0000000000000000     
 FOUND $VIBSCF GROUP


 AT INPUT GEOMETRY, THE RESTART DATA IS
 E0=     -114.3164101861 DIPOLE=   0.000000   0.000000  -2.398543
 MODE # 1   QRANGE=   32.866828     DEL-Q=    5.975787
 MODE # 2   QRANGE=   33.273098     DEL-Q=    6.049654
 MODE # 3   QRANGE=   43.336668     DEL-Q=    7.879394
 MODE # 4   QRANGE=   46.233683     DEL-Q=    8.406124
 MODE # 5   QRANGE=   50.979055     DEL-Q=    9.268919
 MODE # 6   QRANGE=   52.445566     DEL-Q=    9.535557

       -------------------
       QUARTIC FORCE FIELD
       -------------------

 QFF> -- STEPSIZE FOR NORMAL COORDINATES
 QFF>       12        0.10 / AMU**0.5-BOHR
 QFF>       11        0.10 / AMU**0.5-BOHR
 QFF>       10        0.13 / AMU**0.5-BOHR
 QFF>        9        0.14 / AMU**0.5-BOHR
 QFF>        8        0.15 / AMU**0.5-BOHR
 QFF>        7        0.16 / AMU**0.5-BOHR

 QFF> COMPUTE THE ENERGIES AND DIPOLE MOMENTS AT GRIDS ( ONE-MODE TERMS ).
 QFF> ENERGIES AT 6 GRIDS ALONG EACH NORMAL COORDINATES ARE REQUIRED.
 QFF> -- 000036 POINTS FOR ONE-MODE TERMS.

   TOTAL NUMBER OF POINTS = 0000000036
 QFF>  MODE=  12
 QFF>     HII=   0.35149100D+00 [HARTREE/AMU-BOHR**2]
 QFF>    TIII=   0.12740847D-07 [HARTREE/AMU**(3/2)-BOHR**3]
 QFF>   UIIII=   0.17762762D+01 [HARTREE/AMU**2-BOHR**4]

 QFF>    DMXI=  -0.76489084D+00 [DEBYE/AMU**(1/2)-BOHR]
 QFF>   DMXII=  -0.30375134D-05 [DEBYE/AMU-BOHR**2]
 QFF>  DMXIII=   0.37948957D+00 [DEBYE/AMU**(3/2)-BOHR**3]
 QFF> DMXIIII=   0.82013224D-03 [DEBYE/AMU**2-BOHR**4]
 QFF>    DMYI=   0.00000000D+00 [DEBYE/AMU**(1/2)-BOHR]
 QFF>   DMYII=   0.00000000D+00 [DEBYE/AMU-BOHR**2]
 QFF>  DMYIII=   0.00000000D+00 [DEBYE/AMU**(3/2)-BOHR**3]
 QFF> DMYIIII=   0.00000000D+00 [DEBYE/AMU**2-BOHR**4]
 QFF>    DMZI=  -0.10062328D-06 [DEBYE/AMU**(1/2)-BOHR]
 QFF>   DMZII=   0.12201712D+01 [DEBYE/AMU-BOHR**2]
 QFF>  DMZIII=   0.14008709D-04 [DEBYE/AMU**(3/2)-BOHR**3]
 QFF> DMZIIII=  -0.20955404D+01 [DEBYE/AMU**2-BOHR**4]

 QFF>  MODE=  11
 QFF>     HII=   0.33463581D+00 [HARTREE/AMU-BOHR**2]
 QFF>    TIII=   0.76204361D+00 [HARTREE/AMU**(3/2)-BOHR**3]
 QFF>   UIIII=   0.14646275D+01 [HARTREE/AMU**2-BOHR**4]

 QFF>    DMXI=   0.00000000D+00 [DEBYE/AMU**(1/2)-BOHR]
 QFF>   DMXII=   0.00000000D+00 [DEBYE/AMU-BOHR**2]
 QFF>  DMXIII=   0.00000000D+00 [DEBYE/AMU**(3/2)-BOHR**3]
 QFF> DMXIIII=   0.00000000D+00 [DEBYE/AMU**2-BOHR**4]
 QFF>    DMYI=   0.00000000D+00 [DEBYE/AMU**(1/2)-BOHR]
 QFF>   DMYII=   0.00000000D+00 [DEBYE/AMU-BOHR**2]
 QFF>  DMYIII=   0.00000000D+00 [DEBYE/AMU**(3/2)-BOHR**3]
 QFF> DMYIIII=   0.00000000D+00 [DEBYE/AMU**2-BOHR**4]
 QFF>    DMZI=  -0.66443249D+00 [DEBYE/AMU**(1/2)-BOHR]
 QFF>   DMZII=   0.45884791D+00 [DEBYE/AMU-BOHR**2]
 QFF>  DMZIII=   0.19803586D+00 [DEBYE/AMU**(3/2)-BOHR**3]
 QFF> DMZIIII=  -0.14718158D+00 [DEBYE/AMU**2-BOHR**4]

 QFF>  MODE=  10
 QFF>     HII=   0.11628489D+00 [HARTREE/AMU-BOHR**2]
 QFF>    TIII=   0.13987761D+00 [HARTREE/AMU**(3/2)-BOHR**3]
 QFF>   UIIII=   0.14760968D+00 [HARTREE/AMU**2-BOHR**4]

 QFF>    DMXI=   0.00000000D+00 [DEBYE/AMU**(1/2)-BOHR]
 QFF>   DMXII=   0.00000000D+00 [DEBYE/AMU-BOHR**2]
 QFF>  DMXIII=   0.00000000D+00 [DEBYE/AMU**(3/2)-BOHR**3]
 QFF> DMXIIII=   0.00000000D+00 [DEBYE/AMU**2-BOHR**4]
 QFF>    DMYI=   0.00000000D+00 [DEBYE/AMU**(1/2)-BOHR]
 QFF>   DMYII=   0.00000000D+00 [DEBYE/AMU-BOHR**2]
 QFF>  DMYIII=   0.00000000D+00 [DEBYE/AMU**(3/2)-BOHR**3]
 QFF> DMYIIII=   0.00000000D+00 [DEBYE/AMU**2-BOHR**4]
 QFF>    DMZI=   0.67025643D+00 [DEBYE/AMU**(1/2)-BOHR]
 QFF>   DMZII=   0.63609090D+00 [DEBYE/AMU-BOHR**2]
 QFF>  DMZIII=   0.57003001D-01 [DEBYE/AMU**(3/2)-BOHR**3]
 QFF> DMZIIII=   0.59420609D-01 [DEBYE/AMU**2-BOHR**4]

 QFF>  MODE=   9
 QFF>     HII=   0.89765900D-01 [HARTREE/AMU-BOHR**2]
 QFF>    TIII=  -0.48346393D-02 [HARTREE/AMU**(3/2)-BOHR**3]
 QFF>   UIIII=   0.63505344D-02 [HARTREE/AMU**2-BOHR**4]

 QFF>    DMXI=   0.00000000D+00 [DEBYE/AMU**(1/2)-BOHR]
 QFF>   DMXII=   0.00000000D+00 [DEBYE/AMU-BOHR**2]
 QFF>  DMXIII=   0.00000000D+00 [DEBYE/AMU**(3/2)-BOHR**3]
 QFF> DMXIIII=   0.00000000D+00 [DEBYE/AMU**2-BOHR**4]
 QFF>    DMYI=   0.00000000D+00 [DEBYE/AMU**(1/2)-BOHR]
 QFF>   DMYII=   0.00000000D+00 [DEBYE/AMU-BOHR**2]
 QFF>  DMYIII=   0.00000000D+00 [DEBYE/AMU**(3/2)-BOHR**3]
 QFF> DMYIIII=   0.00000000D+00 [DEBYE/AMU**2-BOHR**4]
 QFF>    DMZI=   0.26724299D+00 [DEBYE/AMU**(1/2)-BOHR]
 QFF>   DMZII=   0.35435804D+00 [DEBYE/AMU-BOHR**2]
 QFF>  DMZIII=   0.29699769D+00 [DEBYE/AMU**(3/2)-BOHR**3]
 QFF> DMZIIII=  -0.42570782D-01 [DEBYE/AMU**2-BOHR**4]

 QFF>  MODE=   8
 QFF>     HII=   0.60726499D-01 [HARTREE/AMU-BOHR**2]
 QFF>    TIII=   0.18428942D-06 [HARTREE/AMU**(3/2)-BOHR**3]
 QFF>   UIIII=   0.47866146D-01 [HARTREE/AMU**2-BOHR**4]

 QFF>    DMXI=   0.24966231D+00 [DEBYE/AMU**(1/2)-BOHR]
 QFF>   DMXII=   0.12625548D-05 [DEBYE/AMU-BOHR**2]
 QFF>  DMXIII=   0.55127729D-01 [DEBYE/AMU**(3/2)-BOHR**3]
 QFF> DMXIIII=  -0.35423212D-04 [DEBYE/AMU**2-BOHR**4]
 QFF>    DMYI=   0.00000000D+00 [DEBYE/AMU**(1/2)-BOHR]
 QFF>   DMYII=   0.00000000D+00 [DEBYE/AMU-BOHR**2]
 QFF>  DMYIII=   0.00000000D+00 [DEBYE/AMU**(3/2)-BOHR**3]
 QFF> DMYIIII=   0.00000000D+00 [DEBYE/AMU**2-BOHR**4]
 QFF>    DMZI=   0.15893903D-05 [DEBYE/AMU**(1/2)-BOHR]
 QFF>   DMZII=   0.19155186D+00 [DEBYE/AMU-BOHR**2]
 QFF>  DMZIII=  -0.76445423D-04 [DEBYE/AMU**(3/2)-BOHR**3]
 QFF> DMZIIII=  -0.81119155D-02 [DEBYE/AMU**2-BOHR**4]

 QFF>  MODE=   7
 QFF>     HII=   0.54213850D-01 [HARTREE/AMU-BOHR**2]
 QFF>    TIII=  -0.12538213D-07 [HARTREE/AMU**(3/2)-BOHR**3]
 QFF>   UIIII=   0.71485619D-01 [HARTREE/AMU**2-BOHR**4]

 QFF>    DMXI=   0.00000000D+00 [DEBYE/AMU**(1/2)-BOHR]
 QFF>   DMXII=   0.00000000D+00 [DEBYE/AMU-BOHR**2]
 QFF>  DMXIII=  -0.31343859D-06 [DEBYE/AMU**(3/2)-BOHR**3]
 QFF> DMXIIII=   0.00000000D+00 [DEBYE/AMU**2-BOHR**4]
 QFF>    DMYI=   0.21558492D+00 [DEBYE/AMU**(1/2)-BOHR]
 QFF>   DMYII=   0.00000000D+00 [DEBYE/AMU-BOHR**2]
 QFF>  DMYIII=  -0.77109342D-01 [DEBYE/AMU**(3/2)-BOHR**3]
 QFF> DMYIIII=  -0.31624228D-04 [DEBYE/AMU**2-BOHR**4]
 QFF>    DMZI=   0.40988388D-06 [DEBYE/AMU**(1/2)-BOHR]
 QFF>   DMZII=   0.61679790D+00 [DEBYE/AMU-BOHR**2]
 QFF>  DMZIII=  -0.50150174D-05 [DEBYE/AMU**(3/2)-BOHR**3]
 QFF> DMZIIII=  -0.69355095D+00 [DEBYE/AMU**2-BOHR**4]



 STARTING DIAGONAL POTENTIAL ON A GRID OF  12 POINTS FOR   6 NORMAL MODES

 DONE WITH DIAGONAL POTENTIAL
 ......DONE WITH POTENTIALS ON GRIDS......
 STEP CPU TIME =     0.00 TOTAL CPU TIME =        0.1 (    0.0 MIN)
 TOTAL WALL CLOCK TIME=        0.2 SECONDS, CPU UTILIZATION IS  31.58%


 --------------------------------------------------------------
 VIBRATIONAL SELF-CONSISTENT FIELD AND VIBRATIONAL CORRELATIONS
 --------------------------------------------------------------

 SOLVING VSCF FOR VIBRATIONAL GROUND STATE

 -----------------------
 VIBRATIONAL STATE #   0
 -----------------------
        CONFIGURATION: 000000

 E(DIAG)=     5907.40 (WITHOUT MODE COUPLING)

 SOLVING VSCF FOR  1 QUANTA IN MODE   1

 -----------------------
 VIBRATIONAL STATE #   1
 -----------------------
        CONFIGURATION: 100000

 E(DIAG)=     9027.94 (WITHOUT MODE COUPLING)

 SOLVING VSCF FOR  1 QUANTA IN MODE   2

 -----------------------
 VIBRATIONAL STATE #   2
 -----------------------
        CONFIGURATION: 010000

 E(DIAG)=     8825.54 (WITHOUT MODE COUPLING)

 SOLVING VSCF FOR  1 QUANTA IN MODE   3

 -----------------------
 VIBRATIONAL STATE #   3
 -----------------------
        CONFIGURATION: 001000

 E(DIAG)=     7644.48 (WITHOUT MODE COUPLING)

 SOLVING VSCF FOR  1 QUANTA IN MODE   4

 -----------------------
 VIBRATIONAL STATE #   4
 -----------------------
        CONFIGURATION: 000100

 E(DIAG)=     7448.67 (WITHOUT MODE COUPLING)

 SOLVING VSCF FOR  1 QUANTA IN MODE   5

 -----------------------
 VIBRATIONAL STATE #   5
 -----------------------
        CONFIGURATION: 000010

 E(DIAG)=     7185.93 (WITHOUT MODE COUPLING)

 SOLVING VSCF FOR  1 QUANTA IN MODE   6

 -----------------------
 VIBRATIONAL STATE #   6
 -----------------------
        CONFIGURATION: 000001

 E(DIAG)=     7123.65 (WITHOUT MODE COUPLING)

 (CUMULATIVE SCALING FACTOR FOR COUPLING POTENTIAL 1.00)

 RESULTS OF VIBRATIONAL SCF CALCULATION: (FREQUENCIES IN CM-1)
 MODE      HARMONIC     DIAGONAL
  12        3047.62      3120.54
  11        2973.65      2918.13
  10        1752.93      1737.08
   9        1540.13      1541.27
   8        1266.75      1278.52
   7        1196.90      1216.25

     -------------------------------
     THERMOCHEMISTRY AT T=  298.15 K
     -------------------------------

 USING IDEAL GAS, RIGID ROTOR, ANHARMONIC APPROXIMATIONS.
 P=  1.01325E+05 PASCAL.
 ALL FREQUENCIES ARE SCALED BY   1.00000
 THE MOMENTS OF INERTIA ARE (IN AMU*BOHR**2)
      6.30427    46.87272    53.17700
 THE ROTATIONAL SYMMETRY NUMBER IS  2.0
 THE ROTATIONAL CONSTANTS ARE (IN GHZ)
    286.01046    38.46775    33.90730
      1 -      6 VIBRATIONAL MODES ARE USED IN THERMOCHEMISTRY.
 THE ANHARMONIC ZERO POINT ENERGY IS (SCALED BY   1.000)
        0.026916 HARTREE/MOLECULE     5907.401718 CM**-1/MOLECULE 
       16.890126 KCAL/MOL               70.668287 KJ/MOL

               Q               LN Q
 ELEC.     1.00000E+00       0.000000
 TRANS.    6.46197E+06      15.681445
 ROT.      7.09498E+02       6.564557
 VIB.      1.00576E+00       0.005741
 TOT.      4.61115E+09      22.251743

              E         H         G         CV        CP        S
           KJ/MOL    KJ/MOL    KJ/MOL   J/MOL-K   J/MOL-K   J/MOL-K
 ELEC.      0.000     0.000     0.000     0.000     0.000     0.000
 TRANS.     3.718     6.197   -38.873    12.472    20.786   151.168
 ROT.       3.718     3.718   -16.273    12.472    12.472    67.052
 VIB.      70.757    70.757    70.654     1.885     1.885     0.346
 TOTAL     78.194    80.673    15.508    26.828    35.143   218.566
 VIB. THERMAL CORRECTION E(T)-E(0) = H(T)-H(0) =    88.929 J/MOL

              E         H         G         CV        CP        S
         KCAL/MOL  KCAL/MOL  KCAL/MOL CAL/MOL-K CAL/MOL-K CAL/MOL-K
 ELEC.      0.000     0.000     0.000     0.000     0.000     0.000
 TRANS.     0.889     1.481    -9.291     2.981     4.968    36.130
 ROT.       0.889     0.889    -3.889     2.981     2.981    16.026
 VIB.      16.911    16.911    16.887     0.451     0.451     0.083
 TOTAL     18.689    19.281     3.706     6.412     8.399    52.239
 VIB. THERMAL CORRECTION E(T)-E(0) = H(T)-H(0) =    21.254 CAL/MOL

 IR INTENSITIES ARE CALCULATED USING DIPOLE MOMENTS
 MODE   FREQUENCY, CM-1  INTENSITY, KM/MOL
  12        3120.54         87.40
  11        2918.13         68.87
  10        1737.08         63.30
   9        1541.27         11.29
   8        1278.52          9.50
   7        1216.25          6.89
 ......FINISHED VIBRATIONAL SCF......
 STEP CPU TIME =     0.00 TOTAL CPU TIME =        0.1 (    0.0 MIN)
 TOTAL WALL CLOCK TIME=        0.2 SECONDS, CPU UTILIZATION IS  31.58%
               580000  WORDS OF DYNAMIC MEMORY USED
 EXECUTION OF GAMESS TERMINATED NORMALLY Tue Nov 29 00:37:45 2016
 DDI: 263640 bytes (0.3 MB / 0 MWords) used by master data server.

 ----------------------------------------
 CPU timing information for all processes
 ========================================
 0: 0.49 + 0.26 = 0.76
 ----------------------------------------
 ddikick.x: exited gracefully.
unset echo
----- accounting info -----
Files used on the master node compute-3-0 were:
-rw-rw-r-- 1 sarom sarom   50611 Nov 29  2016 .//vscf-h2co-qff1.dat
-rw-rw-r-- 1 sarom sarom   11184 Nov 29  2016 .//vscf-h2co-qff1.F05
-rw-rw-r-- 1 sarom sarom       0 Nov 29  2016 .//vscf-h2co-qff1.F08
-rw-rw-r-- 1 sarom sarom 1177920 Nov 29  2016 .//vscf-h2co-qff1.F10
-rw-rw-r-- 1 sarom sarom   11184 Nov 28 17:27 .//vscf-h2co-qff1.inp
-rw-rw-r-- 1 sarom sarom   40025 Nov 29  2016 .//vscf-h2co-qff1.log
-rw-rw-r-- 1 sarom sarom    3744 Nov 29  2016 .//vscf-h2co-qff1.rst
Tue Nov 29 00:37:51 CST 2016
0.190u 0.581s 0:06.15 12.5%	0+0k 0+152io 0pf+0w
