----- GAMESS execution script 'rungms' -----
This job is running on host compute-3-0
under operating system Linux at Tue Nov 29 00:37:51 CST 2016
Available scratch disk space (Kbyte units) at beginning of the job is
Filesystem            1K-blocks       Used  Available Use% Mounted on
bolt.local:/export/home/sarom
                     9590469632 1553718272 7549583360  18% /home/sarom
Copying input file vscf-rimp2.inp to your run's scratch directory...
cp vscf-rimp2.inp .//vscf-rimp2.F05
unset echo
/home/sarom/gamessGH/ddikick.x /home/sarom/gamessGH/gamess.00.x vscf-rimp2 -ddi 1 1 localhost -scr ./

 Distributed Data Interface kickoff program.
 Initiating 1 compute processes on 1 nodes to run the following command:
 /home/sarom/gamessGH/gamess.00.x vscf-rimp2 

          ******************************************************
          *         GAMESS VERSION = 18 AUG 2016 (R1)          *
          *             FROM IOWA STATE UNIVERSITY             *
          * M.W.SCHMIDT, K.K.BALDRIDGE, J.A.BOATZ, S.T.ELBERT, *
          *   M.S.GORDON, J.H.JENSEN, S.KOSEKI, N.MATSUNAGA,   *
          *          K.A.NGUYEN, S.J.SU, T.L.WINDUS,           *
          *       TOGETHER WITH M.DUPUIS, J.A.MONTGOMERY       *
          *         J.COMPUT.CHEM.  14, 1347-1363(1993)        *
          **************** 64 BIT LINUX VERSION ****************

  SINCE 1993, STUDENTS AND POSTDOCS WORKING AT IOWA STATE UNIVERSITY
  AND ALSO IN THEIR VARIOUS JOBS AFTER LEAVING ISU HAVE MADE IMPORTANT
  CONTRIBUTIONS TO THE CODE:
     IVANA ADAMOVIC, CHRISTINE AIKENS, YURI ALEXEEV, POOJA ARORA,
     ANDREY ASADCHEV, ROB BELL, PRADIPTA BANDYOPADHYAY, JONATHAN BENTZ,
     BRETT BODE, KURT BRORSEN, CALEB CARLIN, GALINA CHABAN, WEI CHEN,
     CHEOL HO CHOI, PAUL DAY, ALBERT DEFUSCO, NUWAN DESILVA, TIM DUDLEY,
     DMITRI FEDOROV, GRAHAM FLETCHER, MARK FREITAG, KURT GLAESEMANN,
     DAN KEMP, GRANT MERRILL, NORIYUKI MINEZAWA, JONATHAN MULLIN,
     TAKESHI NAGATA, SEAN NEDD, HEATHER NETZLOFF, BOSILJKA NJEGIC, RYAN OLSON,
     MIKE PAK, SPENCER PRUITT, LUKE ROSKOP, JIM SHOEMAKER, LYUDMILA SLIPCHENKO,
     TONY SMITH, SAROM SOK LEANG, JIE SONG, TETSUYA TAKETSUGU, SIMON WEBB,
     PENG XU, SOOHAENG YOO, FEDERICO ZAHARIEV

  ADDITIONAL CODE HAS BEEN PROVIDED BY COLLABORATORS IN OTHER GROUPS:
     IOWA STATE UNIVERSITY:
          JOE IVANIC, AARON WEST, LAIMUTIS BYTAUTAS, KLAUS RUEDENBERG
     UNIVERSITY OF TOKYO: KIMIHIKO HIRAO, TAKAHITO NAKAJIMA,
          TAKAO TSUNEDA, MUNEAKI KAMIYA, SUSUMU YANAGISAWA,
          KIYOSHI YAGI, MAHITO CHIBA, SEIKEN TOKURA, NAOAKI KAWAKAMI
     UNIVERSITY OF AARHUS: FRANK JENSEN
     UNIVERSITY OF IOWA: VISVALDAS KAIRYS, HUI LI
     NATIONAL INST. OF STANDARDS AND TECHNOLOGY: WALT STEVENS, DAVID GARMER
     UNIVERSITY OF PISA: BENEDETTA MENNUCCI, JACOPO TOMASI
     UNIVERSITY OF MEMPHIS: HENRY KURTZ, PRAKASHAN KORAMBATH
     UNIVERSITY OF ALBERTA: TOBY ZENG, MARIUSZ KLOBUKOWSKI
     UNIVERSITY OF NEW ENGLAND: MARK SPACKMAN
     MIE UNIVERSITY: HIROAKI UMEDA
     NAT. INST. OF ADVANCED INDUSTRIAL SCIENCE AND TECHNOLOGY: KAZUO KITAURA
     MICHIGAN STATE UNIVERSITY:
          KAROL KOWALSKI, MARTA WLOCH, JEFFREY GOUR, JESSE LUTZ,
          WEI LI, PIOTR PIECUCH
     UNIVERSITY OF SILESIA: MONIKA MUSIAL, STANISLAW KUCHARSKI
     FACULTES UNIVERSITAIRES NOTRE-DAME DE LA PAIX:
          OLIVIER QUINET, BENOIT CHAMPAGNE
     UNIVERSITY OF CALIFORNIA - SANTA BARBARA: BERNARD KIRTMAN
     INSTITUTE FOR MOLECULAR SCIENCE:
          KAZUYA ISHIMURA, MICHIO KATOUDA, AND SHIGERU NAGASE
     UNIVERSITY OF NOTRE DAME: ANNA POMOGAEVA, DAN CHIPMAN
     KYUSHU UNIVERSITY:
          HARUYUKI NAKANO,
          FENG LONG GU, JACEK KORCHOWIEC, MARCIN MAKOWSKI, AND YURIKO AOKI,
          HIROTOSHI MORI AND EISAKU MIYOSHI
     PENNSYLVANIA STATE UNIVERSITY:
          TZVETELIN IORDANOV, CHET SWALINA, JONATHAN SKONE,
          SHARON HAMMES-SCHIFFER
     WASEDA UNIVERSITY:
          MASATO KOBAYASHI, TOMOKO AKAMA, TSUGUKI TOUMA,
          TAKESHI YOSHIKAWA, YASUHIRO IKABATA, JUNJI SEINO,
          YUYA NAKAJIMA, HIROMI NAKAI
     NANJING UNIVERSITY: SHUHUA LI
     UNIVERSITY OF NEBRASKA:
          PEIFENG SU, DEJUN SI, NANDUN THELLAMUREGE, YALI WANG, HUI LI
     UNIVERSITY OF ZURICH: ROBERTO PEVERATI, KIM BALDRIDGE
     N. COPERNICUS UNIVERSITY AND JACKSON STATE UNIVERSITY:
          MARIA BARYSZ
     UNIVERSITY OF COPENHAGEN: Jimmy Kromann, CASPER STEINMANN
     TOKYO INSTITUTE OF TECHNOLOGY: HIROYA NAKATA
     NAGOYA UNIVERSITY: YOSHIO NISHIMOTO, STEPHAN IRLE
     MOSCOW STATE UNIVERSITY: VLADIMIR MIRONOV

 EXECUTION OF GAMESS BEGUN Tue Nov 29 00:37:51 2016

            ECHO OF THE FIRST FEW INPUT CARDS -
 INPUT CARD>!    The use of RI-MP2 for VSCF calculations, just on water.                    
 INPUT CARD>!    The RI program saves time, but lacks MP2-level dipoles, so the             
 INPUT CARD>!    best intensity result is recycling the harmonic MP2 $DIPDR.                
 INPUT CARD>!                                                                               
 INPUT CARD>!    This test originally from Tapta Kanchan Roy, but I used C2v.               
 INPUT CARD>!    Note that the grid size is kept very small to allow short runs,            
 INPUT CARD>!    and the basis set is also small, so its a test case, not production.       
 INPUT CARD>!                                                                               
 INPUT CARD>!       frequencies         bend    s-str.   a-str.     CPU                     
 INPUT CARD>!    harmonic full MP2:   1677.59  3851.80  3971.05     4.8                     
 INPUT CARD>!        VSCF full MP2:   1594.75  3646.05  3723.33    62.8                     
 INPUT CARD>!          VSCF RI-MP2:   1594.78  3646.10  3723.35    36.7   <--- this run     
 INPUT CARD>!                                                                               
 INPUT CARD>!   intensities (km/mol)    bend    s-str.   a-str.                             
 INPUT CARD>!    harmonic full MP2:     56.92     6.56    32.63                             
 INPUT CARD>!        VSCF full MP2:     58.82     5.01    32.28                             
 INPUT CARD>!    VSCF RI-MP2, DMDR:     56.94     6.53    31.84  <---- this run.            
 INPUT CARD>!  VSCF RI-MP2, SCF mu:     77.94    17.05    45.07                             
 INPUT CARD>!                                                                               
 INPUT CARD>!  This run takes 36 seconds on 2.66 GHz Cloverton (14 July 2016)               
 INPUT CARD>!                                                                               
 INPUT CARD> $contrl scftyp=rhf mplevl=2 runtyp=vscf ispher=1 $end                          
 INPUT CARD> $system mwords=10 memddi=10 $end                                               
 INPUT CARD> $vscf   ngrid=8 dmdr=.true. $end                                               
 INPUT CARD> $mp2    code=rimp2  $end                                                       
 INPUT CARD> $rimp2  iauxbf=1 $end                                                          
 INPUT CARD> $auxbas cabnam=CCD $end                                                        
 INPUT CARD> $basis  gbasis=CCD $end                                                        
 INPUT CARD> $guess  guess=Huckel $end                                                      
 INPUT CARD> $scf    dirscf=.true.  $end                                                    
 INPUT CARD> $data                                                                          
 INPUT CARD>water: fully accurate MP2/cc-pVDZ geometry                                      
 INPUT CARD>Cnv 2                                                                           
 INPUT CARD>                                                                                
 INPUT CARD>O   8.0   0.0000000000   0.0000000000  -0.0719108010                            
 INPUT CARD>H   1.0  -0.7493351345   0.0000000000   0.5359554006                            
 INPUT CARD> $end                                                                           
 INPUT CARD>                                                                                
 INPUT CARD>--------- harmonic information is from a full MP2 calculation ----------        
 INPUT CARD> $GRAD                                                                          
 INPUT CARD>E=      -76.2286665043  GMAX=   0.0000007  GRMS=   0.0000004                    
 INPUT CARD>O            8.    0.0000000000E+00    0.0000000000E+00   -7.3115476606E-07     
 INPUT CARD>H            1.    5.9077466430E-07    0.0000000000E+00    3.6557728356E-07     
 INPUT CARD>H            1.   -5.9077466252E-07    0.0000000000E+00    3.6557728667E-07     
 INPUT CARD> $END                                                                           
 INPUT CARD> $HESS                                                                          
 INPUT CARD>ENERGY IS      -76.2286665043 E(NUC) IS        9.1280602789                     
 INPUT CARD> 1  1 6.74207051E-01 0.00000000E+00 4.44089210E-14-3.37102124E-01-1.16117348E-13
 INPUT CARD> 1  2-2.73482418E-01-3.37102124E-01-1.16096707E-13 2.73482418E-01               
 INPUT CARD> 2  1 0.00000000E+00 1.74819812E-05 6.66133815E-14 1.99819504E-13-9.99307796E-06
   10000000 WORDS OF MEMORY AVAILABLE

     BASIS OPTIONS
     -------------
     GBASIS=CCD          IGAUSS=       0      POLAR=NONE    
     NDFUNC=       0     NFFUNC=       0     DIFFSP=       F
     NPFUNC=       0      DIFFS=       F     BASNAM=        


     RUN TITLE
     ---------
 water: fully accurate MP2/cc-pVDZ geometry                                      

 THE POINT GROUP OF THE MOLECULE IS CNV     
 THE ORDER OF THE PRINCIPAL AXIS IS     2

 ATOM      ATOMIC                      COORDINATES (BOHR)
           CHARGE         X                   Y                   Z
 O           8.0     0.0000000000        0.0000000000       -0.1358917094
 H           1.0     1.4160380772       -0.0000000000        1.0128088488
 H           1.0    -1.4160380772        0.0000000000        1.0128088488

          INTERNUCLEAR DISTANCES (ANGS.)
          ------------------------------

                1 O          2 H          3 H     

   1 O       0.0000000    0.9648857 *  0.9648857 *
   2 H       0.9648857 *  0.0000000    1.4986703 *
   3 H       0.9648857 *  1.4986703 *  0.0000000  

  * ... LESS THAN  3.000


     ATOMIC BASIS SET
     ----------------
 THE CONTRACTED PRIMITIVE FUNCTIONS HAVE BEEN UNNORMALIZED
 THE CONTRACTED BASIS FUNCTIONS ARE NOW NORMALIZED TO UNITY

  SHELL TYPE  PRIMITIVE        EXPONENT          CONTRACTION COEFFICIENT(S)

 O         

      1   S       1         11720.0000000    0.000709645947
      1   S       2          1759.0000000    0.005467272292
      1   S       3           400.8000000    0.027823118610
      1   S       4           113.7000000    0.104747739711
      1   S       5            37.0300000    0.282920846357
      1   S       6            13.2700000    0.448495238698
      1   S       7             5.0250000    0.270816885213
      1   S       8             1.0130000    0.015450291607

      2   S       9         11720.0000000   -0.000314443412
      2   S      10          1759.0000000   -0.002482137681
      2   S      11           400.8000000   -0.012316355382
      2   S      12           113.7000000   -0.050538917344
      2   S      13            37.0300000   -0.139384903316
      2   S      14            13.2700000   -0.325077494818
      2   S      15             5.0250000   -0.229848307588
      2   S      16             1.0130000    1.095379346788

      3   S      17             0.3023000    1.000000000000

      4   P      18            17.7000000    0.062679166282
      4   P      19             3.8540000    0.333536565879
      4   P      20             1.0460000    0.741239641640

      5   P      21             0.2753000    1.000000000000

      6   D      22             1.1850000    1.000000000000

 H         

     10   S      23            13.0100000    0.033498726390
     10   S      24             1.9620000    0.234800801174
     10   S      25             0.4446000    0.813682957883

     11   S      26             0.1220000    1.000000000000

     12   P      27             0.7270000    1.000000000000

 TOTAL NUMBER OF BASIS SET SHELLS             =   12
 NUMBER OF CARTESIAN GAUSSIAN BASIS FUNCTIONS =   25
 NOTE: THIS RUN WILL RESTRICT THE MO VARIATION SPACE TO SPHERICAL HARMONICS.
 THE NUMBER OF ORBITALS KEPT IN THE VARIATIONAL SPACE WILL BE PRINTED LATER.
 NUMBER OF ELECTRONS                          =   10
 CHARGE OF MOLECULE                           =    0
 SPIN MULTIPLICITY                            =    1
 NUMBER OF OCCUPIED ORBITALS (ALPHA)          =    5
 NUMBER OF OCCUPIED ORBITALS (BETA )          =    5
 TOTAL NUMBER OF ATOMS                        =    3
 THE NUCLEAR REPULSION ENERGY IS        9.1280602789

     $CONTRL OPTIONS
     ---------------
 SCFTYP=RHF          RUNTYP=VSCF         EXETYP=RUN     
 MPLEVL=       2     CITYP =NONE         CCTYP =NONE         VBTYP =NONE    
 DFTTYP=NONE         TDDFT =NONE    
 MULT  =       1     ICHARG=       0     NZVAR =       0     COORD =UNIQUE  
 PP    =NONE         RELWFN=NONE         LOCAL =NONE         NUMGRD=       F
 ISPHER=       1     NOSYM =       0     MAXIT =      30     UNITS =ANGS    
 PLTORB=       F     MOLPLT=       F     AIMPAC=       F     FRIEND=        
 NPRINT=       7     IREST =       0     GEOM  =INPUT   
 NORMF =       0     NORMP =       0     ITOL  =      20     ICUT  =       9
 INTTYP=BEST         GRDTYP=BEST         QMTTOL= 1.0E-06

     $SYSTEM OPTIONS
     ---------------
  REPLICATED MEMORY=    10000000 WORDS (ON EVERY NODE).
 DISTRIBUTED MEMDDI=          10 MILLION WORDS IN AGGREGATE,
 MEMDDI DISTRIBUTED OVER   1 PROCESSORS IS    10000000 WORDS/PROCESSOR.
 TOTAL MEMORY REQUESTED ON EACH PROCESSOR=    20000000 WORDS.
 TIMLIM=      525600.00 MINUTES, OR     365.0 DAYS.
 PARALL= F  BALTYP=  DLB     KDIAG=    0  COREFL= F
 MXSEQ2=     300 MXSEQ3=     150  mem10=         0

          ----------------
          PROPERTIES INPUT
          ----------------

     MOMENTS            FIELD           POTENTIAL          DENSITY
 IEMOM =       1   IEFLD =       0   IEPOT =       0   IEDEN =       0
 WHERE =COMASS     WHERE =NUCLEI     WHERE =NUCLEI     WHERE =NUCLEI  
 OUTPUT=BOTH       OUTPUT=BOTH       OUTPUT=BOTH       OUTPUT=BOTH    
 IEMINT=       0   IEFINT=       0                     IEDINT=       0
                                                       MORB  =       0
          EXTRAPOLATION IN EFFECT
          SOSCF IN EFFECT
 ORBITAL PRINTING OPTION: NPREO=     1    25     2     1

     -------------------------------
     INTEGRAL TRANSFORMATION OPTIONS
     -------------------------------
     NWORD  =            0
     CUTOFF = 1.0E-09     MPTRAN =       0
     DIRTRF =       T     AOINTS =DUP     

          ----------------------
          INTEGRAL INPUT OPTIONS
          ----------------------
 NOPK  =       1 NORDER=       0 SCHWRZ=       T

          -----------------------
          MP2 CONTROL INFORMATION
          -----------------------
          NACORE =        1  NBCORE =        1
          LMOMP2 =        F  AOINTS = DUP     
          METHOD =        2  NWORD  =               0
          MP2PRP =        F  OSPT   = NONE    
          CUTOFF = 1.00E-09  CPHFBS = BASISAO 
          CODE   = RIMP2   

          NUMBER OF CORE -A-  ORBITALS =     1
          NUMBER OF CORE -B-  ORBITALS =     1
          NUMBER OF OCC. -A-  ORBITALS =     5
          NUMBER OF OCC. -B-  ORBITALS =     5
          NUMBER OF MOLECULAR ORBITALS =    25
          NUMBER OF   BASIS  FUNCTIONS =    25


     ------------------------------------------
     THE POINT GROUP IS CNV, NAXIS= 2, ORDER= 4
     ------------------------------------------

 -- VARIATIONAL SPACE WILL BE RESTRICTED TO PURE SPHERICAL HARMONICS ONLY --
 AFTER EXCLUDING CONTAMINANT COMBINATIONS FROM THE CARTESIAN GAUSSIAN BASIS
 SET, THE NUMBER OF SPHERICAL HARMONICS KEPT IN THE VARIATION SPACE IS   24

     DIMENSIONS OF THE SYMMETRY SUBSPACES ARE
 A1  =   11     A2  =    2     B1  =    7     B2  =    4

 ..... DONE SETTING UP THE RUN .....
 STEP CPU TIME =     0.02 TOTAL CPU TIME =        0.0 (    0.0 MIN)
 TOTAL WALL CLOCK TIME=        0.0 SECONDS, CPU UTILIZATION IS  66.67%

               ---------------------
               VSCF INPUT PARAMETERS
               ---------------------
       PETYP=   DIRECT     NCOUP=       2     NGRID=       8
      PESALL=        T    CUTOFF= 0.0E+00
      INTCRD=        F     STPSZ= 5.0E-01
        DMDR=        T     MPDIP=       F    PROJCT=       T
       READV=        F     VCFCT=    1.00
        VDPT=        F       VCI=       F     SFACT= 1.0E-04
       ICAS1=        1     ICAS2=       3
        IEXC=        1     IEXC2=       0



 PES NEEDED FOR VSCF CALCULATION IS GOING TO BE
 GENERATED USING NORMAL MODE DISPLACEMENTS
 IN INTERNAL COORDINATES OF INTTYP=    0


 $HESS GROUP READ FROM CARDS
 ENERGY IS      -76.2286665043 E(NUC) IS        9.1280602789                     
         4330 WORDS OF MEMORY ARE NEEDED FOR VSCF STORAGE

 HARMONIC VIBRATIONAL ANALYSIS FOR THE INPUT HESSIAN

          --------------------------------------------------------
          NORMAL COORDINATE ANALYSIS IN THE HARMONIC APPROXIMATION
          --------------------------------------------------------

          ATOMIC WEIGHTS (AMU)

    1     O                15.99491
    2     H                 1.00782
    3     H                 1.00782

 MODES    1 TO    6 ARE TAKEN AS ROTATIONS AND TRANSLATIONS.

 ANALYZING SYMMETRY OF NORMAL MODES...

 --- SYMMETRY FOR NORMAL MODES ---
 INCLUDING TRANSLATION AND ROTATION
    6*A1     5*A2     6*B1     5*B2  
 EXCLUDING TRANSLATION AND ROTATION (SAYVETZ < 0.01)
    2*A1     0*A2     1*B1     0*B2  

     FREQUENCIES IN CM**-1, IR INTENSITIES IN DEBYE**2/AMU-ANGSTROM**2,
     REDUCED MASSES IN AMU.

                            1           2           3           4           5
       FREQUENCY:         0.00        0.00        0.00        0.00        0.00  
        SYMMETRY:         B2          B2          B2          B2          B1  
    REDUCED MASS:      1.03279    15.99491     2.04727     1.29396     4.80052
    IR INTENSITY:      2.51665     0.67828     1.00998     2.09055     0.01078

  1   O            X  0.02225272  0.00000000  0.01228503 -0.04883310  0.22727346
                   Y -0.00000000  0.25003978  0.00000000 -0.00000000  0.00000000
                   Z  0.03343038  0.00000000  0.18364742  0.11122071  0.03260044
  2   H            X  0.16943323  0.00000000 -0.13669111 -0.13905616  0.20082774
                   Y -0.00000000  0.00000000 -0.53132172  0.81741802  0.20435451
                   Z -0.14800351  0.00000000  0.36729484  0.22244142  0.06520089
  3   H            X  0.16943323  0.00000000 -0.13669111 -0.13905616  0.20082774
                   Y  0.91714391  0.00000000 -0.00119332  0.04173835 -0.17005605
                   Z  0.21486426  0.00000000  0.00000000 -0.00000000  0.00000000

 TRANS. SAYVETZ    X  0.69744831  0.00000000 -0.07902349 -1.06136952  4.04001702
                   Y  0.92432056  3.99936370 -0.53668197  0.86587928  0.03456684
                   Z  0.60209979  0.00000000  3.30759287  2.00314730  0.58715226
               TOTAL  1.30511562  3.99936370  3.35178204  2.42669555  4.08260703

   ROT. SAYVETZ    X -0.94293994  0.51414503  0.54749281 -0.88332142 -0.03526315
                   Y  0.82049570  0.00000000 -0.83050593 -0.50297173 -0.14742849
                   Z -1.30887311  0.00000000 -0.75655608  1.10698687  0.53432826
               TOTAL  1.80983362  0.51414503  1.24974620  1.50288297  0.55541456

                            6           7           8           9
       FREQUENCY:         0.00     1677.59     3851.80     3971.05  
        SYMMETRY:         B2          A1          A1          B1  
    REDUCED MASS:      1.19958     1.08100     1.04673     1.07925
    IR INTENSITY:      1.99043     1.34810     0.15536     0.77222

  1   O            X -0.05847899 -0.00000000 -0.00000000 -0.06645369
                   Y  0.00000000 -0.00000000  0.00000000  0.00000000
                   Z  0.08512451 -0.06720802  0.04979950 -0.00000000
  2   H            X  0.33313092 -0.41933810 -0.56592706  0.52733404
                   Y  0.00000000 -0.00000000  0.00000000  0.00000000
                   Z -0.39762493  0.53331985 -0.39517696  0.42777727
  3   H            X  0.33313092  0.41933810  0.56592706  0.52733404
                   Y -0.34701618 -0.00000000  0.00000000 -0.00000000
                   Z  0.56787394  0.53331985 -0.39517696 -0.42777727

 TRANS. SAYVETZ    X -0.26389081 -0.00000000  0.00000000 -0.00000000
                   Y -0.34973159 -0.00000000  0.00000000 -0.00000000
                   Z  1.53314003  0.00000000 -0.00000000  0.00000000
               TOTAL  1.59451212  0.00000000  0.00000000  0.00000000

   ROT. SAYVETZ    X  0.35677653  0.00000000 -0.00000000  0.00000000
                   Y  2.18313041  0.00000000 -0.00000000 -0.00000000
                   Z  0.49523324  0.00000000 -0.00000000  0.00000000
               TOTAL  2.26684888  0.00000000  0.00000000  0.00000000

 REFERENCE ON SAYVETZ CONDITIONS - A. SAYVETZ, J.CHEM.PHYS., 7, 383-389(1939).

 NOTE - THE MODES J,K ARE ORTHONORMALIZED ACCORDING TO
 SUM ON I   M(I) * (X(I,J)*X(I,K) + Y(I,J)*Y(I,K) + Z(I,J)*Z(I,K)) = DELTA(J,K)

  MODE FREQ(CM**-1)  SYMMETRY  RED. MASS  IR INTENS.
     1       0.000    B2       1.032788    2.516648
     2       0.000    B2      15.994910    0.678278
     3       0.000    B2       2.047268    1.009975
     4       0.000    B2       1.293958    2.090551
     5       0.000    B1       4.800525    0.010781
     6       0.000    B2       1.199580    1.990433
     7    1677.594    A1       1.081004    1.348100
     8    3851.804    A1       1.046730    0.155359
     9    3971.051    B1       1.079255    0.772223

     -------------------------------
     THERMOCHEMISTRY AT T=  298.15 K
     -------------------------------

 USING IDEAL GAS, RIGID ROTOR, HARMONIC NORMAL MODE APPROXIMATIONS.
 P=  1.01325E+05 PASCAL.
 ALL FREQUENCIES ARE SCALED BY   1.00000
 THE MOMENTS OF INERTIA ARE (IN AMU*BOHR**2)
      2.36202     4.04171     6.40373
 THE ROTATIONAL SYMMETRY NUMBER IS  2.0
 THE ROTATIONAL CONSTANTS ARE (IN GHZ)
    763.36740   446.12031   281.56855
      7 -      9 VIBRATIONAL MODES ARE USED IN THERMOCHEMISTRY.
 THE HARMONIC ZERO POINT ENERGY IS (SCALED BY   1.000)
        0.021644 HARTREE/MOLECULE     4750.224453 CM**-1/MOLECULE 
       13.581587 KCAL/MOL               56.825359 KJ/MOL

               Q               LN Q
 ELEC.     1.00000E+00       0.000000
 TRANS.    3.00431E+06      14.915558
 ROT.      4.42539E+01       3.789945
 VIB.      1.00030E+00       0.000305
 TOT.      1.32993E+08      18.705808

              E         H         G         CV        CP        S
           KJ/MOL    KJ/MOL    KJ/MOL   J/MOL-K   J/MOL-K   J/MOL-K
 ELEC.      0.000     0.000     0.000     0.000     0.000     0.000
 TRANS.     3.718     6.197   -36.975    12.472    20.786   144.800
 ROT.       3.718     3.718    -9.395    12.472    12.472    43.983
 VIB.      56.831    56.831    56.825     0.166     0.166     0.023
 TOTAL     64.268    66.747    10.455    25.110    33.424   188.806
 VIB. THERMAL CORRECTION E(T)-E(0) = H(T)-H(0) =     6.121 J/MOL

              E         H         G         CV        CP        S
         KCAL/MOL  KCAL/MOL  KCAL/MOL CAL/MOL-K CAL/MOL-K CAL/MOL-K
 ELEC.      0.000     0.000     0.000     0.000     0.000     0.000
 TRANS.     0.889     1.481    -8.837     2.981     4.968    34.608
 ROT.       0.889     0.889    -2.245     2.981     2.981    10.512
 VIB.      13.583    13.583    13.581     0.040     0.040     0.006
 TOTAL     15.360    15.953     2.499     6.001     7.989    45.126
 VIB. THERMAL CORRECTION E(T)-E(0) = H(T)-H(0) =     1.463 CAL/MOL
 ......DONE WITH HARMONIC NORMAL MODES.....
 STEP CPU TIME =     0.00 TOTAL CPU TIME =        0.0 (    0.0 MIN)
 TOTAL WALL CLOCK TIME=        0.0 SECONDS, CPU UTILIZATION IS  50.00%
 AMP=    7.0000000000000000     


 VSCF: ENERGY                    AT INPUT GEOMETRY



          ********************
          1 ELECTRON INTEGRALS
          ********************
 ...... END OF ONE-ELECTRON INTEGRALS ......
 STEP CPU TIME =     0.00 TOTAL CPU TIME =        0.0 (    0.0 MIN)
 TOTAL WALL CLOCK TIME=        0.0 SECONDS, CPU UTILIZATION IS  50.00%

          -------------
          GUESS OPTIONS
          -------------
          GUESS =HUCKEL            NORB  =       0          NORDER=       0
          MIX   =       F          PRTMO =       F          PUNMO =       F
          TOLZ  = 1.0E-08          TOLE  = 1.0E-05
          SYMDEN=       F          PURIFY=       F

 INITIAL GUESS ORBITALS GENERATED BY HUCKEL   ROUTINE.
 HUCKEL GUESS REQUIRES      7030 WORDS.

 STATISTICS FOR GENERATION OF SYMMETRY ORBITAL -Q- MATRIX
 NUMBER OF CARTESIAN ATOMIC ORBITALS=         25
 NUMBER OF SPHERICAL CONTAMINANTS DROPPED=     1
 NUMBER OF LINEARLY DEPENDENT MOS DROPPED=     0
 TOTAL NUMBER OF MOS IN VARIATION SPACE=      24

 SYMMETRIES FOR INITIAL GUESS ORBITALS FOLLOW.   BOTH SET(S).
     5 ORBITALS ARE OCCUPIED (    1 CORE ORBITALS).
     2=A1       3=B1       4=A1       5=B2       6=B1       7=A1       8=A1  
     9=A1      10=A1      11=A1      12=A1      13=A1      14=A1      15=A2  
 ...... END OF INITIAL ORBITAL SELECTION ......
 STEP CPU TIME =     0.00 TOTAL CPU TIME =        0.0 (    0.0 MIN)
 TOTAL WALL CLOCK TIME=        0.0 SECONDS, CPU UTILIZATION IS  50.00%

                    ----------------------
                    AO INTEGRAL TECHNOLOGY
                    ----------------------
     S,P,L SHELL ROTATED AXIS INTEGRALS, REPROGRAMMED BY
        KAZUYA ISHIMURA (IMS) AND JOSE SIERRA (SYNSTAR).
     S,P,D,L SHELL ROTATED AXIS INTEGRALS PROGRAMMED BY
        KAZUYA ISHIMURA (INSTITUTE FOR MOLECULAR SCIENCE).
     S,P,D,F,G SHELL TO TOTAL QUARTET ANGULAR MOMENTUM SUM 5,
        ERIC PROGRAM BY GRAHAM FLETCHER (ELORET AND NASA ADVANCED
        SUPERCOMPUTING DIVISION, AMES RESEARCH CENTER).
     S,P,D,F,G,L SHELL GENERAL RYS QUADRATURE PROGRAMMED BY
        MICHEL DUPUIS (PACIFIC NORTHWEST NATIONAL LABORATORY).

          --------------------
          2 ELECTRON INTEGRALS
          --------------------

 DIRECT SCF METHOD SKIPS INTEGRAL STORAGE ON DISK.
 DIRECT TRANSFORMATION SKIPS AO INTEGRAL STORAGE ON DISK.
  ...... END OF TWO-ELECTRON INTEGRALS .....
 STEP CPU TIME =     0.02 TOTAL CPU TIME =        0.0 (    0.0 MIN)
 TOTAL WALL CLOCK TIME=        0.1 SECONDS, CPU UTILIZATION IS  57.14%

          --------------------------
                 RHF SCF CALCULATION
          --------------------------

     NUCLEAR ENERGY =         9.1280602789
     MAXIT =   30     NPUNCH=    2
     EXTRAP=T  DAMP=F  SHIFT=F  RSTRCT=F  DIIS=F  DEM=F  SOSCF=T
     DENSITY MATRIX CONV=  2.00E-06
     SOSCF WILL OPTIMIZE      95 ORBITAL ROTATIONS, SOGTOL=   0.250
     MEMORY REQUIRED FOR RHF ITERS=     50657 WORDS.

 DIRECT SCF CALCULATION, SCHWRZ=T   FDIFF=T,  DIRTHR=  0.00E+00 NITDIR=10
 SCHWARZ INEQUALITY OVERHEAD:       325 INTEGRALS, T=        0.00

                                                                                   NONZERO     BLOCKS
 ITER EX DEM     TOTAL ENERGY        E CHANGE  DENSITY CHANGE     ORB. GRAD      INTEGRALS    SKIPPED
   1  0  0      -75.7705456469   -75.7705456469   0.154728772   0.000000000          13863          0
          ---------------START SECOND ORDER SCF---------------
   2  1  0      -76.0137130999    -0.2431674530   0.045127555   0.044181265          13863          0
   3  2  0      -76.0252131018    -0.0115000018   0.018913856   0.011775826          13863          0
   4  3  0      -76.0261934402    -0.0009803384   0.002710796   0.001465032          13863          0
   5  4  0      -76.0262122127    -0.0000187725   0.001931621   0.000717097          13863          0
   6  5  0      -76.0262159544    -0.0000037417   0.000297953   0.000186875          13863          0
   7  6  0      -76.0262161452    -0.0000001909   0.000062579   0.000051841          13863          0
   8  7  0      -76.0262161509    -0.0000000056   0.000023133   0.000012443          13863          0
   9  8  0      -76.0262161514    -0.0000000005   0.000003357   0.000001338          13863          0
  10  9  0      -76.0262161514    -0.0000000000   0.000000421   0.000000329          13863          0

          -----------------
          DENSITY CONVERGED
          -----------------
     TIME TO FORM FOCK OPERATORS=       0.0 SECONDS (       0.0 SEC/ITER)
     FOCK TIME ON FIRST ITERATION=       0.0, LAST ITERATION=       0.0
     TIME TO SOLVE SCF EQUATIONS=       0.0 SECONDS (       0.0 SEC/ITER)

 FINAL RHF ENERGY IS      -76.0262161514 AFTER  10 ITERATIONS

          ------------
          EIGENVECTORS
          ------------

                      1          2          3          4          5
                  -20.5532    -1.3349    -0.6902    -0.5705    -0.4936
                     A1         A1         B1         A1         B2  
    1  O  1  S    1.000881  -0.007695   0.000000   0.002366   0.000000
    2  O  1  S    0.001119   0.443573   0.000000  -0.152933   0.000000
    3  O  1  S   -0.002708   0.379173   0.000000  -0.354586   0.000000
    4  O  1  X    0.000000  -0.000000   0.490510   0.000000   0.000000
    5  O  1  Y    0.000000  -0.000000   0.000000   0.000000   0.631778
    6  O  1  Z    0.001765   0.079508   0.000000   0.541399   0.000000
    7  O  1  X    0.000000  -0.000000   0.228705   0.000000   0.000000
    8  O  1  Y    0.000000  -0.000000   0.000000   0.000000   0.495449
    9  O  1  Z   -0.000512  -0.012671   0.000000   0.359022   0.000000
   10  O  1 XX    0.000085   0.001604   0.000000  -0.005152   0.000000
   11  O  1 YY   -0.000107  -0.003172   0.000000  -0.012921   0.000000
   12  O  1 ZZ    0.000021   0.001568   0.000000   0.018073   0.000000
   13  O  1 XY    0.000000  -0.000000   0.000000   0.000000   0.000000
   14  O  1 XZ    0.000000  -0.000000   0.026890   0.000000   0.000000
   15  O  1 YZ    0.000000  -0.000000   0.000000   0.000000   0.018352
   16  H  2  S   -0.000192   0.191705   0.324811   0.210824   0.000000
   17  H  2  S    0.000417   0.010088   0.093481   0.041878   0.000000
   18  H  2  X    0.000540  -0.036187  -0.022293  -0.032290   0.000000
   19  H  2  Y    0.000000  -0.000000   0.000000   0.000000   0.030966
   20  H  2  Z    0.000478  -0.021320  -0.033061   0.006340   0.000000
   21  H  3  S   -0.000192   0.191705  -0.324811   0.210824   0.000000
   22  H  3  S    0.000417   0.010088  -0.093481   0.041878   0.000000
   23  H  3  X   -0.000540   0.036187  -0.022293   0.032290   0.000000
   24  H  3  Y    0.000000  -0.000000   0.000000   0.000000   0.030966
   25  H  3  Z    0.000478  -0.021320   0.033061   0.006340   0.000000

                      6          7          8          9         10
                    0.1837     0.2554     0.7753     0.8587     1.1664
                     A1         B1         B1         A1         A1  
    1  O  1  S   -0.051790   0.000000   0.000000  -0.071848   0.010890
    2  O  1  S    0.071454   0.000000   0.000000  -0.265706   0.136913
    3  O  1  S    0.989323   0.000000   0.000000   0.359786   0.709314
    4  O  1  X   -0.000000  -0.286686  -0.262238   0.000000   0.000000
    5  O  1  Y   -0.000000   0.000000   0.000000   0.000000   0.000000
    6  O  1  Z    0.196186   0.000000   0.000000  -0.351614  -0.740858
    7  O  1  X   -0.000000  -0.667594  -0.447733   0.000000   0.000000
    8  O  1  Y   -0.000000   0.000000   0.000000   0.000000   0.000000
    9  O  1  Z    0.346123   0.000000   0.000000   0.034566   1.277958
   10  O  1 XX    0.003973   0.000000   0.000000   0.087372  -0.018058
   11  O  1 YY   -0.012282   0.000000   0.000000  -0.094028   0.003449
   12  O  1 ZZ    0.008309   0.000000   0.000000   0.006657   0.014609
   13  O  1 XY   -0.000000   0.000000   0.000000   0.000000   0.000000
   14  O  1 XZ   -0.000000  -0.020428   0.110836   0.000000   0.000000
   15  O  1 YZ   -0.000000   0.000000   0.000000   0.000000   0.000000
   16  H  2  S   -0.057622   0.029956   0.944059   0.777392  -0.562168
   17  H  2  S   -0.823790   1.442993  -0.709568  -0.556648  -0.097317
   18  H  2  X    0.016473  -0.019899   0.072208   0.293466   0.063404
   19  H  2  Y   -0.000000   0.000000   0.000000   0.000000   0.000000
   20  H  2  Z    0.016178  -0.016298   0.144156   0.074491   0.260331
   21  H  3  S   -0.057622  -0.029956  -0.944059   0.777392  -0.562168
   22  H  3  S   -0.823790  -1.442993   0.709568  -0.556648  -0.097317
   23  H  3  X   -0.016473  -0.019899   0.072208  -0.293466  -0.063404
   24  H  3  Y   -0.000000   0.000000   0.000000   0.000000   0.000000
   25  H  3  Z    0.016178   0.016298  -0.144156   0.074491   0.260331

                     11         12         13         14         15
                    1.1996     1.2565     1.4212     1.4831     1.6586
                     B2         B1         A1         A2         B2  
    1  O  1  S    0.000000   0.000000   0.175877  -0.000000  -0.000000
    2  O  1  S    0.000000   0.000000   0.473031  -0.000000  -0.000000
    3  O  1  S    0.000000   0.000000  -0.363740  -0.000000  -0.000000
    4  O  1  X    0.000000  -0.745944   0.000000  -0.000000  -0.000000
    5  O  1  Y   -0.967598   0.000000   0.000000  -0.000000  -0.004780
    6  O  1  Z    0.000000   0.000000  -0.130829  -0.000000  -0.000000
    7  O  1  X    0.000000   1.744679   0.000000  -0.000000  -0.000000
    8  O  1  Y    1.018266   0.000000   0.000000  -0.000000  -0.637252
    9  O  1  Z    0.000000   0.000000   0.784642  -0.000000  -0.000000
   10  O  1 XX    0.000000   0.000000   0.066447  -0.000000  -0.000000
   11  O  1 YY    0.000000   0.000000   0.051268  -0.000000  -0.000000
   12  O  1 ZZ    0.000000   0.000000  -0.117715  -0.000000  -0.000000
   13  O  1 XY    0.000000   0.000000   0.000000   0.133284  -0.000000
   14  O  1 XZ    0.000000   0.043691   0.000000  -0.000000  -0.000000
   15  O  1 YZ   -0.002879   0.000000   0.000000  -0.000000   0.160903
   16  H  2  S    0.000000  -0.363106  -0.372324  -0.000000  -0.000000
   17  H  2  S    0.000000  -0.821713   0.187225  -0.000000  -0.000000
   18  H  2  X    0.000000   0.290468   0.366435  -0.000000  -0.000000
   19  H  2  Y    0.016825   0.000000   0.000000   0.687103   0.761842
   20  H  2  Z    0.000000   0.197994  -0.519464  -0.000000  -0.000000
   21  H  3  S    0.000000   0.363106  -0.372324  -0.000000  -0.000000
   22  H  3  S    0.000000   0.821713   0.187225  -0.000000  -0.000000
   23  H  3  X    0.000000   0.290468  -0.366435  -0.000000  -0.000000
   24  H  3  Y    0.016825   0.000000   0.000000  -0.687103   0.761842
   25  H  3  Z    0.000000  -0.197994  -0.519464  -0.000000  -0.000000

                     16         17         18         19         20
                    1.8634     1.9419     2.4287     2.4763     3.2922
                     A1         B1         B1         A1         B2  
    1  O  1  S   -0.734432  -0.000000   0.000000   0.262618   0.000000
    2  O  1  S   -1.615882  -0.000000   0.000000   0.698525   0.000000
    3  O  1  S    3.043885  -0.000000   0.000000   0.797895   0.000000
    4  O  1  X   -0.000000   0.022943   0.817601   0.000000   0.000000
    5  O  1  Y   -0.000000  -0.000000   0.000000   0.000000  -0.015195
    6  O  1  Z    0.102897  -0.000000   0.000000   0.680298   0.000000
    7  O  1  X   -0.000000   0.850385   0.117413   0.000000   0.000000
    8  O  1  Y   -0.000000  -0.000000   0.000000   0.000000   0.310539
    9  O  1  Z    0.970335  -0.000000   0.000000   0.176786   0.000000
   10  O  1 XX   -0.041391  -0.000000   0.000000  -0.162028   0.000000
   11  O  1 YY    0.150470  -0.000000   0.000000   0.208294   0.000000
   12  O  1 ZZ   -0.109079  -0.000000   0.000000  -0.046266   0.000000
   13  O  1 XY   -0.000000  -0.000000   0.000000   0.000000   0.000000
   14  O  1 XZ   -0.000000  -0.030552  -0.131996   0.000000   0.000000
   15  O  1 YZ   -0.000000  -0.000000   0.000000   0.000000   1.043642
   16  H  2  S   -0.825634  -0.359475  -0.271044  -0.464706   0.000000
   17  H  2  S   -0.387236  -0.085406  -0.332580  -0.162203   0.000000
   18  H  2  X    0.353161  -0.468653   0.733564   0.721589   0.000000
   19  H  2  Y   -0.000000  -0.000000   0.000000   0.000000  -0.397998
   20  H  2  Z    0.016929   0.702466   0.536591   0.561522   0.000000
   21  H  3  S   -0.825634   0.359475   0.271044  -0.464706   0.000000
   22  H  3  S   -0.387236   0.085406   0.332580  -0.162203   0.000000
   23  H  3  X   -0.353161  -0.468653   0.733564  -0.721589   0.000000
   24  H  3  Y   -0.000000  -0.000000   0.000000   0.000000  -0.397998
   25  H  3  Z    0.016929  -0.702466  -0.536591   0.561522   0.000000

                     21         22         23         24
                    3.3216     3.5085     3.8400     4.1530
                     A2         A1         A1         B1  
    1  O  1  S    0.000000  -0.075496  -0.165734  -0.000000
    2  O  1  S    0.000000  -0.145212  -0.222627  -0.000000
    3  O  1  S    0.000000   0.393094   2.283547  -0.000000
    4  O  1  X    0.000000  -0.000000  -0.000000   0.449982
    5  O  1  Y    0.000000  -0.000000  -0.000000  -0.000000
    6  O  1  Z    0.000000  -0.016817   0.395874  -0.000000
    7  O  1  X    0.000000  -0.000000  -0.000000   1.114222
    8  O  1  Y    0.000000  -0.000000  -0.000000  -0.000000
    9  O  1  Z    0.000000   0.467137   0.982716  -0.000000
   10  O  1 XX    0.000000  -0.780880   0.842396  -0.000000
   11  O  1 YY    0.000000  -0.283379  -1.104938  -0.000000
   12  O  1 ZZ    0.000000   1.064259   0.262542  -0.000000
   13  O  1 XY    1.060885  -0.000000  -0.000000  -0.000000
   14  O  1 XZ    0.000000  -0.000000  -0.000000   1.327830
   15  O  1 YZ    0.000000  -0.000000  -0.000000  -0.000000
   16  H  2  S    0.000000  -0.222232  -1.236532  -1.059681
   17  H  2  S    0.000000  -0.019917  -0.192456  -0.287137
   18  H  2  X    0.000000   0.306329   0.621370   0.591171
   19  H  2  Y   -0.363665  -0.000000  -0.000000  -0.000000
   20  H  2  Z    0.000000  -0.335481   0.473878   0.514169
   21  H  3  S    0.000000  -0.222232  -1.236532   1.059681
   22  H  3  S    0.000000  -0.019917  -0.192456   0.287137
   23  H  3  X    0.000000  -0.306329  -0.621370   0.591171
   24  H  3  Y    0.363665  -0.000000  -0.000000  -0.000000
   25  H  3  Z    0.000000  -0.335481   0.473878  -0.514169
 ...... END OF RHF CALCULATION ......
 STEP CPU TIME =     0.07 TOTAL CPU TIME =        0.1 (    0.0 MIN)
 TOTAL WALL CLOCK TIME=        0.2 SECONDS, CPU UTILIZATION IS  68.75%

     ----------------------------------------------------------------
     PROPERTY VALUES FOR THE RHF   SELF-CONSISTENT FIELD WAVEFUNCTION
     ----------------------------------------------------------------

          -----------------
          ENERGY COMPONENTS
          -----------------

         WAVEFUNCTION NORMALIZATION =       1.0000000000

                ONE ELECTRON ENERGY =    -123.0236681402
                TWO ELECTRON ENERGY =      37.8693917100
           NUCLEAR REPULSION ENERGY =       9.1280602789
                                      ------------------
                       TOTAL ENERGY =     -76.0262161514

 ELECTRON-ELECTRON POTENTIAL ENERGY =      37.8693917100
  NUCLEUS-ELECTRON POTENTIAL ENERGY =    -198.9872240322
   NUCLEUS-NUCLEUS POTENTIAL ENERGY =       9.1280602789
                                      ------------------
             TOTAL POTENTIAL ENERGY =    -151.9897720433
               TOTAL KINETIC ENERGY =      75.9635558919
                 VIRIAL RATIO (V/T) =       2.0008248726

  ...... PI ENERGY ANALYSIS ......

 ENERGY ANALYSIS:
            FOCK ENERGY=    -47.2848811578
          BARE H ENERGY=   -123.0236681402
     ELECTRONIC ENERGY =    -85.1542746490
         KINETIC ENERGY=     75.9635558919
          N-N REPULSION=      9.1280602789
           TOTAL ENERGY=    -76.0262143701
        SIGMA PART(1+2)=    -77.5664728201
               (K,V1,2)=     71.4016946835   -180.2368770350     31.2687095315
           PI PART(1+2)=     -7.5878018289
               (K,V1,2)=      4.5618612085    -18.7503469972      6.6006839597
  SIGMA SKELETON, ERROR=    -68.4384125412     -0.0000000000
             MIXED PART= 0.00000E+00 0.00000E+00 0.00000E+00 0.00000E+00
 ...... END OF PI ENERGY ANALYSIS ......

          ---------------------------------------
          MULLIKEN AND LOWDIN POPULATION ANALYSES
          ---------------------------------------

     ATOMIC MULLIKEN POPULATION IN EACH MOLECULAR ORBITAL

                      1          2          3          4          5

                  2.000000   2.000000   2.000000   2.000000   2.000000

    1             2.000235   1.484828   1.173174   1.693865   1.956738
    2            -0.000117   0.257586   0.413413   0.153067   0.021631
    3            -0.000117   0.257586   0.413413   0.153067   0.021631

               ----- POPULATIONS IN EACH AO -----
                             MULLIKEN      LOWDIN
              1  O  1  S      2.00172     1.90201
              2  O  1  S      0.83582     0.59554
              3  O  1  S      0.83212     0.50480
              4  O  1  X      0.77157     0.70094
              5  O  1  Y      1.12708     1.08461
              6  O  1  Z      0.91239     0.86253
              7  O  1  X      0.39263     0.53699
              8  O  1  Y      0.82854     0.79189
              9  O  1  Z      0.59455     0.68610
             10  O  1 XX      0.00155     0.18513
             11  O  1 YY      0.00077     0.17653
             12  O  1 ZZ      0.00000     0.17903
             13  O  1 XY      0.00898     0.00000
             14  O  1 XZ      0.00112     0.01779
             15  O  1 YZ      0.00000     0.00025
             16  H  2  S      0.68743     0.55102
             17  H  2  S      0.07256     0.16251
             18  H  2  X      0.03680     0.05633
             19  H  2  Y      0.02163     0.06163
             20  H  2  Z      0.02716     0.05644
             21  H  3  S      0.68743     0.55102
             22  H  3  S      0.07256     0.16251
             23  H  3  X      0.03680     0.05633
             24  H  3  Y      0.02163     0.06163
             25  H  3  Z      0.02716     0.05644

          ----- MULLIKEN ATOMIC OVERLAP POPULATIONS -----
          (OFF-DIAGONAL ELEMENTS NEED TO BE MULTIPLIED BY 2)

             1           2           3

    1    7.5857651
    2    0.3615371   0.5180431
    3    0.3615371  -0.0339998   0.5180431

          TOTAL MULLIKEN AND LOWDIN ATOMIC POPULATIONS
       ATOM         MULL.POP.    CHARGE          LOW.POP.     CHARGE
    1 O             8.308839   -0.308839         8.224139   -0.224139
    2 H             0.845580    0.154420         0.887930    0.112070
    3 H             0.845580    0.154420         0.887930    0.112070

          MULLIKEN SPHERICAL HARMONIC POPULATIONS
       ATOM           S       P       D      F      G      H      I    TOTAL
    1 O             3.67    4.63    0.01   0.00   0.00   0.00   0.00    8.31
    2 H             0.76    0.09    0.00   0.00   0.00   0.00   0.00    0.85
    3 H             0.76    0.09    0.00   0.00   0.00   0.00   0.00    0.85

          -------------------------------
          BOND ORDER AND VALENCE ANALYSIS     BOND ORDER THRESHOLD=0.050
          -------------------------------

                   BOND                       BOND                       BOND
  ATOM PAIR DIST  ORDER      ATOM PAIR DIST  ORDER      ATOM PAIR DIST  ORDER
    1   2  0.965  1.019        1   3  0.965  1.019

                       TOTAL       BONDED        FREE
      ATOM            VALENCE     VALENCE     VALENCE
    1 O                 2.038       2.038       0.000
    2 H                 1.026       1.026       0.000
    3 H                 1.026       1.026       0.000
 ...... END OF PROPERTY EVALUATION ......
 STEP CPU TIME =     0.01 TOTAL CPU TIME =        0.1 (    0.0 MIN)
 TOTAL WALL CLOCK TIME=        0.2 SECONDS, CPU UTILIZATION IS  75.00%

 -----------------------------     ----------------------------------
 RHF RI-MP2 ENERGY CALCULATION     PROGRAM WRITTEN BY M.KATOUDA (IMS)
 -----------------------------     ----------------------------------
 IAUXBF=1   OTHAUX= F STOL= 1.00E-06   IVMTD=0 VTOL= 1.00E-06

        PROCESS BASED PARALLEL RI-MP2 ALGORITHM IS CHOOSEN
 (EACH AND EVERY PROCESS ALLOCATES THE REPLICATED MEMORY ARRAYS)

 DISTRIBUTED MEMORY IS USED TO STORE DATA, INSTEAD OF DISKS

     AUXILIARY BASIS OPTIONS
     -----------------------
     CABNAM=CCD      EXTCAB= F

     ATOMIC AUXILIARY BASIS SET
     --------------------------
 THE CONTRACTED PRIMITIVE FUNCTIONS HAVE BEEN UNNORMALIZED
 THE CONTRACTED BASIS FUNCTIONS ARE NOW NORMALIZED TO UNITY

  SHELL TYPE  PRIMITIVE        EXPONENT          CONTRACTION COEFFICIENT(S)

 O         

      1   S       1           109.4610000   24.118741939579

      2   S       2            25.5780000    8.106064022131

      3   S       3             9.5514800    3.872247385526

      4   S       4             2.9396000    1.600023168234

      5   S       5             1.3963800    0.915509398665

      6   S       6             0.9050610    0.661330390512

      7   S       7             0.4213760    0.372745525977

      8   P       8            36.1292000  126.259195974628

      9   P       9            10.8817000   28.171568231834

     10   P      10             3.2059400    6.114829126858

     11   P      11             1.4038700    2.178204769911

     12   P      12             0.6127630    0.772779788813

     13   D      13            15.2511000  193.725371074412

     14   D      14             4.5208700   23.070020964432

     15   D      15             1.8122100    4.658803259888

     16   D      16             0.5922010    0.658006895715

     17   F      17             4.2219400   37.614611279718

     18   F      18             1.7902100    5.457432864353

 H         

     19   S      19             5.1158895    2.424381492937

     20   S      20             1.1429653    0.787834274449

     21   S      21             0.2916615    0.282858643623

     22   P      22             1.9149640    3.211004127562

     23   P      23             0.9864012    1.401222491831

     24   D      24             1.1720835    2.173135983785

 H         

     25   S      25             5.1158895    2.424381492937

     26   S      26             1.1429653    0.787834274449

     27   S      27             0.2916615    0.282858643623

     28   P      28             1.9149640    3.211004127562

     29   P      29             0.9864012    1.401222491831

     30   D      30             1.1720835    2.173135983785

 CHECKING SIZE OF OCCUPIED ORBITAL BATCH
 LV=  0 LENBAT=   4 INEED3=       19821 INEED4=       13151

 NUMBER OF OCCUPIED ORBITALS            =     5
 NUMBER OF CORRELATED OCCUPIED ORBITALS =     4
 NUMBER OF VIRTUAL ORBITALS             =    19
 NUMBER OF BASIS FUNCTIONS              =    25
 NUMBER OF BASIS SHELLS                 =    12
 NUMBER OF AUXILIARY BASIS FUNCTIONS    =    84
 NUMBER OF AUXILIARY BASIS SHELLS       =    30
 LEVEL  OF OCCUPIED ORBITAL BATCH       =     0
 LENGTH OF OCCUPIED ORBITAL BATCH       =     4
 NUMBER OF OCCUPIED ORBITAL BATCH       =     1

 USING DISTRIBUTED MEMORY TO CONTAIN LARGE DATA SETS (USEDM = .TRUE.)
 TOTAL MEMDDI REQUIRED=         1 MILLION WORDS
 MEMDDI IN THIS RUN IS SPREAD OVER     1 COMPUTE PROCESSES, SO
 MEMDDI USED PER COMPUTE PROCESS WILL BE         0.01 GBYTES.
 DDI: Creating Array [0] - 1596 x 4 = 6384 words.
 DDI: Creating Array [1] - 84 x 84 = 7056 words.

 SPHERICAL HARMONIC GAUSSIANS ARE EMPLOYED FOR AUXILIARY BASIS SETS

 MEMORY REQUIRED FOR 2C-2E ERI MATRIX GENERATION  =        7462 WORDS

 TIME OF 2C-2E ERI MATRIX GENERATION =          0.0

 TIME OF CHOLESKY DECOMPOSITION      =          0.0
 TIME OF INVERSE MATRIX GENERATION   =          0.0

 IVMTD=0 VTOL=0.1000E-05 NAUXBAS=    84 NAUXBASD=    84

 MEMORY REQUIRED FOR 1/3 TRANSFORMATION           =        8986 WORDS

 TIME OF 3C-2E ERI GENERATION        =          0.0
 TIME OF 1/3 INTEGRAL TRANSFORMATION =          0.0
 TIME OF 2/3 INTEGRAL TRANSFORMATION =          0.0
 TIME OF 2/3 INTEGRAL WRITE          =          0.0

 MEMORY REQUIRED FOR 2/3 TRANSFORMATION           =       15038 WORDS

 TIME OF 2/3 INTEGRAL READ           =          0.0
 TIME OF 3/3 INTEGRAL TRANSFORMATION =          0.0
 TIME OF 3/3 INTEGRAL WRITE          =          0.0

 MEMORY REQUIRED FOR 4C-2E ERI GENERATION
 AND MP2 ENERGY ACCUMULATION                      =       13154 WORDS

 TIME OF 3/3 INTEGRAL READ           =          0.0
 TIME OF TEI GENERATION              =          0.0
 TIME OF MP2 ENERGY ACCUMULATION     =          0.0

 RESULTS OF RI-MOLLER-PLESSET 2ND ORDER CORRECTION ARE
               E(0)=       -76.0262161514
               E(1)=         0.0
               E(2)=        -0.2024366859
             E(MP2)=       -76.2286528373
 SPIN-COMPONENT-SCALED MP2 RESULTS ARE
              E(2S)=        -0.1514996973
              E(2T)=        -0.0509369886
             E(2ST)=        -0.1987786330 = 6/5 * E(2S) + 1/3 * E(2T)
            SCS-MP2=       -76.2249947844
 ..... DONE WITH MP2 ENERGY .....
 STEP CPU TIME =     0.02 TOTAL CPU TIME =        0.1 (    0.0 MIN)
 TOTAL WALL CLOCK TIME=        0.2 SECONDS, CPU UTILIZATION IS  82.35%
 MODE # 1   QRANGE=   28.792923     DEL-Q=    8.226549
 MODE # 2   QRANGE=   29.235222     DEL-Q=    8.352920
 MODE # 3   QRANGE=   44.299117     DEL-Q=   12.656890


 STARTING DIAGONAL POTENTIAL ON A GRID OF   8 POINTS FOR   3 NORMAL MODES


 VSCF: ENERGY                    FOR GRID POINT  1 ALONG MODE  9

 ATOM      ATOMIC                      COORDINATES (BOHR)
           CHARGE         X                   Y                   Z
   1        8.0     0.0448150065        0.0000000000       -0.1358917094
   2        1.0     1.0604148310       -0.0000000000        0.7243246420
   3        1.0    -1.7716613234        0.0000000000        1.3012930555
 ...... END OF ONE-ELECTRON INTEGRALS ......
 STEP CPU TIME =     0.00 TOTAL CPU TIME =        0.1 (    0.0 MIN)
 TOTAL WALL CLOCK TIME=        0.2 SECONDS, CPU UTILIZATION IS  82.35%
  ...... END OF TWO-ELECTRON INTEGRALS .....
 STEP CPU TIME =     0.00 TOTAL CPU TIME =        0.1 (    0.0 MIN)
 TOTAL WALL CLOCK TIME=        0.2 SECONDS, CPU UTILIZATION IS  82.35%

          --------------------------
                 RHF SCF CALCULATION
          --------------------------
     DENSITY MATRIX CONV=  2.00E-06

 DIRECT SCF CALCULATION, SCHWRZ=T   FDIFF=T,  DIRTHR=  0.00E+00 NITDIR=10

                                                                                   NONZERO     BLOCKS
 ITER EX DEM     TOTAL ENERGY        E CHANGE  DENSITY CHANGE     ORB. GRAD      INTEGRALS    SKIPPED
          ---------------START SECOND ORDER SCF---------------
   1  0  0      -75.8070046422   -75.8070046422   0.182903820   0.102560279          26107          0
   2  1  0      -75.8528891002    -0.0458844580   0.027850022   0.016855148          26107          0
   3  2  0      -75.8560883738    -0.0031992736   0.007247065   0.005108029          26107          0
   4  3  0      -75.8563335865    -0.0002452127   0.003760772   0.001883675          26107          0
   5  4  0      -75.8563740876    -0.0000405011   0.002571757   0.001031708          26107          0
   6  5  0      -75.8563799421    -0.0000058545   0.000608583   0.000287625          26107          0
   7  6  0      -75.8563806242    -0.0000006821   0.000210110   0.000084936          26107          0
   8  7  0      -75.8563806918    -0.0000000676   0.000044108   0.000024485          26107          0
   9  8  0      -75.8563806967    -0.0000000049   0.000016717   0.000008249          26107          0
  10  9  0      -75.8563806974    -0.0000000007   0.000004266   0.000003333          26107          0
  11 10  0      -75.8563806974    -0.0000000000   0.000001058   0.000000752          26107          0
  12 11  0      -75.8563806974    -0.0000000000   0.000000156   0.000000095          26107          0

          -----------------
          DENSITY CONVERGED
          -----------------
     TIME TO FORM FOCK OPERATORS=       0.1 SECONDS (       0.0 SEC/ITER)
     FOCK TIME ON FIRST ITERATION=       0.0, LAST ITERATION=       0.0
     TIME TO SOLVE SCF EQUATIONS=       0.0 SECONDS (       0.0 SEC/ITER)

 FINAL RHF ENERGY IS      -75.8563806974 AFTER  12 ITERATIONS
 ...... END OF RHF CALCULATION ......
 STEP CPU TIME =     0.15 TOTAL CPU TIME =        0.3 (    0.0 MIN)
 TOTAL WALL CLOCK TIME=        0.4 SECONDS, CPU UTILIZATION IS  78.38%

 -----------------------------     ----------------------------------
 RHF RI-MP2 ENERGY CALCULATION     PROGRAM WRITTEN BY M.KATOUDA (IMS)
 -----------------------------     ----------------------------------
 IAUXBF=1   OTHAUX= F STOL= 1.00E-06   IVMTD=0 VTOL= 1.00E-06

        PROCESS BASED PARALLEL RI-MP2 ALGORITHM IS CHOOSEN
 (EACH AND EVERY PROCESS ALLOCATES THE REPLICATED MEMORY ARRAYS)

 DISTRIBUTED MEMORY IS USED TO STORE DATA, INSTEAD OF DISKS

     AUXILIARY BASIS OPTIONS
     -----------------------
     CABNAM=CCD      EXTCAB= F

     ATOMIC AUXILIARY BASIS SET
     --------------------------
 THE CONTRACTED PRIMITIVE FUNCTIONS HAVE BEEN UNNORMALIZED
 THE CONTRACTED BASIS FUNCTIONS ARE NOW NORMALIZED TO UNITY

  SHELL TYPE  PRIMITIVE        EXPONENT          CONTRACTION COEFFICIENT(S)

 O         

      1   S       1           109.4610000   24.118741939579

      2   S       2            25.5780000    8.106064022131

      3   S       3             9.5514800    3.872247385526

      4   S       4             2.9396000    1.600023168234

      5   S       5             1.3963800    0.915509398665

      6   S       6             0.9050610    0.661330390512

      7   S       7             0.4213760    0.372745525977

      8   P       8            36.1292000  126.259195974628

      9   P       9            10.8817000   28.171568231834

     10   P      10             3.2059400    6.114829126858

     11   P      11             1.4038700    2.178204769911

     12   P      12             0.6127630    0.772779788813

     13   D      13            15.2511000  193.725371074412

     14   D      14             4.5208700   23.070020964432

     15   D      15             1.8122100    4.658803259888

     16   D      16             0.5922010    0.658006895715

     17   F      17             4.2219400   37.614611279718

     18   F      18             1.7902100    5.457432864353

 H         

     19   S      19             5.1158895    2.424381492937

     20   S      20             1.1429653    0.787834274449

     21   S      21             0.2916615    0.282858643623

     22   P      22             1.9149640    3.211004127562

     23   P      23             0.9864012    1.401222491831

     24   D      24             1.1720835    2.173135983785

 H         

     25   S      25             5.1158895    2.424381492937

     26   S      26             1.1429653    0.787834274449

     27   S      27             0.2916615    0.282858643623

     28   P      28             1.9149640    3.211004127562

     29   P      29             0.9864012    1.401222491831

     30   D      30             1.1720835    2.173135983785

 CHECKING SIZE OF OCCUPIED ORBITAL BATCH
 LV=  0 LENBAT=   4 INEED3=       19821 INEED4=       13151

 NUMBER OF OCCUPIED ORBITALS            =     5
 NUMBER OF CORRELATED OCCUPIED ORBITALS =     4
 NUMBER OF VIRTUAL ORBITALS             =    19
 NUMBER OF BASIS FUNCTIONS              =    25
 NUMBER OF BASIS SHELLS                 =    12
 NUMBER OF AUXILIARY BASIS FUNCTIONS    =    84
 NUMBER OF AUXILIARY BASIS SHELLS       =    30
 LEVEL  OF OCCUPIED ORBITAL BATCH       =     0
 LENGTH OF OCCUPIED ORBITAL BATCH       =     4
 NUMBER OF OCCUPIED ORBITAL BATCH       =     1

 USING DISTRIBUTED MEMORY TO CONTAIN LARGE DATA SETS (USEDM = .TRUE.)
 TOTAL MEMDDI REQUIRED=         1 MILLION WORDS
 MEMDDI IN THIS RUN IS SPREAD OVER     1 COMPUTE PROCESSES, SO
 MEMDDI USED PER COMPUTE PROCESS WILL BE         0.01 GBYTES.
 DDI: Creating Array [0] - 1596 x 4 = 6384 words.
 DDI: Creating Array [1] - 84 x 84 = 7056 words.

 SPHERICAL HARMONIC GAUSSIANS ARE EMPLOYED FOR AUXILIARY BASIS SETS

 MEMORY REQUIRED FOR 2C-2E ERI MATRIX GENERATION  =        7462 WORDS

 TIME OF 2C-2E ERI MATRIX GENERATION =          0.0

 TIME OF CHOLESKY DECOMPOSITION      =          0.0
 TIME OF INVERSE MATRIX GENERATION   =          0.0

 IVMTD=0 VTOL=0.1000E-05 NAUXBAS=    84 NAUXBASD=    84

 MEMORY REQUIRED FOR 1/3 TRANSFORMATION           =        8986 WORDS

 TIME OF 3C-2E ERI GENERATION        =          0.0
 TIME OF 1/3 INTEGRAL TRANSFORMATION =          0.0
 TIME OF 2/3 INTEGRAL TRANSFORMATION =          0.0
 TIME OF 2/3 INTEGRAL WRITE          =          0.0

 MEMORY REQUIRED FOR 2/3 TRANSFORMATION           =       15038 WORDS

 TIME OF 2/3 INTEGRAL READ           =          0.0
 TIME OF 3/3 INTEGRAL TRANSFORMATION =          0.0
 TIME OF 3/3 INTEGRAL WRITE          =          0.0

 MEMORY REQUIRED FOR 4C-2E ERI GENERATION
 AND MP2 ENERGY ACCUMULATION                      =       13154 WORDS

 TIME OF 3/3 INTEGRAL READ           =          0.0
 TIME OF TEI GENERATION              =          0.0
 TIME OF MP2 ENERGY ACCUMULATION     =          0.0

 RESULTS OF RI-MOLLER-PLESSET 2ND ORDER CORRECTION ARE
               E(0)=       -75.8563806974
               E(1)=         0.0
               E(2)=        -0.2007784025
             E(MP2)=       -76.0571590999
 SPIN-COMPONENT-SCALED MP2 RESULTS ARE
              E(2S)=        -0.1509875884
              E(2T)=        -0.0497908140
             E(2ST)=        -0.1977820442 = 6/5 * E(2S) + 1/3 * E(2T)
            SCS-MP2=       -76.0541627416
 ..... DONE WITH MP2 ENERGY .....
 STEP CPU TIME =     0.00 TOTAL CPU TIME =        0.3 (    0.0 MIN)
 TOTAL WALL CLOCK TIME=        0.4 SECONDS, CPU UTILIZATION IS  76.32%


 VSCF: ENERGY                    FOR GRID POINT  2 ALONG MODE  9

 ATOM      ATOMIC                      COORDINATES (BOHR)
           CHARGE         X                   Y                   Z
   1        8.0     0.0320107190        0.0000000000       -0.1358917094
   2        1.0     1.1620214728       -0.0000000000        0.8067487011
   3        1.0    -1.6700546816        0.0000000000        1.2188689964
 ...... END OF ONE-ELECTRON INTEGRALS ......
 STEP CPU TIME =     0.00 TOTAL CPU TIME =        0.3 (    0.0 MIN)
 TOTAL WALL CLOCK TIME=        0.4 SECONDS, CPU UTILIZATION IS  76.32%
  ...... END OF TWO-ELECTRON INTEGRALS .....
 STEP CPU TIME =     0.00 TOTAL CPU TIME =        0.3 (    0.0 MIN)
 TOTAL WALL CLOCK TIME=        0.4 SECONDS, CPU UTILIZATION IS  76.32%

          --------------------------
                 RHF SCF CALCULATION
          --------------------------
     DENSITY MATRIX CONV=  2.00E-06

 DIRECT SCF CALCULATION, SCHWRZ=T   FDIFF=T,  DIRTHR=  0.00E+00 NITDIR=10

                                                                                   NONZERO     BLOCKS
 ITER EX DEM     TOTAL ENERGY        E CHANGE  DENSITY CHANGE     ORB. GRAD      INTEGRALS    SKIPPED
          ---------------START SECOND ORDER SCF---------------
   1  0  0      -75.9449731969   -75.9449731969   0.051558452   0.031125768          26107          0
   2  1  0      -75.9487036847    -0.0037304878   0.013334673   0.006457014          26107          0
   3  2  0      -75.9489855576    -0.0002818729   0.003210952   0.002432067          26107          0
   4  3  0      -75.9490152240    -0.0000296664   0.001059021   0.000621003          26107          0
   5  4  0      -75.9490175259    -0.0000023020   0.000232577   0.000124277          26107          0
   6  5  0      -75.9490176671    -0.0000001412   0.000031550   0.000015553          26107          0
   7  6  0      -75.9490176710    -0.0000000039   0.000015690   0.000007712          26107          0
   8  7  0      -75.9490176714    -0.0000000004   0.000002249   0.000001524          26107          0
   9  8  0      -75.9490176714    -0.0000000000   0.000000859   0.000000368          26107          0

          -----------------
          DENSITY CONVERGED
          -----------------
     TIME TO FORM FOCK OPERATORS=       0.1 SECONDS (       0.0 SEC/ITER)
     FOCK TIME ON FIRST ITERATION=       0.0, LAST ITERATION=       0.0
     TIME TO SOLVE SCF EQUATIONS=       0.0 SECONDS (       0.0 SEC/ITER)

 FINAL RHF ENERGY IS      -75.9490176714 AFTER   9 ITERATIONS
 ...... END OF RHF CALCULATION ......
 STEP CPU TIME =     0.11 TOTAL CPU TIME =        0.4 (    0.0 MIN)
 TOTAL WALL CLOCK TIME=        0.5 SECONDS, CPU UTILIZATION IS  80.00%

 -----------------------------     ----------------------------------
 RHF RI-MP2 ENERGY CALCULATION     PROGRAM WRITTEN BY M.KATOUDA (IMS)
 -----------------------------     ----------------------------------
 IAUXBF=1   OTHAUX= F STOL= 1.00E-06   IVMTD=0 VTOL= 1.00E-06

        PROCESS BASED PARALLEL RI-MP2 ALGORITHM IS CHOOSEN
 (EACH AND EVERY PROCESS ALLOCATES THE REPLICATED MEMORY ARRAYS)

 DISTRIBUTED MEMORY IS USED TO STORE DATA, INSTEAD OF DISKS

     AUXILIARY BASIS OPTIONS
     -----------------------
     CABNAM=CCD      EXTCAB= F

     ATOMIC AUXILIARY BASIS SET
     --------------------------
 THE CONTRACTED PRIMITIVE FUNCTIONS HAVE BEEN UNNORMALIZED
 THE CONTRACTED BASIS FUNCTIONS ARE NOW NORMALIZED TO UNITY

  SHELL TYPE  PRIMITIVE        EXPONENT          CONTRACTION COEFFICIENT(S)

 O         

      1   S       1           109.4610000   24.118741939579

      2   S       2            25.5780000    8.106064022131

      3   S       3             9.5514800    3.872247385526

      4   S       4             2.9396000    1.600023168234

      5   S       5             1.3963800    0.915509398665

      6   S       6             0.9050610    0.661330390512

      7   S       7             0.4213760    0.372745525977

      8   P       8            36.1292000  126.259195974628

      9   P       9            10.8817000   28.171568231834

     10   P      10             3.2059400    6.114829126858

     11   P      11             1.4038700    2.178204769911

     12   P      12             0.6127630    0.772779788813

     13   D      13            15.2511000  193.725371074412

     14   D      14             4.5208700   23.070020964432

     15   D      15             1.8122100    4.658803259888

     16   D      16             0.5922010    0.658006895715

     17   F      17             4.2219400   37.614611279718

     18   F      18             1.7902100    5.457432864353

 H         

     19   S      19             5.1158895    2.424381492937

     20   S      20             1.1429653    0.787834274449

     21   S      21             0.2916615    0.282858643623

     22   P      22             1.9149640    3.211004127562

     23   P      23             0.9864012    1.401222491831

     24   D      24             1.1720835    2.173135983785

 H         

     25   S      25             5.1158895    2.424381492937

     26   S      26             1.1429653    0.787834274449

     27   S      27             0.2916615    0.282858643623

     28   P      28             1.9149640    3.211004127562

     29   P      29             0.9864012    1.401222491831

     30   D      30             1.1720835    2.173135983785

 CHECKING SIZE OF OCCUPIED ORBITAL BATCH
 LV=  0 LENBAT=   4 INEED3=       19821 INEED4=       13151

 NUMBER OF OCCUPIED ORBITALS            =     5
 NUMBER OF CORRELATED OCCUPIED ORBITALS =     4
 NUMBER OF VIRTUAL ORBITALS             =    19
 NUMBER OF BASIS FUNCTIONS              =    25
 NUMBER OF BASIS SHELLS                 =    12
 NUMBER OF AUXILIARY BASIS FUNCTIONS    =    84
 NUMBER OF AUXILIARY BASIS SHELLS       =    30
 LEVEL  OF OCCUPIED ORBITAL BATCH       =     0
 LENGTH OF OCCUPIED ORBITAL BATCH       =     4
 NUMBER OF OCCUPIED ORBITAL BATCH       =     1

 USING DISTRIBUTED MEMORY TO CONTAIN LARGE DATA SETS (USEDM = .TRUE.)
 TOTAL MEMDDI REQUIRED=         1 MILLION WORDS
 MEMDDI IN THIS RUN IS SPREAD OVER     1 COMPUTE PROCESSES, SO
 MEMDDI USED PER COMPUTE PROCESS WILL BE         0.01 GBYTES.
 DDI: Creating Array [0] - 1596 x 4 = 6384 words.
 DDI: Creating Array [1] - 84 x 84 = 7056 words.

 SPHERICAL HARMONIC GAUSSIANS ARE EMPLOYED FOR AUXILIARY BASIS SETS

 MEMORY REQUIRED FOR 2C-2E ERI MATRIX GENERATION  =        7462 WORDS

 TIME OF 2C-2E ERI MATRIX GENERATION =          0.0

 TIME OF CHOLESKY DECOMPOSITION      =          0.0
 TIME OF INVERSE MATRIX GENERATION   =          0.0

 IVMTD=0 VTOL=0.1000E-05 NAUXBAS=    84 NAUXBASD=    84

 MEMORY REQUIRED FOR 1/3 TRANSFORMATION           =        8986 WORDS

 TIME OF 3C-2E ERI GENERATION        =          0.0
 TIME OF 1/3 INTEGRAL TRANSFORMATION =          0.0
 TIME OF 2/3 INTEGRAL TRANSFORMATION =          0.0
 TIME OF 2/3 INTEGRAL WRITE          =          0.0

 MEMORY REQUIRED FOR 2/3 TRANSFORMATION           =       15038 WORDS

 TIME OF 2/3 INTEGRAL READ           =          0.0
 TIME OF 3/3 INTEGRAL TRANSFORMATION =          0.0
 TIME OF 3/3 INTEGRAL WRITE          =          0.0

 MEMORY REQUIRED FOR 4C-2E ERI GENERATION
 AND MP2 ENERGY ACCUMULATION                      =       13154 WORDS

 TIME OF 3/3 INTEGRAL READ           =          0.0
 TIME OF TEI GENERATION              =          0.0
 TIME OF MP2 ENERGY ACCUMULATION     =          0.0

 RESULTS OF RI-MOLLER-PLESSET 2ND ORDER CORRECTION ARE
               E(0)=       -75.9490176714
               E(1)=         0.0
               E(2)=        -0.2015615626
             E(MP2)=       -76.1505792341
 SPIN-COMPONENT-SCALED MP2 RESULTS ARE
              E(2S)=        -0.1512294704
              E(2T)=        -0.0503320923
             E(2ST)=        -0.1982527285 = 6/5 * E(2S) + 1/3 * E(2T)
            SCS-MP2=       -76.1472704000
 ..... DONE WITH MP2 ENERGY .....
 STEP CPU TIME =     0.01 TOTAL CPU TIME =        0.4 (    0.0 MIN)
 TOTAL WALL CLOCK TIME=        0.5 SECONDS, CPU UTILIZATION IS  80.39%


 VSCF: ENERGY                    FOR GRID POINT  3 ALONG MODE  9

 ATOM      ATOMIC                      COORDINATES (BOHR)
           CHARGE         X                   Y                   Z
   1        8.0     0.0192064314        0.0000000000       -0.1358917094
   2        1.0     1.2636281145       -0.0000000000        0.8891727602
   3        1.0    -1.5684480398        0.0000000000        1.1364449374
 ...... END OF ONE-ELECTRON INTEGRALS ......
 STEP CPU TIME =     0.00 TOTAL CPU TIME =        0.4 (    0.0 MIN)
 TOTAL WALL CLOCK TIME=        0.5 SECONDS, CPU UTILIZATION IS  80.39%
  ...... END OF TWO-ELECTRON INTEGRALS .....
 STEP CPU TIME =     0.00 TOTAL CPU TIME =        0.4 (    0.0 MIN)
 TOTAL WALL CLOCK TIME=        0.5 SECONDS, CPU UTILIZATION IS  80.39%

          --------------------------
                 RHF SCF CALCULATION
          --------------------------
     DENSITY MATRIX CONV=  2.00E-06

 DIRECT SCF CALCULATION, SCHWRZ=T   FDIFF=T,  DIRTHR=  0.00E+00 NITDIR=10

                                                                                   NONZERO     BLOCKS
 ITER EX DEM     TOTAL ENERGY        E CHANGE  DENSITY CHANGE     ORB. GRAD      INTEGRALS    SKIPPED
          ---------------START SECOND ORDER SCF---------------
   1  0  0      -75.9965580870   -75.9965580870   0.049760572   0.025317393          26107          0
   2  1  0      -76.0002172794    -0.0036591924   0.011318002   0.006037744          26107          0
   3  2  0      -76.0004876691    -0.0002703897   0.002649151   0.001836520          26107          0
   4  3  0      -76.0005074041    -0.0000197349   0.000953483   0.000545293          26107          0
   5  4  0      -76.0005101990    -0.0000027950   0.000192382   0.000111386          26107          0
   6  5  0      -76.0005103066    -0.0000001076   0.000030235   0.000015585          26107          0
   7  6  0      -76.0005103106    -0.0000000041   0.000013664   0.000005782          26107          0
   8  7  0      -76.0005103109    -0.0000000003   0.000001732   0.000001005          26107          0
   9  8  0      -76.0005103109    -0.0000000000   0.000000379   0.000000243          26107          0

          -----------------
          DENSITY CONVERGED
          -----------------
     TIME TO FORM FOCK OPERATORS=       0.1 SECONDS (       0.0 SEC/ITER)
     FOCK TIME ON FIRST ITERATION=       0.0, LAST ITERATION=       0.0
     TIME TO SOLVE SCF EQUATIONS=       0.0 SECONDS (       0.0 SEC/ITER)

 FINAL RHF ENERGY IS      -76.0005103109 AFTER   9 ITERATIONS
 ...... END OF RHF CALCULATION ......
 STEP CPU TIME =     0.10 TOTAL CPU TIME =        0.5 (    0.0 MIN)
 TOTAL WALL CLOCK TIME=        0.7 SECONDS, CPU UTILIZATION IS  73.91%

 -----------------------------     ----------------------------------
 RHF RI-MP2 ENERGY CALCULATION     PROGRAM WRITTEN BY M.KATOUDA (IMS)
 -----------------------------     ----------------------------------
 IAUXBF=1   OTHAUX= F STOL= 1.00E-06   IVMTD=0 VTOL= 1.00E-06

        PROCESS BASED PARALLEL RI-MP2 ALGORITHM IS CHOOSEN
 (EACH AND EVERY PROCESS ALLOCATES THE REPLICATED MEMORY ARRAYS)

 DISTRIBUTED MEMORY IS USED TO STORE DATA, INSTEAD OF DISKS

     AUXILIARY BASIS OPTIONS
     -----------------------
     CABNAM=CCD      EXTCAB= F

     ATOMIC AUXILIARY BASIS SET
     --------------------------
 THE CONTRACTED PRIMITIVE FUNCTIONS HAVE BEEN UNNORMALIZED
 THE CONTRACTED BASIS FUNCTIONS ARE NOW NORMALIZED TO UNITY

  SHELL TYPE  PRIMITIVE        EXPONENT          CONTRACTION COEFFICIENT(S)

 O         

      1   S       1           109.4610000   24.118741939579

      2   S       2            25.5780000    8.106064022131

      3   S       3             9.5514800    3.872247385526

      4   S       4             2.9396000    1.600023168234

      5   S       5             1.3963800    0.915509398665

      6   S       6             0.9050610    0.661330390512

      7   S       7             0.4213760    0.372745525977

      8   P       8            36.1292000  126.259195974628

      9   P       9            10.8817000   28.171568231834

     10   P      10             3.2059400    6.114829126858

     11   P      11             1.4038700    2.178204769911

     12   P      12             0.6127630    0.772779788813

     13   D      13            15.2511000  193.725371074412

     14   D      14             4.5208700   23.070020964432

     15   D      15             1.8122100    4.658803259888

     16   D      16             0.5922010    0.658006895715

     17   F      17             4.2219400   37.614611279718

     18   F      18             1.7902100    5.457432864353

 H         

     19   S      19             5.1158895    2.424381492937

     20   S      20             1.1429653    0.787834274449

     21   S      21             0.2916615    0.282858643623

     22   P      22             1.9149640    3.211004127562

     23   P      23             0.9864012    1.401222491831

     24   D      24             1.1720835    2.173135983785

 H         

     25   S      25             5.1158895    2.424381492937

     26   S      26             1.1429653    0.787834274449

     27   S      27             0.2916615    0.282858643623

     28   P      28             1.9149640    3.211004127562

     29   P      29             0.9864012    1.401222491831

     30   D      30             1.1720835    2.173135983785

 CHECKING SIZE OF OCCUPIED ORBITAL BATCH
 LV=  0 LENBAT=   4 INEED3=       19821 INEED4=       13151

 NUMBER OF OCCUPIED ORBITALS            =     5
 NUMBER OF CORRELATED OCCUPIED ORBITALS =     4
 NUMBER OF VIRTUAL ORBITALS             =    19
 NUMBER OF BASIS FUNCTIONS              =    25
 NUMBER OF BASIS SHELLS                 =    12
 NUMBER OF AUXILIARY BASIS FUNCTIONS    =    84
 NUMBER OF AUXILIARY BASIS SHELLS       =    30
 LEVEL  OF OCCUPIED ORBITAL BATCH       =     0
 LENGTH OF OCCUPIED ORBITAL BATCH       =     4
 NUMBER OF OCCUPIED ORBITAL BATCH       =     1

 USING DISTRIBUTED MEMORY TO CONTAIN LARGE DATA SETS (USEDM = .TRUE.)
 TOTAL MEMDDI REQUIRED=         1 MILLION WORDS
 MEMDDI IN THIS RUN IS SPREAD OVER     1 COMPUTE PROCESSES, SO
 MEMDDI USED PER COMPUTE PROCESS WILL BE         0.01 GBYTES.
 DDI: Creating Array [0] - 1596 x 4 = 6384 words.
 DDI: Creating Array [1] - 84 x 84 = 7056 words.

 SPHERICAL HARMONIC GAUSSIANS ARE EMPLOYED FOR AUXILIARY BASIS SETS

 MEMORY REQUIRED FOR 2C-2E ERI MATRIX GENERATION  =        7462 WORDS

 TIME OF 2C-2E ERI MATRIX GENERATION =          0.0

 TIME OF CHOLESKY DECOMPOSITION      =          0.0
 TIME OF INVERSE MATRIX GENERATION   =          0.0

 IVMTD=0 VTOL=0.1000E-05 NAUXBAS=    84 NAUXBASD=    84

 MEMORY REQUIRED FOR 1/3 TRANSFORMATION           =        8986 WORDS

 TIME OF 3C-2E ERI GENERATION        =          0.0
 TIME OF 1/3 INTEGRAL TRANSFORMATION =          0.0
 TIME OF 2/3 INTEGRAL TRANSFORMATION =          0.0
 TIME OF 2/3 INTEGRAL WRITE          =          0.0

 MEMORY REQUIRED FOR 2/3 TRANSFORMATION           =       15038 WORDS

 TIME OF 2/3 INTEGRAL READ           =          0.0
 TIME OF 3/3 INTEGRAL TRANSFORMATION =          0.0
 TIME OF 3/3 INTEGRAL WRITE          =          0.0

 MEMORY REQUIRED FOR 4C-2E ERI GENERATION
 AND MP2 ENERGY ACCUMULATION                      =       13154 WORDS

 TIME OF 3/3 INTEGRAL READ           =          0.0
 TIME OF TEI GENERATION              =          0.0
 TIME OF MP2 ENERGY ACCUMULATION     =          0.0

 RESULTS OF RI-MOLLER-PLESSET 2ND ORDER CORRECTION ARE
               E(0)=       -76.0005103109
               E(1)=         0.0
               E(2)=        -0.2021114089
             E(MP2)=       -76.2026217198
 SPIN-COMPONENT-SCALED MP2 RESULTS ARE
              E(2S)=        -0.1513984052
              E(2T)=        -0.0507130037
             E(2ST)=        -0.1985824208 = 6/5 * E(2S) + 1/3 * E(2T)
            SCS-MP2=       -76.1990927317
 ..... DONE WITH MP2 ENERGY .....
 STEP CPU TIME =     0.02 TOTAL CPU TIME =        0.5 (    0.0 MIN)
 TOTAL WALL CLOCK TIME=        0.7 SECONDS, CPU UTILIZATION IS  75.71%


 VSCF: ENERGY                    FOR GRID POINT  4 ALONG MODE  9

 ATOM      ATOMIC                      COORDINATES (BOHR)
           CHARGE         X                   Y                   Z
   1        8.0     0.0064021438        0.0000000000       -0.1358917094
   2        1.0     1.3652347563       -0.0000000000        0.9715968192
   3        1.0    -1.4668413981        0.0000000000        1.0540208783
 ...... END OF ONE-ELECTRON INTEGRALS ......
 STEP CPU TIME =     0.00 TOTAL CPU TIME =        0.5 (    0.0 MIN)
 TOTAL WALL CLOCK TIME=        0.7 SECONDS, CPU UTILIZATION IS  75.71%
  ...... END OF TWO-ELECTRON INTEGRALS .....
 STEP CPU TIME =     0.00 TOTAL CPU TIME =        0.5 (    0.0 MIN)
 TOTAL WALL CLOCK TIME=        0.7 SECONDS, CPU UTILIZATION IS  75.71%

          --------------------------
                 RHF SCF CALCULATION
          --------------------------
     DENSITY MATRIX CONV=  2.00E-06

 DIRECT SCF CALCULATION, SCHWRZ=T   FDIFF=T,  DIRTHR=  0.00E+00 NITDIR=10

                                                                                   NONZERO     BLOCKS
 ITER EX DEM     TOTAL ENERGY        E CHANGE  DENSITY CHANGE     ORB. GRAD      INTEGRALS    SKIPPED
          ---------------START SECOND ORDER SCF---------------
   1  0  0      -76.0195978793   -76.0195978793   0.047573677   0.026836702          26107          0
   2  1  0      -76.0231911195    -0.0035932403   0.009460844   0.004792478          26107          0
   3  2  0      -76.0234536549    -0.0002625353   0.002169085   0.001010349          26107          0
   4  3  0      -76.0234680677    -0.0000144128   0.000878801   0.000517097          26107          0
   5  4  0      -76.0234701774    -0.0000021098   0.000127297   0.000115223          26107          0
   6  5  0      -76.0234702615    -0.0000000841   0.000038714   0.000021146          26107          0
   7  6  0      -76.0234702664    -0.0000000049   0.000010179   0.000004526          26107          0
   8  7  0      -76.0234702667    -0.0000000002   0.000001715   0.000001308          26107          0
   9  8  0      -76.0234702667    -0.0000000000   0.000000445   0.000000206          26107          0

          -----------------
          DENSITY CONVERGED
          -----------------
     TIME TO FORM FOCK OPERATORS=       0.1 SECONDS (       0.0 SEC/ITER)
     FOCK TIME ON FIRST ITERATION=       0.0, LAST ITERATION=       0.0
     TIME TO SOLVE SCF EQUATIONS=       0.0 SECONDS (       0.0 SEC/ITER)

 FINAL RHF ENERGY IS      -76.0234702667 AFTER   9 ITERATIONS
 ...... END OF RHF CALCULATION ......
 STEP CPU TIME =     0.10 TOTAL CPU TIME =        0.6 (    0.0 MIN)
 TOTAL WALL CLOCK TIME=        0.8 SECONDS, CPU UTILIZATION IS  77.78%

 -----------------------------     ----------------------------------
 RHF RI-MP2 ENERGY CALCULATION     PROGRAM WRITTEN BY M.KATOUDA (IMS)
 -----------------------------     ----------------------------------
 IAUXBF=1   OTHAUX= F STOL= 1.00E-06   IVMTD=0 VTOL= 1.00E-06

        PROCESS BASED PARALLEL RI-MP2 ALGORITHM IS CHOOSEN
 (EACH AND EVERY PROCESS ALLOCATES THE REPLICATED MEMORY ARRAYS)

 DISTRIBUTED MEMORY IS USED TO STORE DATA, INSTEAD OF DISKS

     AUXILIARY BASIS OPTIONS
     -----------------------
     CABNAM=CCD      EXTCAB= F

     ATOMIC AUXILIARY BASIS SET
     --------------------------
 THE CONTRACTED PRIMITIVE FUNCTIONS HAVE BEEN UNNORMALIZED
 THE CONTRACTED BASIS FUNCTIONS ARE NOW NORMALIZED TO UNITY

  SHELL TYPE  PRIMITIVE        EXPONENT          CONTRACTION COEFFICIENT(S)

 O         

      1   S       1           109.4610000   24.118741939579

      2   S       2            25.5780000    8.106064022131

      3   S       3             9.5514800    3.872247385526

      4   S       4             2.9396000    1.600023168234

      5   S       5             1.3963800    0.915509398665

      6   S       6             0.9050610    0.661330390512

      7   S       7             0.4213760    0.372745525977

      8   P       8            36.1292000  126.259195974628

      9   P       9            10.8817000   28.171568231834

     10   P      10             3.2059400    6.114829126858

     11   P      11             1.4038700    2.178204769911

     12   P      12             0.6127630    0.772779788813

     13   D      13            15.2511000  193.725371074412

     14   D      14             4.5208700   23.070020964432

     15   D      15             1.8122100    4.658803259888

     16   D      16             0.5922010    0.658006895715

     17   F      17             4.2219400   37.614611279718

     18   F      18             1.7902100    5.457432864353

 H         

     19   S      19             5.1158895    2.424381492937

     20   S      20             1.1429653    0.787834274449

     21   S      21             0.2916615    0.282858643623

     22   P      22             1.9149640    3.211004127562

     23   P      23             0.9864012    1.401222491831

     24   D      24             1.1720835    2.173135983785

 H         

     25   S      25             5.1158895    2.424381492937

     26   S      26             1.1429653    0.787834274449

     27   S      27             0.2916615    0.282858643623

     28   P      28             1.9149640    3.211004127562

     29   P      29             0.9864012    1.401222491831

     30   D      30             1.1720835    2.173135983785

 CHECKING SIZE OF OCCUPIED ORBITAL BATCH
[...]
     --------------------------
 THE CONTRACTED PRIMITIVE FUNCTIONS HAVE BEEN UNNORMALIZED
 THE CONTRACTED BASIS FUNCTIONS ARE NOW NORMALIZED TO UNITY

  SHELL TYPE  PRIMITIVE        EXPONENT          CONTRACTION COEFFICIENT(S)

 O         

      1   S       1           109.4610000   24.118741939579

      2   S       2            25.5780000    8.106064022131

      3   S       3             9.5514800    3.872247385526

      4   S       4             2.9396000    1.600023168234

      5   S       5             1.3963800    0.915509398665

      6   S       6             0.9050610    0.661330390512

      7   S       7             0.4213760    0.372745525977

      8   P       8            36.1292000  126.259195974628

      9   P       9            10.8817000   28.171568231834

     10   P      10             3.2059400    6.114829126858

     11   P      11             1.4038700    2.178204769911

     12   P      12             0.6127630    0.772779788813

     13   D      13            15.2511000  193.725371074412

     14   D      14             4.5208700   23.070020964432

     15   D      15             1.8122100    4.658803259888

     16   D      16             0.5922010    0.658006895715

     17   F      17             4.2219400   37.614611279718

     18   F      18             1.7902100    5.457432864353

 H         

     19   S      19             5.1158895    2.424381492937

     20   S      20             1.1429653    0.787834274449

     21   S      21             0.2916615    0.282858643623

     22   P      22             1.9149640    3.211004127562

     23   P      23             0.9864012    1.401222491831

     24   D      24             1.1720835    2.173135983785

 H         

     25   S      25             5.1158895    2.424381492937

     26   S      26             1.1429653    0.787834274449

     27   S      27             0.2916615    0.282858643623

     28   P      28             1.9149640    3.211004127562

     29   P      29             0.9864012    1.401222491831

     30   D      30             1.1720835    2.173135983785

 CHECKING SIZE OF OCCUPIED ORBITAL BATCH
 LV=  0 LENBAT=   4 INEED3=       19821 INEED4=       13151

 NUMBER OF OCCUPIED ORBITALS            =     5
 NUMBER OF CORRELATED OCCUPIED ORBITALS =     4
 NUMBER OF VIRTUAL ORBITALS             =    19
 NUMBER OF BASIS FUNCTIONS              =    25
 NUMBER OF BASIS SHELLS                 =    12
 NUMBER OF AUXILIARY BASIS FUNCTIONS    =    84
 NUMBER OF AUXILIARY BASIS SHELLS       =    30
 LEVEL  OF OCCUPIED ORBITAL BATCH       =     0
 LENGTH OF OCCUPIED ORBITAL BATCH       =     4
 NUMBER OF OCCUPIED ORBITAL BATCH       =     1

 USING DISTRIBUTED MEMORY TO CONTAIN LARGE DATA SETS (USEDM = .TRUE.)
 TOTAL MEMDDI REQUIRED=         1 MILLION WORDS
 MEMDDI IN THIS RUN IS SPREAD OVER     1 COMPUTE PROCESSES, SO
 MEMDDI USED PER COMPUTE PROCESS WILL BE         0.01 GBYTES.
 DDI: Creating Array [0] - 1596 x 4 = 6384 words.
 DDI: Creating Array [1] - 84 x 84 = 7056 words.

 SPHERICAL HARMONIC GAUSSIANS ARE EMPLOYED FOR AUXILIARY BASIS SETS

 MEMORY REQUIRED FOR 2C-2E ERI MATRIX GENERATION  =        7462 WORDS

 TIME OF 2C-2E ERI MATRIX GENERATION =          0.0

 TIME OF CHOLESKY DECOMPOSITION      =          0.0
 TIME OF INVERSE MATRIX GENERATION   =          0.0

 IVMTD=0 VTOL=0.1000E-05 NAUXBAS=    84 NAUXBASD=    84

 MEMORY REQUIRED FOR 1/3 TRANSFORMATION           =        8986 WORDS

 TIME OF 3C-2E ERI GENERATION        =          0.0
 TIME OF 1/3 INTEGRAL TRANSFORMATION =          0.0
 TIME OF 2/3 INTEGRAL TRANSFORMATION =          0.0
 TIME OF 2/3 INTEGRAL WRITE          =          0.0

 MEMORY REQUIRED FOR 2/3 TRANSFORMATION           =       15038 WORDS

 TIME OF 2/3 INTEGRAL READ           =          0.0
 TIME OF 3/3 INTEGRAL TRANSFORMATION =          0.0
 TIME OF 3/3 INTEGRAL WRITE          =          0.0

 MEMORY REQUIRED FOR 4C-2E ERI GENERATION
 AND MP2 ENERGY ACCUMULATION                      =       13154 WORDS

 TIME OF 3/3 INTEGRAL READ           =          0.0
 TIME OF TEI GENERATION              =          0.0
 TIME OF MP2 ENERGY ACCUMULATION     =          0.0

 RESULTS OF RI-MOLLER-PLESSET 2ND ORDER CORRECTION ARE
               E(0)=       -75.8256464003
               E(1)=         0.0
               E(2)=        -0.1944732359
             E(MP2)=       -76.0201196362
 SPIN-COMPONENT-SCALED MP2 RESULTS ARE
              E(2S)=        -0.1436763752
              E(2T)=        -0.0507968607
             E(2ST)=        -0.1893439372 = 6/5 * E(2S) + 1/3 * E(2T)
            SCS-MP2=       -76.0149903375
 ..... DONE WITH MP2 ENERGY .....
 STEP CPU TIME =     0.01 TOTAL CPU TIME =       21.5 (    0.4 MIN)
 TOTAL WALL CLOCK TIME=       27.4 SECONDS, CPU UTILIZATION IS  78.34%


 VSCF: ENERGY                    FOR GRID POINTS  8  8 FOR MODE PAIR  8  7

 ATOM      ATOMIC                      COORDINATES (BOHR)
           CHARGE         X                   Y                   Z
   1        8.0    -0.0000000000        0.0000000000       -0.1715244766
   2        1.0     0.5934369682       -0.0000000000        1.2955677125
   3        1.0    -0.5934369682       -0.0000000000        1.2955677125
 ...... END OF ONE-ELECTRON INTEGRALS ......
 STEP CPU TIME =     0.00 TOTAL CPU TIME =       21.5 (    0.4 MIN)
 TOTAL WALL CLOCK TIME=       27.4 SECONDS, CPU UTILIZATION IS  78.34%
  ...... END OF TWO-ELECTRON INTEGRALS .....
 STEP CPU TIME =     0.00 TOTAL CPU TIME =       21.5 (    0.4 MIN)
 TOTAL WALL CLOCK TIME=       27.4 SECONDS, CPU UTILIZATION IS  78.34%

          --------------------------
                 RHF SCF CALCULATION
          --------------------------
     DENSITY MATRIX CONV=  2.00E-06

 DIRECT SCF CALCULATION, SCHWRZ=T   FDIFF=T,  DIRTHR=  0.00E+00 NITDIR=10

                                                                                   NONZERO     BLOCKS
 ITER EX DEM     TOTAL ENERGY        E CHANGE  DENSITY CHANGE     ORB. GRAD      INTEGRALS    SKIPPED
          ---------------START SECOND ORDER SCF---------------
   1  0  0      -75.7901446701   -75.7901446701   0.122192480   0.057457405          25620          0
   2  1  0      -75.8015638129    -0.0114191429   0.024495221   0.015956582          25620          0
   3  2  0      -75.8031227754    -0.0015589625   0.010539275   0.006968418          25620          0
   4  3  0      -75.8032366351    -0.0001138597   0.001821430   0.000976870          25620          0
   5  4  0      -75.8032434489    -0.0000068137   0.001221724   0.000275968          25620          0
   6  5  0      -75.8032442085    -0.0000007596   0.000216500   0.000061665          25620          0
   7  6  0      -75.8032442358    -0.0000000273   0.000053117   0.000021897          25620          0
   8  7  0      -75.8032442386    -0.0000000028   0.000008400   0.000005054          25620          0
   9  8  0      -75.8032442387    -0.0000000001   0.000001907   0.000001083          25620          0
  10  9  0      -75.8032442387    -0.0000000000   0.000000168   0.000000179          25620          0

          -----------------
          DENSITY CONVERGED
          -----------------
     TIME TO FORM FOCK OPERATORS=       0.1 SECONDS (       0.0 SEC/ITER)
     FOCK TIME ON FIRST ITERATION=       0.0, LAST ITERATION=       0.0
     TIME TO SOLVE SCF EQUATIONS=       0.0 SECONDS (       0.0 SEC/ITER)

 FINAL RHF ENERGY IS      -75.8032442387 AFTER  10 ITERATIONS
 ...... END OF RHF CALCULATION ......
 STEP CPU TIME =     0.09 TOTAL CPU TIME =       21.6 (    0.4 MIN)
 TOTAL WALL CLOCK TIME=       27.5 SECONDS, CPU UTILIZATION IS  78.42%

 -----------------------------     ----------------------------------
 RHF RI-MP2 ENERGY CALCULATION     PROGRAM WRITTEN BY M.KATOUDA (IMS)
 -----------------------------     ----------------------------------
 IAUXBF=1   OTHAUX= F STOL= 1.00E-06   IVMTD=0 VTOL= 1.00E-06

        PROCESS BASED PARALLEL RI-MP2 ALGORITHM IS CHOOSEN
 (EACH AND EVERY PROCESS ALLOCATES THE REPLICATED MEMORY ARRAYS)

 DISTRIBUTED MEMORY IS USED TO STORE DATA, INSTEAD OF DISKS

     AUXILIARY BASIS OPTIONS
     -----------------------
     CABNAM=CCD      EXTCAB= F

     ATOMIC AUXILIARY BASIS SET
     --------------------------
 THE CONTRACTED PRIMITIVE FUNCTIONS HAVE BEEN UNNORMALIZED
 THE CONTRACTED BASIS FUNCTIONS ARE NOW NORMALIZED TO UNITY

  SHELL TYPE  PRIMITIVE        EXPONENT          CONTRACTION COEFFICIENT(S)

 O         

      1   S       1           109.4610000   24.118741939579

      2   S       2            25.5780000    8.106064022131

      3   S       3             9.5514800    3.872247385526

      4   S       4             2.9396000    1.600023168234

      5   S       5             1.3963800    0.915509398665

      6   S       6             0.9050610    0.661330390512

      7   S       7             0.4213760    0.372745525977

      8   P       8            36.1292000  126.259195974628

      9   P       9            10.8817000   28.171568231834

     10   P      10             3.2059400    6.114829126858

     11   P      11             1.4038700    2.178204769911

     12   P      12             0.6127630    0.772779788813

     13   D      13            15.2511000  193.725371074412

     14   D      14             4.5208700   23.070020964432

     15   D      15             1.8122100    4.658803259888

     16   D      16             0.5922010    0.658006895715

     17   F      17             4.2219400   37.614611279718

     18   F      18             1.7902100    5.457432864353

 H         

     19   S      19             5.1158895    2.424381492937

     20   S      20             1.1429653    0.787834274449

     21   S      21             0.2916615    0.282858643623

     22   P      22             1.9149640    3.211004127562

     23   P      23             0.9864012    1.401222491831

     24   D      24             1.1720835    2.173135983785

 H         

     25   S      25             5.1158895    2.424381492937

     26   S      26             1.1429653    0.787834274449

     27   S      27             0.2916615    0.282858643623

     28   P      28             1.9149640    3.211004127562

     29   P      29             0.9864012    1.401222491831

     30   D      30             1.1720835    2.173135983785

 CHECKING SIZE OF OCCUPIED ORBITAL BATCH
 LV=  0 LENBAT=   4 INEED3=       19821 INEED4=       13151

 NUMBER OF OCCUPIED ORBITALS            =     5
 NUMBER OF CORRELATED OCCUPIED ORBITALS =     4
 NUMBER OF VIRTUAL ORBITALS             =    19
 NUMBER OF BASIS FUNCTIONS              =    25
 NUMBER OF BASIS SHELLS                 =    12
 NUMBER OF AUXILIARY BASIS FUNCTIONS    =    84
 NUMBER OF AUXILIARY BASIS SHELLS       =    30
 LEVEL  OF OCCUPIED ORBITAL BATCH       =     0
 LENGTH OF OCCUPIED ORBITAL BATCH       =     4
 NUMBER OF OCCUPIED ORBITAL BATCH       =     1

 USING DISTRIBUTED MEMORY TO CONTAIN LARGE DATA SETS (USEDM = .TRUE.)
 TOTAL MEMDDI REQUIRED=         1 MILLION WORDS
 MEMDDI IN THIS RUN IS SPREAD OVER     1 COMPUTE PROCESSES, SO
 MEMDDI USED PER COMPUTE PROCESS WILL BE         0.01 GBYTES.
 DDI: Creating Array [0] - 1596 x 4 = 6384 words.
 DDI: Creating Array [1] - 84 x 84 = 7056 words.

 SPHERICAL HARMONIC GAUSSIANS ARE EMPLOYED FOR AUXILIARY BASIS SETS

 MEMORY REQUIRED FOR 2C-2E ERI MATRIX GENERATION  =        7462 WORDS

 TIME OF 2C-2E ERI MATRIX GENERATION =          0.0

 TIME OF CHOLESKY DECOMPOSITION      =          0.0
 TIME OF INVERSE MATRIX GENERATION   =          0.0

 IVMTD=0 VTOL=0.1000E-05 NAUXBAS=    84 NAUXBASD=    84

 MEMORY REQUIRED FOR 1/3 TRANSFORMATION           =        8986 WORDS

 TIME OF 3C-2E ERI GENERATION        =          0.0
 TIME OF 1/3 INTEGRAL TRANSFORMATION =          0.0
 TIME OF 2/3 INTEGRAL TRANSFORMATION =          0.0
 TIME OF 2/3 INTEGRAL WRITE          =          0.0

 MEMORY REQUIRED FOR 2/3 TRANSFORMATION           =       15038 WORDS

 TIME OF 2/3 INTEGRAL READ           =          0.0
 TIME OF 3/3 INTEGRAL TRANSFORMATION =          0.0
 TIME OF 3/3 INTEGRAL WRITE          =          0.0

 MEMORY REQUIRED FOR 4C-2E ERI GENERATION
 AND MP2 ENERGY ACCUMULATION                      =       13154 WORDS

 TIME OF 3/3 INTEGRAL READ           =          0.0
 TIME OF TEI GENERATION              =          0.0
 TIME OF MP2 ENERGY ACCUMULATION     =          0.0

 RESULTS OF RI-MOLLER-PLESSET 2ND ORDER CORRECTION ARE
               E(0)=       -75.8032442387
               E(1)=         0.0
               E(2)=        -0.1979594797
             E(MP2)=       -76.0012037184
 SPIN-COMPONENT-SCALED MP2 RESULTS ARE
              E(2S)=        -0.1461792996
              E(2T)=        -0.0517801801
             E(2ST)=        -0.1926752195 = 6/5 * E(2S) + 1/3 * E(2T)
            SCS-MP2=       -75.9959194582
 ..... DONE WITH MP2 ENERGY .....
 STEP CPU TIME =     0.00 TOTAL CPU TIME =       21.6 (    0.4 MIN)
 TOTAL WALL CLOCK TIME=       27.5 SECONDS, CPU UTILIZATION IS  78.39%

 DONE WITH PAIR COUPLING POTENTIAL
 ......DONE WITH POTENTIALS ON GRIDS......
 STEP CPU TIME =     0.00 TOTAL CPU TIME =       21.6 (    0.4 MIN)
 TOTAL WALL CLOCK TIME=       27.5 SECONDS, CPU UTILIZATION IS  78.39%


 --------------------------------------------------------------
 VIBRATIONAL SELF-CONSISTENT FIELD AND VIBRATIONAL CORRELATIONS
 --------------------------------------------------------------

 SOLVING VSCF FOR VIBRATIONAL GROUND STATE

 -----------------------
 VIBRATIONAL STATE #   0
 -----------------------
        CONFIGURATION: 000

  ITERATION         E(SCF)           E(MP1)         E(TOTAL)
       1            4685.14           -80.07          4765.21
       2            4630.79           -83.20          4713.98
       3            4629.24           -83.29          4712.54
       4            4629.20           -83.29          4712.49
 VSCF CONVERGED IN    4 ITERATIONS
 MP2 (   1) :-0.8468161E-04
 NUMBER OF VIRTUAL STATES IS     37
 NUMBER OF SELECTED STATES IS    12

 E(DIAG)=     4770.60 (WITHOUT MODE COUPLING)
 E(VSCF)=     4712.49
 E(VMP2)=     4693.91

 SOLVING VSCF FOR  1 QUANTA IN MODE   1

 -----------------------
 VIBRATIONAL STATE #   1
 -----------------------
        CONFIGURATION: 100

  ITERATION         E(SCF)           E(MP1)         E(TOTAL)
       1            8449.96          -461.17          8911.13
       2            7973.30          -559.87          8533.16
       3            7918.61          -571.97          8490.58
       4            7912.28          -573.38          8485.66
       5            7911.54          -573.55          8485.09
       6            7911.46          -573.57          8485.02
 VSCF CONVERGED IN    6 ITERATIONS
 MP2 (   2) :-0.3087694E-03
 NUMBER OF VIRTUAL STATES IS     37
 NUMBER OF SELECTED STATES IS    13

 E(DIAG)=     8784.41 (WITHOUT MODE COUPLING)
 E(VSCF)=     8485.02
 E(VMP2)=     8417.26

 SOLVING VSCF FOR  1 QUANTA IN MODE   2

 -----------------------
 VIBRATIONAL STATE #   2
 -----------------------
        CONFIGURATION: 010

  ITERATION         E(SCF)           E(MP1)         E(TOTAL)
       1            8348.27           -99.86          8448.12
       2            8305.68          -101.76          8407.44
       3            8304.95          -101.79          8406.74
       4            8304.93          -101.80          8406.73
 VSCF CONVERGED IN    4 ITERATIONS
 MP2 (   3) :-0.3040095E-03
 NUMBER OF VIRTUAL STATES IS     37
 NUMBER OF SELECTED STATES IS    14

 E(DIAG)=     8487.70 (WITHOUT MODE COUPLING)
 E(VSCF)=     8406.73
 E(VMP2)=     8340.00

 SOLVING VSCF FOR  1 QUANTA IN MODE   3

 -----------------------
 VIBRATIONAL STATE #   3
 -----------------------
        CONFIGURATION: 001

  ITERATION         E(SCF)           E(MP1)         E(TOTAL)
       1            6238.27          -113.00          6351.27
       2            6198.17          -115.32          6313.49
       3            6197.28          -115.38          6312.66
       4            6197.25          -115.38          6312.63
 VSCF CONVERGED IN    4 ITERATIONS
 MP2 (   4) :-0.1090961E-03
 NUMBER OF VIRTUAL STATES IS     37
 NUMBER OF SELECTED STATES IS    13

 E(DIAG)=     6412.68 (WITHOUT MODE COUPLING)
 E(VSCF)=     6312.63
 E(VMP2)=     6288.69

 (CUMULATIVE SCALING FACTOR FOR COUPLING POTENTIAL 1.00)

 RESULTS OF VIBRATIONAL SCF CALCULATION: (FREQUENCIES IN CM-1)
 MODE  HARMONIC   DIAGONAL     VSCF      PT2-VSCF   VCI-VSCF  DPT2-VSCF
   9    3971.04    4013.80    3772.53    3723.35       0.00       0.00
   8    3851.79    3717.10    3694.23    3646.10       0.00       0.00
   7    1677.59    1642.07    1600.14    1594.78       0.00       0.00

     -------------------------------
     THERMOCHEMISTRY AT T=  298.15 K
     -------------------------------

 USING IDEAL GAS, RIGID ROTOR, ANHARMONIC APPROXIMATIONS.
 P=  1.01325E+05 PASCAL.
 ALL FREQUENCIES ARE SCALED BY   1.00000
 THE MOMENTS OF INERTIA ARE (IN AMU*BOHR**2)
      2.36202     4.04171     6.40373
 THE ROTATIONAL SYMMETRY NUMBER IS  2.0
 THE ROTATIONAL CONSTANTS ARE (IN GHZ)
    763.36740   446.12031   281.56855
      1 -      3 VIBRATIONAL MODES ARE USED IN THERMOCHEMISTRY.
 THE ANHARMONIC ZERO POINT ENERGY IS (SCALED BY   1.000)
        0.021387 HARTREE/MOLECULE     4693.906829 CM**-1/MOLECULE 
       13.420567 KCAL/MOL               56.151650 KJ/MOL

               Q               LN Q
 ELEC.     1.00000E+00       0.000000
 TRANS.    3.00431E+06      14.915558
 ROT.      4.42539E+01       3.789945
 VIB.      1.00045E+00       0.000455
 TOT.      1.33013E+08      18.705957

              E         H         G         CV        CP        S
           KJ/MOL    KJ/MOL    KJ/MOL   J/MOL-K   J/MOL-K   J/MOL-K
 ELEC.      0.000     0.000     0.000     0.000     0.000     0.000
 TRANS.     3.718     6.197   -36.975    12.472    20.786   144.800
 ROT.       3.718     3.718    -9.395    12.472    12.472    43.983
 VIB.      56.160    56.160    56.151     0.224     0.224     0.033
 TOTAL     63.597    66.076     9.781    25.167    33.482   188.816
 VIB. THERMAL CORRECTION E(T)-E(0) = H(T)-H(0) =     8.680 J/MOL

              E         H         G         CV        CP        S
         KCAL/MOL  KCAL/MOL  KCAL/MOL CAL/MOL-K CAL/MOL-K CAL/MOL-K
 ELEC.      0.000     0.000     0.000     0.000     0.000     0.000
 TRANS.     0.889     1.481    -8.837     2.981     4.968    34.608
 ROT.       0.889     0.889    -2.245     2.981     2.981    10.512
 VIB.      13.423    13.423    13.420     0.054     0.054     0.008
 TOTAL     15.200    15.793     2.338     6.015     8.002    45.128
 VIB. THERMAL CORRECTION E(T)-E(0) = H(T)-H(0) =     2.074 CAL/MOL

 IR INTENSITIES ARE CALCULATED USING HARMONIC DIPOLE DERIVATIVES.
 MODE   FREQUENCY, CM-1  INTENSITY, KM/MOL
   9        3723.34         31.84
   8        3646.09          6.53
   7        1594.78         56.94
 ......FINISHED VIBRATIONAL SCF......
 STEP CPU TIME =     0.01 TOTAL CPU TIME =       21.6 (    0.4 MIN)
 TOTAL WALL CLOCK TIME=       27.5 SECONDS, CPU UTILIZATION IS  78.42%
               580000  WORDS OF DYNAMIC MEMORY USED
 EXECUTION OF GAMESS TERMINATED NORMALLY Tue Nov 29 00:38:19 2016
 DDI: 371160 bytes (0.4 MB / 0 MWords) used by master data server.

 ----------------------------------------
 CPU timing information for all processes
 ========================================
 0: 21.300 + 0.293 = 21.594
 ----------------------------------------
 ddikick.x: exited gracefully.
unset echo
----- accounting info -----
Files used on the master node compute-3-0 were:
-rw-rw-r-- 1 sarom sarom   84182 Nov 29  2016 .//vscf-rimp2.dat
-rw-rw-r-- 1 sarom sarom    3670 Nov 29  2016 .//vscf-rimp2.F05
-rw-rw-r-- 1 sarom sarom 1537840 Nov 29  2016 .//vscf-rimp2.F10
-rw-rw-r-- 1 sarom sarom    3670 Nov 28 17:27 .//vscf-rimp2.inp
-rw-rw-r-- 1 sarom sarom 1827484 Nov 29  2016 .//vscf-rimp2.log
-rw-rw-r-- 1 sarom sarom   23460 Nov 29  2016 .//vscf-rimp2.rst
Tue Nov 29 00:38:22 CST 2016
0.192u 0.106s 0:31.26 0.9%	0+0k 0+136io 0pf+0w
