-catch_rsh /opt/gridengine/default/spool/compute-0-1/active_jobs/35837.1/pe_hostfile
compute-0-1
The primary node assigned by SGE to this run is compute-0-1
Warning: no access to tty (Bad file descriptor).
Thus no job control in this shell.
source /home/sarom/dir.git.branch.saromleang-travis-ci/install.info
setenv GMS_PATH /home/sarom/dir.git.branch.saromleang-travis-ci
setenv GMS_BUILD_DIR /home/sarom/dir.git.branch.saromleang-travis-ci
setenv GMS_TARGET linux64
setenv GMS_FORTRAN gfortran
setenv GMS_GFORTRAN_VERNO 4.4
setenv GMS_MATHLIB mkl-so
setenv GMS_MATHLIB none
setenv GMS_MATHLIB_PATH /share/apps/intel/compilers_and_libraries_2017.1.132/linux/mkl/lib/intel64
setenv GMS_MKL_VERNO 12
setenv GMS_DDI_COMM sockets
setenv GMS_LIBCCHEM false
setenv GMS_EIGEN_PATH
setenv GMS_PHI false
setenv GMS_SHMTYPE sysv
setenv GMS_OPENMP false
unset echo
smd-rhf-hess
/home/sarom/dir.git.branch.saromleang-travis-ci/tests/solvent/mnsol/parallel
----- GAMESS execution script 'rungms' -----
This job is running on host compute-0-1.local
under operating system Linux at Wed Aug 9 20:26:11 CDT 2017
Available scratch disk space (Kbyte units) at beginning of the job is
Filesystem           1K-blocks      Used Available Use% Mounted on
/dev/sda1             16126920   3965560  11342160  26% /
GAMESS temporary binary files will be written to /scratch
GAMESS supplementary output files will be written to /home/sarom/restart
Copying input file smd-rhf-hess.inp to your run's scratch directory...
cp /home/sarom/dir.git.branch.saromleang-travis-ci/tests/solvent/mnsol/parallel/smd-rhf-hess.inp /scratch/smd-rhf-hess.F05
unset echo
The generated host list is
compute-0-1.local
/home/sarom/dir.git.branch.saromleang-travis-ci/ddikick.x /home/sarom/dir.git.branch.saromleang-travis-ci/gamess.00.x smd-rhf-hess -ddi 1 1 compute-0-1.local -scr /scratch

 Distributed Data Interface kickoff program.
 Initiating 1 compute processes on 1 nodes to run the following command:
 /home/sarom/dir.git.branch.saromleang-travis-ci/gamess.00.x smd-rhf-hess 

          ******************************************************
          *         GAMESS VERSION = 20 APR 2017 (R1)          *
          *             FROM IOWA STATE UNIVERSITY             *
          * M.W.SCHMIDT, K.K.BALDRIDGE, J.A.BOATZ, S.T.ELBERT, *
          *   M.S.GORDON, J.H.JENSEN, S.KOSEKI, N.MATSUNAGA,   *
          *          K.A.NGUYEN, S.J.SU, T.L.WINDUS,           *
          *       TOGETHER WITH M.DUPUIS, J.A.MONTGOMERY       *
          *         J.COMPUT.CHEM.  14, 1347-1363(1993)        *
          **************** 64 BIT LINUX VERSION ****************

  SINCE 1993, STUDENTS AND POSTDOCS WORKING AT IOWA STATE UNIVERSITY
  AND ALSO IN THEIR VARIOUS JOBS AFTER LEAVING ISU HAVE MADE IMPORTANT
  CONTRIBUTIONS TO THE CODE:
     IVANA ADAMOVIC, CHRISTINE AIKENS, YURI ALEXEEV, POOJA ARORA,
     ANDREY ASADCHEV, ROB BELL, PRADIPTA BANDYOPADHYAY, JONATHAN BENTZ,
     BRETT BODE, KURT BRORSEN, CALEB CARLIN, GALINA CHABAN, WEI CHEN,
     CHEOL HO CHOI, PAUL DAY, ALBERT DEFUSCO, NUWAN DESILVA, TIM DUDLEY,
     DMITRI FEDOROV, GRAHAM FLETCHER, MARK FREITAG, KURT GLAESEMANN,
     DAN KEMP, GRANT MERRILL, NORIYUKI MINEZAWA, JONATHAN MULLIN,
     TAKESHI NAGATA, SEAN NEDD, HEATHER NETZLOFF, BOSILJKA NJEGIC, RYAN OLSON,
     MIKE PAK, SPENCER PRUITT, LUKE ROSKOP, JIM SHOEMAKER, LYUDMILA SLIPCHENKO,
     TONY SMITH, SAROM SOK LEANG, JIE SONG, TETSUYA TAKETSUGU, SIMON WEBB,
     PENG XU, SOOHAENG YOO, FEDERICO ZAHARIEV

  ADDITIONAL CODE HAS BEEN PROVIDED BY COLLABORATORS IN OTHER GROUPS:
     IOWA STATE UNIVERSITY:
          JOE IVANIC, AARON WEST, LAIMUTIS BYTAUTAS, KLAUS RUEDENBERG
     UNIVERSITY OF TOKYO: KIMIHIKO HIRAO, TAKAHITO NAKAJIMA,
          TAKAO TSUNEDA, MUNEAKI KAMIYA, SUSUMU YANAGISAWA,
          KIYOSHI YAGI, MAHITO CHIBA, SEIKEN TOKURA, NAOAKI KAWAKAMI
     UNIVERSITY OF AARHUS: FRANK JENSEN
     UNIVERSITY OF IOWA: VISVALDAS KAIRYS, HUI LI
     NATIONAL INST. OF STANDARDS AND TECHNOLOGY: WALT STEVENS, DAVID GARMER
     UNIVERSITY OF PISA: BENEDETTA MENNUCCI, JACOPO TOMASI
     UNIVERSITY OF MEMPHIS: HENRY KURTZ, PRAKASHAN KORAMBATH
     UNIVERSITY OF ALBERTA: TOBY ZENG, MARIUSZ KLOBUKOWSKI
     UNIVERSITY OF NEW ENGLAND: MARK SPACKMAN
     MIE UNIVERSITY: HIROAKI UMEDA
     NAT. INST. OF ADVANCED INDUSTRIAL SCIENCE AND TECHNOLOGY: KAZUO KITAURA
     MICHIGAN STATE UNIVERSITY:
          KAROL KOWALSKI, MARTA WLOCH, JEFFREY GOUR, JESSE LUTZ,
          WEI LI, PIOTR PIECUCH
     UNIVERSITY OF SILESIA: MONIKA MUSIAL, STANISLAW KUCHARSKI
     FACULTES UNIVERSITAIRES NOTRE-DAME DE LA PAIX:
          OLIVIER QUINET, BENOIT CHAMPAGNE
     UNIVERSITY OF CALIFORNIA - SANTA BARBARA: BERNARD KIRTMAN
     INSTITUTE FOR MOLECULAR SCIENCE:
          KAZUYA ISHIMURA, MICHIO KATOUDA, AND SHIGERU NAGASE
     UNIVERSITY OF NOTRE DAME: ANNA POMOGAEVA, DAN CHIPMAN
     KYUSHU UNIVERSITY:
          HARUYUKI NAKANO,
          FENG LONG GU, JACEK KORCHOWIEC, MARCIN MAKOWSKI, AND YURIKO AOKI,
          HIROTOSHI MORI AND EISAKU MIYOSHI
     PENNSYLVANIA STATE UNIVERSITY:
          TZVETELIN IORDANOV, CHET SWALINA, JONATHAN SKONE,
          SHARON HAMMES-SCHIFFER
     WASEDA UNIVERSITY:
          MASATO KOBAYASHI, TOMOKO AKAMA, TSUGUKI TOUMA,
          TAKESHI YOSHIKAWA, YASUHIRO IKABATA, JUNJI SEINO,
          YUYA NAKAJIMA, HIROMI NAKAI
     NANJING UNIVERSITY: SHUHUA LI
     UNIVERSITY OF NEBRASKA:
          PEIFENG SU, DEJUN SI, NANDUN THELLAMUREGE, YALI WANG, HUI LI
     UNIVERSITY OF ZURICH: ROBERTO PEVERATI, KIM BALDRIDGE
     N. COPERNICUS UNIVERSITY AND JACKSON STATE UNIVERSITY:
          MARIA BARYSZ
     UNIVERSITY OF COPENHAGEN: Jimmy Kromann, CASPER STEINMANN
     TOKYO INSTITUTE OF TECHNOLOGY: HIROYA NAKATA
     NAGOYA UNIVERSITY: YOSHIO NISHIMOTO, STEPHAN IRLE
     MOSCOW STATE UNIVERSITY: VLADIMIR MIRONOV

 EXECUTION OF GAMESS BEGUN Wed Aug  9 20:26:11 2017

            ECHO OF THE FIRST FEW INPUT CARDS -
 INPUT CARD>!   methanol in water...SMD/C-PCM using AS tesselation...RHF hessian run        
 INPUT CARD>!                                                                               
 INPUT CARD>!   FINAL RHF E= -115.0440548664                                                
 INPUT CARD>!   FREQ=  322.25, 1161.08, 1290.29, 1323.25, 1501.84, 1627.51,                 
 INPUT CARD>!   FREQ= 1636.41, 1645.05, 3212.30, 3267.93, 3309.87, 4076.38                  
 INPUT CARD>!                                                                               
 INPUT CARD>!   This run takes 119 seconds on 2.66 GHz Cloverton (22 Oct 2015)              
 INPUT CARD>!                                                                               
 INPUT CARD> $CONTRL SCFTYP=RHF RUNTYP=hessian nzvar=0 $end                                 
 INPUT CARD> $system mwords=1 $end                                                          
 INPUT CARD> $BASIS  GBASIS=N31 NGAUSS=6 NDFUNC=1 $END                                      
 INPUT CARD>                                                                                
 INPUT CARD> $PCM    SOLVNT=WATER SMD=.T. $END                                              
 INPUT CARD> $TESCAV MTHALL=2 NTSALL=240 $END                                               
 INPUT CARD>                                                                                
 INPUT CARD> $ZMAT   IZMAT(1)=1,1,2,  1,2,3,  1,3,4,  1,3,5,  1,3,6,                        
 INPUT CARD>                  2,1,2,3,  2,2,3,4,  2,2,3,5,  2,2,3,6,                        
 INPUT CARD>                  3,1,2,3,4,  3,1,2,3,5,  3,1,2,3,6 $END                        
 INPUT CARD> $DATA                                                                          
 INPUT CARD>SMD/HF/6-31G(d) seminumerical Hessian - methanol in water                       
 INPUT CARD>C1                                                                              
 INPUT CARD>H   1.0   0.8544103328  -1.0492915558   0.0000372959                            
 INPUT CARD>O   8.0  -0.0474482437  -0.7514691513  -0.0000025862                            
 INPUT CARD>C   6.0  -0.0474115711   0.6605771398   0.0000004129                            
 INPUT CARD>H   1.0   0.4440466527   1.0554316208  -0.8830519211                            
 INPUT CARD>H   1.0   0.4440671672   1.0554237394   0.8830409397                            
 INPUT CARD>H   1.0  -1.0786259268   0.9860852614   0.0000098143                            
 INPUT CARD> $end                                                                           
 INPUT CARD>                                                                                
 INPUT CARD>Cs symmetry coordinates supplied by Minnesota follow:                           
 INPUT CARD>H             1                      0.854518   -1.049727    0.000000           
 INPUT CARD>O             8                     -0.047444   -0.751528    0.000000           
 INPUT CARD>C             6                     -0.047444    0.660548    0.000000           
 INPUT CARD>H             1                      0.444218    1.056076    0.882897           
 INPUT CARD>H             1                     -1.078737    0.986505    0.000000           
    1000000 WORDS OF MEMORY AVAILABLE

     BASIS OPTIONS
     -------------
     GBASIS=N31          IGAUSS=       6      POLAR=POPN31  
     NDFUNC=       1     NFFUNC=       0     DIFFSP=       F
     NPFUNC=       0      DIFFS=       F     BASNAM=        


     RUN TITLE
     ---------
 SMD/HF/6-31G(d) seminumerical Hessian - methanol in water                       

 THE POINT GROUP OF THE MOLECULE IS C1      
 THE ORDER OF THE PRINCIPAL AXIS IS     0

 ATOM      ATOMIC                      COORDINATES (BOHR)
           CHARGE         X                   Y                   Z
 H           1.0     1.6146014101       -1.9828735217        0.0000704790
 O           8.0    -0.0896641792       -1.4200707842       -0.0000048872
 C           6.0    -0.0895948780        1.2483097880        0.0000007803
 H           1.0     0.8391264994        1.9944765621       -1.6687261638
 H           1.0     0.8391652662        1.9944616684        1.6687054120
 H           1.0    -2.0383074449        1.8634309446        0.0000185463

          INTERNUCLEAR DISTANCES (ANGS.)
          ------------------------------

                1 H          2 O          3 C          4 H          5 H     

   1 H       0.0000000    0.9497616 *  1.9331150 *  2.3190741 *  2.3190307 *
   2 O       0.9497616 *  0.0000000    1.4120463 *  2.0703221 *  2.0703177 *
   3 C       1.9331150 *  1.4120463 *  0.0000000    1.0849989 *  1.0849957 *
   4 H       2.3190741 *  2.0703221 *  1.0849989 *  0.0000000    1.7660929 *
   5 H       2.3190307 *  2.0703177 *  1.0849957 *  1.7660929 *  0.0000000  
   6 H       2.8070248 *  2.0205006 *  1.0813688 *  1.7615728 *  1.7615749 *

                6 H     

   1 H       2.8070248 *
   2 O       2.0205006 *
   3 C       1.0813688 *
   4 H       1.7615728 *
   5 H       1.7615749 *
   6 H       0.0000000  

  * ... LESS THAN  3.000


     ATOMIC BASIS SET
     ----------------
 THE CONTRACTED PRIMITIVE FUNCTIONS HAVE BEEN UNNORMALIZED
 THE CONTRACTED BASIS FUNCTIONS ARE NOW NORMALIZED TO UNITY

  SHELL TYPE  PRIMITIVE        EXPONENT          CONTRACTION COEFFICIENT(S)

 H         

      1   S       1            18.7311370    0.033494604338
      1   S       2             2.8253944    0.234726953484
      1   S       3             0.6401217    0.813757326146

      2   S       4             0.1612778    1.000000000000

 O         

      3   S       5          5484.6716600    0.001831074430
      3   S       6           825.2349460    0.013950172200
      3   S       7           188.0469580    0.068445078098
      3   S       8            52.9645000    0.232714335992
      3   S       9            16.8975704    0.470192897984
      3   S      10             5.7996353    0.358520852987

      4   L      11            15.5396162   -0.110777549525    0.070874268231
      4   L      12             3.5999336   -0.148026262701    0.339752839147
      4   L      13             1.0137618    1.130767015354    0.727158577316

      5   L      14             0.2700058    1.000000000000    1.000000000000

      6   D      15             0.8000000    1.000000000000

 C         

      7   S      16          3047.5248800    0.001834737132
      7   S      17           457.3695180    0.014037322813
      7   S      18           103.9486850    0.068842622264
      7   S      19            29.2101553    0.232184443216
      7   S      20             9.2866630    0.467941348435
      7   S      21             3.1639270    0.362311985337

      8   L      22             7.8682723   -0.119332419775    0.068999066591
      8   L      23             1.8812885   -0.160854151696    0.316423960957
      8   L      24             0.5442493    1.143456437840    0.744308290898

      9   L      25             0.1687145    1.000000000000    1.000000000000

     10   D      26             0.8000000    1.000000000000

 H         

     11   S      27            18.7311370    0.033494604338
     11   S      28             2.8253944    0.234726953484
     11   S      29             0.6401217    0.813757326146

     12   S      30             0.1612778    1.000000000000

 H         

     13   S      31            18.7311370    0.033494604338
     13   S      32             2.8253944    0.234726953484
     13   S      33             0.6401217    0.813757326146

     14   S      34             0.1612778    1.000000000000

 H         

     15   S      35            18.7311370    0.033494604338
     15   S      36             2.8253944    0.234726953484
     15   S      37             0.6401217    0.813757326146

     16   S      38             0.1612778    1.000000000000

 TOTAL NUMBER OF BASIS SET SHELLS             =   16
 NUMBER OF CARTESIAN GAUSSIAN BASIS FUNCTIONS =   38
 NUMBER OF ELECTRONS                          =   18
 CHARGE OF MOLECULE                           =    0
 SPIN MULTIPLICITY                            =    1
 NUMBER OF OCCUPIED ORBITALS (ALPHA)          =    9
 NUMBER OF OCCUPIED ORBITALS (BETA )          =    9
 TOTAL NUMBER OF ATOMS                        =    6
 THE NUCLEAR REPULSION ENERGY IS       40.6072483649

     $CONTRL OPTIONS
     ---------------
 SCFTYP=RHF          RUNTYP=HESSIAN      EXETYP=RUN     
 MPLEVL=       0     CITYP =NONE         CCTYP =NONE         VBTYP =NONE    
 DFTTYP=NONE         TDDFT =NONE    
 MULT  =       1     ICHARG=       0     NZVAR =       0     COORD =UNIQUE  
 PP    =NONE         RELWFN=NONE         LOCAL =NONE         NUMGRD=       F
 ISPHER=      -1     NOSYM =       0     MAXIT =      30     UNITS =ANGS    
 PLTORB=       F     MOLPLT=       F     AIMPAC=       F     FRIEND=        
 NPRINT=       7     IREST =       0     GEOM  =INPUT   
 NORMF =       0     NORMP =       0     ITOL  =      20     ICUT  =       9
 INTTYP=BEST         GRDTYP=BEST         QMTTOL= 1.0E-06

     $SYSTEM OPTIONS
     ---------------
  REPLICATED MEMORY=     1000000 WORDS (ON EVERY NODE).
 DISTRIBUTED MEMDDI=           0 MILLION WORDS IN AGGREGATE,
 MEMDDI DISTRIBUTED OVER   1 PROCESSORS IS           0 WORDS/PROCESSOR.
 TOTAL MEMORY REQUESTED ON EACH PROCESSOR=     1000000 WORDS.
 TIMLIM=      525600.00 MINUTES, OR     365.0 DAYS.
 PARALL= F  BALTYP=  DLB     KDIAG=    0  COREFL= F
 MXSEQ2=     300 MXSEQ3=     150  mem10=         0

     -----------------------------------
     INPUT FOR PCM SOLVATION CALCULATION 
     -----------------------------------
     IEF   =     -10
     ICOMP =       0     IFIELD=       0     ICAV  =       0
     IDISP =       0     IREP  =       0     IDP   =       0

     SOLVNT=WATER        EPS   = 78.3550     EPSINF=  1.7778
     VMOL  =  0.0000     TCE   =  0.00000000 STEN  =  0.0000
     DSTEN =  0.0000     CMF   =  0.0000     RSOLV =  0.0000

     NESFP =       0
     OMEGA = 40.0000     RET   =100.0000     FRO   =  0.7000

     TABS  =298.0000     IPRINT=       0

     --------------------------------
     INPUT FOR ITERATIVE C-PCM METHOD 
     --------------------------------
     IPCMIT  =         1     MXDIIS  =        50
     MXITR1  =        50     MXITR2  =        50
     THRES   = 0.100E-09     IMUL    =         3
     RCUT(1) =   15.0000     RCUT(2) =   30.0000

     IDIRCT  =         1
     IMGABI  =         0     RABI    =    4.0000
     IMGASC  =         0     RASC    =   20.0000
     THRSLS  = 0.500E-03     DENSLS  =    0.0100
     IEFPOL  =         1     REFPOL  =    0.0000

     ---------------------------------
     INPUT FOR AQUEOUS SMD CALCULATION 
     ---------------------------------
     EPS   = 78.3550

     INPUT FOR ISOTROPIC DIELECTRICS
     -------------------------------
     EPS=    78.36

     INPUT FOR CAVITY DEFINITION 
     ---------------------------
   ATOM               COORDINATES                RADIUS       EPS
      1      0.8544     -1.0493      0.0000      1.2000     78.3550
      2     -0.0474     -0.7515     -0.0000      1.5200     78.3550
      3     -0.0474      0.6606      0.0000      1.8500     78.3550
      4      0.4440      1.0554     -0.8831      1.2000     78.3550
      5      0.4441      1.0554      0.8830      1.2000     78.3550
      6     -1.0786      0.9861      0.0000      1.2000     78.3550

     ----------------------------
     INPUT FOR TESSERA DEFINITION
     ----------------------------
     NTSALL  =       240     MTHALL  =         2
     MTHAUT  =         0     AUTFRE  =    2.0000
     NTSFRZ  =        60     KEEPSM  =         0
     AREAKP  =   10.0000     BONDRY  =    1.0000
     AREATL  =    0.0100

     SPHERE     INITS       METHOD
          1       240     GEPOL-AS
          2       240     GEPOL-AS
          3       240     GEPOL-AS
          4       240     GEPOL-AS
          5       240     GEPOL-AS
          6       240     GEPOL-AS

     -----------------------------
     INPUT FOR PCM GRADIENT METHOD
     -----------------------------
     IPCDER  =         2     IFAST   =         0
     VARIABLE-TESSERA-NUMBER GRADIENT EQUATIONS
  

 PCM DIMENSIONS: MXSP=  2000, MXTS=      1440, MEMORY=         59683

          ----------------
          PROPERTIES INPUT
          ----------------

     MOMENTS            FIELD           POTENTIAL          DENSITY
 IEMOM =       1   IEFLD =       0   IEPOT =       0   IEDEN =       0
 WHERE =COMASS     WHERE =NUCLEI     WHERE =NUCLEI     WHERE =NUCLEI  
 OUTPUT=BOTH       OUTPUT=BOTH       OUTPUT=BOTH       OUTPUT=BOTH    
 IEMINT=       0   IEFINT=       0                     IEDINT=       0
                                                       MORB  =       0
          EXTRAPOLATION IN EFFECT
          SOSCF IN EFFECT
 ORBITAL PRINTING OPTION: NPREO=     1    38     2     1

     -------------------------------
     INTEGRAL TRANSFORMATION OPTIONS
     -------------------------------
     NWORD  =            0
     CUTOFF = 1.0E-09     MPTRAN =       0
     DIRTRF =       F     AOINTS =DUP     

          ----------------------
          INTEGRAL INPUT OPTIONS
          ----------------------
 NOPK  =       1 NORDER=       0 SCHWRZ=       T

     ------------------------------------------
     THE POINT GROUP IS C1 , NAXIS= 1, ORDER= 1
     ------------------------------------------

     DIMENSIONS OF THE SYMMETRY SUBSPACES ARE
 A   =   38

 ..... DONE SETTING UP THE RUN .....
 STEP CPU TIME =     0.02 TOTAL CPU TIME =        0.0 (    0.0 MIN)
 TOTAL WALL CLOCK TIME=        0.0 SECONDS, CPU UTILIZATION IS 100.00%

     ---------------------------------
     HESSIAN MATRIX CONTROL PARAMETERS
     ---------------------------------
     METHOD=ANALYTIC   NVIB  =       2   VIBSIZ= 0.01000
     RDHESS=       F   PURIFY=       F   PRTIFC=       F
     VIBANL=       T   DECOMP=       F   PROJCT=       F
     SCLFAC= 1.00000   PRTSCN=       F   NPRT  =       0
     PULCOR=       F   NPUN  =       0   REDOVB=       T
     HSSTYP=GENERAL 
     THERMOCHEMISTRY WILL BE PRINTED FOR    1 TEMPERATURES:
      298.15000
 Old integral subroutine is used

     ------------------------------
     CPHF RESPONSE SOLUTION OPTIONS
     ------------------------------
     POLAR  =       F     NWORD  =       0
     CPHF   =AO      

          ********************
          1 ELECTRON INTEGRALS
          ********************
 ...... END OF ONE-ELECTRON INTEGRALS ......
 STEP CPU TIME =     0.00 TOTAL CPU TIME =        0.0 (    0.0 MIN)
 TOTAL WALL CLOCK TIME=        0.0 SECONDS, CPU UTILIZATION IS 100.00%

          -------------
          GUESS OPTIONS
          -------------
          GUESS =HUCKEL            NORB  =       0          NORDER=       0
          MIX   =       F          PRTMO =       F          PUNMO =       F
          TOLZ  = 1.0E-08          TOLE  = 1.0E-05
          SYMDEN=       F          PURIFY=       F

 INITIAL GUESS ORBITALS GENERATED BY HUCKEL   ROUTINE.
 HUCKEL GUESS REQUIRES     15726 WORDS.

 SYMMETRIES FOR INITIAL GUESS ORBITALS FOLLOW.   BOTH SET(S).
     9 ORBITALS ARE OCCUPIED (    2 CORE ORBITALS).
     3=A        4=A        5=A        6=A        7=A        8=A        9=A   
    10=A       11=A       12=A       13=A       14=A       15=A       16=A   
    17=A       18=A       19=A   
 ...... END OF INITIAL ORBITAL SELECTION ......
 STEP CPU TIME =     0.00 TOTAL CPU TIME =        0.0 (    0.0 MIN)
 TOTAL WALL CLOCK TIME=        0.0 SECONDS, CPU UTILIZATION IS  66.67%

                    ----------------------
                    AO INTEGRAL TECHNOLOGY
                    ----------------------
     S,P,L SHELL ROTATED AXIS INTEGRALS, REPROGRAMMED BY
        KAZUYA ISHIMURA (IMS) AND JOSE SIERRA (SYNSTAR).
     S,P,D,L SHELL ROTATED AXIS INTEGRALS PROGRAMMED BY
        KAZUYA ISHIMURA (INSTITUTE FOR MOLECULAR SCIENCE).
     S,P,D,F,G SHELL TO TOTAL QUARTET ANGULAR MOMENTUM SUM 5,
        ERIC PROGRAM BY GRAHAM FLETCHER (ELORET AND NASA ADVANCED
        SUPERCOMPUTING DIVISION, AMES RESEARCH CENTER).
     S,P,D,F,G,L SHELL GENERAL RYS QUADRATURE PROGRAMMED BY
        MICHEL DUPUIS (PACIFIC NORTHWEST NATIONAL LABORATORY).

          --------------------
          2 ELECTRON INTEGRALS
          --------------------

 THE -PK- OPTION IS OFF, THE INTEGRALS ARE NOT IN SUPERMATRIX FORM.
 STORING   15000 INTEGRALS/RECORD ON DISK, USING 12 BYTES/INTEGRAL.
 TWO ELECTRON INTEGRAL EVALUATION REQUIRES   90532 WORDS OF MEMORY.
 SCHWARZ INEQUALITY OVERHEAD:       741 INTEGRALS, T=        0.01
 II,JST,KST,LST =  1  1  1  1 NREC =         1 INTLOC =    1
 II,JST,KST,LST =  2  1  1  1 NREC =         1 INTLOC =    2
 II,JST,KST,LST =  3  1  1  1 NREC =         1 INTLOC =    7
 II,JST,KST,LST =  4  1  1  1 NREC =         1 INTLOC =   22
 II,JST,KST,LST =  5  1  1  1 NREC =         1 INTLOC =  320
 II,JST,KST,LST =  6  1  1  1 NREC =         1 INTLOC = 1386
 II,JST,KST,LST =  7  1  1  1 NREC =         1 INTLOC = 5674
 II,JST,KST,LST =  8  1  1  1 NREC =         1 INTLOC = 7753
 II,JST,KST,LST =  9  1  1  1 NREC =         2 INTLOC = 6950
 II,JST,KST,LST = 10  1  1  1 NREC =         4 INTLOC =  535
 II,JST,KST,LST = 11  1  1  1 NREC =         7 INTLOC =12990
 II,JST,KST,LST = 12  1  1  1 NREC =         9 INTLOC =  954
 II,JST,KST,LST = 13  1  1  1 NREC =        10 INTLOC = 5615
 II,JST,KST,LST = 14  1  1  1 NREC =        11 INTLOC =11982
 II,JST,KST,LST = 15  1  1  1 NREC =        13 INTLOC = 5308
 II,JST,KST,LST = 16  1  1  1 NREC =        14 INTLOC =14268
 SCHWARZ INEQUALITY TEST SKIPPED          12 INTEGRAL BLOCKS.
 TOTAL NUMBER OF NONZERO TWO-ELECTRON INTEGRALS =              236062
         16 INTEGRAL RECORDS WERE STORED ON DISK FILE  8.
  ...... END OF TWO-ELECTRON INTEGRALS .....
 STEP CPU TIME =     0.04 TOTAL CPU TIME =        0.1 (    0.0 MIN)
 TOTAL WALL CLOCK TIME=        0.1 SECONDS, CPU UTILIZATION IS 100.00%

          -------------------------------------
          ---- POLARISABLE CONTINUUM MODEL ----
          ----      UNIVERSITY OF PISA     ----
          -------------------------------------

     ----------------------------
     INPUT FOR TESSERA DEFINITION
     ----------------------------
     NTSALL  =       240     MTHALL  =         2
     MTHAUT  =         0     AUTFRE  =    2.0000
     NTSFRZ  =        60     KEEPSM  =         0
     AREAKP  =   10.0000     BONDRY  =    1.0000
     AREATL  =    0.0100

     SPHERE     INITS       METHOD
          1       240     GEPOL-AS
          2       240     GEPOL-AS
          3       240     GEPOL-AS
          4       240     GEPOL-AS
          5       240     GEPOL-AS
          6       240     GEPOL-AS

     INPUT FOR CAVITY DEFINITION 
     ---------------------------
   ATOM               COORDINATES                RADIUS       EPS
      1      0.8544     -1.0493      0.0000      1.2000     78.3550
      2     -0.0474     -0.7515     -0.0000      1.5200     78.3550
      3     -0.0474      0.6606      0.0000      1.8500     78.3550
      4      0.4440      1.0554     -0.8831      1.2000     78.3550
      5      0.4441      1.0554      0.8830      1.2000     78.3550
      6     -1.0786      0.9861      0.0000      1.2000     78.3550

 MEMORY USED TO GENERATE CAVITY=    356962

 DONE WITH AREA SCALING.
 STEP CPU TIME =     0.01 TOTAL CPU TIME =        0.1 (    0.0 MIN)
 TOTAL WALL CLOCK TIME=        0.1 SECONDS, CPU UTILIZATION IS 100.00%
 WARNING: THE DISTANCE BETWEEN TESSERAE      7 AND    180 IS 0.0132 A, LESS THAN 0.0200 A
 WARNING: THE DISTANCE BETWEEN TESSERAE     24 AND    180 IS 0.0060 A, LESS THAN 0.0200 A

 TOTAL NUMBER OF SPHERES=     6
 SPHERE           CENTER  (X,Y,Z) (A)               RADIUS (A)      AREA(A*A)
     1   0.854410333  -1.049291556   0.000037296   1.200000000   8.411037947
     2  -0.047448244  -0.751469151  -0.000002586   1.520000000  12.771563098
     3  -0.047411571   0.660577140   0.000000413   1.850000000  20.001268930
     4   0.444046653   1.055431621  -0.883051921   1.200000000   6.249789599
     5   0.444067167   1.055423739   0.883040940   1.200000000   6.249757367
     6  -1.078625927   0.986085261   0.000009814   1.200000000   6.212980825

 TOTAL NUMBER OF TESSERAE=     735
 SURFACE AREA=    59.89639777(A**2)    CAVITY VOLUME=     38.89278787 (A**3)
 STEP CPU TIME =     0.00 TOTAL CPU TIME =        0.1 (    0.0 MIN)
 TOTAL WALL CLOCK TIME=        0.1 SECONDS, CPU UTILIZATION IS 100.00%

          THE SOLUTE IS ENCLOSED IN ONE CAVITY
 DONE CHECKING SEPARATION.
 STEP CPU TIME =     0.00 TOTAL CPU TIME =        0.1 (    0.0 MIN)
 TOTAL WALL CLOCK TIME=        0.1 SECONDS, CPU UTILIZATION IS 100.00%

 ..... DONE GENERATING CAVITY .....
 STEP CPU TIME =     0.00 TOTAL CPU TIME =        0.1 (    0.0 MIN)
 TOTAL WALL CLOCK TIME=        0.1 SECONDS, CPU UTILIZATION IS 100.00%
 NUCLEI-NUCLEAR CHARGE POLARIZATION ADJUSTMENT TO VNN=        0.0000000000

          --------------------------
                 RHF SCF CALCULATION
          --------------------------

     NUCLEAR ENERGY =        40.6072483649
     MAXIT =   30     NPUNCH=    2
     EXTRAP=T  DAMP=F  SHIFT=F  RSTRCT=F  DIIS=F  DEM=F  SOSCF=T
     DENSITY MATRIX CONV=  1.00E-05
     SOSCF WILL OPTIMIZE     261 ORBITAL ROTATIONS, SOGTOL=   0.250
     MEMORY REQUIRED FOR RHF ITERS=    179730 WORDS.

 ITER EX DEM     TOTAL ENERGY        E CHANGE  DENSITY CHANGE     ORB. GRAD
   1  0  0     -114.6905114550  -114.6905114550   0.242867244   0.000000000
          ---------------START SECOND ORDER SCF---------------
   2  1  0     -115.0235593780    -0.3330479230   0.086159344   0.045103868
   3  2  0     -115.0419470072    -0.0183876291   0.033489040   0.013666576
   4  3  0     -115.0439944533    -0.0020474461   0.003540633   0.002165854
   5  4  0     -115.0440473521    -0.0000528988   0.002010571   0.000751653
   6  5  0     -115.0440541686    -0.0000068165   0.000408260   0.000250481
   7  6  0     -115.0440548401    -0.0000006714   0.000090970   0.000042171
   8  7  0     -115.0440548642    -0.0000000241   0.000023828   0.000008437
   9  8  0     -115.0440548663    -0.0000000021   0.000005735   0.000002333
  10  9  0     -115.0440548664    -0.0000000001   0.000002612   0.000000759

          -----------------
          DENSITY CONVERGED
          -----------------
     TIME TO FORM FOCK OPERATORS=       2.7 SECONDS (       0.3 SEC/ITER)
     TIME TO SOLVE SCF EQUATIONS=       0.0 SECONDS (       0.0 SEC/ITER)

 FINAL RHF ENERGY IS     -115.0440548664 AFTER  10 ITERATIONS
  
   PCM ASC=     -0.0217045042
   GCAVP  =      0.0000000000
   GDISP  =      0.0000000000
   GREP   =      0.0000000000

          ------------
          EIGENVECTORS
          ------------

                      1          2          3          4          5
                  -20.5591   -11.2584    -1.3588    -0.9201    -0.6895
                     A          A          A          A          A   
    1  H  1  S    0.000366   0.000041   0.121382  -0.104561   0.209649
    2  H  1  S   -0.000259   0.000309  -0.007360  -0.019989   0.077765
    3  O  2  S    0.994623  -0.000150  -0.204080   0.058275   0.041354
    4  O  2  S    0.021211   0.000163   0.458744  -0.129916  -0.091417
    5  O  2  X    0.000988   0.000041   0.066939  -0.087746   0.404899
    6  O  2  Y    0.000682   0.000110   0.050280   0.188059  -0.174219
    7  O  2  Z    0.000000   0.000000   0.000004  -0.000004   0.000030
    8  O  2  S    0.004127   0.001186   0.434761  -0.187059  -0.166559
    9  O  2  X   -0.000433  -0.000159   0.033852  -0.046860   0.260062
   10  O  2  Y   -0.000310  -0.000215   0.024565   0.101353  -0.106179
   11  O  2  Z   -0.000000  -0.000000   0.000004  -0.000006   0.000023
   12  O  2 XX   -0.004103   0.000006   0.021858  -0.017472   0.037208
   13  O  2 YY   -0.004238  -0.000834   0.015604   0.018433  -0.014901
   14  O  2 ZZ   -0.003914   0.000069  -0.000479  -0.000473  -0.004534
   15  O  2 XY    0.000044   0.000038  -0.004702   0.009284  -0.000344
   16  O  2 XZ   -0.000000  -0.000000   0.000002  -0.000001   0.000003
   17  O  2 YZ    0.000000  -0.000000  -0.000001   0.000001   0.000000
   18  C  3  S   -0.000018   0.995735  -0.068362  -0.177719  -0.025815
   19  C  3  S    0.000266   0.027611   0.124347   0.344270   0.046870
   20  C  3  X   -0.000021   0.000015   0.003690  -0.016931   0.194685
   21  C  3  Y   -0.000362  -0.000860  -0.094449   0.062116   0.186032
   22  C  3  Z   -0.000000   0.000000   0.000000   0.000001   0.000022
   23  C  3  S    0.000001  -0.012042   0.048173   0.326009   0.097685
   24  C  3  X    0.000248   0.000055   0.003932  -0.001101   0.087332
   25  C  3  Y    0.000177  -0.000457  -0.002014   0.034499   0.056094
   26  C  3  Z    0.000000  -0.000000  -0.000002   0.000002   0.000010
   27  C  3 XX   -0.000073  -0.001818  -0.005279   0.013096   0.002175
   28  C  3 YY    0.000044  -0.001635   0.024733  -0.003554  -0.020099
   29  C  3 ZZ   -0.000041  -0.001840  -0.005651   0.011300   0.021274
   30  C  3 XY   -0.000013  -0.000001  -0.001736   0.002725  -0.004104
   31  C  3 XZ    0.000000   0.000000   0.000000   0.000000   0.000002
   32  C  3 YZ   -0.000000   0.000000   0.000000   0.000001   0.000000
   33  H  4  S   -0.000042   0.000069   0.023335   0.133369   0.107442
   34  H  4  S   -0.000109   0.002463   0.002324   0.034505   0.058142
   35  H  5  S   -0.000042   0.000069   0.023336   0.133371   0.107465
   36  H  5  S   -0.000109   0.002463   0.002328   0.034508   0.058161
   37  H  6  S    0.000016   0.000068   0.023973   0.142134  -0.043085
   38  H  6  S    0.000024   0.002493   0.005545   0.039975  -0.028211

                      6          7          8          9         10
                   -0.6171    -0.5927    -0.5002    -0.4467     0.2450
                     A          A          A          A          A   
    1  H  1  S   -0.000011  -0.037286   0.129283  -0.000006  -0.061298
    2  H  1  S    0.000001  -0.036420   0.076100  -0.000001  -1.130773
    3  O  2  S   -0.000003   0.025266   0.042358   0.000001  -0.077090
    4  O  2  S    0.000005  -0.057216  -0.087122  -0.000003   0.074634
    5  O  2  X   -0.000041   0.121978   0.343272  -0.000027   0.155872
    6  O  2  Y   -0.000008   0.415217   0.180084   0.000004  -0.010038
    7  O  2  Z    0.362033   0.000013   0.000025   0.526147   0.000006
    8  O  2  S    0.000013  -0.097797  -0.208713  -0.000000   1.046604
    9  O  2  X   -0.000026   0.091479   0.276801  -0.000019   0.410242
   10  O  2  Y   -0.000009   0.299303   0.150678  -0.000005   0.005677
   11  O  2  Z    0.253061   0.000007   0.000019   0.452687   0.000005
   12  O  2 XX   -0.000003  -0.004532   0.027389  -0.000003  -0.023785
   13  O  2 YY   -0.000000   0.018601   0.006840  -0.000001  -0.027402
   14  O  2 ZZ    0.000002  -0.006238  -0.006421   0.000002  -0.042103
   15  O  2 XY   -0.000002   0.024114   0.002053  -0.000000   0.001640
   16  O  2 XZ    0.013242   0.000000   0.000002   0.017547   0.000000
   17  O  2 YZ    0.013987   0.000003   0.000001   0.005665   0.000000
   18  C  3  S    0.000002   0.002804  -0.005630  -0.000001  -0.062320
   19  C  3  S   -0.000003  -0.002621   0.014562   0.000004   0.042964
   20  C  3  X   -0.000028   0.239069  -0.337002   0.000017   0.026084
   21  C  3  Y   -0.000001  -0.280867  -0.104338  -0.000001   0.170571
   22  C  3  Z    0.369563   0.000024  -0.000013  -0.264300   0.000017
   23  C  3  S   -0.000007  -0.068098  -0.012294   0.000008   1.212710
   24  C  3  X   -0.000011   0.131735  -0.164583   0.000010   0.057763
   25  C  3  Y    0.000003  -0.089513  -0.028894  -0.000003   0.691955
   26  C  3  Z    0.173232   0.000011  -0.000001  -0.127270   0.000078
   27  C  3 XX    0.000002  -0.029628   0.019355  -0.000002  -0.015063
   28  C  3 YY   -0.000000   0.030876   0.006392   0.000001  -0.000068
   29  C  3 ZZ   -0.000002  -0.003576  -0.025588   0.000002  -0.009983
   30  C  3 XY   -0.000000   0.005558  -0.028740   0.000002  -0.003356
   31  C  3 XZ    0.022186   0.000003  -0.000002  -0.020159  -0.000001
   32  C  3 YZ    0.005992   0.000000  -0.000001  -0.036359   0.000000
   33  H  4  S   -0.175190  -0.001126  -0.128831   0.174058  -0.001248
   34  H  4  S   -0.124201  -0.002836  -0.118579   0.171926  -0.738760
   35  H  5  S    0.175174  -0.001099  -0.128854  -0.174045  -0.001249
   36  H  5  S    0.124190  -0.002816  -0.118605  -0.171917  -0.738929
   37  H  6  S    0.000016  -0.197094   0.212780  -0.000013  -0.001407
   38  H  6  S    0.000014  -0.132673   0.185209  -0.000016  -0.551182

                     11         12         13         14         15
                    0.2964     0.3357     0.3425     0.3931     0.7714
                     A          A          A          A          A   
    1  H  1  S    0.055022  -0.014676   0.000003   0.035731  -0.131372
    2  H  1  S    0.850984  -0.065845   0.000053   1.047082  -0.095640
    3  O  2  S    0.067485   0.011448   0.000006  -0.044138  -0.001554
    4  O  2  S   -0.034522  -0.010596  -0.000003   0.038119   0.050522
    5  O  2  X   -0.122870  -0.045275  -0.000002  -0.149650  -0.055582
    6  O  2  Y   -0.055599  -0.068916  -0.000004   0.290652  -0.190275
    7  O  2  Z   -0.000009  -0.000007  -0.075599  -0.000010  -0.000102
    8  O  2  S   -1.026558  -0.186344  -0.000091   0.748852   0.164301
    9  O  2  X   -0.294629  -0.204921   0.000004  -0.394739  -0.139633
   10  O  2  Y   -0.226734  -0.164590  -0.000024   0.944375   0.022486
   11  O  2  Z   -0.000006  -0.000019  -0.252090  -0.000024  -0.000101
   12  O  2 XX    0.028947   0.002382   0.000003  -0.025091  -0.003979
   13  O  2 YY    0.040972   0.000990   0.000002   0.012513   0.095105
   14  O  2 ZZ    0.040964   0.001241   0.000004  -0.022357  -0.000019
   15  O  2 XY   -0.007032   0.011744  -0.000001   0.005327   0.000289
   16  O  2 XZ   -0.000000  -0.000002  -0.013289  -0.000001  -0.000013
   17  O  2 YZ   -0.000001   0.000001   0.007572   0.000001  -0.000004
   18  C  3  S   -0.135331  -0.017319   0.000000   0.058193  -0.010939
   19  C  3  S    0.116591   0.009876   0.000001  -0.035364   0.169403
   20  C  3  X   -0.042953   0.340193  -0.000027   0.011762  -0.654963
   21  C  3  Y    0.028173  -0.024677  -0.000013   0.198664  -0.347876
   22  C  3  Z   -0.000002   0.000026   0.357603   0.000005  -0.000385
   23  C  3  S    2.408281   0.259253   0.000000  -0.911678  -0.245789
   24  C  3  X   -0.138992   1.500760  -0.000132   0.294382   1.508316
   25  C  3  Y    0.064335  -0.203967  -0.000076   1.566569   0.369950
   26  C  3  Z   -0.000033   0.000127   1.524120   0.000074   0.000901
   27  C  3 XX    0.000148   0.015016  -0.000000  -0.009947   0.106069
   28  C  3 YY   -0.010434  -0.005305   0.000000   0.012005  -0.041782
   29  C  3 ZZ   -0.004735  -0.009569   0.000003  -0.022245  -0.065069
   30  C  3 XY    0.003387  -0.003378   0.000000   0.004261  -0.036735
   31  C  3 XZ    0.000001  -0.000001  -0.013493  -0.000001  -0.000058
   32  C  3 YZ    0.000001  -0.000001  -0.000921   0.000000  -0.000019
   33  H  4  S    0.003055  -0.021593   0.036497  -0.062018  -0.246694
   34  H  4  S   -0.957053  -0.978986   1.688140  -0.290605  -0.110922
   35  H  5  S    0.003062  -0.021602  -0.036488  -0.062033  -0.247159
   36  H  5  S   -0.956995  -0.979295  -1.687913  -0.290740  -0.111282
   37  H  6  S    0.003739   0.059785  -0.000005  -0.035426   0.467296
   38  H  6  S   -1.227007   1.878856  -0.000170   0.240094   0.315482

                     16         17         18         19         20
                    0.7754     0.7996     1.0600     1.1355     1.1423
                     A          A          A          A          A   
    1  H  1  S    0.000050  -0.077127   0.844423   0.116940   0.000009
    2  H  1  S    0.000070   0.243058  -0.360480  -0.458358  -0.000024
    3  O  2  S    0.000004   0.020597   0.029110  -0.014387  -0.000001
    4  O  2  S   -0.000047  -0.261913   0.081774  -0.733730  -0.000045
    5  O  2  X    0.000031  -0.002207  -0.245866   0.494676   0.000011
    6  O  2  Y    0.000073  -0.207356  -0.237822   0.302536   0.000020
    7  O  2  Z   -0.188621   0.000015   0.000005   0.000001   0.221884
    8  O  2  S   -0.000040   0.718675  -0.216894   1.304817   0.000073
    9  O  2  X    0.000099   0.125452  -0.285984  -0.575477  -0.000015
   10  O  2  Y   -0.000029  -0.006353   0.498236  -0.501663  -0.000030
   11  O  2  Z   -0.200581   0.000027  -0.000033   0.000003  -0.308328
   12  O  2 XX   -0.000008  -0.120445   0.168923  -0.232482  -0.000013
   13  O  2 YY   -0.000037   0.101707   0.068881  -0.294514  -0.000018
   14  O  2 ZZ   -0.000008  -0.111713  -0.036970  -0.248827  -0.000014
   15  O  2 XY   -0.000001  -0.015646  -0.140268  -0.014874   0.000001
   16  O  2 XZ   -0.019500   0.000002   0.000008  -0.000000  -0.010518
   17  O  2 YZ   -0.009305  -0.000001  -0.000002   0.000003  -0.110502
   18  C  3  S    0.000000  -0.036465   0.001055  -0.046394  -0.000002
   19  C  3  S   -0.000051   0.402570   0.113476  -0.420945  -0.000041
   20  C  3  X    0.000382   0.299696  -0.488041  -0.486465  -0.000001
   21  C  3  Y    0.000084  -0.931991  -0.132684  -0.038903  -0.000001
   22  C  3  Z   -0.724699   0.000076  -0.000019   0.000033  -0.884331
   23  C  3  S    0.000131  -0.391276  -0.446662   1.362157   0.000111
   24  C  3  X   -0.000885  -0.678461   0.911651   1.037078   0.000017
   25  C  3  Y   -0.000098   1.159212   0.134394   0.235007   0.000010
   26  C  3  Z    1.690325  -0.000188   0.000055  -0.000041   1.384999
   27  C  3 XX   -0.000060  -0.000680  -0.010871  -0.088455   0.000004
   28  C  3 YY    0.000017  -0.044598  -0.102156   0.071985   0.000002
   29  C  3 ZZ    0.000045   0.062279   0.079370  -0.047785  -0.000012
   30  C  3 XY    0.000020   0.004962   0.151576   0.047660  -0.000001
   31  C  3 XZ   -0.102979   0.000013   0.000003  -0.000008   0.140961
   32  C  3 YZ   -0.033400   0.000004   0.000003  -0.000004   0.155462
   33  H  4  S    0.425635  -0.016401   0.324548  -0.140041  -0.655434
   34  H  4  S    0.331107   0.038881  -0.440919  -0.606483   1.356695
   35  H  5  S   -0.425373  -0.016300   0.324564  -0.140094   0.655391
   36  H  5  S   -0.330982   0.038957  -0.441003  -0.606396  -1.356718
   37  H  6  S   -0.000287  -0.252805  -0.322626  -0.505859   0.000009
   38  H  6  S   -0.000204  -0.198441   0.976064   0.581478  -0.000043

                     21         22         23         24         25
                    1.1944     1.2261     1.2395     1.2737     1.4057
                     A          A          A          A          A   
    1  H  1  S    0.598310   0.094167   0.000100  -0.524743  -0.080664
    2  H  1  S   -0.609924  -0.110428  -0.000115   0.423378  -1.153628
    3  O  2  S    0.001048  -0.002838   0.000000  -0.005499  -0.018013
    4  O  2  S   -0.550554  -0.065871  -0.000069   0.202418  -0.518925
    5  O  2  X   -0.228721   0.028225  -0.000005  -0.006239  -0.821172
    6  O  2  Y   -0.232495   0.293411   0.000000  -0.514974   0.391147
    7  O  2  Z    0.000071  -0.000106  -0.924783  -0.000093  -0.000021
    8  O  2  S    0.937082  -0.033355   0.000181  -0.621173   1.098026
    9  O  2  X    0.008189  -0.082170  -0.000036   0.280018   1.387646
   10  O  2  Y    0.372485  -0.411718   0.000037   0.455966  -0.864497
   11  O  2  Z   -0.000102   0.000133   1.180495   0.000135   0.000046
   12  O  2 XX   -0.021487  -0.003583  -0.000002  -0.004515  -0.210031
   13  O  2 YY   -0.234112  -0.060183  -0.000020   0.013162  -0.159235
   14  O  2 ZZ   -0.191213  -0.035095  -0.000033   0.200450  -0.084755
   15  O  2 XY    0.019788   0.007355  -0.000004   0.041465  -0.002171
   16  O  2 XZ    0.000007   0.000005   0.030123  -0.000005  -0.000003
   17  O  2 YZ    0.000008  -0.000008  -0.081772  -0.000008  -0.000004
   18  C  3  S   -0.075629   0.053255  -0.000004  -0.076993  -0.009655
   19  C  3  S   -0.639243  -1.230991   0.000215  -1.277187  -0.208080
   20  C  3  X    0.482577   0.095660   0.000048  -0.234451  -0.246168
   21  C  3  Y    0.012216  -0.477348   0.000066  -0.066844   0.042507
   22  C  3  Z    0.000023   0.000001  -0.043058  -0.000005   0.000006
   23  C  3  S    1.603779   2.665275  -0.000508   3.166477   0.749761
   24  C  3  X   -0.553842  -0.055947  -0.000024   0.028111   0.053950
   25  C  3  Y    0.376640   0.425152  -0.000064   0.457364  -0.357616
   26  C  3  Z    0.000027  -0.000062  -0.483506  -0.000064  -0.000035
   27  C  3 XX    0.086608   0.001874   0.000031  -0.178398  -0.154348
   28  C  3 YY   -0.123559  -0.085323   0.000018  -0.190163   0.102189
   29  C  3 ZZ   -0.165075  -0.061149  -0.000016   0.058614   0.078013
   30  C  3 XY   -0.041329   0.001824   0.000001  -0.027621  -0.073119
   31  C  3 XZ   -0.000018   0.000010   0.117888   0.000020   0.000001
   32  C  3 YZ   -0.000005   0.000001   0.036499   0.000004   0.000001
   33  H  4  S   -0.526362   0.503189  -0.205799  -0.024463  -0.019970
   34  H  4  S    0.111554  -0.878444   0.030718  -0.947115  -0.106666
   35  H  5  S   -0.526444   0.503217   0.205603  -0.024395  -0.019969
   36  H  5  S    0.111627  -0.878425  -0.030306  -0.947138  -0.106618
   37  H  6  S    0.225855   0.660628  -0.000001  -0.489663  -0.259064
   38  H  6  S   -1.185886  -1.082147   0.000075  -0.385603   0.263909

                     26         27         28         29         30
                    1.7205     1.7729     1.8617     2.0252     2.3917
                     A          A          A          A          A   
    1  H  1  S    0.100927  -0.000004  -0.350604   0.000001  -0.404930
    2  H  1  S   -0.051422   0.000009  -0.147354   0.000001  -0.076204
    3  O  2  S    0.091901  -0.000003  -0.053277   0.000001  -0.013387
    4  O  2  S    1.215460  -0.000046  -0.662149   0.000001  -0.544851
    5  O  2  X   -0.029230   0.000005  -0.032688   0.000007  -0.113617
    6  O  2  Y    0.331014  -0.000016  -0.116522   0.000001  -0.337252
    7  O  2  Z   -0.000003   0.017742  -0.000003   0.047712   0.000007
    8  O  2  S   -3.738221   0.000147   1.992417  -0.000004   1.069364
    9  O  2  X    0.043958  -0.000009   0.432609  -0.000016   0.600336
   10  O  2  Y   -1.515180   0.000072   0.554554   0.000001   0.395393
   11  O  2  Z    0.000007   0.119891   0.000017  -0.138074  -0.000006
   12  O  2 XX    0.333451  -0.000022  -0.484647  -0.000079   0.093666
   13  O  2 YY    0.549434  -0.000019  -0.264788   0.000003   0.144655
   14  O  2 ZZ    0.174130   0.000004   0.199768   0.000081  -0.541976
   15  O  2 XY   -0.289498   0.000007  -0.478403  -0.000021   0.269750
   16  O  2 XZ   -0.000002  -0.116951  -0.000045   0.955590   0.000036
   17  O  2 YZ   -0.000022  -0.529240   0.000009  -0.161845  -0.000035
   18  C  3  S   -0.074647   0.000004   0.027344   0.000000   0.015922
   19  C  3  S   -0.918552   0.000042   0.261409   0.000002  -0.105856
   20  C  3  X    0.110378  -0.000001   0.099984   0.000003  -0.102771
   21  C  3  Y   -0.131762   0.000005   0.112935   0.000000   0.211399
   22  C  3  Z    0.000011   0.203393  -0.000003   0.034868   0.000012
   23  C  3  S    3.955745  -0.000183  -1.439677  -0.000006  -0.569568
   24  C  3  X   -0.108123   0.000009   0.012761   0.000045  -0.574225
   25  C  3  Y   -1.000790   0.000043   0.409039   0.000000  -0.106524
   26  C  3  Z   -0.000013  -0.148086  -0.000019   0.335122   0.000041
   27  C  3 XX    0.017578  -0.000010   0.227437  -0.000015   0.234695
   28  C  3 YY    0.198642  -0.000012  -0.072149  -0.000001   0.499485
   29  C  3 ZZ   -0.261085   0.000025  -0.147822   0.000016  -0.814952
   30  C  3 XY    0.252159  -0.000006   0.538852   0.000011   0.163504
   31  C  3 XZ   -0.000020  -0.428564  -0.000009   0.161262   0.000038
   32  C  3 YZ    0.000025   0.590600  -0.000016   0.133650   0.000020
   33  H  4  S   -0.384845   0.133929   0.043835   0.178426   0.421927
   34  H  4  S   -0.357592  -0.167220   0.150477   0.125272   0.099270
   35  H  5  S   -0.384858  -0.133893   0.043849  -0.178448   0.421851
   36  H  5  S   -0.357577   0.167252   0.150499  -0.125291   0.099269
   37  H  6  S   -0.266785   0.000018   0.245340   0.000023  -0.200296
   38  H  6  S   -0.554423   0.000027   0.143487   0.000021  -0.088134

                     31         32         33         34         35
                    2.4482     2.4872     2.7011     2.7415     2.8084
                     A          A          A          A          A   
    1  H  1  S   -0.354773   0.000013  -0.007448  -0.000124  -1.193515
    2  H  1  S    0.004760   0.000001  -0.105328  -0.000004   0.012797
    3  O  2  S   -0.031644   0.000001  -0.001429  -0.000007  -0.070707
    4  O  2  S    0.197990  -0.000002  -0.043099  -0.000066  -0.635679
    5  O  2  X   -0.101590   0.000012  -0.045532   0.000003  -0.000512
    6  O  2  Y    0.311330  -0.000001   0.007624  -0.000001  -0.015295
    7  O  2  Z    0.000009   0.128483  -0.000002  -0.033329   0.000000
    8  O  2  S    0.136919  -0.000011   0.106153   0.000226   2.189546
    9  O  2  X    0.523366  -0.000049   0.246083   0.000052   0.657704
   10  O  2  Y   -0.283934   0.000006  -0.042443   0.000040   0.475577
   11  O  2  Z   -0.000013  -0.369438   0.000014   0.219506   0.000021
   12  O  2 XX    0.341056  -0.000000   0.126912   0.000063   0.612247
   13  O  2 YY   -0.277093   0.000008   0.019820  -0.000014  -0.005444
   14  O  2 ZZ   -0.044860  -0.000001  -0.158866  -0.000091  -0.977573
   15  O  2 XY    0.312646  -0.000058   0.609966  -0.000115  -0.591140
   16  O  2 XZ    0.000021  -0.261473  -0.000004  -0.091852   0.000087
   17  O  2 YZ   -0.000038  -0.588799   0.000038   0.697659  -0.000075
   18  C  3  S   -0.003260   0.000000  -0.003016   0.000004   0.036795
   19  C  3  S    0.155001   0.000000  -0.016211   0.000008   0.040942
   20  C  3  X   -0.110019   0.000015   0.071836   0.000007   0.064103
   21  C  3  Y   -0.127755   0.000003   0.020959   0.000022   0.269641
   22  C  3  Z    0.000014   0.169371   0.000006   0.060229  -0.000010
   23  C  3  S    0.054117  -0.000002   0.059911  -0.000126  -1.213347
   24  C  3  X   -0.563764   0.000071   0.021348   0.000015   0.008260
   25  C  3  Y    0.255449  -0.000003  -0.004591   0.000046   0.486949
   26  C  3  Z    0.000042   0.683154   0.000001  -0.058523  -0.000019
   27  C  3 XX    0.877624  -0.000046  -0.492865   0.000019  -0.067193
   28  C  3 YY   -0.630575   0.000005   0.002371  -0.000032  -0.325962
   29  C  3 ZZ   -0.145176   0.000040   0.476122   0.000021   0.444398
   30  C  3 XY    0.193032  -0.000030   0.886186  -0.000061  -0.030936
   31  C  3 XZ    0.000047   0.886356   0.000052   0.436244  -0.000071
   32  C  3 YZ    0.000011  -0.072939   0.000057   0.922733  -0.000095
   33  H  4  S    0.004227   0.544857  -0.296749   0.433800  -0.055461
   34  H  4  S    0.066973   0.073291   0.105689  -0.200486   0.130917
   35  H  5  S    0.004144  -0.544902  -0.296822  -0.433782  -0.055338
   36  H  5  S    0.066976  -0.073303   0.105718   0.200497   0.130882
   37  H  6  S   -0.633950   0.000048   0.536474  -0.000003   0.205827
   38  H  6  S   -0.077905   0.000012  -0.208489   0.000025   0.066109

                     36         37         38
                    3.1586     4.1189     4.6512
                     A          A          A   
    1  H  1  S    0.469300   0.096884  -0.004138
    2  H  1  S    0.112575  -0.552823   0.065139
    3  O  2  S   -0.062668  -0.499948   0.068693
    4  O  2  S   -0.525778   0.052793  -0.036262
    5  O  2  X    0.041123  -0.083667   0.011580
    6  O  2  Y    0.016483  -0.145101   0.126266
    7  O  2  Z    0.000001  -0.000004   0.000000
    8  O  2  S    1.920133   4.592241  -0.775949
    9  O  2  X   -0.364391   0.243584  -0.036957
   10  O  2  Y    1.466652   0.626660   0.078745
   11  O  2  Z   -0.000012   0.000013  -0.000000
   12  O  2 XX   -0.939937  -1.686954   0.165566
   13  O  2 YY    1.141349  -1.518536   0.591999
   14  O  2 ZZ   -0.467574  -1.732501   0.171418
   15  O  2 XY    0.145680  -0.020972  -0.000245
   16  O  2 XZ   -0.000024   0.000002  -0.000000
   17  O  2 YZ    0.000012  -0.000001   0.000002
   18  C  3  S    0.061085  -0.061809  -0.477446
   19  C  3  S   -0.416181   0.530090   2.911361
   20  C  3  X   -0.005619  -0.030986   0.008078
   21  C  3  Y    0.822944   0.004282   0.134338
   22  C  3  Z    0.000002  -0.000000  -0.000000
   23  C  3  S   -1.537358  -1.143150   2.293950
   24  C  3  X    0.063103   0.099553  -0.027804
   25  C  3  Y    0.763886   0.572284   0.129528
   26  C  3  Z    0.000009  -0.000001  -0.000000
   27  C  3 XX    0.501934  -0.282561  -1.825884
   28  C  3 YY   -0.866774  -0.117808  -2.058718
   29  C  3 ZZ    0.429262  -0.260617  -1.831595
   30  C  3 XY   -0.034719   0.020080  -0.006065
   31  C  3 XZ    0.000006   0.000001  -0.000001
   32  C  3 YZ    0.000001   0.000002  -0.000001
   33  H  4  S   -0.010559   0.109365   0.123143
   34  H  4  S    0.091767   0.013757  -0.515247
   35  H  5  S   -0.010568   0.109362   0.123146
   36  H  5  S    0.091764   0.013766  -0.515251
   37  H  6  S   -0.058395   0.145244   0.116059
   38  H  6  S    0.150515   0.080392  -0.530814
 ...... END OF RHF CALCULATION ......
 STEP CPU TIME =     2.69 TOTAL CPU TIME =        2.8 (    0.0 MIN)
 TOTAL WALL CLOCK TIME=        2.8 SECONDS, CPU UTILIZATION IS  99.64%

     ----------------------------------------------------------------
     PROPERTY VALUES FOR THE RHF   SELF-CONSISTENT FIELD WAVEFUNCTION
     ----------------------------------------------------------------

          ---------------------------------------
          MULLIKEN AND LOWDIN POPULATION ANALYSES
          ---------------------------------------

     ATOMIC MULLIKEN POPULATION IN EACH MOLECULAR ORBITAL

                      1          2          3          4          5

                  2.000000   2.000000   2.000000   2.000000   2.000000

    1            -0.000010   0.000015   0.104997   0.065987   0.256213
    2             2.000021  -0.000010   1.660620   0.375587   1.077337
    3            -0.000007   1.998499   0.216617   1.093556   0.460487
    4            -0.000002   0.000496   0.005350   0.147260   0.095819
    5            -0.000002   0.000496   0.005352   0.147268   0.095863
    6             0.000001   0.000504   0.007065   0.170343   0.014280

                      6          7          8          9

                  2.000000   2.000000   2.000000   2.000000

    1             0.000000   0.011759   0.078025   0.000000
    2             0.710131   0.969892   0.757941   1.256984
    3             0.799102   0.709047   0.591394   0.317382
    4             0.245407   0.000267   0.127412   0.212834
    5             0.245359   0.000264   0.127456   0.212800
    6             0.000000   0.308771   0.317771   0.000000

               ----- POPULATIONS IN EACH AO -----
                             MULLIKEN      LOWDIN
              1  H  1  S      0.45287     0.42690
              2  H  1  S      0.06412     0.18664
              3  O  2  S      1.99528     1.97719
              4  O  2  S      0.88851     0.69933
              5  O  2  X      0.92717     0.88062
              6  O  2  Y      0.84147     0.79169
              7  O  2  Z      1.14326     1.12527
              8  O  2  S      0.92444     0.45978
              9  O  2  X      0.63791     0.66274
             10  O  2  Y      0.56160     0.59455
             11  O  2  Z      0.82059     0.82193
             12  O  2 XX      0.03408     0.19473
             13  O  2 YY      0.02326     0.18711
             14  O  2 ZZ      0.00264     0.16527
             15  O  2 XY      0.00503     0.01168
             16  O  2 XZ      0.00089     0.00090
             17  O  2 YZ      0.00237     0.00667
             18  C  3  S      1.99649     1.98044
             19  C  3  S      0.63747     0.34963
             20  C  3  X      0.73581     0.65902
             21  C  3  Y      0.53280     0.49196
             22  C  3  Z      0.72776     0.64958
             23  C  3  S      0.58657     0.32983
             24  C  3  X      0.37990     0.48470
             25  C  3  Y      0.12071     0.26863
             26  C  3  Z      0.36121     0.48460
             27  C  3 XX      0.02346     0.15928
             28  C  3 YY      0.02301     0.16401
             29  C  3 ZZ      0.02127     0.15727
             30  C  3 XY      0.01212     0.02431
             31  C  3 XZ      0.00950     0.01379
             32  C  3 YZ      0.01802     0.03641
             33  H  4  S      0.53562     0.50121
             34  H  4  S      0.29923     0.35336
             35  H  5  S      0.53562     0.50121
             36  H  5  S      0.29924     0.35336
             37  H  6  S      0.53387     0.50027
             38  H  6  S      0.28486     0.34415

          ----- MULLIKEN ATOMIC OVERLAP POPULATIONS -----
          (OFF-DIAGONAL ELEMENTS NEED TO BE MULTIPLIED BY 2)

             1           2           3           4           5

    1    0.2782476
    2    0.2642796   8.4552667
    3   -0.0234144   0.1980297   4.8175233
    4   -0.0033124  -0.0368044   0.3970414   0.5472319
    5   -0.0033130  -0.0368027   0.3970377  -0.0375757   0.5472457
    6    0.0044989  -0.0354645   0.3998583  -0.0317375  -0.0317362

             6

    6    0.5133152

          TOTAL MULLIKEN AND LOWDIN ATOMIC POPULATIONS
       ATOM         MULL.POP.    CHARGE          LOW.POP.     CHARGE
    1 H             0.516986    0.483014         0.613538    0.386462
    2 O             8.808504   -0.808504         8.579466   -0.579466
    3 C             6.186076   -0.186076         6.253439   -0.253439
    4 H             0.834843    0.165157         0.854564    0.145436
    5 H             0.834856    0.165144         0.854571    0.145429
    6 H             0.818734    0.181266         0.844421    0.155579

          -------------------------------
          BOND ORDER AND VALENCE ANALYSIS     BOND ORDER THRESHOLD=0.050
          -------------------------------

                   BOND                       BOND                       BOND
  ATOM PAIR DIST  ORDER      ATOM PAIR DIST  ORDER      ATOM PAIR DIST  ORDER
    1   2  0.950  0.737        2   3  1.412  0.853        3   4  1.085  0.953
    3   5  1.085  0.953        3   6  1.081  0.957

                       TOTAL       BONDED        FREE
      ATOM            VALENCE     VALENCE     VALENCE
    1 H                 0.737       0.737      -0.000
    2 O                 1.575       1.575      -0.000
    3 C                 3.713       3.713      -0.000
    4 H                 0.927       0.927      -0.000
    5 H                 0.927       0.927       0.000
    6 H                 0.927       0.927       0.000

    **** A SOLVENT MODEL IS IN USE IN THIS RUN ****
 ELECTRICAL PROPERTIES (MOMENTS, DENSITY, FIELD/GRADIENT, AND/OR POTENTIAL)
 ARE COMPUTED USING THE SOLVATED SYSTEM'S DENSITY MATRIX, BUT
 ONLY WITH AO INTEGRAL CONTRIBUTIONS FROM THE QUANTUM SOLUTE.
 THE ONE EXCEPTION IS THE DIPOLE, WHICH IS ALSO PRINTED FOR THE TOTAL SYSTEM.

          ----------------------------
          SOLUTE ELECTROSTATIC MOMENTS
          ----------------------------

 POINT   1           X           Y           Z (BOHR)    CHARGE
                -0.038871   -0.119727    0.000000       -0.00 (A.U.)
         DX          DY          DZ         /D/  (DEBYE)
     1.928551    1.402810    0.000024    2.384782

          ----------------------------
          SYSTEM ELECTROSTATIC MOMENTS
          ----------------------------

 POINT   1           X           Y           Z (BOHR)    CHARGE
                -0.038871   -0.119727    0.000000       -0.00 (A.U.)
         DX          DY          DZ         /D/  (DEBYE)
     1.928551    1.402810    0.000024    2.384782
 INCLUDING PCM SURFACE CHARGES, TOTAL CHARGE=   -0.021705, AND TOTAL DIPOLE IS
         DX          DY          DZ         /D/  (DEBYE)
     0.062417   -0.050611    0.000435    0.080359
 ...... END OF PROPERTY EVALUATION ......
 STEP CPU TIME =     0.00 TOTAL CPU TIME =        2.8 (    0.0 MIN)
 TOTAL WALL CLOCK TIME=        2.8 SECONDS, CPU UTILIZATION IS  99.64%

     ---------------------------------------------
     1ST AND 2ND INTEGRAL DERIVATIVE CONTRIBUTIONS
     ---------------------------------------------
 ...... END OF 1-ELECTRON GRAD+HESS+FOCKDER ......
 STEP CPU TIME =     0.01 TOTAL CPU TIME =        2.8 (    0.0 MIN)
 TOTAL WALL CLOCK TIME=        2.8 SECONDS, CPU UTILIZATION IS  99.64%

     ----------------------------------------------
     TWO ELECTRON INTEGRAL DERIVATIVE CONTRIBUTIONS
     ----------------------------------------------

      27095 WORDS REQUIRED,    940317 WORDS AVAILABLE
 THE COARSE/FINE SCHWARZ SCREENINGS SKIPPED         13/        25 BLOCKS.
 THE NUMBER OF DERIVATIVE INTEGRAL BLOCKS COMPUTED WAS      9144
 STEP CPU TIME =     0.92 TOTAL CPU TIME =        3.7 (    0.1 MIN)
 TOTAL WALL CLOCK TIME=        3.7 SECONDS, CPU UTILIZATION IS  99.73%
 ...... END OF 2-ELECTRON GRAD+HESS+FOCKDER ......
 STEP CPU TIME =     0.00 TOTAL CPU TIME =        3.7 (    0.1 MIN)
 TOTAL WALL CLOCK TIME=        3.7 SECONDS, CPU UTILIZATION IS  99.73%
 DONE WITH AREA SCALING.
 STEP CPU TIME =     0.85 TOTAL CPU TIME =        4.5 (    0.1 MIN)
 TOTAL WALL CLOCK TIME=        4.5 SECONDS, CPU UTILIZATION IS  99.78%
 WARNING: THE DISTANCE BETWEEN TESSERAE      7 AND    180 IS 0.0132 A, LESS THAN 0.0200 A
 WARNING: THE DISTANCE BETWEEN TESSERAE     24 AND    180 IS 0.0060 A, LESS THAN 0.0200 A
 DONE WITH AREA SCALING.
 STEP CPU TIME =     0.02 TOTAL CPU TIME =        4.6 (    0.1 MIN)
 TOTAL WALL CLOCK TIME=        4.6 SECONDS, CPU UTILIZATION IS  99.56%
 WARNING: THE DISTANCE BETWEEN TESSERAE      7 AND    180 IS 0.0132 A, LESS THAN 0.0200 A
 WARNING: THE DISTANCE BETWEEN TESSERAE     24 AND    180 IS 0.0060 A, LESS THAN 0.0200 A
 DONE WITH AREA SCALING.
 STEP CPU TIME =     0.03 TOTAL CPU TIME =        4.6 (    0.1 MIN)
 TOTAL WALL CLOCK TIME=        4.6 SECONDS, CPU UTILIZATION IS  99.78%
 WARNING: THE DISTANCE BETWEEN TESSERAE      7 AND    180 IS 0.0132 A, LESS THAN 0.0200 A
 WARNING: THE DISTANCE BETWEEN TESSERAE     24 AND    180 IS 0.0060 A, LESS THAN 0.0200 A
 DONE WITH AREA SCALING.
 STEP CPU TIME =     0.02 TOTAL CPU TIME =        4.6 (    0.1 MIN)
 TOTAL WALL CLOCK TIME=        4.6 SECONDS, CPU UTILIZATION IS  99.78%
 WARNING: THE DISTANCE BETWEEN TESSERAE      7 AND    180 IS 0.0132 A, LESS THAN 0.0200 A
 WARNING: THE DISTANCE BETWEEN TESSERAE     24 AND    180 IS 0.0060 A, LESS THAN 0.0200 A
 DONE WITH AREA SCALING.
 STEP CPU TIME =     0.02 TOTAL CPU TIME =        4.6 (    0.1 MIN)
 TOTAL WALL CLOCK TIME=        4.6 SECONDS, CPU UTILIZATION IS  99.78%
 WARNING: THE DISTANCE BETWEEN TESSERAE      7 AND    180 IS 0.0132 A, LESS THAN 0.0200 A
 WARNING: THE DISTANCE BETWEEN TESSERAE     24 AND    180 IS 0.0060 A, LESS THAN 0.0200 A
 DONE WITH AREA SCALING.
 STEP CPU TIME =     0.02 TOTAL CPU TIME =        4.7 (    0.1 MIN)
 TOTAL WALL CLOCK TIME=        4.7 SECONDS, CPU UTILIZATION IS  99.57%
 WARNING: THE DISTANCE BETWEEN TESSERAE      7 AND    180 IS 0.0132 A, LESS THAN 0.0200 A
 WARNING: THE DISTANCE BETWEEN TESSERAE     24 AND    180 IS 0.0060 A, LESS THAN 0.0200 A
 DONE WITH AREA SCALING.
 STEP CPU TIME =     0.03 TOTAL CPU TIME =        4.7 (    0.1 MIN)
 TOTAL WALL CLOCK TIME=        4.7 SECONDS, CPU UTILIZATION IS  99.79%
 WARNING: THE DISTANCE BETWEEN TESSERAE      7 AND    180 IS 0.0132 A, LESS THAN 0.0200 A
 WARNING: THE DISTANCE BETWEEN TESSERAE     24 AND    180 IS 0.0060 A, LESS THAN 0.0200 A
 DONE WITH AREA SCALING.
 STEP CPU TIME =     0.02 TOTAL CPU TIME =        4.7 (    0.1 MIN)
 TOTAL WALL CLOCK TIME=        4.7 SECONDS, CPU UTILIZATION IS  99.79%
 WARNING: THE DISTANCE BETWEEN TESSERAE      7 AND    180 IS 0.0132 A, LESS THAN 0.0200 A
 WARNING: THE DISTANCE BETWEEN TESSERAE     24 AND    180 IS 0.0060 A, LESS THAN 0.0200 A
 DONE WITH AREA SCALING.
 STEP CPU TIME =     0.02 TOTAL CPU TIME =        4.7 (    0.1 MIN)
 TOTAL WALL CLOCK TIME=        4.7 SECONDS, CPU UTILIZATION IS  99.79%
 WARNING: THE DISTANCE BETWEEN TESSERAE      7 AND    180 IS 0.0132 A, LESS THAN 0.0200 A
 WARNING: THE DISTANCE BETWEEN TESSERAE     24 AND    180 IS 0.0060 A, LESS THAN 0.0200 A
 DONE WITH AREA SCALING.
 STEP CPU TIME =     0.02 TOTAL CPU TIME =        4.7 (    0.1 MIN)
 TOTAL WALL CLOCK TIME=        4.8 SECONDS, CPU UTILIZATION IS  99.58%
 WARNING: THE DISTANCE BETWEEN TESSERAE      7 AND    180 IS 0.0132 A, LESS THAN 0.0200 A
 WARNING: THE DISTANCE BETWEEN TESSERAE     24 AND    180 IS 0.0060 A, LESS THAN 0.0200 A
 DONE WITH AREA SCALING.
 STEP CPU TIME =     0.03 TOTAL CPU TIME =        4.8 (    0.1 MIN)
 TOTAL WALL CLOCK TIME=        4.8 SECONDS, CPU UTILIZATION IS  99.79%
 WARNING: THE DISTANCE BETWEEN TESSERAE      7 AND    180 IS 0.0132 A, LESS THAN 0.0200 A
 WARNING: THE DISTANCE BETWEEN TESSERAE     24 AND    180 IS 0.0060 A, LESS THAN 0.0200 A
 DONE WITH AREA SCALING.
 STEP CPU TIME =     0.02 TOTAL CPU TIME =        4.8 (    0.1 MIN)
 TOTAL WALL CLOCK TIME=        4.8 SECONDS, CPU UTILIZATION IS  99.79%
 WARNING: THE DISTANCE BETWEEN TESSERAE      7 AND    180 IS 0.0132 A, LESS THAN 0.0200 A
 WARNING: THE DISTANCE BETWEEN TESSERAE     24 AND    180 IS 0.0060 A, LESS THAN 0.0200 A
 DONE WITH AREA SCALING.
 STEP CPU TIME =     0.02 TOTAL CPU TIME =        4.8 (    0.1 MIN)
 TOTAL WALL CLOCK TIME=        4.8 SECONDS, CPU UTILIZATION IS  99.79%
 WARNING: THE DISTANCE BETWEEN TESSERAE      7 AND    180 IS 0.0132 A, LESS THAN 0.0200 A
 WARNING: THE DISTANCE BETWEEN TESSERAE     24 AND    180 IS 0.0060 A, LESS THAN 0.0200 A
 DONE WITH AREA SCALING.
 STEP CPU TIME =     0.02 TOTAL CPU TIME =        4.8 (    0.1 MIN)
 TOTAL WALL CLOCK TIME=        4.8 SECONDS, CPU UTILIZATION IS  99.79%
 WARNING: THE DISTANCE BETWEEN TESSERAE      7 AND    180 IS 0.0132 A, LESS THAN 0.0200 A
 WARNING: THE DISTANCE BETWEEN TESSERAE     24 AND    180 IS 0.0060 A, LESS THAN 0.0200 A
 DONE WITH AREA SCALING.
 STEP CPU TIME =     0.02 TOTAL CPU TIME =        4.8 (    0.1 MIN)
 TOTAL WALL CLOCK TIME=        4.9 SECONDS, CPU UTILIZATION IS  99.59%
 WARNING: THE DISTANCE BETWEEN TESSERAE      7 AND    180 IS 0.0132 A, LESS THAN 0.0200 A
 WARNING: THE DISTANCE BETWEEN TESSERAE     24 AND    180 IS 0.0060 A, LESS THAN 0.0200 A
 DONE WITH AREA SCALING.
 STEP CPU TIME =     0.03 TOTAL CPU TIME =        4.9 (    0.1 MIN)
 TOTAL WALL CLOCK TIME=        4.9 SECONDS, CPU UTILIZATION IS  99.80%
 WARNING: THE DISTANCE BETWEEN TESSERAE      7 AND    180 IS 0.0132 A, LESS THAN 0.0200 A
 WARNING: THE DISTANCE BETWEEN TESSERAE     24 AND    180 IS 0.0060 A, LESS THAN 0.0200 A
 DONE WITH AREA SCALING.
 STEP CPU TIME =     0.02 TOTAL CPU TIME =        4.9 (    0.1 MIN)
 TOTAL WALL CLOCK TIME=        4.9 SECONDS, CPU UTILIZATION IS  99.80%
 WARNING: THE DISTANCE BETWEEN TESSERAE      7 AND    180 IS 0.0132 A, LESS THAN 0.0200 A
 WARNING: THE DISTANCE BETWEEN TESSERAE     24 AND    180 IS 0.0060 A, LESS THAN 0.0200 A
 DONE WITH AREA SCALING.
 STEP CPU TIME =     0.02 TOTAL CPU TIME =        4.9 (    0.1 MIN)
 TOTAL WALL CLOCK TIME=        4.9 SECONDS, CPU UTILIZATION IS  99.80%
 WARNING: THE DISTANCE BETWEEN TESSERAE      7 AND    180 IS 0.0132 A, LESS THAN 0.0200 A
 WARNING: THE DISTANCE BETWEEN TESSERAE     24 AND    180 IS 0.0060 A, LESS THAN 0.0200 A
 DONE WITH AREA SCALING.
 STEP CPU TIME =     0.02 TOTAL CPU TIME =        4.9 (    0.1 MIN)
 TOTAL WALL CLOCK TIME=        5.0 SECONDS, CPU UTILIZATION IS  99.60%
 WARNING: THE DISTANCE BETWEEN TESSERAE      7 AND    180 IS 0.0132 A, LESS THAN 0.0200 A
 WARNING: THE DISTANCE BETWEEN TESSERAE     24 AND    180 IS 0.0060 A, LESS THAN 0.0200 A
 DONE WITH AREA SCALING.
 STEP CPU TIME =     0.03 TOTAL CPU TIME =        5.0 (    0.1 MIN)
 TOTAL WALL CLOCK TIME=        5.0 SECONDS, CPU UTILIZATION IS  99.80%
 WARNING: THE DISTANCE BETWEEN TESSERAE      7 AND    180 IS 0.0132 A, LESS THAN 0.0200 A
 WARNING: THE DISTANCE BETWEEN TESSERAE     24 AND    180 IS 0.0060 A, LESS THAN 0.0200 A
 DONE WITH AREA SCALING.
 STEP CPU TIME =     0.02 TOTAL CPU TIME =        5.0 (    0.1 MIN)
 TOTAL WALL CLOCK TIME=        5.0 SECONDS, CPU UTILIZATION IS  99.80%
 WARNING: THE DISTANCE BETWEEN TESSERAE      7 AND    180 IS 0.0132 A, LESS THAN 0.0200 A
 WARNING: THE DISTANCE BETWEEN TESSERAE     24 AND    180 IS 0.0060 A, LESS THAN 0.0200 A
 DONE WITH AREA SCALING.
 STEP CPU TIME =     0.02 TOTAL CPU TIME =        5.0 (    0.1 MIN)
 TOTAL WALL CLOCK TIME=        5.0 SECONDS, CPU UTILIZATION IS  99.80%
 WARNING: THE DISTANCE BETWEEN TESSERAE      7 AND    180 IS 0.0132 A, LESS THAN 0.0200 A
 WARNING: THE DISTANCE BETWEEN TESSERAE     24 AND    180 IS 0.0060 A, LESS THAN 0.0200 A
 DONE WITH AREA SCALING.
 STEP CPU TIME =     0.02 TOTAL CPU TIME =        5.0 (    0.1 MIN)
 TOTAL WALL CLOCK TIME=        5.0 SECONDS, CPU UTILIZATION IS  99.60%
 WARNING: THE DISTANCE BETWEEN TESSERAE      7 AND    180 IS 0.0132 A, LESS THAN 0.0200 A
 WARNING: THE DISTANCE BETWEEN TESSERAE     24 AND    180 IS 0.0060 A, LESS THAN 0.0200 A
 DONE WITH AREA SCALING.
 STEP CPU TIME =     0.03 TOTAL CPU TIME =        5.1 (    0.1 MIN)
 TOTAL WALL CLOCK TIME=        5.1 SECONDS, CPU UTILIZATION IS  99.80%
 WARNING: THE DISTANCE BETWEEN TESSERAE      7 AND    180 IS 0.0132 A, LESS THAN 0.0200 A
 WARNING: THE DISTANCE BETWEEN TESSERAE     24 AND    180 IS 0.0060 A, LESS THAN 0.0200 A
 DONE WITH AREA SCALING.
 STEP CPU TIME =     0.02 TOTAL CPU TIME =        5.1 (    0.1 MIN)
 TOTAL WALL CLOCK TIME=        5.1 SECONDS, CPU UTILIZATION IS  99.80%
 WARNING: THE DISTANCE BETWEEN TESSERAE      7 AND    180 IS 0.0132 A, LESS THAN 0.0200 A
 WARNING: THE DISTANCE BETWEEN TESSERAE     24 AND    180 IS 0.0060 A, LESS THAN 0.0200 A
 DONE WITH AREA SCALING.
 STEP CPU TIME =     0.02 TOTAL CPU TIME =        5.1 (    0.1 MIN)
 TOTAL WALL CLOCK TIME=        5.1 SECONDS, CPU UTILIZATION IS  99.80%
 WARNING: THE DISTANCE BETWEEN TESSERAE      7 AND    180 IS 0.0132 A, LESS THAN 0.0200 A
 WARNING: THE DISTANCE BETWEEN TESSERAE     24 AND    180 IS 0.0060 A, LESS THAN 0.0200 A
 DONE WITH AREA SCALING.
 STEP CPU TIME =     0.02 TOTAL CPU TIME =        5.1 (    0.1 MIN)
 TOTAL WALL CLOCK TIME=        5.1 SECONDS, CPU UTILIZATION IS  99.81%
 WARNING: THE DISTANCE BETWEEN TESSERAE      7 AND    180 IS 0.0132 A, LESS THAN 0.0200 A
 WARNING: THE DISTANCE BETWEEN TESSERAE     24 AND    180 IS 0.0060 A, LESS THAN 0.0200 A
 DONE WITH AREA SCALING.
 STEP CPU TIME =     0.02 TOTAL CPU TIME =        5.1 (    0.1 MIN)
 TOTAL WALL CLOCK TIME=        5.2 SECONDS, CPU UTILIZATION IS  99.61%
 WARNING: THE DISTANCE BETWEEN TESSERAE      7 AND    180 IS 0.0132 A, LESS THAN 0.0200 A
 WARNING: THE DISTANCE BETWEEN TESSERAE     24 AND    180 IS 0.0060 A, LESS THAN 0.0200 A
 DONE WITH AREA SCALING.
 STEP CPU TIME =     0.03 TOTAL CPU TIME =        5.2 (    0.1 MIN)
 TOTAL WALL CLOCK TIME=        5.2 SECONDS, CPU UTILIZATION IS  99.81%
 WARNING: THE DISTANCE BETWEEN TESSERAE      7 AND    180 IS 0.0132 A, LESS THAN 0.0200 A
 WARNING: THE DISTANCE BETWEEN TESSERAE     24 AND    180 IS 0.0060 A, LESS THAN 0.0200 A
 DONE WITH AREA SCALING.
 STEP CPU TIME =     0.02 TOTAL CPU TIME =        5.2 (    0.1 MIN)
 TOTAL WALL CLOCK TIME=        5.2 SECONDS, CPU UTILIZATION IS  99.81%
 WARNING: THE DISTANCE BETWEEN TESSERAE      7 AND    180 IS 0.0132 A, LESS THAN 0.0200 A
 WARNING: THE DISTANCE BETWEEN TESSERAE     24 AND    180 IS 0.0060 A, LESS THAN 0.0200 A
 DONE WITH AREA SCALING.
 STEP CPU TIME =     0.02 TOTAL CPU TIME =        5.2 (    0.1 MIN)
 TOTAL WALL CLOCK TIME=        5.2 SECONDS, CPU UTILIZATION IS  99.81%
 WARNING: THE DISTANCE BETWEEN TESSERAE      7 AND    180 IS 0.0132 A, LESS THAN 0.0200 A
 WARNING: THE DISTANCE BETWEEN TESSERAE     24 AND    180 IS 0.0060 A, LESS THAN 0.0200 A
 DONE WITH AREA SCALING.
 STEP CPU TIME =     0.02 TOTAL CPU TIME =        5.2 (    0.1 MIN)
 TOTAL WALL CLOCK TIME=        5.3 SECONDS, CPU UTILIZATION IS  99.62%
 WARNING: THE DISTANCE BETWEEN TESSERAE      7 AND    180 IS 0.0132 A, LESS THAN 0.0200 A
 WARNING: THE DISTANCE BETWEEN TESSERAE     24 AND    180 IS 0.0060 A, LESS THAN 0.0200 A
 DONE WITH AREA SCALING.
 STEP CPU TIME =     0.03 TOTAL CPU TIME =        5.3 (    0.1 MIN)
 TOTAL WALL CLOCK TIME=        5.3 SECONDS, CPU UTILIZATION IS  99.81%
 WARNING: THE DISTANCE BETWEEN TESSERAE      7 AND    180 IS 0.0132 A, LESS THAN 0.0200 A
 WARNING: THE DISTANCE BETWEEN TESSERAE     24 AND    180 IS 0.0060 A, LESS THAN 0.0200 A
 DONE WITH AREA SCALING.
 STEP CPU TIME =     0.02 TOTAL CPU TIME =        5.3 (    0.1 MIN)
 TOTAL WALL CLOCK TIME=        5.3 SECONDS, CPU UTILIZATION IS  99.81%
 WARNING: THE DISTANCE BETWEEN TESSERAE      7 AND    180 IS 0.0132 A, LESS THAN 0.0200 A
 WARNING: THE DISTANCE BETWEEN TESSERAE     24 AND    180 IS 0.0060 A, LESS THAN 0.0200 A
 DONE WITH AREA SCALING.
 STEP CPU TIME =     0.02 TOTAL CPU TIME =        5.3 (    0.1 MIN)
 TOTAL WALL CLOCK TIME=        5.3 SECONDS, CPU UTILIZATION IS  99.81%
 WARNING: THE DISTANCE BETWEEN TESSERAE      7 AND    180 IS 0.0132 A, LESS THAN 0.0200 A
 WARNING: THE DISTANCE BETWEEN TESSERAE     24 AND    180 IS 0.0060 A, LESS THAN 0.0200 A
 DONE WITH AREA SCALING.
 STEP CPU TIME =     0.02 TOTAL CPU TIME =        5.3 (    0.1 MIN)
 TOTAL WALL CLOCK TIME=        5.3 SECONDS, CPU UTILIZATION IS  99.63%
 WARNING: THE DISTANCE BETWEEN TESSERAE      7 AND    180 IS 0.0132 A, LESS THAN 0.0200 A
 WARNING: THE DISTANCE BETWEEN TESSERAE     24 AND    180 IS 0.0060 A, LESS THAN 0.0200 A
 DONE WITH AREA SCALING.
 STEP CPU TIME =     0.03 TOTAL CPU TIME =        5.3 (    0.1 MIN)
 TOTAL WALL CLOCK TIME=        5.4 SECONDS, CPU UTILIZATION IS  99.81%
 WARNING: THE DISTANCE BETWEEN TESSERAE      7 AND    180 IS 0.0132 A, LESS THAN 0.0200 A
 WARNING: THE DISTANCE BETWEEN TESSERAE     24 AND    180 IS 0.0060 A, LESS THAN 0.0200 A
 .... DONE WITH PCM CONTRIBUTION TO HESSIAN ....
 STEP CPU TIME =     4.07 TOTAL CPU TIME =        9.4 (    0.2 MIN)
 TOTAL WALL CLOCK TIME=        9.4 SECONDS, CPU UTILIZATION IS  99.89%

     -------------------------------------------
     COUPLED-PERTURBED CLOSED SHELL HARTREE-FOCK
     -------------------------------------------
 THE CPHF HAS     261 INDEPENDENT ORBITAL ROTATIONS.
 SOLVING FOR   18 NUCLEAR RESPONSES AND 0 ELECTRIC FIELD RESPONSES
           -FA- WILL USE      9606 WORDS,
           -TA- WILL USE     29645 WORDS,
          -FCK- WILL USE     68443 WORDS,
 -WXY- AND -YA- WILL USE     85227 WORDS,
               THERE ARE    940317 WORDS OF REPLICATED MEMORY AVAILABLE.
        TIME FOR -FA-   =        0.000
        TIME FOR -TA-   =        0.000
        TIME FOR -FCK-  =        4.660
 PRECONDITIONED CONJUGATE GRADIENT SOLVER     CONV. TOLERANCE=5.00E-05
 ITER    RESPONSE ERROR        IMPROVED
   1       3.54919E-01            18
   2       1.33256E-01            18
   3       3.00398E-02            18
   4       1.22037E-02            18
   5       2.26506E-03            18
   6       4.29886E-04            18
   7       9.38213E-05            17
   8       1.45330E-05            13
 THE CPHF HAS CONVERGED AFTER  8 ITERATIONS.
 IT REQUIRED   138 FOCK-LIKE BUILDS TO FIND THE  18 SYMMETRY UNIQUE RESPONSES.
        TIME FOR -YA-   =       28.550
 ...... DONE WITH CPHF CONTRIBUTIONS ......
 STEP CPU TIME =    33.21 TOTAL CPU TIME =       42.6 (    0.7 MIN)
 TOTAL WALL CLOCK TIME=       42.6 SECONDS, CPU UTILIZATION IS  99.95%

          ---------------
          ENERGY GRADIENT
          ---------------

 UNITS ARE HARTREE/BOHR    E'X               E'Y               E'Z 
    1 H               -0.000144479       0.000593890      -0.000008403
    2 O               -0.000028782      -0.001343880       0.000006671
    3 C                0.000065502       0.000425969       0.000000766
    4 H                0.000047227       0.000036117      -0.000080702
    5 H                0.000045557       0.000035729       0.000082299
    6 H                0.000014977       0.000252175      -0.000000631

          -------------------------------
          CARTESIAN FORCE CONSTANT MATRIX
          -------------------------------

                                   1                          2
                               H                          O         
                          X        Y        Z        X        Y        Z
  1   H            X 0.538182-0.165885 0.000075-0.546645 0.174741-0.000148
                   Y-0.165885 0.119552 0.000138 0.115196-0.095683-0.000169
                   Z 0.000075 0.000138 0.001467-0.000151-0.000170-0.002868
  2   O            X-0.546645 0.115196-0.000151 0.642521-0.141772 0.000098
                   Y 0.174741-0.095683-0.000170-0.141772 0.469455 0.000236
                   Z-0.000148-0.000169-0.002868 0.000098 0.000236 0.052978
  3   C            X 0.004726 0.051998 0.000081-0.114122-0.033506 0.000044
                   Y-0.004807-0.021030 0.000041 0.017925-0.273736-0.000072
                   Z 0.000069 0.000038-0.000214 0.000051-0.000057-0.071476
  4   H            X 0.000444-0.000132-0.001190 0.006289-0.001390-0.002107
                   Y-0.001464 0.002650-0.000364-0.019624-0.037610 0.034744
                   Z-0.000237 0.000431 0.000389-0.003048 0.004242 0.009532
  5   H            X 0.000444-0.000135 0.001185 0.006290-0.001388 0.002113
                   Y-0.001458 0.002647 0.000359-0.019626-0.037609-0.034742
                   Z 0.000239-0.000436 0.000384 0.003047-0.004249 0.009534
  6   H            X 0.002849-0.001042 0.000000 0.005666 0.003315-0.000000
                   Y-0.001128-0.008136-0.000004 0.047900-0.024818 0.000003
                   Z 0.000002-0.000002 0.000842 0.000003-0.000002 0.002298

                                   3                          4
                               C                          H         
                          X        Y        Z        X        Y        Z
  3   C            X 0.697791-0.008250-0.000185-0.125656-0.036726 0.106689
                   Y-0.008250 0.542758-0.000047-0.041738-0.085575 0.074016
                   Z-0.000185-0.000047 0.650323 0.106095 0.068978-0.257294
  4   H            X-0.125656-0.041738 0.106095 0.121807 0.048664-0.118371
                   Y-0.036726-0.085575 0.068978 0.048664 0.107296-0.085921
                   Z 0.106689 0.074016-0.257294-0.118371-0.085921 0.268934
  5   H            X-0.125704-0.041681-0.106047 0.010882 0.005934 0.015055
                   Y-0.036676-0.085592-0.068923 0.005933 0.007330 0.008638
                   Z-0.106643-0.073953-0.257254-0.015058-0.008644-0.024324
  6   H            X-0.337035 0.078551 0.000017-0.013765 0.003216-0.000088
                   Y 0.063160-0.076825 0.000011-0.011337 0.005910-0.001406
                   Z 0.000014 0.000015-0.064084 0.030631-0.008793 0.002763

                                   5                          6
                               H                          H         
                          X        Y        Z        X        Y        Z
  5   H            X 0.121852 0.048612 0.118327-0.013765-0.011341-0.030633
                   Y 0.048612 0.107313 0.085876 0.003215 0.005911 0.008791
                   Z 0.118327 0.085876 0.268896 0.000087 0.001405 0.002764
  6   H            X-0.013765 0.003215 0.000087 0.356050-0.087254-0.000016
                   Y-0.011341 0.005911 0.001405-0.087254 0.097959-0.000009
                   Z-0.030633 0.008791 0.002764-0.000016-0.000009 0.055416

          ------------------------          ----------------
          DIPOLE DERIVATIVE TENSOR          (DEBYE/ANGSTROM)
          ------------------------          ----------------

        ATOM                 MU-X           MU-Y           MU-Z
     H          D/DX     1.468343234   -0.055344955    0.000452282
                D/DY    -0.103923503    1.787830027   -0.000431686
                D/DZ     0.000052244   -0.001106052    2.348558182
     O          D/DX    -2.790579706    0.466967222   -0.000411131
                D/DY     0.096993203   -6.490094136    0.000074462
                D/DZ    -0.000331398    0.001175895   -3.907622244
     C          D/DX     2.420019102   -0.240914762   -0.000229251
                D/DY     0.030276941    5.449564118    0.001579083
                D/DZ     0.000667410    0.000652795    2.930702347
     H          D/DX    -0.067238634   -0.286616859    0.539824984
                D/DY    -0.087109972   -0.365705066    0.262457455
                D/DZ     0.544045577    0.460913412   -0.839064549
     H          D/DX    -0.066727682   -0.286384460   -0.539634096
                D/DY    -0.087419242   -0.365955046   -0.263272062
                D/DZ    -0.544190922   -0.461342203   -0.839926601
     H          D/DX    -0.963789516    0.402338061   -0.000002842
                D/DY     0.151198936   -0.015679945   -0.000407263
                D/DZ    -0.000223802   -0.000262130    0.307347694

          --------------------------------------------------------
          NORMAL COORDINATE ANALYSIS IN THE HARMONIC APPROXIMATION
          --------------------------------------------------------

     *******************************************************
     * THIS IS NOT A STATIONARY POINT ON THE MOLECULAR PES *
     *     THE VIBRATIONAL ANALYSIS IS NOT VALID !!!       *
     *******************************************************

          ATOMIC WEIGHTS (AMU)

    1     H                 1.00782
    2     O                15.99491
    3     C                12.00000
    4     H                 1.00782
    5     H                 1.00782
    6     H                 1.00782

 MODES    1 TO    6 ARE TAKEN AS ROTATIONS AND TRANSLATIONS.

 ANALYZING SYMMETRY OF NORMAL MODES...

     FREQUENCIES IN CM**-1, IR INTENSITIES IN DEBYE**2/AMU-ANGSTROM**2,
     REDUCED MASSES IN AMU.

     *******************************************************
     * THIS IS NOT A STATIONARY POINT ON THE MOLECULAR PES *
     *     THE VIBRATIONAL ANALYSIS IS NOT VALID !!!       *
     *******************************************************

                            1           2           3           4           5
       FREQUENCY:       128.73       86.73       54.18        0.01        0.01  
        SYMMETRY:         A           A           A           A           A   
    REDUCED MASS:      1.03936     2.62721     2.51934     5.33743     5.33786
    IR INTENSITY:      1.38397     0.28086     0.27826     0.00000     0.00000

  1   H            X -0.00295088  0.21800189 -0.01897458  0.16557296 -0.05991482
                   Y -0.00349355  0.19773071 -0.01703529  0.05969387  0.16623002
                   Z  0.59039364  0.01288197  0.10446727 -0.01552356  0.00040068
  2   O            X -0.00168877  0.14980457 -0.01314178  0.16557699 -0.05991131
                   Y  0.00017424 -0.00615377  0.00049804  0.05970594  0.16624048
                   Z  0.01411608  0.01369247  0.15093711 -0.01551691  0.00040090
  3   C            X  0.00179831 -0.15792080  0.01383363  0.16559456 -0.05989632
                   Y  0.00004757 -0.00597597  0.00054934  0.05970592  0.16624032
                   Z -0.04981169 -0.01400304 -0.15196020 -0.01553793  0.00039946
  4   H            X  0.38927700 -0.25164355 -0.13854898  0.16558711 -0.05989356
                   Y -0.04065883  0.08348790 -0.19902252  0.05968679  0.16623473
                   Z  0.14709030 -0.02620993 -0.32608831 -0.01555065  0.00039834
  5   H            X -0.38349028 -0.23485758  0.18126322  0.16561156 -0.05989147
                   Y  0.03836330  0.11800104  0.18121551  0.05971313  0.16623655
                   Z  0.14698884 -0.02654515 -0.32601296 -0.01555059  0.00039860
  6   H            X  0.00255193 -0.22848070  0.02007075  0.16559851 -0.05989330
                   Y  0.00245658 -0.23004830  0.02031742  0.05971828  0.16625039
                   Z -0.51563562 -0.01054837 -0.03452322 -0.01552848  0.00040036

 TRANS. SAYVETZ    X -0.00000217  0.00019210 -0.00004472  5.30307698 -1.91849988
                   Y -0.00000091  0.00035446 -0.00008041  1.91214294  5.32404018
                   Z -0.00023153  0.00015728  0.00399050 -0.49728633  0.01281633
               TOTAL  0.00023155  0.00043276  0.00399156  5.65917041  5.65917043

   ROT. SAYVETZ    X -2.75680633 -0.73039842 -7.92806204 -0.00054362 -0.00003762
                   Y -3.60158429  0.03479388  0.90136512  0.00007575  0.00000620
                   Z -0.10059579  8.59087866 -0.75300566 -0.00048965 -0.00041470
               TOTAL  4.53668492  8.62194227  8.01458947  0.00073554  0.00041645

                            6           7           8           9          10
       FREQUENCY:         0.04      269.88     1135.94     1152.02     1282.46  
        SYMMETRY:         A           A           A           A           A   
    REDUCED MASS:      5.33329     1.09470     2.58295     1.45606     1.26453
    IR INTENSITY:      0.00000     4.77360     5.42634     0.01180     0.17561

  1   H            X  0.01474900  0.00018991 -0.15992189  0.15174814 -0.00003542
                   Y  0.00489434 -0.00118045 -0.29797705  0.53656507  0.00006161
                   Z  0.17598529  0.77545449 -0.00166757  0.00125988 -0.00567331
  2   O            X  0.01474753  0.00071038 -0.00238546  0.00088150 -0.00008334
                   Y  0.00488887  0.00016025  0.15145137  0.08124079  0.00000398
                   Z  0.17591330 -0.07114324  0.00013240 -0.00008649  0.05506940
  3   C            X  0.01473863 -0.00065531  0.04240784 -0.04908160  0.00014915
                   Y  0.00488862 -0.00011581 -0.14965751 -0.12882768 -0.00007253
                   Z  0.17612576  0.01783197  0.00002687 -0.00005161 -0.11972065
  4   H            X  0.01485938 -0.27194779 -0.12818563  0.16427868  0.05115715
                   Y  0.00502500  0.06172153  0.05238697 -0.30425196  0.57537118
                   Z  0.17625382 -0.10904087 -0.01563423  0.03357022  0.16076139
  5   H            X  0.01461290  0.26933732 -0.12810121  0.16410684 -0.05165708
                   Y  0.00475890 -0.06035335  0.05304723 -0.30474667 -0.57431584
                   Z  0.17625384 -0.10898961  0.01535756 -0.03333486  0.16066967
  6   H            X  0.01473651 -0.00105087 -0.05087575  0.09028355  0.00008212
                   Y  0.00488212 -0.00135251 -0.42915979  0.31701786 -0.00031653
                   Z  0.17603079  0.35924302 -0.00047959  0.00049071  0.23574711

 TRANS. SAYVETZ    X  0.47216812  0.00000020 -0.00000057  0.00000106 -0.00000000
                   Y  0.15657388 -0.00000044 -0.00000651  0.00000511 -0.00000000
                   Z  5.63726317 -0.00010623 -0.00000259 -0.00000123  0.00000271
               TOTAL  5.65916903  0.00010623  0.00000703  0.00000536  0.00000271

   ROT. SAYVETZ    X  0.00548600  0.77509328 -0.00179666  0.00085784 -0.01053485
                   Y -0.00077109  0.48798471  0.00231351 -0.00169981 -0.00096888
                   Z  0.00024765  0.03546309  0.03126256 -0.04229229 -0.00165535
               TOTAL  0.00554545  0.91660041  0.03139949  0.04233513  0.01070804

                           11          12          13          14          15
       FREQUENCY:      1490.42     1616.84     1623.83     1640.19     3203.09  
        SYMMETRY:         A           A           A           A           A   
    REDUCED MASS:      1.29751     1.14691     1.04924     1.04846     1.03261
    IR INTENSITY:      1.74264     0.20009     0.06151     0.11494     1.50695

  1   H            X  0.16763032  0.01626219  0.00041884  0.01402378  0.00633493
                   Y  0.66475788  0.02348149  0.00118904  0.07089214 -0.00300166
                   Z  0.00157212  0.00002279 -0.00031911  0.00009055 -0.00001134
  2   O            X -0.07201109 -0.00047399 -0.00015466 -0.01436033 -0.00015278
                   Y -0.03173880 -0.01474538 -0.00029567 -0.00785356 -0.00206900
                   Z -0.00013120  0.00011187 -0.00839970  0.00003162  0.00000210
  3   C            X  0.10892563  0.02321343  0.00021376 -0.04650617 -0.01891769
                   Y -0.00166457 -0.10097429 -0.00174029 -0.03159014 -0.04266135
                   Z  0.00013745  0.00096353 -0.05908851  0.00036100 -0.00029938
  4   H            X -0.15247250 -0.25663524  0.38093877  0.42502480  0.28795828
                   Y  0.14257665  0.42757907 -0.25598438  0.32393397  0.21865162
                   Z -0.08221692  0.06465721  0.06517301  0.39829824 -0.52952234
  5   H            X -0.15170010 -0.24492762 -0.38426106  0.42965869  0.29006020
                   Y  0.14269547  0.42007571  0.27338040  0.32110664  0.22015525
                   Z  0.08198687 -0.06661180  0.05876930 -0.39912667  0.53312024
  6   H            X -0.01754768  0.21642538  0.00281289 -0.08705753 -0.35667860
                   Y -0.42649402  0.56516736  0.00682874 -0.21515340  0.10499157
                   Z -0.00089599 -0.01131701  0.71324061 -0.00406259 -0.00005600

 TRANS. SAYVETZ    X  0.00000097  0.00000052  0.00000001 -0.00000013  0.00000033
                   Y -0.00000139  0.00000025 -0.00000000 -0.00000071 -0.00000118
                   Z  0.00000034 -0.00000070 -0.00000218 -0.00000026 -0.00000070
               TOTAL  0.00000173  0.00000091  0.00000218  0.00000077  0.00000141

   ROT. SAYVETZ    X -0.00048745 -0.00071917  0.00463462 -0.00002003  0.00008347
                   Y -0.00292745 -0.00073290 -0.00158797  0.00044099  0.00004358
                   Z -0.04156000 -0.00047725  0.00043589 -0.00790397 -0.00006872
               TOTAL  0.04166583  0.00113231  0.00491847  0.00791628  0.00011657

                           16          17          18
       FREQUENCY:      3258.76     3301.15     4074.16  
        SYMMETRY:         A           A           A   
    REDUCED MASS:      1.10711     1.10368     1.06715
    IR INTENSITY:      2.67827     1.81718     2.89285

  1   H            X -0.00005464 -0.01414746  0.91417526
                   Y -0.00001855 -0.00271565 -0.31212893
                   Z  0.00331308 -0.00002881  0.00004841
  2   O            X  0.00000296  0.00160434 -0.05725982
                   Y  0.00000693 -0.00012626  0.02070495
                   Z  0.00030639 -0.00000070 -0.00000843
  3   C            X -0.00009939 -0.08853644 -0.00154944
                   Y  0.00016377  0.00768970 -0.00035489
                   Z -0.09032501  0.00017218  0.00000668
  4   H            X -0.31521098  0.09905645 -0.00005320
                   Y -0.23270577  0.08378989 -0.00332428
                   Z  0.54415648 -0.20697190 -0.00003808
  5   H            X  0.31366469  0.09793220 -0.00005076
                   Y  0.23148944  0.08290636 -0.00331304
                   Z  0.54143169  0.20496981  0.00004285
  6   H            X  0.00273736  0.84588463  0.01313235
                   Y -0.00082505 -0.25353645 -0.00561052
                   Z -0.01827937 -0.00000808  0.00000264

 TRANS. SAYVETZ    X -0.00000000 -0.00000047  0.00000008
                   Y  0.00000000  0.00000027  0.00000008
                   Z -0.00000004  0.00000007  0.00000169
               TOTAL  0.00000004  0.00000054  0.00000170

   ROT. SAYVETZ    X  0.00049124  0.00010254  0.00021449
                   Y -0.00008280  0.00002060 -0.00000864
                   Z -0.00012186 -0.00082355 -0.00626725
               TOTAL  0.00051286  0.00083017  0.00627093

 REFERENCE ON SAYVETZ CONDITIONS - A. SAYVETZ, J.CHEM.PHYS., 7, 383-389(1939).

 NOTE - THE MODES J,K ARE ORTHONORMALIZED ACCORDING TO
 SUM ON I   M(I) * (X(I,J)*X(I,K) + Y(I,J)*Y(I,K) + Z(I,J)*Z(I,K)) = DELTA(J,K)

  MODE FREQ(CM**-1)  SYMMETRY  RED. MASS  IR INTENS.
     1     128.731    A        1.039358    1.383969
     2      86.726    A        2.627214    0.280858
     3      54.184    A        2.519343    0.278262
     4       0.005    A        5.337427    0.000000
     5       0.015    A        5.337859    0.000000
     6       0.039    A        5.333291    0.000000
     7     269.877    A        1.094704    4.773597
     8    1135.936    A        2.582951    5.426344
     9    1152.021    A        1.456058    0.011803
    10    1282.458    A        1.264526    0.175612
    11    1490.425    A        1.297515    1.742638
    12    1616.841    A        1.146911    0.200092
    13    1623.826    A        1.049240    0.061514
    14    1640.194    A        1.048464    0.114935
    15    3203.094    A        1.032613    1.506947
    16    3258.758    A        1.107114    2.678273
    17    3301.148    A        1.103684    1.817181
    18    4074.155    A        1.067148    2.892846

     -------------------------------
     THERMOCHEMISTRY AT T=  298.15 K
     -------------------------------

 USING IDEAL GAS, RIGID ROTOR, HARMONIC NORMAL MODE APPROXIMATIONS.
 P=  1.01325E+05 PASCAL.
 ALL FREQUENCIES ARE SCALED BY   1.00000
 THE MOMENTS OF INERTIA ARE (IN AMU*BOHR**2)
     13.85294    71.75886    74.38619
 THE ROTATIONAL SYMMETRY NUMBER IS  1.0
 THE ROTATIONAL CONSTANTS ARE (IN GHZ)
    130.15929    25.12705    24.23956
      7 -     18 VIBRATIONAL MODES ARE USED IN THERMOCHEMISTRY.
 THE HARMONIC ZERO POINT ENERGY IS (SCALED BY   1.000)
        0.054787 HARTREE/MOLECULE    12024.366760 CM**-1/MOLECULE 
       34.379424 KCAL/MOL              143.843511 KJ/MOL

               Q               LN Q
 ELEC.     1.00000E+00       0.000000
 TRANS.    7.12381E+06      15.778953
 ROT.      3.07820E+03       8.032099
 VIB.      1.39001E+00       0.329313
 TOT.      3.04808E+10      24.140364

              E         H         G         CV        CP        S
           KJ/MOL    KJ/MOL    KJ/MOL   J/MOL-K   J/MOL-K   J/MOL-K
 ELEC.      0.000     0.000     0.000     0.000     0.000     0.000
 TRANS.     3.718     6.197   -39.115    12.472    20.786   151.979
 ROT.       3.718     3.718   -19.911    12.472    12.472    79.254
 VIB.     145.227   145.227   143.027    10.859    10.859     7.378
 TOTAL    152.664   155.143    84.001    35.802    44.117   238.610
 VIB. THERMAL CORRECTION E(T)-E(0) = H(T)-H(0) =  1383.404 J/MOL

              E         H         G         CV        CP        S
         KCAL/MOL  KCAL/MOL  KCAL/MOL CAL/MOL-K CAL/MOL-K CAL/MOL-K
 ELEC.      0.000     0.000     0.000     0.000     0.000     0.000
 TRANS.     0.889     1.481    -9.349     2.981     4.968    36.324
 ROT.       0.889     0.889    -4.759     2.981     2.981    18.942
 VIB.      34.710    34.710    34.184     2.595     2.595     1.763
 TOTAL     36.488    37.080    20.077     8.557    10.544    57.029
 VIB. THERMAL CORRECTION E(T)-E(0) = H(T)-H(0) =   330.642 CAL/MOL

     *******************************************************
     * THIS IS NOT A STATIONARY POINT ON THE MOLECULAR PES *
     *     THE VIBRATIONAL ANALYSIS IS NOT VALID !!!       *
     *******************************************************
 ......END OF NORMAL COORDINATE ANALYSIS......
 STEP CPU TIME =     0.00 TOTAL CPU TIME =       42.6 (    0.7 MIN)
 TOTAL WALL CLOCK TIME=       42.6 SECONDS, CPU UTILIZATION IS  99.95%

             ----------------------------------------------
             -------   RESULTS OF SMD CALCULATION   -------
             ----------------------------------------------
 INTERNAL ENERGY IN SOLVENT = <PSI| H(0) |PSI>       =     -115.0333064604 A.U.
 TOTAL ENERGY IN SOLVENT = <PSI| H(0)+V/2 |PSI>      =     -115.0480110792 A.U.
 ELECTROSTATIC INTERACTION <PSI| V/2 |PSI>           =       -0.0147046188 A.U.
 CDS INTERACTION                                     =        0.0039562128 A.U.
 TOTAL FREE ENERGY IN SOLVENT                        =     -115.0440548664 A.U.

 ELECTROSTATIC INTERACTION    =          -9.23 KCAL/MOL
 CDS INTERACTION              =           2.48 KCAL/MOL

 .... DONE PRINTING SMD SOLVENT SUMMARY ....
 STEP CPU TIME =     0.00 TOTAL CPU TIME =       42.6 (    0.7 MIN)
 TOTAL WALL CLOCK TIME=       42.6 SECONDS, CPU UTILIZATION IS  99.95%
               580000  WORDS OF DYNAMIC MEMORY USED
 EXECUTION OF GAMESS TERMINATED NORMALLY Wed Aug  9 20:26:54 2017
 DDI: 263640 bytes (0.3 MB / 0 MWords) used by master data server.

 ----------------------------------------
 CPU timing information for all processes
 ========================================
 0: 42.612 + 0.29 = 42.642
 ----------------------------------------
 ddikick.x: exited gracefully.
unset echo
----- accounting info -----
Files used on the master node compute-0-1.local were:
-rw-rw-r-- 1 sarom sarom 1.5K Aug  9 20:26 /scratch/smd-rhf-hess.F05
-rw-rw-r-- 1 sarom sarom 2.8M Aug  9 20:26 /scratch/smd-rhf-hess.F08
-rw-rw-r-- 1 sarom sarom 1.9M Aug  9 20:26 /scratch/smd-rhf-hess.F10
-rw-rw-r-- 1 sarom sarom 105K Aug  9 20:26 /scratch/smd-rhf-hess.F18
-rw-rw-r-- 1 sarom sarom    8 Aug  9 20:26 /scratch/smd-rhf-hess.F26
-rw-rw-r-- 1 sarom sarom    0 Aug  9 20:26 /scratch/smd-rhf-hess.F27
rm: No match.
ls: No match.
ls: No match.
ls: No match.
Wed Aug  9 20:26:57 CDT 2017
0.256u 0.167s 0:46.15 0.8%	0+0k 8+368io 0pf+0w
/opt/gridengine/default/spool/compute-0-1/active_jobs/35837.1/pe_hostfile compute-0-1.local
