-catch_rsh /opt/gridengine/default/spool/compute-1-2/active_jobs/35833.1/pe_hostfile
compute-1-2
The primary node assigned by SGE to this run is compute-1-2
Warning: no access to tty (Bad file descriptor).
Thus no job control in this shell.
source /home/sarom/dir.git.branch.saromleang-travis-ci/install.info
setenv GMS_PATH /home/sarom/dir.git.branch.saromleang-travis-ci
setenv GMS_BUILD_DIR /home/sarom/dir.git.branch.saromleang-travis-ci
setenv GMS_TARGET linux64
setenv GMS_FORTRAN gfortran
setenv GMS_GFORTRAN_VERNO 4.4
setenv GMS_MATHLIB mkl-so
setenv GMS_MATHLIB none
setenv GMS_MATHLIB_PATH /share/apps/intel/compilers_and_libraries_2017.1.132/linux/mkl/lib/intel64
setenv GMS_MKL_VERNO 12
setenv GMS_DDI_COMM sockets
setenv GMS_LIBCCHEM false
setenv GMS_EIGEN_PATH
setenv GMS_PHI false
setenv GMS_SHMTYPE sysv
setenv GMS_OPENMP false
unset echo
smd-rdft-grad
/home/sarom/dir.git.branch.saromleang-travis-ci/tests/solvent/mnsol/parallel
----- GAMESS execution script 'rungms' -----
This job is running on host compute-1-2.local
under operating system Linux at Wed Aug 9 20:23:56 CDT 2017
Available scratch disk space (Kbyte units) at beginning of the job is
Filesystem           1K-blocks      Used Available Use% Mounted on
/dev/sda1             16126920   9109424   6198296  60% /
GAMESS temporary binary files will be written to /scratch
GAMESS supplementary output files will be written to /home/sarom/restart
Copying input file smd-rdft-grad.inp to your run's scratch directory...
cp /home/sarom/dir.git.branch.saromleang-travis-ci/tests/solvent/mnsol/parallel/smd-rdft-grad.inp /scratch/smd-rdft-grad.F05
unset echo
The generated host list is
compute-1-2.local
/home/sarom/dir.git.branch.saromleang-travis-ci/ddikick.x /home/sarom/dir.git.branch.saromleang-travis-ci/gamess.00.x smd-rdft-grad -ddi 1 1 compute-1-2.local -scr /scratch

 Distributed Data Interface kickoff program.
 Initiating 1 compute processes on 1 nodes to run the following command:
 /home/sarom/dir.git.branch.saromleang-travis-ci/gamess.00.x smd-rdft-grad 

          ******************************************************
          *         GAMESS VERSION = 20 APR 2017 (R1)          *
          *             FROM IOWA STATE UNIVERSITY             *
          * M.W.SCHMIDT, K.K.BALDRIDGE, J.A.BOATZ, S.T.ELBERT, *
          *   M.S.GORDON, J.H.JENSEN, S.KOSEKI, N.MATSUNAGA,   *
          *          K.A.NGUYEN, S.J.SU, T.L.WINDUS,           *
          *       TOGETHER WITH M.DUPUIS, J.A.MONTGOMERY       *
          *         J.COMPUT.CHEM.  14, 1347-1363(1993)        *
          **************** 64 BIT LINUX VERSION ****************

  SINCE 1993, STUDENTS AND POSTDOCS WORKING AT IOWA STATE UNIVERSITY
  AND ALSO IN THEIR VARIOUS JOBS AFTER LEAVING ISU HAVE MADE IMPORTANT
  CONTRIBUTIONS TO THE CODE:
     IVANA ADAMOVIC, CHRISTINE AIKENS, YURI ALEXEEV, POOJA ARORA,
     ANDREY ASADCHEV, ROB BELL, PRADIPTA BANDYOPADHYAY, JONATHAN BENTZ,
     BRETT BODE, KURT BRORSEN, CALEB CARLIN, GALINA CHABAN, WEI CHEN,
     CHEOL HO CHOI, PAUL DAY, ALBERT DEFUSCO, NUWAN DESILVA, TIM DUDLEY,
     DMITRI FEDOROV, GRAHAM FLETCHER, MARK FREITAG, KURT GLAESEMANN,
     DAN KEMP, GRANT MERRILL, NORIYUKI MINEZAWA, JONATHAN MULLIN,
     TAKESHI NAGATA, SEAN NEDD, HEATHER NETZLOFF, BOSILJKA NJEGIC, RYAN OLSON,
     MIKE PAK, SPENCER PRUITT, LUKE ROSKOP, JIM SHOEMAKER, LYUDMILA SLIPCHENKO,
     TONY SMITH, SAROM SOK LEANG, JIE SONG, TETSUYA TAKETSUGU, SIMON WEBB,
     PENG XU, SOOHAENG YOO, FEDERICO ZAHARIEV

  ADDITIONAL CODE HAS BEEN PROVIDED BY COLLABORATORS IN OTHER GROUPS:
     IOWA STATE UNIVERSITY:
          JOE IVANIC, AARON WEST, LAIMUTIS BYTAUTAS, KLAUS RUEDENBERG
     UNIVERSITY OF TOKYO: KIMIHIKO HIRAO, TAKAHITO NAKAJIMA,
          TAKAO TSUNEDA, MUNEAKI KAMIYA, SUSUMU YANAGISAWA,
          KIYOSHI YAGI, MAHITO CHIBA, SEIKEN TOKURA, NAOAKI KAWAKAMI
     UNIVERSITY OF AARHUS: FRANK JENSEN
     UNIVERSITY OF IOWA: VISVALDAS KAIRYS, HUI LI
     NATIONAL INST. OF STANDARDS AND TECHNOLOGY: WALT STEVENS, DAVID GARMER
     UNIVERSITY OF PISA: BENEDETTA MENNUCCI, JACOPO TOMASI
     UNIVERSITY OF MEMPHIS: HENRY KURTZ, PRAKASHAN KORAMBATH
     UNIVERSITY OF ALBERTA: TOBY ZENG, MARIUSZ KLOBUKOWSKI
     UNIVERSITY OF NEW ENGLAND: MARK SPACKMAN
     MIE UNIVERSITY: HIROAKI UMEDA
     NAT. INST. OF ADVANCED INDUSTRIAL SCIENCE AND TECHNOLOGY: KAZUO KITAURA
     MICHIGAN STATE UNIVERSITY:
          KAROL KOWALSKI, MARTA WLOCH, JEFFREY GOUR, JESSE LUTZ,
          WEI LI, PIOTR PIECUCH
     UNIVERSITY OF SILESIA: MONIKA MUSIAL, STANISLAW KUCHARSKI
     FACULTES UNIVERSITAIRES NOTRE-DAME DE LA PAIX:
          OLIVIER QUINET, BENOIT CHAMPAGNE
     UNIVERSITY OF CALIFORNIA - SANTA BARBARA: BERNARD KIRTMAN
     INSTITUTE FOR MOLECULAR SCIENCE:
          KAZUYA ISHIMURA, MICHIO KATOUDA, AND SHIGERU NAGASE
     UNIVERSITY OF NOTRE DAME: ANNA POMOGAEVA, DAN CHIPMAN
     KYUSHU UNIVERSITY:
          HARUYUKI NAKANO,
          FENG LONG GU, JACEK KORCHOWIEC, MARCIN MAKOWSKI, AND YURIKO AOKI,
          HIROTOSHI MORI AND EISAKU MIYOSHI
     PENNSYLVANIA STATE UNIVERSITY:
          TZVETELIN IORDANOV, CHET SWALINA, JONATHAN SKONE,
          SHARON HAMMES-SCHIFFER
     WASEDA UNIVERSITY:
          MASATO KOBAYASHI, TOMOKO AKAMA, TSUGUKI TOUMA,
          TAKESHI YOSHIKAWA, YASUHIRO IKABATA, JUNJI SEINO,
          YUYA NAKAJIMA, HIROMI NAKAI
     NANJING UNIVERSITY: SHUHUA LI
     UNIVERSITY OF NEBRASKA:
          PEIFENG SU, DEJUN SI, NANDUN THELLAMUREGE, YALI WANG, HUI LI
     UNIVERSITY OF ZURICH: ROBERTO PEVERATI, KIM BALDRIDGE
     N. COPERNICUS UNIVERSITY AND JACKSON STATE UNIVERSITY:
          MARIA BARYSZ
     UNIVERSITY OF COPENHAGEN: Jimmy Kromann, CASPER STEINMANN
     TOKYO INSTITUTE OF TECHNOLOGY: HIROYA NAKATA
     NAGOYA UNIVERSITY: YOSHIO NISHIMOTO, STEPHAN IRLE
     MOSCOW STATE UNIVERSITY: VLADIMIR MIRONOV

 EXECUTION OF GAMESS BEGUN Wed Aug  9 20:23:56 2017

            ECHO OF THE FIRST FEW INPUT CARDS -
 INPUT CARD>!  gradient of protonated methanol in water.  SMD/IEF-PCM using M06-2X          
 INPUT CARD>!  the older GEPOL-AS tesselation is used.                                      
 INPUT CARD>!                                                                               
 INPUT CARD>!  FINAL R-M06-2X E= -116.0796919841, 14 iters, RMS gradient= 0.006617551       
 INPUT CARD>!                                                                               
 INPUT CARD>!  This run takes 41 seconds on 2.66 GHz Cloverton (22 Oct 2015)                
 INPUT CARD>!                                                                               
 INPUT CARD>!  -----------------------------------------                                    
 INPUT CARD>!  an older grid optimization run did this,                                     
 INPUT CARD>!  nserch= 0: F.NAL R-M06-2X E= -116.0796890359, r.m.s. GRAD= 0.0065461         
 INPUT CARD>!  nserch= 1: F.NAL R-M06-2X E= -116.0788865637, r.m.s. GRAD= 0.0099331         
 INPUT CARD>!  nserch= 2: F.NAL R-M06-2X E= -116.0813393826, r.m.s. GRAD= 0.0021451         
 INPUT CARD>!  nserch= 3: F.NAL R-M06-2X E= -116.0812179938, r.m.s. GRAD= 0.0027731         
 INPUT CARD>!  nserch= 4: F.NAL R-M06-2X E= -116.0814725036, r.m.s. GRAD= 0.0002857         
 INPUT CARD>!  nserch= 5: F.NAL R-M06-2X E= -116.0814791598, r.m.s. GRAD= 0.0003495         
 INPUT CARD>!  nserch= 6: F.NAL R-M06-2X E= -116.0814907060, r.m.s. GRAD= 0.0000844  <---   
 INPUT CARD>!  nserch= 7: F.NAL R-M06-2X E= -116.0814827743, r.m.s. GRAD= 0.0000532         
 INPUT CARD>!  nserch= 8: F.NAL R-M06-2X E= -116.0814839085, r.m.s. GRAD= 0.0000278         
 INPUT CARD>!  nserch= 9: F.NAL R-M06-2X E= -116.0814849624, r.m.s. GRAD= 0.0000319         
 INPUT CARD>!  nserch=10: F.NAL R-M06-2X E= -116.0814845932, r.m.s. GRAD= 0.0000044         
 INPUT CARD>!  nserch=11: F.NAL R-M06-2X E= -116.0814847272, r.m.s. GRAD= 0.0000052         
 INPUT CARD>!  nserch=12: F.NAL R-M06-2X E= -116.0814847580, r.m.s. GRAD= 0.0000018         
 INPUT CARD>!  Note that the lowest energy occurs at the 6th step, not the end.             
 INPUT CARD>!  Switching to C-PCM and using FIXPVA tessalation cures that problem.          
 INPUT CARD>!                                                                               
 INPUT CARD> $CONTRL SCFTYP=RHF dfttyp=m06-2x icharg=+1 RUNTYP=gradient ispher=1 $end       
 INPUT CARD> $system mwords=1 $end                                                          
 INPUT CARD> $BASIS  GBASIS=N31 NGAUSS=6 NDFUNC=1 $END                                      
 INPUT CARD> $statpt opttol=1d-5 $end                                                       
 INPUT CARD>                                                                                
 INPUT CARD> $PCM    SOLVNT=WATER SMD=.T. IEF=-3 $END                                       
 INPUT CARD> $TESCAV MTHALL=2 NTSALL=240 $END                                               
 INPUT CARD>                                                                                
 INPUT CARD>x$pcm    ief=-10 $end                                                           
 INPUT CARD>x$tescav mthall=4 $end                                                          
 INPUT CARD>                                                                                
 INPUT CARD> $DATA                                                                          
 INPUT CARD>SMD/M06-2X/6-31G(d) optimization - protonated methanol CH3OH2+ in water         
 INPUT CARD>C1                                                                              
 INPUT CARD>H         1   -0.996782    1.138765    0.000000                                 
 INPUT CARD>C         6    0.038330    0.800183    0.000000                                 
 INPUT CARD>O         8    0.038330   -0.725816    0.000000                                 
 INPUT CARD>H         1    0.585508    1.066678    0.901842                                 
 INPUT CARD>H         1    0.585508    1.066678   -0.901842                                 
 INPUT CARD>H         1   -0.355429   -1.133347   -0.803114                                 
 INPUT CARD>H         1   -0.355429   -1.133347    0.803114                                 
 INPUT CARD> $END                                                                           
    1000000 WORDS OF MEMORY AVAILABLE

     BASIS OPTIONS
     -------------
     GBASIS=N31          IGAUSS=       6      POLAR=POPN31  
     NDFUNC=       1     NFFUNC=       0     DIFFSP=       F
     NPFUNC=       0      DIFFS=       F     BASNAM=        


     RUN TITLE
     ---------
 SMD/M06-2X/6-31G(d) optimization - protonated methanol CH3OH2+ in water         

 THE POINT GROUP OF THE MOLECULE IS C1      
 THE ORDER OF THE PRINCIPAL AXIS IS     0

 ATOM      ATOMIC                      COORDINATES (BOHR)
           CHARGE         X                   Y                   Z
 H           1.0    -1.8836448495        2.1519538144        0.0000000000
 C           6.0     0.0724331971        1.5121266100        0.0000000000
 O           8.0     0.0724331971       -1.3715933575        0.0000000000
 H           1.0     1.1064496836        2.0157291371        1.7042342642
 H           1.0     1.1064496836        2.0157291371       -1.7042342642
 H           1.0    -0.6716634181       -2.1417152790       -1.5176653969
 H           1.0    -0.6716634181       -2.1417152790        1.5176653969

          INTERNUCLEAR DISTANCES (ANGS.)
          ------------------------------

                1 H          2 C          3 O          4 H          5 H     

   1 H       0.0000000    1.0890797 *  2.1326320 *  1.8226786 *  1.8226786 *
   2 C       1.0890797 *  0.0000000    1.5259990 *  1.0879992 *  1.0879992 *
   3 O       2.1326320 *  1.5259990 *  0.0000000    2.0798455 *  2.0798455 *
   4 H       1.8226786 *  1.0879992 *  2.0798455 *  0.0000000    1.8036840 *
   5 H       1.8226786 *  1.0879992 *  2.0798455 *  1.8036840 *  0.0000000  
   6 H       2.4937559 *  2.1303935 *  0.9829139 *  2.9380857 *  2.3948319 *
   7 H       2.4937559 *  2.1303935 *  0.9829139 *  2.3948319 *  2.9380857 *

                6 H          7 H     

   1 H       2.4937559 *  2.4937559 *
   2 C       2.1303935 *  2.1303935 *
   3 O       0.9829139 *  0.9829139 *
   4 H       2.9380857 *  2.3948319 *
   5 H       2.3948319 *  2.9380857 *
   6 H       0.0000000    1.6062280 *
   7 H       1.6062280 *  0.0000000  

  * ... LESS THAN  3.000


     ATOMIC BASIS SET
     ----------------
 THE CONTRACTED PRIMITIVE FUNCTIONS HAVE BEEN UNNORMALIZED
 THE CONTRACTED BASIS FUNCTIONS ARE NOW NORMALIZED TO UNITY

  SHELL TYPE  PRIMITIVE        EXPONENT          CONTRACTION COEFFICIENT(S)

 H         

      1   S       1            18.7311370    0.033494604338
      1   S       2             2.8253944    0.234726953484
      1   S       3             0.6401217    0.813757326146

      2   S       4             0.1612778    1.000000000000

 C         

      3   S       5          3047.5248800    0.001834737132
      3   S       6           457.3695180    0.014037322813
      3   S       7           103.9486850    0.068842622264
      3   S       8            29.2101553    0.232184443216
      3   S       9             9.2866630    0.467941348435
      3   S      10             3.1639270    0.362311985337

      4   L      11             7.8682723   -0.119332419775    0.068999066591
      4   L      12             1.8812885   -0.160854151696    0.316423960957
      4   L      13             0.5442493    1.143456437840    0.744308290898

      5   L      14             0.1687145    1.000000000000    1.000000000000

      6   D      15             0.8000000    1.000000000000

 O         

      7   S      16          5484.6716600    0.001831074430
      7   S      17           825.2349460    0.013950172200
      7   S      18           188.0469580    0.068445078098
      7   S      19            52.9645000    0.232714335992
      7   S      20            16.8975704    0.470192897984
      7   S      21             5.7996353    0.358520852987

      8   L      22            15.5396162   -0.110777549525    0.070874268231
      8   L      23             3.5999336   -0.148026262701    0.339752839147
      8   L      24             1.0137618    1.130767015354    0.727158577316

      9   L      25             0.2700058    1.000000000000    1.000000000000

     10   D      26             0.8000000    1.000000000000

 H         

     11   S      27            18.7311370    0.033494604338
     11   S      28             2.8253944    0.234726953484
     11   S      29             0.6401217    0.813757326146

     12   S      30             0.1612778    1.000000000000

 H         

     13   S      31            18.7311370    0.033494604338
     13   S      32             2.8253944    0.234726953484
     13   S      33             0.6401217    0.813757326146

     14   S      34             0.1612778    1.000000000000

 H         

     15   S      35            18.7311370    0.033494604338
     15   S      36             2.8253944    0.234726953484
     15   S      37             0.6401217    0.813757326146

     16   S      38             0.1612778    1.000000000000

 H         

     17   S      39            18.7311370    0.033494604338
     17   S      40             2.8253944    0.234726953484
     17   S      41             0.6401217    0.813757326146

     18   S      42             0.1612778    1.000000000000

 TOTAL NUMBER OF BASIS SET SHELLS             =   18
 NUMBER OF CARTESIAN GAUSSIAN BASIS FUNCTIONS =   40
 NOTE: THIS RUN WILL RESTRICT THE MO VARIATION SPACE TO SPHERICAL HARMONICS.
 THE NUMBER OF ORBITALS KEPT IN THE VARIATIONAL SPACE WILL BE PRINTED LATER.
 NUMBER OF ELECTRONS                          =   18
 CHARGE OF MOLECULE                           =    1
 SPIN MULTIPLICITY                            =    1
 NUMBER OF OCCUPIED ORBITALS (ALPHA)          =    9
 NUMBER OF OCCUPIED ORBITALS (BETA )          =    9
 TOTAL NUMBER OF ATOMS                        =    7
 THE NUCLEAR REPULSION ENERGY IS       45.4778103730

     LEBEDEV GRID-BASED DFT OPTIONS
     ------------------------------
     DFTTYP=M06-2X  
     NRAD  =      99     NLEB  =     590
     NRAD0 =      24     NLEB0 =     110
     SWOFF =    5.00E-03 (PURE SCF -> DFT)
     SWITCH=    3.00E-04 (COARSE -> TIGHT GRID)
     THRESH=    0.00E+00 GTHRE=    1.00E+00

 GRIMME'S EMPIRICAL DISPERSION CORRECTION= F

     $CONTRL OPTIONS
     ---------------
 SCFTYP=RHF          RUNTYP=GRADIENT     EXETYP=RUN     
 MPLEVL=       0     CITYP =NONE         CCTYP =NONE         VBTYP =NONE    
 DFTTYP=M06-2X       TDDFT =NONE    
 MULT  =       1     ICHARG=       1     NZVAR =       0     COORD =UNIQUE  
 PP    =NONE         RELWFN=NONE         LOCAL =NONE         NUMGRD=       F
 ISPHER=       1     NOSYM =       0     MAXIT =      30     UNITS =ANGS    
 PLTORB=       F     MOLPLT=       F     AIMPAC=       F     FRIEND=        
 NPRINT=       7     IREST =       0     GEOM  =INPUT   
 NORMF =       0     NORMP =       0     ITOL  =      20     ICUT  =       9
 INTTYP=BEST         GRDTYP=BEST         QMTTOL= 1.0E-06

     $SYSTEM OPTIONS
     ---------------
  REPLICATED MEMORY=     1000000 WORDS (ON EVERY NODE).
 DISTRIBUTED MEMDDI=           0 MILLION WORDS IN AGGREGATE,
 MEMDDI DISTRIBUTED OVER   1 PROCESSORS IS           0 WORDS/PROCESSOR.
 TOTAL MEMORY REQUESTED ON EACH PROCESSOR=     1000000 WORDS.
 TIMLIM=      525600.00 MINUTES, OR     365.0 DAYS.
 PARALL= F  BALTYP=  DLB     KDIAG=    0  COREFL= F
 MXSEQ2=     300 MXSEQ3=     150  mem10=         0

     -----------------------------------
     INPUT FOR PCM SOLVATION CALCULATION 
     -----------------------------------
     IEF   =      -3
     ICOMP =       0     IFIELD=       0     ICAV  =       0
     IDISP =       0     IREP  =       0     IDP   =       0

     SOLVNT=WATER        EPS   = 78.3550     EPSINF=  1.7778
     VMOL  =  0.0000     TCE   =  0.00000000 STEN  =  0.0000
     DSTEN =  0.0000     CMF   =  0.0000     RSOLV =  0.0000

     NESFP =       0
     OMEGA = 40.0000     RET   =100.0000     FRO   =  0.7000

     TABS  =298.0000     IPRINT=       0

     ----------------------------------
     INPUT FOR ITERATIVE IEF-PCM METHOD 
     ----------------------------------
     IPCMIT  =         1     MXDIIS  =        50
     MXITR1  =        50     MXITR2  =        50
     THRES   = 0.100E-09     IMUL    =         3
     RCUT(1) =   15.0000     RCUT(2) =   30.0000

     IDIRCT  =         1
     IMGABI  =         0     RABI    =    4.0000
     IMGASC  =         0     RASC    =   20.0000
     THRSLS  = 0.500E-03     DENSLS  =    0.0100
     IEFPOL  =         1     REFPOL  =    0.0000

     ---------------------------------
     INPUT FOR AQUEOUS SMD CALCULATION 
     ---------------------------------
     EPS   = 78.3550

     INPUT FOR ISOTROPIC DIELECTRICS
     -------------------------------
     EPS=    78.36

     INPUT FOR CAVITY DEFINITION 
     ---------------------------
   ATOM               COORDINATES                RADIUS       EPS
      1     -0.9968      1.1388      0.0000      1.2000     78.3550
      2      0.0383      0.8002      0.0000      1.8500     78.3550
      3      0.0383     -0.7258      0.0000      1.5200     78.3550
      4      0.5855      1.0667      0.9018      1.2000     78.3550
      5      0.5855      1.0667     -0.9018      1.2000     78.3550
      6     -0.3554     -1.1333     -0.8031      1.2000     78.3550
      7     -0.3554     -1.1333      0.8031      1.2000     78.3550

     ----------------------------
     INPUT FOR TESSERA DEFINITION
     ----------------------------
     NTSALL  =       240     MTHALL  =         2
     MTHAUT  =         0     AUTFRE  =    2.0000
     NTSFRZ  =        60     KEEPSM  =         0
     AREAKP  =   10.0000     BONDRY  =    1.0000
     AREATL  =    0.0100

     SPHERE     INITS       METHOD
          1       240     GEPOL-AS
          2       240     GEPOL-AS
          3       240     GEPOL-AS
          4       240     GEPOL-AS
          5       240     GEPOL-AS
          6       240     GEPOL-AS
          7       240     GEPOL-AS

     -----------------------------
     INPUT FOR PCM GRADIENT METHOD
     -----------------------------
     IPCDER  =         2     IFAST   =         0
     VARIABLE-TESSERA-NUMBER GRADIENT EQUATIONS
  

 PCM DIMENSIONS: MXSP=  2000, MXTS=      1680, MEMORY=         64963

          ----------------
          PROPERTIES INPUT
          ----------------

     MOMENTS            FIELD           POTENTIAL          DENSITY
 IEMOM =       1   IEFLD =       0   IEPOT =       0   IEDEN =       0
 WHERE =COMASS     WHERE =NUCLEI     WHERE =NUCLEI     WHERE =NUCLEI  
 OUTPUT=BOTH       OUTPUT=BOTH       OUTPUT=BOTH       OUTPUT=BOTH    
 IEMINT=       0   IEFINT=       0                     IEDINT=       0
                                                       MORB  =       0
          EXTRAPOLATION IN EFFECT
          DIIS IN EFFECT
 ORBITAL PRINTING OPTION: NPREO=     1    40     2     1

     -------------------------------
     INTEGRAL TRANSFORMATION OPTIONS
     -------------------------------
     NWORD  =            0
     CUTOFF = 1.0E-09     MPTRAN =       0
     DIRTRF =       F     AOINTS =DUP     

          ----------------------
          INTEGRAL INPUT OPTIONS
          ----------------------
 NOPK  =       1 NORDER=       0 SCHWRZ=       T

     ------------------------------------------
     THE POINT GROUP IS C1 , NAXIS= 1, ORDER= 1
     ------------------------------------------

 -- VARIATIONAL SPACE WILL BE RESTRICTED TO PURE SPHERICAL HARMONICS ONLY --
 AFTER EXCLUDING CONTAMINANT COMBINATIONS FROM THE CARTESIAN GAUSSIAN BASIS
 SET, THE NUMBER OF SPHERICAL HARMONICS KEPT IN THE VARIATION SPACE IS   38

     DIMENSIONS OF THE SYMMETRY SUBSPACES ARE
 A   =   38

 ..... DONE SETTING UP THE RUN .....
 STEP CPU TIME =     0.02 TOTAL CPU TIME =        0.0 (    0.0 MIN)
 TOTAL WALL CLOCK TIME=        0.0 SECONDS, CPU UTILIZATION IS  66.67%

                    --------------------------------
                    SINGLE POINT ENERGY AND GRADIENT
                    --------------------------------

          ********************
          1 ELECTRON INTEGRALS
          ********************
 ...... END OF ONE-ELECTRON INTEGRALS ......
 STEP CPU TIME =     0.00 TOTAL CPU TIME =        0.0 (    0.0 MIN)
 TOTAL WALL CLOCK TIME=        0.0 SECONDS, CPU UTILIZATION IS  66.67%

          -------------
          GUESS OPTIONS
          -------------
          GUESS =HUCKEL            NORB  =       0          NORDER=       0
          MIX   =       F          PRTMO =       F          PUNMO =       F
          TOLZ  = 1.0E-08          TOLE  = 1.0E-05
          SYMDEN=       F          PURIFY=       F

 INITIAL GUESS ORBITALS GENERATED BY HUCKEL   ROUTINE.
 HUCKEL GUESS REQUIRES     17646 WORDS.

 STATISTICS FOR GENERATION OF SYMMETRY ORBITAL -Q- MATRIX
 NUMBER OF CARTESIAN ATOMIC ORBITALS=         40
 NUMBER OF SPHERICAL CONTAMINANTS DROPPED=     2
 NUMBER OF LINEARLY DEPENDENT MOS DROPPED=     0
 TOTAL NUMBER OF MOS IN VARIATION SPACE=      38

 SYMMETRIES FOR INITIAL GUESS ORBITALS FOLLOW.   BOTH SET(S).
     9 ORBITALS ARE OCCUPIED (    2 CORE ORBITALS).
     3=A        4=A        5=A        6=A        7=A        8=A        9=A   
    10=A       11=A       12=A       13=A       14=A       15=A       16=A   
    17=A       18=A       19=A   
 ...... END OF INITIAL ORBITAL SELECTION ......
 STEP CPU TIME =     0.00 TOTAL CPU TIME =        0.0 (    0.0 MIN)
 TOTAL WALL CLOCK TIME=        0.0 SECONDS, CPU UTILIZATION IS  66.67%

                    ----------------------
                    AO INTEGRAL TECHNOLOGY
                    ----------------------
     S,P,L SHELL ROTATED AXIS INTEGRALS, REPROGRAMMED BY
        KAZUYA ISHIMURA (IMS) AND JOSE SIERRA (SYNSTAR).
     S,P,D,L SHELL ROTATED AXIS INTEGRALS PROGRAMMED BY
        KAZUYA ISHIMURA (INSTITUTE FOR MOLECULAR SCIENCE).
     S,P,D,F,G SHELL TO TOTAL QUARTET ANGULAR MOMENTUM SUM 5,
        ERIC PROGRAM BY GRAHAM FLETCHER (ELORET AND NASA ADVANCED
        SUPERCOMPUTING DIVISION, AMES RESEARCH CENTER).
     S,P,D,F,G,L SHELL GENERAL RYS QUADRATURE PROGRAMMED BY
        MICHEL DUPUIS (PACIFIC NORTHWEST NATIONAL LABORATORY).

          --------------------
          2 ELECTRON INTEGRALS
          --------------------

 THE -PK- OPTION IS OFF, THE INTEGRALS ARE NOT IN SUPERMATRIX FORM.
 STORING   15000 INTEGRALS/RECORD ON DISK, USING 12 BYTES/INTEGRAL.
 TWO ELECTRON INTEGRAL EVALUATION REQUIRES   90567 WORDS OF MEMORY.
 SCHWARZ INEQUALITY OVERHEAD:       820 INTEGRALS, T=        0.00
 II,JST,KST,LST =  1  1  1  1 NREC =         1 INTLOC =    1
 II,JST,KST,LST =  2  1  1  1 NREC =         1 INTLOC =    2
 II,JST,KST,LST =  3  1  1  1 NREC =         1 INTLOC =    7
 II,JST,KST,LST =  4  1  1  1 NREC =         1 INTLOC =   22
 II,JST,KST,LST =  5  1  1  1 NREC =         1 INTLOC =  232
 II,JST,KST,LST =  6  1  1  1 NREC =         1 INTLOC =  960
 II,JST,KST,LST =  7  1  1  1 NREC =         1 INTLOC = 3802
 II,JST,KST,LST =  8  1  1  1 NREC =         1 INTLOC = 4988
 II,JST,KST,LST =  9  1  1  1 NREC =         1 INTLOC =11339
 II,JST,KST,LST = 10  1  1  1 NREC =         2 INTLOC = 6670
 II,JST,KST,LST = 11  1  1  1 NREC =         4 INTLOC = 1213
 II,JST,KST,LST = 12  1  1  1 NREC =         5 INTLOC = 4152
 II,JST,KST,LST = 13  1  1  1 NREC =         6 INTLOC = 8789
 II,JST,KST,LST = 14  1  1  1 NREC =         8 INTLOC =    4
 II,JST,KST,LST = 15  1  1  1 NREC =         9 INTLOC = 8124
 II,JST,KST,LST = 16  1  1  1 NREC =        11 INTLOC = 3408
 II,JST,KST,LST = 17  1  1  1 NREC =        13 INTLOC =  830
 II,JST,KST,LST = 18  1  1  1 NREC =        15 INTLOC =  254
 SCHWARZ INEQUALITY TEST SKIPPED          91 INTEGRAL BLOCKS.
 TOTAL NUMBER OF NONZERO TWO-ELECTRON INTEGRALS =              242047
         17 INTEGRAL RECORDS WERE STORED ON DISK FILE  8.
  ...... END OF TWO-ELECTRON INTEGRALS .....
 STEP CPU TIME =     0.05 TOTAL CPU TIME =        0.1 (    0.0 MIN)
 TOTAL WALL CLOCK TIME=        0.1 SECONDS, CPU UTILIZATION IS  87.50%

          -------------------------------------
          ---- POLARISABLE CONTINUUM MODEL ----
          ----      UNIVERSITY OF PISA     ----
          -------------------------------------

     ----------------------------
     INPUT FOR TESSERA DEFINITION
     ----------------------------
     NTSALL  =       240     MTHALL  =         2
     MTHAUT  =         0     AUTFRE  =    2.0000
     NTSFRZ  =        60     KEEPSM  =         0
     AREAKP  =   10.0000     BONDRY  =    1.0000
     AREATL  =    0.0100

     SPHERE     INITS       METHOD
          1       240     GEPOL-AS
          2       240     GEPOL-AS
          3       240     GEPOL-AS
          4       240     GEPOL-AS
          5       240     GEPOL-AS
          6       240     GEPOL-AS
          7       240     GEPOL-AS

     INPUT FOR CAVITY DEFINITION 
     ---------------------------
   ATOM               COORDINATES                RADIUS       EPS
      1     -0.9968      1.1388      0.0000      1.2000     78.3550
      2      0.0383      0.8002      0.0000      1.8500     78.3550
      3      0.0383     -0.7258      0.0000      1.5200     78.3550
      4      0.5855      1.0667      0.9018      1.2000     78.3550
      5      0.5855      1.0667     -0.9018      1.2000     78.3550
      6     -0.3554     -1.1333     -0.8031      1.2000     78.3550
      7     -0.3554     -1.1333      0.8031      1.2000     78.3550

 MEMORY USED TO GENERATE CAVITY=    391282

 DONE WITH AREA SCALING.
 STEP CPU TIME =     0.01 TOTAL CPU TIME =        0.1 (    0.0 MIN)
 TOTAL WALL CLOCK TIME=        0.1 SECONDS, CPU UTILIZATION IS  88.89%

 TOTAL NUMBER OF SPHERES=     7
 SPHERE           CENTER  (X,Y,Z) (A)               RADIUS (A)      AREA(A*A)
     1  -0.996782000   1.138765000   0.000000000   1.200000000   6.290984472
     2   0.038330000   0.800183000   0.000000000   1.850000000  20.319517498
     3   0.038330000  -0.725816000   0.000000000   1.520000000   7.908920780
     4   0.585508000   1.066678000   0.901842000   1.200000000   6.280096090
     5   0.585508000   1.066678000  -0.901842000   1.200000000   6.280096090
     6  -0.355429000  -1.133347000  -0.803114000   1.200000000   9.079163173
     7  -0.355429000  -1.133347000   0.803114000   1.200000000   9.079163173

 TOTAL NUMBER OF TESSERAE=     857
 SURFACE AREA=    65.23794128(A**2)    CAVITY VOLUME=     42.34883410 (A**3)
 STEP CPU TIME =     0.00 TOTAL CPU TIME =        0.1 (    0.0 MIN)
 TOTAL WALL CLOCK TIME=        0.1 SECONDS, CPU UTILIZATION IS  88.89%

          THE SOLUTE IS ENCLOSED IN ONE CAVITY
 DONE CHECKING SEPARATION.
 STEP CPU TIME =     0.00 TOTAL CPU TIME =        0.1 (    0.0 MIN)
 TOTAL WALL CLOCK TIME=        0.1 SECONDS, CPU UTILIZATION IS  88.89%

 ..... DONE GENERATING CAVITY .....
 STEP CPU TIME =     0.00 TOTAL CPU TIME =        0.1 (    0.0 MIN)
 TOTAL WALL CLOCK TIME=        0.1 SECONDS, CPU UTILIZATION IS  88.89%
 NUCLEI-NUCLEAR CHARGE POLARIZATION ADJUSTMENT TO VNN=        0.0000000000

          --------------------------
            R-M06-2X SCF CALCULATION
          --------------------------

     NUCLEAR ENERGY =        45.4778103730
     MAXIT =   30     NPUNCH=    2
     EXTRAP=T  DAMP=F  SHIFT=F  RSTRCT=F  DIIS=T  DEM=F  SOSCF=F
         DENSITY MATRIX CONVERGENCE THRESHOLD=  1.00E-05
     COARSE -> FINE DFT GRID SWITCH THRESHOLD=  3.00E-04 (SWITCH IN $DFT)
                   HF -> DFT SWITCH THRESHOLD=  5.00E-03 (SWOFF IN $DFT)
     MEMORY REQUIRED FOR RHF ITERS=    666377 WORDS.

     EXCHANGE FUNCTIONAL   =M06-2X    
     CORRELATION FUNCTIONAL=M06-2X    
     DFT THRESHOLD         =.245E-08
     GRID CHANGE THRESHOLD =.300E-03
 FOR AN EULER-MACLAURIN QUADRATURE USING  99 RADIAL POINTS:
 SMALLEST GAUSSIAN PRIMITIVE EXPONENT=        0.1612777588 OF TYPE -S-
 ON ATOM NUMBER   1 HAS RADIAL NORMALIZATION=  1.000000
  LARGEST GAUSSIAN PRIMITIVE EXPONENT=     5484.6716600000 OF TYPE -S-
 ON ATOM NUMBER   3 HAS RADIAL NORMALIZATION=  1.000000
 DFT IS SWITCHED OFF, PERFORMING PURE SCF UNTIL SWOFF THRESHOLD IS REACHED.

 ITER EX DEM     TOTAL ENERGY        E CHANGE  DENSITY CHANGE    DIIS ERROR
   1  0  0     -114.9579861925  -114.9579861925   0.295621932   0.575342464
          * * *   INITIATING DIIS PROCEDURE   * * *
   2  1  0     -115.3861354417    -0.4281492491   0.289851263   0.257480324
   3  2  0     -115.4401201191    -0.0539846774   0.074185625   0.099887945
   4  3  0     -115.4625322383    -0.0224121192   0.022519606   0.018272793
   5  4  0     -115.4631407948    -0.0006085564   0.004098504   0.004205562
 CONVERGED TO SWOFF, SO DFT CALCULATION IS NOW SWITCHED ON.
          * * *   INITIATING DIIS PROCEDURE   * * *
   6  5  0     -116.0746508787    -0.6115100839   0.050191143   0.039924025
   7  6  0     -116.0793018347    -0.0046509560   0.019460035   0.014145193
   8  7  0     -116.0795132236    -0.0002113889   0.006834885   0.008069197
   9  8  0     -116.0796860414    -0.0001728178   0.001142954   0.001426748
  10  9  0     -116.0796923439    -0.0000063024   0.000345049   0.000347356
  11 10  0     -116.0796918932     0.0000004507   0.000057997   0.000032615
  12 11  0     -116.0796919796    -0.0000000864   0.000005889   0.000003780
  13 12  0     -116.0796919833    -0.0000000037   0.000001260   0.000001005
  14 13  0     -116.0796919841    -0.0000000007   0.000000215   0.000000129

          -----------------
          DENSITY CONVERGED
          -----------------
     TIME TO FORM FOCK OPERATORS=      21.3 SECONDS (       1.5 SEC/ITER)
     TIME TO SOLVE SCF EQUATIONS=       0.0 SECONDS (       0.0 SEC/ITER)

 FINAL R-M06-2X ENERGY IS     -116.0796919841 AFTER  14 ITERATIONS
 DFT EXCHANGE + CORRELATION ENERGY =        -7.4641991272
 TOTAL ELECTRON NUMBER             =        17.9999992726
 TOTAL KINETIC ENERGY DENSITY      =       115.2173245739
  
   PCM ASC=     -1.0022667907
   GCAVP  =      0.0000000000
   GDISP  =      0.0000000000
   GREP   =      0.0000000000

          ------------
          EIGENVECTORS
          ------------

                      1          2          3          4          5
                  -19.7681   -10.6231    -1.2609    -0.8373    -0.7166
                     A          A          A          A          A   
    1  H  1  S   -0.000346  -0.000485   0.014765   0.116607   0.000007
    2  H  1  S   -0.000511   0.004522   0.000193   0.016214   0.000004
    3  C  2  S   -0.000128   0.995766  -0.044242  -0.182201  -0.000007
    4  C  2  S   -0.000774   0.030823   0.086147   0.366416   0.000022
    5  C  2  X   -0.000058  -0.000008  -0.001379   0.011354   0.000002
    6  C  2  Y   -0.000601  -0.001489  -0.065147  -0.011991   0.000007
    7  C  2  Z    0.000000  -0.000000  -0.000000  -0.000009   0.103809
    8  C  2  S    0.005513  -0.021423   0.020288   0.329387  -0.000002
    9  C  2  X    0.000031  -0.000143  -0.002749  -0.000348   0.000005
   10  C  2  Y   -0.002171  -0.000254   0.003832   0.011830   0.000012
   11  C  2  Z    0.000000   0.000000  -0.000006  -0.000017   0.044303
   12  C  2 XX   -0.000123  -0.000216  -0.006652   0.000090   0.000001
   13  C  2 YY    0.000266   0.000447   0.012985  -0.000680  -0.000001
   14  C  2 ZZ   -0.000142  -0.000231  -0.006333   0.000591   0.000000
   15  C  2 XY    0.000072   0.000003   0.000762  -0.001812  -0.000000
   16  C  2 XZ    0.000000   0.000000   0.000000   0.000000   0.003669
   17  C  2 YZ   -0.000000   0.000000   0.000001   0.000001  -0.009994
   18  O  3  S    0.995650   0.000014  -0.213990   0.032959   0.000005
   19  O  3  S    0.025185   0.000252   0.476307  -0.079154  -0.000016
   20  O  3  X   -0.001012  -0.000034  -0.064130   0.070178   0.000007
   21  O  3  Y    0.000335   0.000004  -0.004486   0.270831   0.000007
   22  O  3  Z    0.000000   0.000000   0.000005  -0.000017   0.537155
   23  O  3  S   -0.013493   0.001250   0.492000  -0.107086  -0.000011
   24  O  3  X    0.001221   0.000024  -0.034552   0.038605   0.000008
   25  O  3  Y   -0.001827  -0.000207   0.007266   0.150142   0.000012
   26  O  3  Z   -0.000000  -0.000000   0.000006  -0.000009   0.317573
   27  O  3 XX    0.000377   0.000672  -0.012364  -0.004167  -0.000002
   28  O  3 YY   -0.000429  -0.001435   0.002382   0.013651  -0.000001
   29  O  3 ZZ    0.000052   0.000763   0.009983  -0.009484   0.000003
   30  O  3 XY   -0.000094   0.000026   0.008917  -0.011296  -0.000001
   31  O  3 XZ    0.000000   0.000000   0.000000   0.000001  -0.029924
   32  O  3 YZ    0.000000   0.000000  -0.000000   0.000001  -0.011729
   33  H  4  S   -0.000343  -0.000464   0.015434   0.123094   0.038619
   34  H  4  S   -0.000644   0.004608   0.003699   0.020742   0.012128
   35  H  5  S   -0.000343  -0.000464   0.015433   0.123102  -0.038603
   36  H  5  S   -0.000644   0.004608   0.003693   0.020732  -0.012124
   37  H  6  S    0.000398  -0.000270   0.106891  -0.078191  -0.206057
   38  H  6  S    0.001675   0.000461  -0.016294  -0.007607  -0.043869
   39  H  7  S    0.000398  -0.000270   0.106899  -0.078207   0.206062
   40  H  7  S    0.001675   0.000461  -0.016292  -0.007615   0.043888

                      6          7          8          9         10
                   -0.6166    -0.5642    -0.4970    -0.4617     0.0652
                     A          A          A          A          A   
    1  H  1  S   -0.154192  -0.098723   0.000012   0.237290  -0.006344
    2  H  1  S   -0.072896  -0.055262   0.000017   0.166971  -0.153169
    3  C  2  S    0.060506  -0.019163  -0.000004   0.000253   0.017374
    4  C  2  S   -0.121358   0.039412   0.000018  -0.001758  -0.046330
    5  C  2  X    0.119439   0.290053  -0.000006  -0.366477   0.012198
    6  C  2  Y   -0.262636   0.164787   0.000011   0.058782   0.325518
    7  C  2  Z    0.000009  -0.000006   0.470911  -0.000009  -0.000006
    8  C  2  S   -0.187000   0.080043  -0.000007   0.013826   0.072254
    9  C  2  X    0.046965   0.138635   0.000015  -0.174409   0.036317
   10  C  2  Y   -0.076261   0.049709   0.000018   0.017893   0.589361
   11  C  2  Z    0.000014   0.000010   0.230217  -0.000014   0.000110
   12  C  2 XX   -0.018846  -0.001895   0.000002   0.018421  -0.007402
   13  C  2 YY    0.028346  -0.018309  -0.000000  -0.002581   0.019156
   14  C  2 ZZ   -0.009500   0.020204  -0.000002  -0.015840  -0.011754
   15  C  2 XY   -0.004758  -0.004961  -0.000000  -0.019867   0.003185
   16  C  2 XZ   -0.000000  -0.000002   0.025674   0.000001  -0.000001
   17  C  2 YZ    0.000001  -0.000000   0.009569  -0.000000  -0.000003
   18  O  3  S   -0.038887  -0.013752  -0.000002  -0.026506  -0.108970
   19  O  3  S    0.096630   0.035621   0.000002   0.065843   0.224436
   20  O  3  X    0.300097   0.363958   0.000003   0.426732  -0.125224
   21  O  3  Y    0.362622  -0.302758  -0.000006  -0.108451   0.077755
   22  O  3  Z    0.000006  -0.000008  -0.139641   0.000004   0.000028
   23  O  3  S    0.141261   0.033922   0.000020   0.101941   1.133499
   24  O  3  X    0.194364   0.249986  -0.000001   0.321420  -0.206810
   25  O  3  Y    0.231690  -0.207529   0.000000  -0.084497   0.099072
   26  O  3  Z    0.000004  -0.000003  -0.088553   0.000010   0.000016
   27  O  3 XX   -0.010719  -0.013543  -0.000000  -0.013589   0.005369
   28  O  3 YY    0.010116   0.004667   0.000001   0.007869  -0.006593
   29  O  3 ZZ    0.000603   0.008876  -0.000001   0.005721   0.001224
   30  O  3 XY   -0.010838   0.016108  -0.000000  -0.006365  -0.001572
   31  O  3 XZ    0.000001   0.000001   0.010082   0.000001  -0.000001
   32  O  3 YZ    0.000000  -0.000000   0.017438  -0.000000  -0.000000
   33  H  4  S   -0.060546   0.122161   0.236876  -0.108652  -0.009067
   34  H  4  S   -0.022025   0.065231   0.152630  -0.073585  -0.160447
   35  H  5  S   -0.060554   0.122171  -0.236872  -0.108647  -0.009036
   36  H  5  S   -0.022020   0.065252  -0.152647  -0.073594  -0.160261
   37  H  6  S   -0.105400   0.006246   0.070803  -0.047007  -0.113604
   38  H  6  S   -0.031465   0.007071   0.039338  -0.019999  -0.625995
   39  H  7  S   -0.105405   0.006236  -0.070807  -0.047010  -0.113621
   40  H  7  S   -0.031471   0.007075  -0.039346  -0.020010  -0.626095

                     11         12         13         14         15
                    0.1530     0.1688     0.1874     0.2160     0.2170
                     A          A          A          A          A   
    1  H  1  S   -0.003381  -0.000008  -0.050740  -0.000132   0.115989
    2  H  1  S   -0.686654  -0.000366  -0.854706  -0.001833   1.852701
    3  C  2  S   -0.140491  -0.000047  -0.085499  -0.000001  -0.001522
    4  C  2  S    0.227193   0.000081   0.123344  -0.000023   0.004488
    5  C  2  X   -0.030170   0.000002   0.037580  -0.000351   0.396030
    6  C  2  Y   -0.286656   0.000061   0.270713   0.000105  -0.045009
    7  C  2  Z    0.000001  -0.126283   0.000057  -0.358895  -0.000356
    8  C  2  S    1.838693   0.000746   1.530599   0.000096   0.016048
    9  C  2  X   -0.017274   0.000057   0.074228  -0.001379   1.419655
   10  C  2  Y   -0.554365   0.000222   0.764412   0.000205  -0.134992
   11  C  2  Z    0.000008  -0.280589   0.000233  -1.389586  -0.001295
   12  C  2 XX    0.008560  -0.000002  -0.012191  -0.000024   0.021610
   13  C  2 YY   -0.016961   0.000005   0.021835   0.000003   0.000253
   14  C  2 ZZ    0.008401  -0.000002  -0.009644   0.000021  -0.021863
   15  C  2 XY    0.002508  -0.000001  -0.003451   0.000016  -0.015212
   16  C  2 XZ    0.000002   0.000001  -0.000003   0.028837   0.000025
   17  C  2 YZ   -0.000000   0.015118  -0.000007   0.012269   0.000011
   18  O  3  S    0.016413   0.000005   0.023000  -0.000007   0.003797
   19  O  3  S   -0.030814  -0.000010  -0.038655   0.000021  -0.008924
   20  O  3  X   -0.059971   0.000020   0.096480   0.000057  -0.052720
   21  O  3  Y   -0.357123   0.000027   0.213092   0.000037  -0.007259
   22  O  3  Z    0.000065  -0.365391   0.000105   0.128198   0.000128
   23  O  3  S   -0.124334  -0.000052  -0.330920   0.000035  -0.039549
   24  O  3  X   -0.134306   0.000021   0.154879   0.000175  -0.172032
   25  O  3  Y   -0.690351   0.000034   0.346185   0.000099  -0.057634
   26  O  3  Z    0.000097  -0.682002   0.000204   0.322326   0.000306
   27  O  3 XX   -0.006748  -0.000003  -0.006795  -0.000010   0.012093
   28  O  3 YY    0.023369   0.000006   0.002467  -0.000004   0.000093
   29  O  3 ZZ   -0.016620  -0.000003   0.004327   0.000014  -0.012186
   30  O  3 XY    0.010293   0.000000  -0.002034  -0.000017   0.017597
   31  O  3 XZ   -0.000001   0.002915  -0.000001   0.007439   0.000007
   32  O  3 YZ    0.000001  -0.018592   0.000008  -0.017193  -0.000017
   33  H  4  S    0.006779   0.023766  -0.058542   0.107108  -0.048340
   34  H  4  S   -0.622806   0.376368  -0.969758   1.528984  -0.902928
   35  H  5  S    0.006780  -0.023809  -0.058493  -0.107029  -0.048524
   36  H  5  S   -0.622794  -0.377222  -0.969240  -1.527387  -0.905823
   37  H  6  S   -0.044919  -0.149344   0.080976   0.021991   0.000102
   38  H  6  S   -0.482890  -1.160257   0.553491   0.319943  -0.027128
   39  H  7  S   -0.044954   0.149383   0.080869  -0.021992   0.000059
   40  H  7  S   -0.483236   1.160417   0.552764  -0.319816  -0.027761

                     16         17         18         19         20
                    0.5462     0.5772     0.5939     0.8156     0.8278
                     A          A          A          A          A   
    1  H  1  S   -0.196334   0.000391   0.438147   0.000155   0.303385
    2  H  1  S   -0.039498   0.000342   0.404385  -0.000179  -0.414818
    3  C  2  S   -0.010533   0.000004  -0.003950   0.000010   0.013862
    4  C  2  S    0.271920   0.000025   0.044855   0.000023   0.006995
    5  C  2  X    0.061944  -0.000589  -0.735910   0.000104   0.212925
    6  C  2  Y   -0.932650   0.000107  -0.121413  -0.000028  -0.071444
    7  C  2  Z   -0.000178  -0.705416   0.000505  -0.612137   0.000378
    8  C  2  S   -0.560991  -0.000053  -0.008913  -0.000239  -0.308283
    9  C  2  X   -0.173347   0.001290   1.668268  -0.000213  -0.410022
   10  C  2  Y    1.522701  -0.000252   0.133033   0.000021   0.090166
   11  C  2  Z    0.000340   1.455957  -0.001092   1.475747  -0.000908
   12  C  2 XX   -0.012458   0.000065   0.083997   0.000020   0.044748
   13  C  2 YY    0.000028   0.000003   0.011283  -0.000036  -0.062778
   14  C  2 ZZ    0.012430  -0.000068  -0.095280   0.000017   0.018030
   15  C  2 XY    0.005746  -0.000028  -0.037381  -0.000040  -0.077807
   16  C  2 XZ   -0.000020  -0.099911   0.000080  -0.007645   0.000003
   17  C  2 YZ   -0.000009  -0.050116   0.000041   0.150154  -0.000093
   18  O  3  S    0.007827   0.000012   0.017210   0.000023   0.039391
   19  O  3  S   -0.141218  -0.000045  -0.093088  -0.000123  -0.210715
   20  O  3  X    0.062797  -0.000140  -0.168788   0.000267   0.389797
   21  O  3  Y   -0.167600   0.000089   0.064336   0.000012  -0.003311
   22  O  3  Z    0.000018   0.051741  -0.000029  -0.097469   0.000042
   23  O  3  S    0.685395  -0.000117   0.033419   0.000162   0.278440
   24  O  3  X    0.010071  -0.000069  -0.092319  -0.000115  -0.136377
   25  O  3  Y    0.357224  -0.000072  -0.010248   0.000220   0.394631
   26  O  3  Z   -0.000009  -0.041326   0.000034  -0.440670   0.000283
   27  O  3 XX   -0.068901   0.000014   0.000133  -0.000057  -0.099307
   28  O  3 YY    0.135770  -0.000021   0.011609  -0.000043  -0.075729
   29  O  3 ZZ   -0.066869   0.000007  -0.011741   0.000101   0.175036
   30  O  3 XY    0.010232   0.000010   0.021236   0.000053   0.095033
   31  O  3 XZ    0.000004   0.022819  -0.000019  -0.147842   0.000088
   32  O  3 YZ    0.000010   0.058369  -0.000049  -0.163270   0.000100
   33  H  4  S   -0.104285  -0.402277  -0.246586   0.186533   0.049973
   34  H  4  S    0.053513  -0.212949  -0.223317  -0.886999   0.217414
   35  H  5  S   -0.104114   0.402011  -0.247214  -0.186422   0.050217
   36  H  5  S    0.053613   0.212673  -0.223641   0.887242   0.216298
   37  H  6  S   -0.015602   0.246889   0.081145  -0.668075   0.759887
   38  H  6  S    0.177200  -0.030991   0.026908   0.669952  -0.502126
   39  H  7  S   -0.015708  -0.246758   0.081526   0.668984   0.759104
   40  H  7  S    0.177186   0.030982   0.026806  -0.670564  -0.501377

                     21         22         23         24         25
                    0.8960     0.9333     0.9436     0.9846     1.0492
                     A          A          A          A          A   
    1  H  1  S   -0.478748   0.644831   0.000012  -0.622210   0.121198
    2  H  1  S    1.389278  -0.516892   0.000012   0.683655  -1.091928
    3  C  2  S    0.006808   0.083627   0.000000  -0.011499  -0.015501
    4  C  2  S   -0.014643  -0.201319   0.000057  -0.245247  -1.872138
    5  C  2  X   -0.723447   0.013828   0.000023  -0.388413  -0.024034
    6  C  2  Y    0.044060  -0.392758   0.000021  -0.058440  -0.182691
    7  C  2  Z    0.000048   0.000011  -0.579639  -0.000030  -0.000022
    8  C  2  S   -0.068174   0.369869  -0.000149   0.694623   3.781007
    9  C  2  X    1.483332  -0.077267  -0.000019   0.209719   0.104684
   10  C  2  Y   -0.074315   0.208366  -0.000015  -0.016002   0.585440
   11  C  2  Z   -0.000091  -0.000042   0.798095   0.000022   0.000062
   12  C  2 XX   -0.053332   0.021704   0.000005  -0.177494   0.074840
   13  C  2 YY   -0.023408  -0.041285  -0.000003   0.011849  -0.124782
   14  C  2 ZZ    0.076740   0.019581  -0.000002   0.165645   0.049942
   15  C  2 XY    0.136545  -0.009074  -0.000002   0.041587   0.001699
   16  C  2 XZ    0.000001   0.000009   0.192060   0.000018  -0.000000
   17  C  2 YZ   -0.000006   0.000002   0.067929   0.000000   0.000009
   18  O  3  S   -0.013731  -0.022770  -0.000001   0.045456   0.002328
   19  O  3  S    0.060461   0.198387   0.000010  -0.357775  -0.015420
   20  O  3  X    0.614941  -0.018888   0.000032  -0.506787  -0.085236
   21  O  3  Y   -0.062506   0.460193  -0.000019   0.231977  -0.465975
   22  O  3  Z    0.000024   0.000022   0.471750  -0.000021   0.000015
   23  O  3  S    0.044351  -0.093009  -0.000001   0.227610  -0.337822
   24  O  3  X   -0.855637  -0.000090  -0.000034   0.767951   0.116481
   25  O  3  Y    0.067657  -0.536823   0.000044  -0.268198   0.536907
   26  O  3  Z   -0.000017  -0.000020  -0.475959   0.000054  -0.000035
   27  O  3 XX    0.036079  -0.018249   0.000001  -0.081946   0.096213
   28  O  3 YY   -0.009934   0.076982  -0.000002  -0.044091  -0.167621
   29  O  3 ZZ   -0.026145  -0.058734   0.000001   0.126038   0.071408
   30  O  3 XY   -0.048026   0.001439   0.000004  -0.056184  -0.029077
   31  O  3 XZ    0.000006   0.000002   0.091350   0.000009  -0.000000
   32  O  3 YZ    0.000006  -0.000001   0.028214   0.000002  -0.000002
   33  H  4  S    0.309948   0.642469   0.614023   0.247750   0.077775
   34  H  4  S   -0.699839  -0.408662  -1.084976  -0.521243  -1.134141
   35  H  5  S    0.309984   0.642437  -0.614051   0.247677   0.077771
   36  H  5  S   -0.699965  -0.408676   1.085082  -0.521135  -1.134075
   37  H  6  S   -0.047803  -0.102578   0.374770   0.357470  -0.078522
   38  H  6  S   -0.043719   0.073052  -0.641881  -0.276440   0.219749
   39  H  7  S   -0.047844  -0.102593  -0.374760   0.357424  -0.078515
   40  H  7  S   -0.043637   0.073099   0.641893  -0.276448   0.219770

                     26         27         28         29         30
                    1.0844     1.1356     1.4743     1.5527     1.5923
                     A          A          A          A          A   
    1  H  1  S    0.000036  -0.154171  -0.266790  -0.000002   0.124781
    2  H  1  S    0.000036  -0.653206  -0.098709  -0.000011   0.182499
    3  C  2  S    0.000006  -0.058607  -0.029788  -0.000004   0.057990
    4  C  2  S    0.000071  -1.145117  -0.475042  -0.000038   0.722509
    5  C  2  X   -0.000009   0.159708  -0.134794   0.000005  -0.002286
    6  C  2  Y   -0.000002  -0.031192   0.018209  -0.000008   0.045872
    7  C  2  Z   -0.331520  -0.000038  -0.000011  -0.066562   0.000003
    8  C  2  S   -0.000224   3.287909   1.418300   0.000134  -2.405852
    9  C  2  X    0.000039  -0.106812   0.003755   0.000013  -0.189541
   10  C  2  Y    0.000051  -0.577898  -0.342160  -0.000031   0.640174
   11  C  2  Z    0.090967   0.000045   0.000010  -0.074283  -0.000024
   12  C  2 XX    0.000011   0.011258  -0.286151   0.000014   0.007598
   13  C  2 YY   -0.000014   0.120852   0.069171   0.000002  -0.089346
   14  C  2 ZZ    0.000002  -0.132110   0.216981  -0.000016   0.081748
   15  C  2 XY    0.000003   0.053507  -0.552670   0.000041  -0.200042
   16  C  2 XZ    0.182091   0.000012   0.000006   0.154953   0.000013
   17  C  2 YZ   -0.119756  -0.000012  -0.000026  -0.540879  -0.000043
   18  O  3  S   -0.000006   0.047262  -0.012848  -0.000002   0.023120
   19  O  3  S    0.000042  -0.603039   0.489336   0.000085  -1.222578
   20  O  3  X    0.000012   0.298450   0.029982  -0.000008   0.018322
   21  O  3  Y   -0.000052   0.575994   0.079842   0.000005  -0.135403
   22  O  3  Z   -0.858232  -0.000048  -0.000003   0.110844   0.000014
   23  O  3  S   -0.000005   0.458499  -0.975274  -0.000167   2.412455
   24  O  3  X   -0.000019  -0.586656  -0.115973   0.000029  -0.119096
   25  O  3  Y    0.000122  -1.640105  -0.431235  -0.000027   0.685274
   26  O  3  Z    1.561536   0.000087  -0.000005  -0.467489  -0.000045
   27  O  3 XX    0.000003   0.057634   0.010740  -0.000041   0.590437
   28  O  3 YY   -0.000005   0.030648   0.146806   0.000012  -0.257931
   29  O  3 ZZ    0.000001  -0.088282  -0.157546   0.000028  -0.332505
   30  O  3 XY   -0.000002  -0.003209   0.577170  -0.000040   0.166041
   31  O  3 XZ    0.082253   0.000008  -0.000023  -0.522170  -0.000041
   32  O  3 YZ    0.047485   0.000010   0.000026   0.548605   0.000041
   33  H  4  S    0.299119  -0.359225  -0.046452   0.093747   0.240003
   34  H  4  S   -0.421020  -0.304020  -0.227771   0.047476   0.358126
   35  H  5  S   -0.299059  -0.359263  -0.046467  -0.093779   0.239991
   36  H  5  S    0.421037  -0.303925  -0.227755  -0.047519   0.358095
   37  H  6  S    0.106497  -0.046877  -0.039552  -0.175434  -0.150724
   38  H  6  S    0.694877  -0.750467   0.015223  -0.118921  -0.142464
   39  H  7  S   -0.106549  -0.046904  -0.039543   0.175475  -0.150692
   40  H  7  S   -0.694762  -0.750526   0.015226   0.118953  -0.142443

                     31         32         33         34         35
                    1.9169     2.0407     2.0520     2.2692     2.2728
                     A          A          A          A          A   
    1  H  1  S    0.402917   0.239893  -0.000012  -0.607216   0.464523
    2  H  1  S    0.124919   0.293319  -0.000010   0.115478  -0.058121
    3  C  2  S    0.060777  -0.000003   0.000000   0.019715   0.017969
    4  C  2  S   -0.113052   0.264801  -0.000007   0.220110   0.182534
    5  C  2  X   -0.003784   0.026225  -0.000005  -0.133035   0.079379
    6  C  2  Y    0.308628  -0.076871   0.000004   0.035765   0.016720
    7  C  2  Z   -0.000000   0.000004  -0.005818   0.000000   0.000260
    8  C  2  S   -0.870545  -0.429166   0.000007  -0.707009  -0.602429
    9  C  2  X    0.190887   0.670877  -0.000030  -0.419238   0.089866
   10  C  2  Y   -0.033344   0.218744  -0.000006   0.295985   0.219236
   11  C  2  Z   -0.000007  -0.000046  -0.699498   0.000007   0.000784
   12  C  2 XX   -0.440708  -0.296831   0.000018   0.774944  -0.277703
   13  C  2 YY    0.618071  -0.318188   0.000016  -0.173253  -0.157715
   14  C  2 ZZ   -0.177363   0.615019  -0.000034  -0.601691   0.435417
   15  C  2 XY   -0.087957  -0.422376   0.000027  -0.256902   0.724956
   16  C  2 XZ   -0.000000  -0.000024  -0.461725   0.000009   0.001669
   17  C  2 YZ   -0.000004   0.000036   0.712273  -0.000002   0.000907
   18  O  3  S    0.027050  -0.018796   0.000001  -0.015309  -0.012917
   19  O  3  S   -0.726505  -0.409226   0.000014  -0.521959  -0.397537
   20  O  3  X    0.036739   0.148984  -0.000006  -0.026946  -0.028323
   21  O  3  Y   -0.346430   0.111282  -0.000004   0.016630   0.002599
   22  O  3  Z    0.000001  -0.000011  -0.201761   0.000003   0.000002
   23  O  3  S    1.085867   1.095974  -0.000036   1.283924   0.976955
   24  O  3  X   -0.202467  -0.660041   0.000029  -0.144252  -0.085945
   25  O  3  Y    0.498513  -0.235557   0.000010   0.002791   0.039613
   26  O  3  Z   -0.000000   0.000044   0.870209  -0.000008  -0.000097
   27  O  3 XX   -0.473624  -0.324845   0.000015  -0.463649  -0.242417
   28  O  3 YY    0.424844  -0.264741   0.000012  -0.085114  -0.078462
   29  O  3 ZZ    0.048780   0.589585  -0.000027   0.548762   0.320879
   30  O  3 XY   -0.072262  -0.374840   0.000027   0.358418   0.701879
   31  O  3 XZ   -0.000005  -0.000031  -0.489038  -0.000006  -0.000180
   32  O  3 YZ    0.000002   0.000025   0.447086  -0.000006   0.000288
   33  H  4  S    0.290137  -0.239338   0.210516   0.315954  -0.188677
   34  H  4  S    0.001053  -0.025997   0.207959   0.074603   0.126574
   35  H  5  S    0.290133  -0.239361  -0.210485   0.315965  -0.186337
   36  H  5  S    0.001047  -0.026028  -0.207959   0.074604   0.126315
   37  H  6  S   -0.164309  -0.482221   0.315459  -0.505448  -0.419979
   38  H  6  S   -0.033961  -0.075367   0.095515  -0.025542   0.018343
   39  H  7  S   -0.164311  -0.482252  -0.315419  -0.505453  -0.419819
   40  H  7  S   -0.033960  -0.075377  -0.095515  -0.025534   0.018118

                     36         37         38
                    2.2734     2.5227     2.7079
                     A          A          A   
    1  H  1  S   -0.000786  -0.000003   0.059345
    2  H  1  S    0.000096  -0.000002  -0.145374
    3  C  2  S   -0.000030  -0.000000  -0.071205
    4  C  2  S   -0.000310  -0.000009  -0.011495
    5  C  2  X   -0.000130   0.000001  -0.005699
    6  C  2  Y   -0.000024   0.000004  -0.583920
    7  C  2  Z    0.151351   0.057596  -0.000001
    8  C  2  S    0.001017   0.000014   1.659168
    9  C  2  X   -0.000158  -0.000001   0.030900
   10  C  2  Y   -0.000378  -0.000003  -0.844131
   11  C  2  Z    0.459629  -0.173868   0.000004
   12  C  2 XX    0.000468   0.000002  -0.499144
   13  C  2 YY    0.000269  -0.000005   1.014420
   14  C  2 ZZ   -0.000736   0.000003  -0.515277
   15  C  2 XY   -0.001232  -0.000004  -0.001053
   16  C  2 XZ    0.979170   0.108235   0.000003
   17  C  2 YZ    0.537483  -0.105361  -0.000000
   18  O  3  S    0.000022   0.000000   0.026607
   19  O  3  S    0.000679   0.000004   0.583227
   20  O  3  X    0.000048   0.000002   0.031327
   21  O  3  Y   -0.000005   0.000000   0.105031
   22  O  3  Z    0.000382  -0.061162  -0.000001
   23  O  3  S   -0.001668  -0.000012  -1.551281
   24  O  3  X    0.000148   0.000001  -0.150824
   25  O  3  Y   -0.000065   0.000006  -1.436807
   26  O  3  Z   -0.055462   0.931340   0.000005
   27  O  3 XX    0.000413   0.000003   0.424662
   28  O  3 YY    0.000137   0.000008  -1.051362
   29  O  3 ZZ   -0.000551  -0.000011   0.626700
   30  O  3 XY   -0.001195  -0.000009   0.081606
   31  O  3 XZ   -0.101935  -0.871255  -0.000006
   32  O  3 YZ    0.175063  -0.885891  -0.000006
   33  H  4  S   -0.686408  -0.027665   0.074455
   34  H  4  S    0.076218   0.059295  -0.179578
   35  H  5  S    0.687036   0.027661   0.074458
   36  H  5  S   -0.076632  -0.059298  -0.179575
   37  H  6  S   -0.048446   0.936738  -0.174421
   38  H  6  S    0.066866  -0.056555  -0.113166
   39  H  7  S    0.049879  -0.936716  -0.174434
   40  H  7  S   -0.066927   0.056553  -0.113163
 ...... END OF RHF CALCULATION ......
 STEP CPU TIME =    21.50 TOTAL CPU TIME =       21.6 (    0.4 MIN)
 TOTAL WALL CLOCK TIME=       21.6 SECONDS, CPU UTILIZATION IS  99.91%

     ---------------------------------------------------------------------
     PROPERTIES FOR THE M06-2X   DFT FUNCTIONAL (RHF  TYPE) DENSITY MATRIX
     ---------------------------------------------------------------------

          ---------------------------------------
          MULLIKEN AND LOWDIN POPULATION ANALYSES
          ---------------------------------------

     ATOMIC MULLIKEN POPULATION IN EACH MOLECULAR ORBITAL

                      1          2          3          4          5

                  2.000000   2.000000   2.000000   2.000000   2.000000

    1            -0.000010   0.000862   0.001798   0.101743   0.000000
    2             0.000700   1.997362   0.088390   1.108651   0.082183
    3             1.998800  -0.000017   1.760779   0.487497   1.422662
    4            -0.000014   0.000882   0.003308   0.117047   0.012088
    5            -0.000014   0.000882   0.003306   0.117049   0.012079
    6             0.000269   0.000014   0.071203   0.033999   0.235487
    7             0.000269   0.000014   0.071215   0.034014   0.235500

                      6          7          8          9

                  2.000000   2.000000   2.000000   2.000000

    1             0.188777   0.069868   0.000000   0.381009
    2             0.589922   0.634116   1.116942   0.636725
    3             1.044749   1.066448   0.061907   0.811786
    4             0.028008   0.114238   0.388725   0.075801
    5             0.028013   0.114262   0.388723   0.075797
    6             0.060263   0.000534   0.021850   0.009440
    7             0.060267   0.000534   0.021852   0.009442

               ----- POPULATIONS IN EACH AO -----
                             MULLIKEN      LOWDIN
              1  H  1  S      0.51635     0.47565
              2  H  1  S      0.22770     0.31975
              3  C  2  S      1.99701     1.98123
              4  C  2  S      0.69073     0.37292
              5  C  2  X      0.79536     0.71250
              6  C  2  Y      0.41100     0.37614
              7  C  2  Z      0.79578     0.71549
              8  C  2  S      0.65413     0.34726
              9  C  2  X      0.38066     0.47991
             10  C  2  Y      0.09385     0.24260
             11  C  2  Z      0.39132     0.48275
             12  C  2 XX      0.01044     0.16712
             13  C  2 YY      0.01550     0.14738
             14  C  2 ZZ      0.00719     0.16651
             15  C  2 XY      0.00841     0.01539
             16  C  2 XZ      0.00362     0.01318
             17  C  2 YZ      0.00000     0.00819
             18  O  3  S      1.99741     1.97734
             19  O  3  S      0.88748     0.69094
             20  O  3  X      1.14617     1.11112
             21  O  3  Y      0.90608     0.84912
             22  O  3  Z      0.91800     0.85634
             23  O  3  S      0.94637     0.42753
             24  O  3  X      0.72232     0.73861
             25  O  3  Y      0.55325     0.56549
             26  O  3  Z      0.55090     0.56705
             27  O  3 XX      0.00262     0.14524
             28  O  3 YY      0.00320     0.17103
             29  O  3 ZZ      0.00514     0.18686
             30  O  3 XY      0.00831     0.00841
             31  O  3 XZ      0.00736     0.01000
             32  O  3 YZ      0.00000     0.01431
             33  H  4  S      0.51580     0.47350
             34  H  4  S      0.22429     0.31588
             35  H  5  S      0.51580     0.47351
             36  H  5  S      0.22429     0.31589
             37  H  6  S      0.40821     0.37862
             38  H  6  S      0.02485     0.16029
             39  H  7  S      0.40824     0.37864
             40  H  7  S      0.02487     0.16030

          ----- MULLIKEN ATOMIC OVERLAP POPULATIONS -----
          (OFF-DIAGONAL ELEMENTS NEED TO BE MULTIPLIED BY 2)

             1           2           3           4           5

    1    0.4336193
    2    0.3791499   4.9984005
    3   -0.0246337   0.1425103   8.0829665
    4   -0.0212636   0.3788913  -0.0213177   0.4237488
    5   -0.0212751   0.3788866  -0.0213244  -0.0200305   0.4237838
    6   -0.0007741  -0.0114219   0.2482010   0.0018890  -0.0018334
    7   -0.0007753  -0.0114252   0.2482101  -0.0018331   0.0018896

             6           7

    6    0.2066591
    7   -0.0096587   0.2067003

          TOTAL MULLIKEN AND LOWDIN ATOMIC POPULATIONS
       ATOM         MULL.POP.    CHARGE          LOW.POP.     CHARGE
    1 H             0.744047    0.255953         0.795405    0.204595
    2 C             6.254991   -0.254991         6.228557   -0.228557
    3 O             8.654612   -0.654612         8.319401   -0.319401
    4 H             0.740084    0.259916         0.789380    0.210620
    5 H             0.740097    0.259903         0.789396    0.210604
    6 H             0.433061    0.566939         0.538914    0.461086
    7 H             0.433108    0.566892         0.538947    0.461053

          MULLIKEN SPHERICAL HARMONIC POPULATIONS
       ATOM           S       P       D      F      G      H      I    TOTAL
    1 H             0.74    0.00    0.00   0.00   0.00   0.00   0.00    0.74
    2 C             3.34    2.87    0.05   0.00   0.00   0.00   0.00    6.25
    3 O             3.83    4.80    0.03   0.00   0.00   0.00   0.00    8.65
    4 H             0.74    0.00    0.00   0.00   0.00   0.00   0.00    0.74
    5 H             0.74    0.00    0.00   0.00   0.00   0.00   0.00    0.74
    6 H             0.43    0.00    0.00   0.00   0.00   0.00   0.00    0.43
    7 H             0.43    0.00    0.00   0.00   0.00   0.00   0.00    0.43

          -------------------------------
          BOND ORDER AND VALENCE ANALYSIS     BOND ORDER THRESHOLD=0.050
          -------------------------------

                   BOND                       BOND                       BOND
  ATOM PAIR DIST  ORDER      ATOM PAIR DIST  ORDER      ATOM PAIR DIST  ORDER
    1   2  1.089  0.917        2   3  1.526  0.696        2   4  1.088  0.919
    2   5  1.088  0.919        3   6  0.983  0.654        3   7  0.983  0.654

                       TOTAL       BONDED        FREE
      ATOM            VALENCE     VALENCE     VALENCE
    1 H                 0.902       0.902      -0.000
    2 C                 3.455       3.455      -0.000
    3 O                 1.996       1.996      -0.000
    4 H                 0.903       0.903      -0.000
    5 H                 0.903       0.903       0.000
    6 H                 0.659       0.659      -0.000
    7 H                 0.659       0.659      -0.000

    **** A SOLVENT MODEL IS IN USE IN THIS RUN ****
 ELECTRICAL PROPERTIES (MOMENTS, DENSITY, FIELD/GRADIENT, AND/OR POTENTIAL)
 ARE COMPUTED USING THE SOLVATED SYSTEM'S DENSITY MATRIX, BUT
 ONLY WITH AO INTEGRAL CONTRIBUTIONS FROM THE QUANTUM SOLUTE.
 THE ONE EXCEPTION IS THE DIPOLE, WHICH IS ALSO PRINTED FOR THE TOTAL SYSTEM.

          ----------------------------
          SOLUTE ELECTROSTATIC MOMENTS
          ----------------------------

 POINT   1           X           Y           Z (BOHR)    CHARGE
                 0.030446   -0.056855    0.000000        1.00 (A.U.)
         DX          DY          DZ         /D/  (DEBYE)
    -1.817542   -1.683068    0.000023    2.477131

          ----------------------------
          SYSTEM ELECTROSTATIC MOMENTS
          ----------------------------

 POINT   1           X           Y           Z (BOHR)    CHARGE
                 0.030446   -0.056855    0.000000        1.00 (A.U.)
         DX          DY          DZ         /D/  (DEBYE)
    -1.817542   -1.683068    0.000023    2.477131
 INCLUDING PCM SURFACE CHARGES, TOTAL CHARGE=   -0.002267, AND TOTAL DIPOLE IS
         DX          DY          DZ         /D/  (DEBYE)
    -0.071285   -0.110789   -0.000162    0.131742
 ...... END OF PROPERTY EVALUATION ......
 STEP CPU TIME =     0.01 TOTAL CPU TIME =       21.6 (    0.4 MIN)
 TOTAL WALL CLOCK TIME=       21.6 SECONDS, CPU UTILIZATION IS  99.95%

 .... DONE WITH PCM CONTRIBUTION TO GRADIENT ....
 STEP CPU TIME =     0.40 TOTAL CPU TIME =       22.0 (    0.4 MIN)
 TOTAL WALL CLOCK TIME=       22.0 SECONDS, CPU UTILIZATION IS  99.91%

 BEGINNING ONE ELECTRON GRADIENT...
 ..... END OF 1-ELECTRON GRADIENT ......
 STEP CPU TIME =     0.01 TOTAL CPU TIME =       22.0 (    0.4 MIN)
 TOTAL WALL CLOCK TIME=       22.0 SECONDS, CPU UTILIZATION IS  99.95%

          ----------------------
          GRADIENT OF THE ENERGY
          ----------------------
 MEMORY FOR GRID POINT CONTRIBUTIONS TO THE DFT GRADIENT=    479287 WORDS.
 STEP CPU TIME =     4.13 TOTAL CPU TIME =       26.1 (    0.4 MIN)
 TOTAL WALL CLOCK TIME=       26.1 SECONDS, CPU UTILIZATION IS  99.96%

 THE MINIMUM MEMORY REQUIRED FOR THIS RUN IS      83094 WORDS.
 USING     924480 WORDS FOR 2E- DERIVATIVE INTEGRAL CONTRIBUTIONS.
 THE COARSE/FINE SCHWARZ SCREENINGS SKIPPED           91/         296 BLOCKS.
 THE NUMBER OF GRADIENT INTEGRAL BLOCKS COMPUTED WAS     14179
 ...... END OF 2-ELECTRON GRADIENT ......
 STEP CPU TIME =     0.09 TOTAL CPU TIME =       26.2 (    0.4 MIN)
 TOTAL WALL CLOCK TIME=       26.2 SECONDS, CPU UTILIZATION IS  99.96%

                         ----------------------
                         GRADIENT OF THE ENERGY
                         ----------------------

 UNITS ARE HARTREE/BOHR    E'X               E'Y               E'Z 
    1 H               -0.002206874       0.001115276       0.000027712
    2 C                0.001140167       0.022259823      -0.000200935
    3 O               -0.007205119      -0.017463302       0.000052731
    4 H                0.001916063       0.000765015       0.001091594
    5 H                0.001910275       0.000827677      -0.001011124
    6 H                0.002226251      -0.003708343      -0.002319227
    7 H                0.002219238      -0.003796146       0.002359250

                   MAXIMUM GRADIENT =    0.022259823
                       RMS GRADIENT =    0.006617551
  $VIB   
          IVIB=   0 IATOM=   0 ICOORD=   0 E=     -116.0796919841
 -2.206874258E-03 1.115275661E-03 2.771153443E-05 1.140167040E-03 2.225982317E-02
 -2.009354576E-04-7.205119354E-03-1.746330165E-02 5.273124478E-05 1.916062779E-03
  7.650154148E-04 1.091593931E-03 1.910275044E-03 8.276766989E-04-1.011124464E-03
  2.226251063E-03-3.708343040E-03-2.319226929E-03 2.219237686E-03-3.796146254E-03
  2.359250139E-03
 -1.817542186E+00-1.683067707E+00 2.310056629E-05

..... END OF SINGLE POINT GRADIENT .....
 STEP CPU TIME =     0.00 TOTAL CPU TIME =       26.2 (    0.4 MIN)
 TOTAL WALL CLOCK TIME=       26.2 SECONDS, CPU UTILIZATION IS  99.96%

             ----------------------------------------------
             -------   RESULTS OF SMD CALCULATION   -------
             ----------------------------------------------
 INTERNAL ENERGY IN SOLVENT = <PSI| H(0) |PSI>       =     -115.9501683968 A.U.
 TOTAL ENERGY IN SOLVENT = <PSI| H(0)+V/2 |PSI>      =     -116.0849921789 A.U.
 ELECTROSTATIC INTERACTION <PSI| V/2 |PSI>           =       -0.1348237820 A.U.
 CDS INTERACTION                                     =        0.0053001948 A.U.
 TOTAL FREE ENERGY IN SOLVENT                        =     -116.0796919841 A.U.

 ELECTROSTATIC INTERACTION    =         -84.60 KCAL/MOL
 CDS INTERACTION              =           3.33 KCAL/MOL

 .... DONE PRINTING SMD SOLVENT SUMMARY ....
 STEP CPU TIME =     0.00 TOTAL CPU TIME =       26.2 (    0.4 MIN)
 TOTAL WALL CLOCK TIME=       26.2 SECONDS, CPU UTILIZATION IS  99.96%
               989527  WORDS OF DYNAMIC MEMORY USED
 EXECUTION OF GAMESS TERMINATED NORMALLY Wed Aug  9 20:24:23 2017
 DDI: 263640 bytes (0.3 MB / 0 MWords) used by master data server.

 ----------------------------------------
 CPU timing information for all processes
 ========================================
 0: 26.204 + 0.23 = 26.228
 ----------------------------------------
 ddikick.x: exited gracefully.
unset echo
----- accounting info -----
Files used on the master node compute-1-2.local were:
-rw-rw-r-- 1 sarom sarom 2.1K Aug  9 20:23 /scratch/smd-rdft-grad.F05
-rw-rw-r-- 1 sarom sarom 3.0M Aug  9 20:23 /scratch/smd-rdft-grad.F08
-rw-rw-r-- 1 sarom sarom 1.6M Aug  9 20:24 /scratch/smd-rdft-grad.F10
-rw-rw-r-- 1 sarom sarom 3.6M Aug  9 20:23 /scratch/smd-rdft-grad.F22
-rw-rw-r-- 1 sarom sarom    8 Aug  9 20:23 /scratch/smd-rdft-grad.F26
-rw-rw-r-- 1 sarom sarom    0 Aug  9 20:23 /scratch/smd-rdft-grad.F27
rm: cannot remove `/scratch/tmp': Is a directory
ls: No match.
ls: No match.
ls: No match.
Wed Aug  9 20:24:26 CDT 2017
0.250u 0.156s 0:29.72 1.3%	0+0k 0+360io 0pf+0w
/opt/gridengine/default/spool/compute-1-2/active_jobs/35833.1/pe_hostfile compute-1-2.local
