-catch_rsh /opt/gridengine/default/spool/compute-0-7/active_jobs/35763.1/pe_hostfile
compute-0-7
The primary node assigned by SGE to this run is compute-0-7
Warning: no access to tty (Bad file descriptor).
Thus no job control in this shell.
source /home/sarom/dir.git.branch.saromleang-travis-ci/install.info
setenv GMS_PATH /home/sarom/dir.git.branch.saromleang-travis-ci
setenv GMS_BUILD_DIR /home/sarom/dir.git.branch.saromleang-travis-ci
setenv GMS_TARGET linux64
setenv GMS_FORTRAN gfortran
setenv GMS_GFORTRAN_VERNO 4.4
setenv GMS_MATHLIB mkl-so
setenv GMS_MATHLIB none
setenv GMS_MATHLIB_PATH /share/apps/intel/compilers_and_libraries_2017.1.132/linux/mkl/lib/intel64
setenv GMS_MKL_VERNO 12
setenv GMS_DDI_COMM sockets
setenv GMS_LIBCCHEM false
setenv GMS_EIGEN_PATH
setenv GMS_PHI false
setenv GMS_SHMTYPE sysv
setenv GMS_OPENMP false
unset echo
efp2-64h2o-1c6h6
/home/sarom/dir.git.branch.saromleang-travis-ci/tests/solvent/efp2/parallel
----- GAMESS execution script 'rungms' -----
This job is running on host compute-0-7.local
under operating system Linux at Wed Aug 9 20:04:56 CDT 2017
Available scratch disk space (Kbyte units) at beginning of the job is
Filesystem           1K-blocks      Used Available Use% Mounted on
/dev/sda1             16126920   3962060  11345660  26% /
GAMESS temporary binary files will be written to /scratch
GAMESS supplementary output files will be written to /home/sarom/restart
Copying input file efp2-64h2o-1c6h6.inp to your run's scratch directory...
cp /home/sarom/dir.git.branch.saromleang-travis-ci/tests/solvent/efp2/parallel/efp2-64h2o-1c6h6.inp /scratch/efp2-64h2o-1c6h6.F05
unset echo
The generated host list is
compute-0-7.local
/home/sarom/dir.git.branch.saromleang-travis-ci/ddikick.x /home/sarom/dir.git.branch.saromleang-travis-ci/gamess.00.x efp2-64h2o-1c6h6 -ddi 1 1 compute-0-7.local -scr /scratch

 Distributed Data Interface kickoff program.
 Initiating 1 compute processes on 1 nodes to run the following command:
 /home/sarom/dir.git.branch.saromleang-travis-ci/gamess.00.x efp2-64h2o-1c6h6 

          ******************************************************
          *         GAMESS VERSION = 20 APR 2017 (R1)          *
          *             FROM IOWA STATE UNIVERSITY             *
          * M.W.SCHMIDT, K.K.BALDRIDGE, J.A.BOATZ, S.T.ELBERT, *
          *   M.S.GORDON, J.H.JENSEN, S.KOSEKI, N.MATSUNAGA,   *
          *          K.A.NGUYEN, S.J.SU, T.L.WINDUS,           *
          *       TOGETHER WITH M.DUPUIS, J.A.MONTGOMERY       *
          *         J.COMPUT.CHEM.  14, 1347-1363(1993)        *
          **************** 64 BIT LINUX VERSION ****************

  SINCE 1993, STUDENTS AND POSTDOCS WORKING AT IOWA STATE UNIVERSITY
  AND ALSO IN THEIR VARIOUS JOBS AFTER LEAVING ISU HAVE MADE IMPORTANT
  CONTRIBUTIONS TO THE CODE:
     IVANA ADAMOVIC, CHRISTINE AIKENS, YURI ALEXEEV, POOJA ARORA,
     ANDREY ASADCHEV, ROB BELL, PRADIPTA BANDYOPADHYAY, JONATHAN BENTZ,
     BRETT BODE, KURT BRORSEN, CALEB CARLIN, GALINA CHABAN, WEI CHEN,
     CHEOL HO CHOI, PAUL DAY, ALBERT DEFUSCO, NUWAN DESILVA, TIM DUDLEY,
     DMITRI FEDOROV, GRAHAM FLETCHER, MARK FREITAG, KURT GLAESEMANN,
     DAN KEMP, GRANT MERRILL, NORIYUKI MINEZAWA, JONATHAN MULLIN,
     TAKESHI NAGATA, SEAN NEDD, HEATHER NETZLOFF, BOSILJKA NJEGIC, RYAN OLSON,
     MIKE PAK, SPENCER PRUITT, LUKE ROSKOP, JIM SHOEMAKER, LYUDMILA SLIPCHENKO,
     TONY SMITH, SAROM SOK LEANG, JIE SONG, TETSUYA TAKETSUGU, SIMON WEBB,
     PENG XU, SOOHAENG YOO, FEDERICO ZAHARIEV

  ADDITIONAL CODE HAS BEEN PROVIDED BY COLLABORATORS IN OTHER GROUPS:
     IOWA STATE UNIVERSITY:
          JOE IVANIC, AARON WEST, LAIMUTIS BYTAUTAS, KLAUS RUEDENBERG
     UNIVERSITY OF TOKYO: KIMIHIKO HIRAO, TAKAHITO NAKAJIMA,
          TAKAO TSUNEDA, MUNEAKI KAMIYA, SUSUMU YANAGISAWA,
          KIYOSHI YAGI, MAHITO CHIBA, SEIKEN TOKURA, NAOAKI KAWAKAMI
     UNIVERSITY OF AARHUS: FRANK JENSEN
     UNIVERSITY OF IOWA: VISVALDAS KAIRYS, HUI LI
     NATIONAL INST. OF STANDARDS AND TECHNOLOGY: WALT STEVENS, DAVID GARMER
     UNIVERSITY OF PISA: BENEDETTA MENNUCCI, JACOPO TOMASI
     UNIVERSITY OF MEMPHIS: HENRY KURTZ, PRAKASHAN KORAMBATH
     UNIVERSITY OF ALBERTA: TOBY ZENG, MARIUSZ KLOBUKOWSKI
     UNIVERSITY OF NEW ENGLAND: MARK SPACKMAN
     MIE UNIVERSITY: HIROAKI UMEDA
     NAT. INST. OF ADVANCED INDUSTRIAL SCIENCE AND TECHNOLOGY: KAZUO KITAURA
     MICHIGAN STATE UNIVERSITY:
          KAROL KOWALSKI, MARTA WLOCH, JEFFREY GOUR, JESSE LUTZ,
          WEI LI, PIOTR PIECUCH
     UNIVERSITY OF SILESIA: MONIKA MUSIAL, STANISLAW KUCHARSKI
     FACULTES UNIVERSITAIRES NOTRE-DAME DE LA PAIX:
          OLIVIER QUINET, BENOIT CHAMPAGNE
     UNIVERSITY OF CALIFORNIA - SANTA BARBARA: BERNARD KIRTMAN
     INSTITUTE FOR MOLECULAR SCIENCE:
          KAZUYA ISHIMURA, MICHIO KATOUDA, AND SHIGERU NAGASE
     UNIVERSITY OF NOTRE DAME: ANNA POMOGAEVA, DAN CHIPMAN
     KYUSHU UNIVERSITY:
          HARUYUKI NAKANO,
          FENG LONG GU, JACEK KORCHOWIEC, MARCIN MAKOWSKI, AND YURIKO AOKI,
          HIROTOSHI MORI AND EISAKU MIYOSHI
     PENNSYLVANIA STATE UNIVERSITY:
          TZVETELIN IORDANOV, CHET SWALINA, JONATHAN SKONE,
          SHARON HAMMES-SCHIFFER
     WASEDA UNIVERSITY:
          MASATO KOBAYASHI, TOMOKO AKAMA, TSUGUKI TOUMA,
          TAKESHI YOSHIKAWA, YASUHIRO IKABATA, JUNJI SEINO,
          YUYA NAKAJIMA, HIROMI NAKAI
     NANJING UNIVERSITY: SHUHUA LI
     UNIVERSITY OF NEBRASKA:
          PEIFENG SU, DEJUN SI, NANDUN THELLAMUREGE, YALI WANG, HUI LI
     UNIVERSITY OF ZURICH: ROBERTO PEVERATI, KIM BALDRIDGE
     N. COPERNICUS UNIVERSITY AND JACKSON STATE UNIVERSITY:
          MARIA BARYSZ
     UNIVERSITY OF COPENHAGEN: Jimmy Kromann, CASPER STEINMANN
     TOKYO INSTITUTE OF TECHNOLOGY: HIROYA NAKATA
     NAGOYA UNIVERSITY: YOSHIO NISHIMOTO, STEPHAN IRLE
     MOSCOW STATE UNIVERSITY: VLADIMIR MIRONOV

 EXECUTION OF GAMESS BEGUN Wed Aug  9 20:04:56 2017

            ECHO OF THE FIRST FEW INPUT CARDS -
 INPUT CARD>!    MD NVE simulation with periodic boundary conditions.                       
 INPUT CARD>!    there is one benzene and 64 waters in the unit cell, from Lyuda            
 INPUT CARD>!                                                                               
 INPUT CARD>!                                                                               
 INPUT CARD>!*** AT T=          0.00 FSEC, THIS RUN'S STEP NO.=       0                     
 INPUT CARD>!    ELEC ENERGY      =       -1176.19563910 KCAL/MOL                           
 INPUT CARD>!    POLZ ENERGY      =        -342.32198446 KCAL/MOL                           
 INPUT CARD>!    DISP ENERGY      =        -282.38375583 KCAL/MOL                           
 INPUT CARD>!    CH-TR ENRGY      =           0.00000000 KCAL/MOL                           
 INPUT CARD>!    REP  ENERGY      =         913.88326723 KCAL/MOL                           
 INPUT CARD>!    POT  ENERGY      =        -900.34593394 KCAL/MOL                           
 INPUT CARD>!                                                                               
 INPUT CARD>!*** AT T=          5.00 FSEC, THIS RUN'S STEP NO.=      10                     
 INPUT CARD>!    ELEC ENERGY      =       -1178.26618475 KCAL/MOL                           
 INPUT CARD>!    POLZ ENERGY      =        -343.44356502 KCAL/MOL                           
 INPUT CARD>!    DISP ENERGY      =        -282.83643995 KCAL/MOL                           
 INPUT CARD>!    CH-TR ENRGY      =           0.00000000 KCAL/MOL                           
 INPUT CARD>!    REP  ENERGY      =         921.33025148 KCAL/MOL                           
 INPUT CARD>!    POT  ENERGY      =        -883.21593823 KCAL/MOL                           
 INPUT CARD>!    TRANS    KE      =          50.32737670 KCAL/MOL                           
 INPUT CARD>!    ROT      KE      =          64.03188000 KCAL/MOL                           
 INPUT CARD>!    TOT      KE      =         114.35925670 KCAL/MOL                           
 INPUT CARD>!    TOTAL ENERGY     =        -768.85668153 KCAL/MOL  0.00000000               
 INPUT CARD>!                                                                               
 INPUT CARD>!    TEMPERATURE      =         295.11523995 K                                  
 INPUT CARD>!    PRESSURE(AVERAGE)=         -107480.5921 BAR    (        -107328.1463 BAR)  
 INPUT CARD>!    DIFFUSION        =         797.35410560 ANG^2/PS                           
 INPUT CARD>!    HEAT OF VAP      =          14.21006186 KCAL/MOL*K                         
 INPUT CARD>!      ROT.KE TEMP =     330.48                                                 
 INPUT CARD>!    TRANS.KE TEMP =     259.75                                                 
 INPUT CARD>!                                                                               
 INPUT CARD>!    This run takes 140 seconds on 2.66 GHz Cloverton ( 7 Oct 2015)             
 INPUT CARD>!    answers updated April 2009, for polarization/dispersion screening          
 INPUT CARD>!    answers updated Oct 2015, for r**(-7) dispersion.                          
 INPUT CARD>!                                                                               
 INPUT CARD> $contrl runtyp=md coord=fragonly $end                                          
 INPUT CARD> $system mwords=10 $end                                                         
 INPUT CARD> $md     mdint=vverlet nsteps=10 dt=0.5d-15                                     
 INPUT CARD>         batht=300.0 mbt=.true. mbr=.true.                                      
 INPUT CARD>         jevery=1 kevery=5 pbcout=.true. $end                                   
 INPUT CARD> $mdprp  pressr=.true. difusn=.true. htvap=.true. $end                          
 INPUT CARD>                                                                                
 INPUT CARD> $efrag                                                                         
 INPUT CARD>iscrelec=0 iscrpol=1 iscrdisp=1  >                                              
 INPUT CARD>nodisp7 >                                                                       
 INPUT CARD>swr1=5.1 swr2=6.35 xbox=12.71 ybox=12.71 zbox=12.71                             
 INPUT CARD> FRAGNAME=BENZEN                                                                
 INPUT CARD> C1                 .2657796839    .8383953971  30.3100385452                   
 INPUT CARD> H2                -.3642205662   1.7136230620  30.4019597587                   
 INPUT CARD> C3                1.4527186936    .9072173790  29.5818675715                   
   10000000 WORDS OF MEMORY AVAILABLE

     $CONTRL OPTIONS
     ---------------
 SCFTYP=RHF          RUNTYP=MD           EXETYP=RUN     
 MPLEVL=       0     CITYP =NONE         CCTYP =NONE         VBTYP =NONE    
 DFTTYP=NONE         TDDFT =NONE    
 MULT  =       1     ICHARG=       0     NZVAR =       0     COORD =FRAGONLY
 PP    =NONE         RELWFN=NONE         LOCAL =NONE         NUMGRD=       F
 ISPHER=      -1     NOSYM =       0     MAXIT =      30     UNITS =ANGS    
 PLTORB=       F     MOLPLT=       F     AIMPAC=       F     FRIEND=        
 NPRINT=       7     IREST =       0     GEOM  =INPUT   
 NORMF =       0     NORMP =       0     ITOL  =      20     ICUT  =       9
 INTTYP=BEST         GRDTYP=BEST         QMTTOL= 1.0E-06

     $SYSTEM OPTIONS
     ---------------
  REPLICATED MEMORY=    10000000 WORDS (ON EVERY NODE).
 DISTRIBUTED MEMDDI=           0 MILLION WORDS IN AGGREGATE,
 MEMDDI DISTRIBUTED OVER   1 PROCESSORS IS           0 WORDS/PROCESSOR.
 TOTAL MEMORY REQUESTED ON EACH PROCESSOR=    10000000 WORDS.
 TIMLIM=      525600.00 MINUTES, OR     365.0 DAYS.
 PARALL= F  BALTYP=  DLB     KDIAG=    0  COREFL= F
 MXSEQ2=     300 MXSEQ3=     150  mem10=         0

 READING $EFRAG GROUP
 COORD=CART      POSITION=OPTIMIZE  POLMETHD=FRGSCF   NBUFFMO=0
 READING COORDINATES OF FRAGMENT   1 NAMED   BENZEN
 READING COORDINATES OF FRAGMENT   2 NAMED   WATER 
 READING COORDINATES OF FRAGMENT   3 NAMED   WATER 
 READING COORDINATES OF FRAGMENT   4 NAMED   WATER 
 READING COORDINATES OF FRAGMENT   5 NAMED   WATER 
 READING COORDINATES OF FRAGMENT   6 NAMED   WATER 
 READING COORDINATES OF FRAGMENT   7 NAMED   WATER 
 READING COORDINATES OF FRAGMENT   8 NAMED   WATER 
 READING COORDINATES OF FRAGMENT   9 NAMED   WATER 
 READING COORDINATES OF FRAGMENT  10 NAMED   WATER 
 READING COORDINATES OF FRAGMENT  11 NAMED   WATER 
 READING COORDINATES OF FRAGMENT  12 NAMED   WATER 
 READING COORDINATES OF FRAGMENT  13 NAMED   WATER 
 READING COORDINATES OF FRAGMENT  14 NAMED   WATER 
 READING COORDINATES OF FRAGMENT  15 NAMED   WATER 
 READING COORDINATES OF FRAGMENT  16 NAMED   WATER 
 READING COORDINATES OF FRAGMENT  17 NAMED   WATER 
 READING COORDINATES OF FRAGMENT  18 NAMED   WATER 
 READING COORDINATES OF FRAGMENT  19 NAMED   WATER 
 READING COORDINATES OF FRAGMENT  20 NAMED   WATER 
 READING COORDINATES OF FRAGMENT  21 NAMED   WATER 
 READING COORDINATES OF FRAGMENT  22 NAMED   WATER 
 READING COORDINATES OF FRAGMENT  23 NAMED   WATER 
 READING COORDINATES OF FRAGMENT  24 NAMED   WATER 
 READING COORDINATES OF FRAGMENT  25 NAMED   WATER 
 READING COORDINATES OF FRAGMENT  26 NAMED   WATER 
 READING COORDINATES OF FRAGMENT  27 NAMED   WATER 
 READING COORDINATES OF FRAGMENT  28 NAMED   WATER 
 READING COORDINATES OF FRAGMENT  29 NAMED   WATER 
 READING COORDINATES OF FRAGMENT  30 NAMED   WATER 
 READING COORDINATES OF FRAGMENT  31 NAMED   WATER 
 READING COORDINATES OF FRAGMENT  32 NAMED   WATER 
 READING COORDINATES OF FRAGMENT  33 NAMED   WATER 
 READING COORDINATES OF FRAGMENT  34 NAMED   WATER 
 READING COORDINATES OF FRAGMENT  35 NAMED   WATER 
 READING COORDINATES OF FRAGMENT  36 NAMED   WATER 
 READING COORDINATES OF FRAGMENT  37 NAMED   WATER 
 READING COORDINATES OF FRAGMENT  38 NAMED   WATER 
 READING COORDINATES OF FRAGMENT  39 NAMED   WATER 
 READING COORDINATES OF FRAGMENT  40 NAMED   WATER 
 READING COORDINATES OF FRAGMENT  41 NAMED   WATER 
 READING COORDINATES OF FRAGMENT  42 NAMED   WATER 
 READING COORDINATES OF FRAGMENT  43 NAMED   WATER 
 READING COORDINATES OF FRAGMENT  44 NAMED   WATER 
 READING COORDINATES OF FRAGMENT  45 NAMED   WATER 
 READING COORDINATES OF FRAGMENT  46 NAMED   WATER 
 READING COORDINATES OF FRAGMENT  47 NAMED   WATER 
 READING COORDINATES OF FRAGMENT  48 NAMED   WATER 
 READING COORDINATES OF FRAGMENT  49 NAMED   WATER 
 READING COORDINATES OF FRAGMENT  50 NAMED   WATER 
 READING COORDINATES OF FRAGMENT  51 NAMED   WATER 
 READING COORDINATES OF FRAGMENT  52 NAMED   WATER 
 READING COORDINATES OF FRAGMENT  53 NAMED   WATER 
 READING COORDINATES OF FRAGMENT  54 NAMED   WATER 
 READING COORDINATES OF FRAGMENT  55 NAMED   WATER 
 READING COORDINATES OF FRAGMENT  56 NAMED   WATER 
 READING COORDINATES OF FRAGMENT  57 NAMED   WATER 
 READING COORDINATES OF FRAGMENT  58 NAMED   WATER 
 READING COORDINATES OF FRAGMENT  59 NAMED   WATER 
 READING COORDINATES OF FRAGMENT  60 NAMED   WATER 
 READING COORDINATES OF FRAGMENT  61 NAMED   WATER 
 READING COORDINATES OF FRAGMENT  62 NAMED   WATER 
 READING COORDINATES OF FRAGMENT  63 NAMED   WATER 
 READING COORDINATES OF FRAGMENT  64 NAMED   WATER 
 READING COORDINATES OF FRAGMENT  65 NAMED   WATER 
 FINISHED READING $EFRAG GROUP,  65 FRAGMENTS WILL BE USED.

 READING POTENTIAL PARAMETERS FOR FRAGMENT    1 FROM GROUP $BENZEN
 READING POTENTIAL PARAMETERS FOR FRAGMENT    2 FROM GROUP $WATER 
 READING POTENTIAL PARAMETERS FOR FRAGMENT    3 FROM GROUP $WATER 
 READING POTENTIAL PARAMETERS FOR FRAGMENT    4 FROM GROUP $WATER 
 READING POTENTIAL PARAMETERS FOR FRAGMENT    5 FROM GROUP $WATER 
 READING POTENTIAL PARAMETERS FOR FRAGMENT    6 FROM GROUP $WATER 
 READING POTENTIAL PARAMETERS FOR FRAGMENT    7 FROM GROUP $WATER 
 READING POTENTIAL PARAMETERS FOR FRAGMENT    8 FROM GROUP $WATER 
 READING POTENTIAL PARAMETERS FOR FRAGMENT    9 FROM GROUP $WATER 
 READING POTENTIAL PARAMETERS FOR FRAGMENT   10 FROM GROUP $WATER 
 READING POTENTIAL PARAMETERS FOR FRAGMENT   11 FROM GROUP $WATER 
 READING POTENTIAL PARAMETERS FOR FRAGMENT   12 FROM GROUP $WATER 
 READING POTENTIAL PARAMETERS FOR FRAGMENT   13 FROM GROUP $WATER 
 READING POTENTIAL PARAMETERS FOR FRAGMENT   14 FROM GROUP $WATER 
 READING POTENTIAL PARAMETERS FOR FRAGMENT   15 FROM GROUP $WATER 
 READING POTENTIAL PARAMETERS FOR FRAGMENT   16 FROM GROUP $WATER 
 READING POTENTIAL PARAMETERS FOR FRAGMENT   17 FROM GROUP $WATER 
 READING POTENTIAL PARAMETERS FOR FRAGMENT   18 FROM GROUP $WATER 
 READING POTENTIAL PARAMETERS FOR FRAGMENT   19 FROM GROUP $WATER 
 READING POTENTIAL PARAMETERS FOR FRAGMENT   20 FROM GROUP $WATER 
 READING POTENTIAL PARAMETERS FOR FRAGMENT   21 FROM GROUP $WATER 
 READING POTENTIAL PARAMETERS FOR FRAGMENT   22 FROM GROUP $WATER 
 READING POTENTIAL PARAMETERS FOR FRAGMENT   23 FROM GROUP $WATER 
 READING POTENTIAL PARAMETERS FOR FRAGMENT   24 FROM GROUP $WATER 
 READING POTENTIAL PARAMETERS FOR FRAGMENT   25 FROM GROUP $WATER 
 READING POTENTIAL PARAMETERS FOR FRAGMENT   26 FROM GROUP $WATER 
 READING POTENTIAL PARAMETERS FOR FRAGMENT   27 FROM GROUP $WATER 
 READING POTENTIAL PARAMETERS FOR FRAGMENT   28 FROM GROUP $WATER 
 READING POTENTIAL PARAMETERS FOR FRAGMENT   29 FROM GROUP $WATER 
 READING POTENTIAL PARAMETERS FOR FRAGMENT   30 FROM GROUP $WATER 
 READING POTENTIAL PARAMETERS FOR FRAGMENT   31 FROM GROUP $WATER 
 READING POTENTIAL PARAMETERS FOR FRAGMENT   32 FROM GROUP $WATER 
 READING POTENTIAL PARAMETERS FOR FRAGMENT   33 FROM GROUP $WATER 
 READING POTENTIAL PARAMETERS FOR FRAGMENT   34 FROM GROUP $WATER 
 READING POTENTIAL PARAMETERS FOR FRAGMENT   35 FROM GROUP $WATER 
 READING POTENTIAL PARAMETERS FOR FRAGMENT   36 FROM GROUP $WATER 
 READING POTENTIAL PARAMETERS FOR FRAGMENT   37 FROM GROUP $WATER 
 READING POTENTIAL PARAMETERS FOR FRAGMENT   38 FROM GROUP $WATER 
 READING POTENTIAL PARAMETERS FOR FRAGMENT   39 FROM GROUP $WATER 
 READING POTENTIAL PARAMETERS FOR FRAGMENT   40 FROM GROUP $WATER 
 READING POTENTIAL PARAMETERS FOR FRAGMENT   41 FROM GROUP $WATER 
 READING POTENTIAL PARAMETERS FOR FRAGMENT   42 FROM GROUP $WATER 
 READING POTENTIAL PARAMETERS FOR FRAGMENT   43 FROM GROUP $WATER 
 READING POTENTIAL PARAMETERS FOR FRAGMENT   44 FROM GROUP $WATER 
 READING POTENTIAL PARAMETERS FOR FRAGMENT   45 FROM GROUP $WATER 
 READING POTENTIAL PARAMETERS FOR FRAGMENT   46 FROM GROUP $WATER 
 READING POTENTIAL PARAMETERS FOR FRAGMENT   47 FROM GROUP $WATER 
 READING POTENTIAL PARAMETERS FOR FRAGMENT   48 FROM GROUP $WATER 
 READING POTENTIAL PARAMETERS FOR FRAGMENT   49 FROM GROUP $WATER 
 READING POTENTIAL PARAMETERS FOR FRAGMENT   50 FROM GROUP $WATER 
 READING POTENTIAL PARAMETERS FOR FRAGMENT   51 FROM GROUP $WATER 
 READING POTENTIAL PARAMETERS FOR FRAGMENT   52 FROM GROUP $WATER 
 READING POTENTIAL PARAMETERS FOR FRAGMENT   53 FROM GROUP $WATER 
 READING POTENTIAL PARAMETERS FOR FRAGMENT   54 FROM GROUP $WATER 
 READING POTENTIAL PARAMETERS FOR FRAGMENT   55 FROM GROUP $WATER 
 READING POTENTIAL PARAMETERS FOR FRAGMENT   56 FROM GROUP $WATER 
 READING POTENTIAL PARAMETERS FOR FRAGMENT   57 FROM GROUP $WATER 
 READING POTENTIAL PARAMETERS FOR FRAGMENT   58 FROM GROUP $WATER 
 READING POTENTIAL PARAMETERS FOR FRAGMENT   59 FROM GROUP $WATER 
 READING POTENTIAL PARAMETERS FOR FRAGMENT   60 FROM GROUP $WATER 
 READING POTENTIAL PARAMETERS FOR FRAGMENT   61 FROM GROUP $WATER 
 READING POTENTIAL PARAMETERS FOR FRAGMENT   62 FROM GROUP $WATER 
 READING POTENTIAL PARAMETERS FOR FRAGMENT   63 FROM GROUP $WATER 
 READING POTENTIAL PARAMETERS FOR FRAGMENT   64 FROM GROUP $WATER 
 READING POTENTIAL PARAMETERS FOR FRAGMENT   65 FROM GROUP $WATER 


     SUMMARY OF THE EFFECTIVE FRAGMENT POTENTIAL MODEL CHOSEN
     --------------------------------------------------------
 TOTAL NUMBER OF MULTIPOLE POINTS   =       344  (EFP1/EFP2 ELECTROSTATICS)
 TOTAL NUMBER OF POLARIZABLE POINTS =       271  (EFP1/EFP2 INDUCTION)
 TOTAL NUMBER OF L-J POINTS         =         0  (REPULSION AND DISPERSION)
 TOTAL NUMBER OF AO CENTERS         =       204  (EFP2 PAULI REPULSION)
 TOTAL NUMBER OF EFP MOS            =       271  (EFP2 PAULI REPULSION)
 TOTAL NO OF DYNAMIC POLARIZABLE PTS=      3252  (EFP2 DISPERSION)
 TOTAL NUMBER OF EFP MOS            =         0  (EFP2 CHARGE TRANSFER)

 THIS IS A -EFP2- TYPE RUN, INCLUDING SEPARATE FORMULAE FOR
   PAULI REPULSION=T  DISPERSION=T  CHARGE TRANSFER=F

 OPTIONS FOR EFP SCREENING:
     ELECTROSTATIC EFP-EFP SCREENING CHOICE IS EXPONENTIAL, TO HIGHER ORDER
     POLARIZATION EFP-EFP SCREENING IS TANG-TOENNIS LIKE
     DISPERSION EFP-EFP SCREENING CHOICE IS USING OVERLAP

     PERIODIC BOUNDARY CONDITIONS WILL BE APPLIED
     BOX SIZE IS =    12.7100   12.7100   12.7100 ANGSTROMS
     SWITCHING FUNCTIONS WILL BE APPLIED BETWEEN     5.1000 AND     6.3500 ANG.

     $EWALD OPTIONS
     -----------

     IFEWLD   =        F         TINFOIL        =        T
     BETA    =    0.200         ELECTRIC CONST =     1.00
     EPSILON =     1.00         CUT_OFF        = 0.10E+04
     CUTLIST =  1000.00         LEVEL          =    1
     KMAX    =       10         EWLDPL         =        F

            MULTIPOLE COORDINATES, ELECTRONIC AND NUCLEAR CHARGES

                  X              Y              Z           ELEC.   NUC.
 C1         0.5022507757   1.5843375699  57.2776675277   -3.46668    6.0
 H2        -0.6882770692   3.2382780334  57.4513734337   -0.60802    1.0
 C3         2.7452402682   1.7143922575  55.9016239152   -3.46668    6.0
 H4         3.2959170692   3.4692925404  55.0071244038   -0.60802    1.0
 C5         4.2788574920  -0.4161850262  55.6778589941   -3.46668    6.0
 H6         6.0200621379  -0.3152252069  54.6096535767   -0.60802    1.0
 C7         3.5694852233  -2.6768169977  56.8301376855   -3.46668    6.0
 H8         4.7600130682  -4.3307574612  56.6564317795   -0.60802    1.0
 C9         1.3264957430  -2.8068716755  58.2061812876   -3.46668    6.0
 H10        0.7758189420  -4.5617719583  59.1006807990   -0.60802    1.0
 C11       -0.2071214808  -0.6762943917  58.4299462087   -3.46668    6.0
 H12       -1.9483261267  -0.7772542110  59.4981516261   -0.60802    1.0
 BO21      -0.0930131467   2.4113078016  57.3645204807   -1.06697    0.0
 BO31       1.6237455219   1.6493649137  56.5896457215   -1.85834    0.0
 BO43       3.0205786687   2.5918423990  55.4543741595   -1.06696    0.0
 BO53       3.5120488801   0.6491036157  55.7897414547   -1.85833    0.0
 BO65       5.1494598150  -0.3657051166  55.1437562854   -1.06696    0.0
 BO75       3.9241713576  -1.5465010120  56.2539983398   -1.85834    0.0
 BO87       4.1647491457  -3.5037872294  56.7432847325   -1.06697    0.0
 BO97       2.4479904832  -2.7418443366  57.5181594865   -1.85834    0.0
 BO109      1.0511573425  -3.6843218169  58.6534310433   -1.06696    0.0
 BO111      0.1475646474   0.4540215891  57.8538068682   -1.85834    0.0
 BO119      0.5596871311  -1.7415830336  58.3180637481   -1.85833    0.0
 BO1211    -1.0777238038  -0.7267743013  58.9640489174   -1.06696    0.0
 O1        -4.8876126393  -7.2441752135  36.0034826803   -5.89015    8.0
 H2        -5.3367414360  -7.4600498460  34.2908631318   -0.57719    1.0
 H3        -6.3892283216  -7.4085789577  36.9519055829   -0.57719    1.0
 BO21      -5.1121770376  -7.3521125298  35.1471729060   -1.47774    0.0
 BO31      -5.6384204804  -7.3263770856  36.4776941316   -1.47774    0.0
 O1        -9.2415419875  -7.8226842786  46.1134658843   -5.89015    8.0
 H2       -10.7181111301  -8.7530107178  45.7451989508   -0.57719    1.0
 H3        -9.4904328771  -6.1839874577  45.4545954077   -0.57719    1.0
 BO21      -9.9798265588  -8.2878474982  45.9293324176   -1.47774    0.0
 BO31      -9.3659874323  -7.0033358681  45.7840306460   -1.47774    0.0
 O1        -6.2803438811  -7.5889494729  50.4083779167   -5.89015    8.0
 H2        -5.8906788691  -5.8635865192  50.1788825856   -0.57719    1.0
 H3        -7.5102848515  -8.0038517192  49.1850686401   -0.57719    1.0
 BO21      -6.0855113751  -6.7262679961  50.2936302512   -1.47774    0.0
 BO31      -6.8953143663  -7.7964005961  49.7967232784   -1.47774    0.0
 O1        -3.1673354932   3.9356068465  37.4433660263   -5.89015    8.0
 H2        -1.7478207100   4.1374206358  38.5043246615   -0.57719    1.0
 H3        -4.6016188967   3.9197968448  38.5035383769   -0.57719    1.0
 BO21      -2.4575781016   4.0365137411  37.9738453439   -1.47774    0.0
 BO31      -3.8844771949   3.9277018456  37.9734522016   -1.47774    0.0
 O1        -8.9100549596  -7.8059251491  39.6120421742   -5.89015    8.0
 H2        -7.8743854556  -8.6766321497  40.7742135249   -0.57719    1.0
 H3        -9.3290330642  -6.2455286581  40.3676904980   -0.57719    1.0
 BO21      -8.3922202076  -8.2412786494  40.1931278495   -1.47774    0.0
 BO31      -9.1195440119  -7.0257269036  39.9898663361   -1.47774    0.0
 O1        -4.6423884039   3.0069215351  54.4957423036   -5.89015    8.0
 H2        -5.2160611339   1.4172994782  53.9253165275   -0.57719    1.0
 H3        -5.3540227906   4.2290050609  53.4087866438   -0.57719    1.0
 BO21      -4.9292247689   2.2121105066  54.2105294155   -1.47774    0.0
 BO31      -4.9982055973   3.6179632980  53.9522644737   -1.47774    0.0
 O1        -2.0997967622  -7.7991461858  45.5155261833   -5.89015    8.0
 H2        -2.4455252340  -7.9788655689  47.2560884539   -0.57719    1.0
 H3        -0.3829258087  -8.2253043696  45.2872115275   -0.57719    1.0
 BO21      -2.2726609981  -7.8890058773  46.3858073186   -1.47774    0.0
 BO31      -1.2413612855  -8.0122252777  45.4013688554   -1.47774    0.0
 O1         9.0221760347   6.8110693082  36.9269389968   -5.89015    8.0
 H2         8.4451333655   5.1259079090  36.8340031744   -0.57719    1.0
 H3         7.9144966352   7.7881171700  35.9270349642   -0.57719    1.0
 BO21       8.7336547001   5.9684886086  36.8804710856   -1.47774    0.0
 BO31       8.4683363350   7.2995932391  36.4269869805   -1.47774    0.0
 O1        -2.9191685386   7.5593381315  33.9318828160   -5.89015    8.0
 H2        -2.4819368937   6.7947648901  32.3808700830   -0.57719    1.0
 H3        -3.2719513707   6.2358503626  35.0743838661   -0.57719    1.0
 BO21      -2.7005527161   7.1770515108  33.1563764495   -1.47774    0.0
 BO31      -3.0955599546   6.8975942470  34.5031333410   -1.47774    0.0
 O1         9.9394703403  -9.8197947549  39.1811356605   -5.89015    8.0
 H2         9.1791527634  -8.2166105064  38.9991969391   -0.57719    1.0
 H3        11.6867051496  -9.5930299165  38.9034083123   -0.57719    1.0
 BO21       9.5593115519  -9.0182026307  39.0901662998   -1.47774    0.0
 BO31      10.8130877450  -9.7064123357  39.0422719864   -1.47774    0.0
 O1         6.2535028559  -8.4040988436  53.1427233723   -5.89015    8.0
 H2         7.1045330760  -9.9003187721  52.6753287416   -0.57719    1.0
 H3         7.2972089288  -7.0448561772  52.6482324644   -0.57719    1.0
 BO21       6.6790179660  -9.1522088078  52.9090260570   -1.47774    0.0
 BO31       6.7753558923  -7.7244775104  52.8954779184   -1.47774    0.0
 O1        -7.1842236496  10.2838770129  32.2957585301   -5.89015    8.0
 H2        -5.6706399681   9.7256352029  33.0565573022   -0.57719    1.0
 H3        -8.5229115838   9.6126931580  33.2646811784   -0.57719    1.0
 BO21      -6.4274318088  10.0047561079  32.6761579162   -1.47774    0.0
 BO31      -7.8535676167   9.9482850855  32.7802198543   -1.47774    0.0
 O1        12.9561905321  -4.9602159684  32.8619901465   -5.89015    8.0
 H2        11.5275781587  -5.9027455643  33.3640746994   -0.57719    1.0
 H3        14.2814312392  -6.1287872393  32.6179358415   -0.57719    1.0
 BO21      12.2418843454  -5.4314807664  33.1130324230   -1.47774    0.0
 BO31      13.6188108857  -5.5445016038  32.7399629940   -1.47774    0.0
 O1         0.2805851616   4.9736655872  41.2216633074   -5.89015    8.0
 H2         0.2952515811   3.7227434726  42.4930259661   -0.57719    1.0
 H3         1.9096858664   5.6995079856  41.1978314549   -0.57719    1.0
 BO21       0.2879183713   4.3482045299  41.8573446367   -1.47774    0.0
 BO31       1.0951355140   5.3365867864  41.2097473812   -1.47774    0.0
 O1       -11.4473892859   4.0685284923  44.9008167612   -5.89015    8.0
 H2       -10.6542527627   5.0294690194  46.1771051336   -0.57719    1.0
 H3       -10.1502869771   3.2253052976  44.0131881816   -0.57719    1.0
 BO21     -11.0508210243   4.5489987558  45.5389609474   -1.47774    0.0
 BO31     -10.7988381315   3.6469168949  44.4570024714   -1.47774    0.0
 O1         2.6874406435  11.2450633890  55.0752835041   -5.89015    8.0
 H2         1.9952248514  12.8417560367  54.6843945983   -0.57719    1.0
 H3         4.3487567204  11.5348363835  55.6561834567   -0.57719    1.0
 BO21       2.3413327474  12.0434097128  54.8798390512   -1.47774    0.0
 BO31       3.5180986819  11.3899498862  55.3657334804   -1.47774    0.0
 O1        -4.1207204817  -2.9033492249  43.5602198042   -5.89015    8.0
 H2        -3.2060840602  -3.6958382525  42.2499581479   -0.57719    1.0
 H3        -3.8563478946  -3.8766689134  45.0313214900   -0.57719    1.0
 BO21      -3.6634022709  -3.2995937387  42.9050889761   -1.47774    0.0
 BO31      -3.9885341882  -3.3900090691  44.2957706471   -1.47774    0.0
 O1         2.1835042416   0.2974659043  47.9720372279   -5.89015    8.0
 H2         0.6180250959   0.7035976005  48.7241783983   -0.57719    1.0
 H3         2.3049286192   1.2717866598  46.4829638796   -0.57719    1.0
 BO21       1.4007646688   0.5005317524  48.3481078131   -1.47774    0.0
 BO31       2.2442164304   0.7846262821  47.2275005538   -1.47774    0.0
 O1        -7.2955099681   2.0739097115  49.7346543548   -5.89015    8.0
 H2        -8.6519670957   1.5969693433  50.7900861133   -0.57719    1.0
 H3        -7.7642206215   3.6108896933  48.9604534058   -0.57719    1.0
 BO21      -7.9737385319   1.8354395274  50.2623702341   -1.47774    0.0
 BO31      -7.5298652948   2.8423997024  49.3475538803   -1.47774    0.0
 O1         8.1792514079   1.6538487810  37.5737422917   -5.89015    8.0
 H2         6.6158741058   0.8187749893  37.7734606537   -0.57719    1.0
 H3         9.2193037935   0.5713210519  36.6105138652   -0.57719    1.0
 BO21       7.3975627569   1.2363118852  37.6736014727   -1.47774    0.0
 BO31       8.6992776007   1.1125849165  37.0921280785   -1.47774    0.0
 O1         3.9632907186  -1.2562753553  39.6527627940   -5.89015    8.0
 H2         4.1648028823  -0.1906955922  41.0688549051   -0.57719    1.0
 H3         2.2657588435  -1.0971534007  39.1288830488   -0.57719    1.0
 BO21       4.0640468005  -0.7234854737  40.3608088495   -1.47774    0.0
 BO31       3.1145247811  -1.1767143780  39.3908229214   -1.47774    0.0
 O1        10.1980533820 -10.0623141992  44.5816952601   -5.89015    8.0
 H2        10.0507123068 -10.3982570075  42.8361817861   -0.57719    1.0
 H3        10.3070336069 -11.6431147938  45.4005829455   -0.57719    1.0
 BO21      10.1243828444 -10.2302856033  43.7089385231   -1.47774    0.0
 BO31      10.2525434944 -10.8527144965  44.9911391028   -1.47774    0.0
 O1        -1.5257657597  -4.9084921304  39.5085240078   -5.89015    8.0
 H2        -2.6546598825  -5.2477046904  38.1698989112   -0.57719    1.0
 H3        -0.6798666290  -6.4376262712  39.8657182001   -0.57719    1.0
 BO21      -2.0902128211  -5.0780984104  38.8392114595   -1.47774    0.0
 BO31      -1.1028161944  -5.6730592008  39.6871211040   -1.47774    0.0
 O1        -7.1900690579   4.4742144382  41.0319382454   -5.89015    8.0
 H2        -8.7288638787   3.7016964830  40.5664162169   -0.57719    1.0
 H3        -7.4988543987   6.2294436658  41.1040924038   -0.57719    1.0
 BO21      -7.9594664683   4.0879554606  40.7991772312   -1.47774    0.0
 BO31      -7.3444617283   5.3518290520  41.0680153246   -1.47774    0.0
 O1        -1.9549618954 -10.5349714620  51.0954065437   -5.89015    8.0
 H2        -3.5881292608  -9.8350659401  50.9395833495   -0.57719    1.0
 H3        -1.9043830493 -11.9614923189  50.0258906364   -0.57719    1.0
 BO21      -2.7715455781 -10.1850187011  51.0174949466   -1.47774    0.0
 BO31      -1.9296724724 -11.2482318905  50.5606485901   -1.47774    0.0
 O1        -1.0445223796  -2.3252641747  52.2369411075   -5.89015    8.0
 H2        -0.4260865330  -1.0895703402  53.3647629471   -0.57719    1.0
 H3         0.0721113611  -3.7127363152  52.3340719416   -0.57719    1.0
 BO21      -0.7353044563  -1.7074172574  52.8008520273   -1.47774    0.0
 BO31      -0.4862055092  -3.0190002449  52.2855065246   -1.47774    0.0
 O1         4.8518975498   7.1916799739  42.8728898083   -5.89015    8.0
 H2         6.5405516801   7.6321040678  42.5043004750   -0.57719    1.0
 H3         4.3464564093   8.2061114675  44.2501487704   -0.57719    1.0
 BO21       5.6962246149   7.4118920208  42.6885951416   -1.47774    0.0
 BO31       4.5991769795   7.6988957207  43.5615192893   -1.47774    0.0
 O1        -3.6569531944   8.1390684743  43.3903601861   -5.89015    8.0
 H2        -2.4573434407   7.1845942449  42.4786038398   -0.57719    1.0
 H3        -3.8111506136   9.7052119427  42.5508352949   -0.57719    1.0
 BO21      -3.0571483176   7.6618313596  42.9344820129   -1.47774    0.0
 BO31      -3.7340519040   8.9221402085  42.9705977405   -1.47774    0.0
 O1         1.5713676799  -6.8757525174  51.4998112631   -5.89015    8.0
 H2         3.0095098648  -7.6407602695  52.2263747124   -0.57719    1.0
 H3         0.4077683865  -8.1855586456  51.1654030669   -0.57719    1.0
 BO21       2.2904387724  -7.2582563934  51.8630929878   -1.47774    0.0
 BO31       0.9895680332  -7.5306555815  51.3326071650   -1.47774    0.0
 O1        11.6173859967   9.8979867098  47.7019254531   -5.89015    8.0
 H2        13.2101567891   9.1538805747  47.4006423415   -0.57719    1.0
 H3        10.4975338306   8.5682476240  48.1008105750   -0.57719    1.0
 BO21      12.4137713929   9.5259336423  47.5512838973   -1.47774    0.0
 BO31      11.0574599137   9.2331171669  47.9013680140   -1.47774    0.0
 O1         4.6625489955   2.1276649289  43.7075165656   -5.89015    8.0
 H2         4.9524887464   3.8767209968  43.5122678446   -0.57719    1.0
 H3         6.1479831943   1.4374568791  44.4135493833   -0.57719    1.0
 BO21       4.8075188709   3.0021929629  43.6098922051   -1.47774    0.0
 BO31       5.4052660949   1.7825609040  44.0605329744   -1.47774    0.0
 O1        -4.9440590941  -2.7137953415  48.8034845882   -5.89015    8.0
 H2        -6.0766317789  -1.3386752932  48.7156881352   -0.57719    1.0
 H3        -3.4890767257  -2.1262457080  49.6515388238   -0.57719    1.0
 BO21      -5.5103454365  -2.0262353173  48.7595863617   -1.47774    0.0
 BO31      -4.2165679099  -2.4200205247  49.2275117060   -1.47774    0.0
 O1         1.4431284474   9.7193643814  36.4161637489   -5.89015    8.0
 H2         2.4009436310  10.2062954219  34.9924810291   -0.57719    1.0
 H3         0.0107820813   8.8540996932  35.7988427970   -0.57719    1.0
 BO21       1.9220360392   9.9628299017  35.7043223890   -1.47774    0.0
 BO31       0.7269552644   9.2867320373  36.1075032729   -1.47774    0.0
 O1        -7.7348759373   7.0641546536  47.1450244766   -5.89015    8.0
 H2        -6.8629847247   7.6115543676  48.6015764040   -0.57719    1.0
 H3        -6.6178365029   7.2727215942  45.7702128590   -0.57719    1.0
 BO21      -7.2989303310   7.3378545106  47.8733004403   -1.47774    0.0
 BO31      -7.1763562201   7.1684381239  46.4576186678   -1.47774    0.0
 O1         8.5024541319  -7.3804517974  34.0531505740   -5.89015    8.0
 H2         7.4394934275  -7.3856260344  32.6208545086   -0.57719    1.0
 H3         7.5383760060  -6.7282833974  35.4046734173   -0.57719    1.0
 BO21       7.9709737797  -7.3830389159  33.3370025413   -1.47774    0.0
 BO31       8.0204150689  -7.0543675974  34.7289119956   -1.47774    0.0
 O1        -3.1972343390   2.1968165252  44.0853182575   -5.89015    8.0
 H2        -4.5744436600   2.9492843841  43.2376916545   -0.57719    1.0
 H3        -3.4425543806   0.4323682182  43.9962985987   -0.57719    1.0
 BO21      -3.8858389995   2.5730504547  43.6615049560   -1.47774    0.0
 BO31      -3.3198943598   1.3145923717  44.0408084281   -1.47774    0.0
 O1       -11.4166780777   1.0706015546  40.7801166174   -5.89015    8.0
 H2       -13.1146387556   1.6135869388  40.8391137303   -0.57719    1.0
 H3       -11.1917924211   0.2607900372  39.2068982606   -0.57719    1.0
 BO21     -12.2656584166   1.3420942467  40.8096151739   -1.47774    0.0
 BO31     -11.3042352494   0.6656957959  39.9935074390   -1.47774    0.0
 O1         8.7450062123  -3.8773104240  53.2858583042   -5.89015    8.0
 H2        10.3622014000  -3.8419372479  54.0373985319   -0.57719    1.0
 H3         8.7063122421  -2.5543434873  52.0901804580   -0.57719    1.0
 BO21       9.5536038061  -3.8596238359  53.6616284181   -1.47774    0.0
 BO31       8.7256592272  -3.2158269556  52.6880193811   -1.47774    0.0
 O1         4.8257698676 -11.2240863959  39.8957378797   -5.89015    8.0
 H2         6.5006995015 -11.8372706722  39.8956136280   -0.57719    1.0
 H3         3.7612793153 -12.6405336266  39.6909908228   -0.57719    1.0
 BO21       5.6632346845 -11.5306785340  39.8956757539   -1.47774    0.0
 BO31       4.2935245914 -11.9323100112  39.7933643513   -1.47774    0.0
 O1        -2.1429647870   3.6078757485  48.9843732757   -5.89015    8.0
 H2        -3.5314295145   3.1494302255  50.0058318669   -0.57719    1.0
 H3        -2.6070454656   3.2530195820  47.2991164777   -0.57719    1.0
 BO21      -2.8371971508   3.3786529870  49.4951025713   -1.47774    0.0
 BO31      -2.3750051263   3.4304476653  48.1417448767   -1.47774    0.0
 O1        -9.8830322613   7.8307954595  36.0384550630   -5.89015    8.0
 H2        -9.2904486577   8.5532387021  37.5577656582   -0.57719    1.0
 H3       -11.6426581656   7.6092733164  36.2282677812   -0.57719    1.0
 BO21      -9.5867404595   8.1920170808  36.7981103606   -1.47774    0.0
 BO31     -10.7628452134   7.7200343879  36.1333614221   -1.47774    0.0
 O1        -0.5229927906   7.2233087530  53.1605852164   -5.89015    8.0
 H2         0.2711524018   5.7902288917  52.4556031064   -0.57719    1.0
 H3         0.7745898054   8.3696449422  53.5890440807   -0.57719    1.0
 BO21      -0.1259201944   6.5067688223  52.8080941614   -1.47774    0.0
 BO31       0.1257985074   7.7964768476  53.3748146485   -1.47774    0.0
 O1         9.0574001779   0.0544790388  45.6974729494   -5.89015    8.0
 H2         9.4459173913  -1.6850508298  45.6305815331   -0.57719    1.0
 H3        10.6008119709   0.9315101045  45.5240347825   -0.57719    1.0
 BO21       9.2516587846  -0.8152858955  45.6640272413   -1.47774    0.0
 BO31       9.8291060744   0.4929945717  45.6107538659   -1.47774    0.0
 O1        -4.7444349781  13.2672292374  41.9138400418   -5.89015    8.0
 H2        -3.4734236910  13.5721891888  40.7002033635   -0.57719    1.0
 H3        -4.2838195189  14.1758332776  43.3779631062   -0.57719    1.0
 BO21      -4.1089293345  13.4197092131  41.3070217027   -1.47774    0.0
 BO31      -4.5141272485  13.7215312575  42.6459015740   -1.47774    0.0
 O1         9.2237896593  -5.0005437494  46.6540425983   -5.89015    8.0
 H2         7.5543487797  -5.0706248818  47.2780939062   -0.57719    1.0
 H3         9.5282261403  -6.5523026430  45.8289686526   -0.57719    1.0
 BO21       8.3890692195  -5.0355843156  46.9660682523   -1.47774    0.0
 BO31       9.3760078998  -5.7764231962  46.2415056255   -1.47774    0.0
 O1        -5.8895204380  -2.6150069558  54.7506997106   -5.89015    8.0
 H2        -4.4047616576  -2.8590867774  53.7929415701   -0.57719    1.0
 H3        -5.4670573192  -2.9614272493  56.4486108226   -0.57719    1.0
 BO21      -5.1471410478  -2.7370468666  54.2718206404   -1.47774    0.0
 BO31      -5.6782888786  -2.7882171025  55.5996552666   -1.47774    0.0
 O1         4.0918301446  -4.6464332721  47.5858487143   -5.89015    8.0
 H2         3.1679574429  -5.3299604447  48.9498993314   -0.57719    1.0
 H3         3.4972709713  -2.9818605157  47.3469320372   -0.57719    1.0
 BO21       3.6298937938  -4.9881968584  48.2678740229   -1.47774    0.0
 BO31       3.7945505580  -3.8141468939  47.4663903757   -1.47774    0.0
 O1         7.5268696276   7.1306344035  49.5219534128   -5.89015    8.0
 H2         7.1833836785   5.4056893459  49.8185443799   -0.57719    1.0
 H3         6.0779827506   7.8144547212  48.7380523722   -0.57719    1.0
 BO21       7.3551266530   6.2681618747  49.6702488964   -1.47774    0.0
 BO31       6.8024261891   7.4725445624  49.1300028925   -1.47774    0.0
 O1        -7.1980335842  -8.5212305678  31.5755136015   -5.89015    8.0
 H2        -6.9250395851  -8.1129506625  29.8608223622   -0.57719    1.0
 H3        -7.3284342197 -10.2978493131  31.6649885072   -0.57719    1.0
 BO21      -7.0615365846  -8.3170906151  30.7181679819   -1.47774    0.0
 BO31      -7.2632339019  -9.4095399404  31.6202510543   -1.47774    0.0
 O1        -9.0425185804   3.2026157227  33.6013759271   -5.89015    8.0
 H2        -9.1051129479   4.6687904859  34.6151795371   -0.57719    1.0
 H3        -7.4060562598   3.1373349371  32.8948961024   -0.57719    1.0
 BO21      -9.0738157642   3.9357031043  34.1082777321   -1.47774    0.0
 BO31      -8.2242874201   3.1699753299  33.2481360148   -1.47774    0.0
 O1        -9.2459654655  -3.5443814639  42.7510179270   -5.89015    8.0
 H2        -7.5504331738  -3.0298732666  42.9555559757   -0.57719    1.0
 H3       -10.2073187674  -2.0603625172  42.5167705244   -0.57719    1.0
 BO21      -8.3981993196  -3.2871273653  42.8532869513   -1.47774    0.0
 BO31      -9.7266421164  -2.8023719905  42.6338942257   -1.47774    0.0
 O1        -1.1084909050 -10.0387450816  38.2496278481   -5.89015    8.0
 H2        -0.2370735826 -11.4572918197  37.6095175038   -0.57719    1.0
 H3        -2.2568869014  -9.5284499623  36.9838593948   -0.57719    1.0
 BO21      -0.6727822438 -10.7480184506  37.9295726759   -1.47774    0.0
 BO31      -1.6826889032  -9.7835975219  37.6167436215   -1.47774    0.0
 O1        -8.5979537912   9.7465662740  40.8811115464   -5.89015    8.0
 H2        -7.4477895914  11.0443439891  41.2985795886   -0.57719    1.0
 H3       -10.1292813455  10.1324128010  41.7102934503   -0.57719    1.0
 BO21      -8.0228716913  10.3954551316  41.0898455675   -1.47774    0.0
 BO31      -9.3636175683   9.9394895375  41.2957024983   -1.47774    0.0
 O1         5.8949799894  -6.2233954404  38.4027689998   -5.89015    8.0
 H2         5.3077326630  -4.6377089701  38.9703280241   -0.57719    1.0
 H3         4.6810475205  -7.4295903677  38.9056069550   -0.57719    1.0
 BO21       5.6013563262  -5.4305522053  38.6865485119   -1.47774    0.0
 BO31       5.2880137549  -6.8264929041  38.6541879774   -1.47774    0.0
 O1        10.2896381568   8.1990660177  41.8794496661   -5.89015    8.0
 H2         9.9848610364   7.6297876120  40.2167959877   -0.57719    1.0
 H3        10.9354241179   6.8065125643  42.7878216288   -0.57719    1.0
 BO21      10.1372495966   7.9144268149  41.0481228269   -1.47774    0.0
 BO31      10.6125311374   7.5027892910  42.3336356474   -1.47774    0.0
 O1         7.3789346390  11.1249579368  33.6979650480   -5.89015    8.0
 H2         8.5537791396  11.3155976089  32.3695143845   -0.57719    1.0
 H3         7.6632398929  12.4727433891  34.8311151475   -0.57719    1.0
 BO21       7.9663568893  11.2202777729  33.0337397162   -1.47774    0.0
 BO31       7.5210872660  11.7988506629  34.2645400978   -1.47774    0.0
 O1         9.1675334770 -12.8787521147  52.6488096429   -5.89015    8.0
 H2         8.4702061941 -14.3688405883  51.9597847870   -0.57719    1.0
 H3        10.6530343322 -12.5327373261  51.7241771612   -0.57719    1.0
 BO21       8.8188698356 -13.6237963515  52.3042972150   -1.47774    0.0
 BO31       9.9102839046 -12.7057447204  52.1864934021   -1.47774    0.0
 O1        -5.6938613182   7.8101822265  51.8352522316   -5.89015    8.0
 H2        -3.9472203741   8.0998460180  52.0514108567   -0.57719    1.0
 H3        -6.5323643463   8.7901925977  53.0672735768   -0.57719    1.0
 BO21      -4.8205408461   7.9550141223  51.9433315442   -1.47774    0.0
 BO31      -6.1131128322   8.3001874121  52.4512629042   -1.47774    0.0
 O1         3.6147740785  10.0637005764  46.9040537360   -5.89015    8.0
 H2         1.9115726458   9.8088760158  47.3683312106   -0.57719    1.0
 H3         3.7944178147  11.8021422924  46.5477774685   -0.57719    1.0
 BO21       2.7631733621   9.9362882961  47.1361924733   -1.47774    0.0
 BO31       3.7045959466  10.9329214344  46.7259156022   -1.47774    0.0
 O1         3.2492495206  -9.0437605925  44.6948349631   -5.89015    8.0
 H2         4.0289800942  -9.4797614669  43.1510384348   -0.57719    1.0
 H3         3.9665457325  -7.4947363572  45.2119368039   -0.57719    1.0
 BO21       3.6391148074  -9.2617610297  43.9229366989   -1.47774    0.0
 BO31       3.6078976266  -8.2692484748  44.9533858835   -1.47774    0.0
 O1        12.5400727560  -0.6336981667  35.8659482118   -5.89015    8.0
 H2        12.8451667506  -2.2211956596  35.1121885584   -0.57719    1.0
 H3        13.6178400586   0.5340415053  35.0558951576   -0.57719    1.0
 BO21      12.6926197533  -1.4274469132  35.4890683851   -1.47774    0.0
 BO31      13.0789564073  -0.0498283307  35.4609216847   -1.47774    0.0
 O1       -10.5266156508  -0.1258741577  29.0787535388   -5.89015    8.0
 H2        -9.5289986377  -1.3764707364  29.8675201349   -0.57719    1.0
 H3       -11.1805669316   0.9041931029  30.3797890540   -0.57719    1.0
 BO21     -10.0278071443  -0.7511724471  29.4731368368   -1.47774    0.0
 BO31     -10.8535912912   0.3891594726  29.7292712964   -1.47774    0.0
 O1         6.8082664887   1.7532172988  50.1915893373   -5.89015    8.0
 H2         7.7619502471   1.1710320219  48.8012901454   -0.57719    1.0
 H3         5.1234124011   1.2411555396  49.9079633358   -0.57719    1.0
 BO21       7.2851083679   1.4621246603  49.4964397414   -1.47774    0.0
 BO31       5.9658394449   1.4971864192  50.0497763366   -1.47774    0.0
 O1        -1.3132888562   8.9549451030  47.9885409374   -5.89015    8.0
 H2        -1.4034131926   7.4068964414  48.8699076012   -0.57719    1.0
 H3        -2.1303154569   8.7020371916  46.4233286921   -0.57719    1.0
 BO21      -1.3583510244   8.1809207722  48.4292242693   -1.47774    0.0
 BO31      -1.7218021565   8.8284911473  47.2059348147   -1.47774    0.0

   CHARGE SCREENING PARAMETERS (COEF AND ZETA)
   ICHGP=   6 AI-FRAGMENT SCREENING= 0   FRAGMENT-FRAGMENT SCREENING= 3

             GAUSSIAN DAMPING    EXPONENTIAL DAMPING
 C1         0.00000   0.00000      1.00000   1.63151
 H2         0.00000   0.00000      1.00000   2.09448
 C3         0.00000   0.00000      1.00000   1.63151
 H4         0.00000   0.00000      1.00000   2.09448
 C5         0.00000   0.00000      1.00000   1.63151
 H6         0.00000   0.00000      1.00000   2.09448
 C7         0.00000   0.00000      1.00000   1.63151
 H8         0.00000   0.00000      1.00000   2.09448
 C9         0.00000   0.00000      1.00000   1.63151
 H10        0.00000   0.00000      1.00000   2.09448
 C11        0.00000   0.00000      1.00000   1.63151
 H12        0.00000   0.00000      1.00000   2.09448
 BO21       0.00000   0.00000      1.00000   1.78224
 BO31       0.00000   0.00000      1.00000   3.06046
 BO43       0.00000   0.00000      1.00000   1.78224
 BO53       0.00000   0.00000      1.00000   3.06046
 BO65       0.00000   0.00000      1.00000   1.78224
 BO75       0.00000   0.00000      1.00000   3.06046
 BO87       0.00000   0.00000      1.00000   1.78224
 BO97       0.00000   0.00000      1.00000   3.06046
 BO109      0.00000   0.00000      1.00000   1.78224
 BO111      0.00000   0.00000      1.00000   3.06046
 BO119      0.00000   0.00000      1.00000   3.06046
 BO1211     0.00000   0.00000      1.00000   1.78224
 O1         0.00000   0.00000      1.00000   1.97060
 H2         0.00000   0.00000      1.00000   1.86766
 H3         0.00000   0.00000      1.00000   1.86766
 BO21       0.00000   0.00000      1.00000   3.12698
 BO31       0.00000   0.00000      1.00000   3.12698
 O1         0.00000   0.00000      1.00000   1.97060
 H2         0.00000   0.00000      1.00000   1.86766
 H3         0.00000   0.00000      1.00000   1.86766
 BO21       0.00000   0.00000      1.00000   3.12698
 BO31       0.00000   0.00000      1.00000   3.12698
 O1         0.00000   0.00000      1.00000   1.97060
 H2         0.00000   0.00000      1.00000   1.86766
 H3         0.00000   0.00000      1.00000   1.86766
 BO21       0.00000   0.00000      1.00000   3.12698
 BO31       0.00000   0.00000      1.00000   3.12698
 O1         0.00000   0.00000      1.00000   1.97060
 H2         0.00000   0.00000      1.00000   1.86766
 H3         0.00000   0.00000      1.00000   1.86766
 BO21       0.00000   0.00000      1.00000   3.12698
 BO31       0.00000   0.00000      1.00000   3.12698
 O1         0.00000   0.00000      1.00000   1.97060
 H2         0.00000   0.00000      1.00000   1.86766
 H3         0.00000   0.00000      1.00000   1.86766
 BO21       0.00000   0.00000      1.00000   3.12698
 BO31       0.00000   0.00000      1.00000   3.12698
 O1         0.00000   0.00000      1.00000   1.97060
 H2         0.00000   0.00000      1.00000   1.86766
 H3         0.00000   0.00000      1.00000   1.86766
 BO21       0.00000   0.00000      1.00000   3.12698
 BO31       0.00000   0.00000      1.00000   3.12698
 O1         0.00000   0.00000      1.00000   1.97060
 H2         0.00000   0.00000      1.00000   1.86766
 H3         0.00000   0.00000      1.00000   1.86766
 BO21       0.00000   0.00000      1.00000   3.12698
 BO31       0.00000   0.00000      1.00000   3.12698
 O1         0.00000   0.00000      1.00000   1.97060
 H2         0.00000   0.00000      1.00000   1.86766
 H3         0.00000   0.00000      1.00000   1.86766
 BO21       0.00000   0.00000      1.00000   3.12698
 BO31       0.00000   0.00000      1.00000   3.12698
 O1         0.00000   0.00000      1.00000   1.97060
 H2         0.00000   0.00000      1.00000   1.86766
 H3         0.00000   0.00000      1.00000   1.86766
 BO21       0.00000   0.00000      1.00000   3.12698
 BO31       0.00000   0.00000      1.00000   3.12698
 O1         0.00000   0.00000      1.00000   1.97060
 H2         0.00000   0.00000      1.00000   1.86766
 H3         0.00000   0.00000      1.00000   1.86766
 BO21       0.00000   0.00000      1.00000   3.12698
 BO31       0.00000   0.00000      1.00000   3.12698
 O1         0.00000   0.00000      1.00000   1.97060
 H2         0.00000   0.00000      1.00000   1.86766
 H3         0.00000   0.00000      1.00000   1.86766
 BO21       0.00000   0.00000      1.00000   3.12698
 BO31       0.00000   0.00000      1.00000   3.12698
 O1         0.00000   0.00000      1.00000   1.97060
 H2         0.00000   0.00000      1.00000   1.86766
 H3         0.00000   0.00000      1.00000   1.86766
 BO21       0.00000   0.00000      1.00000   3.12698
 BO31       0.00000   0.00000      1.00000   3.12698
 O1         0.00000   0.00000      1.00000   1.97060
 H2         0.00000   0.00000      1.00000   1.86766
 H3         0.00000   0.00000      1.00000   1.86766
 BO21       0.00000   0.00000      1.00000   3.12698
 BO31       0.00000   0.00000      1.00000   3.12698
 O1         0.00000   0.00000      1.00000   1.97060
 H2         0.00000   0.00000      1.00000   1.86766
 H3         0.00000   0.00000      1.00000   1.86766
 BO21       0.00000   0.00000      1.00000   3.12698
 BO31       0.00000   0.00000      1.00000   3.12698
 O1         0.00000   0.00000      1.00000   1.97060
 H2         0.00000   0.00000      1.00000   1.86766
 H3         0.00000   0.00000      1.00000   1.86766
 BO21       0.00000   0.00000      1.00000   3.12698
 BO31       0.00000   0.00000      1.00000   3.12698
 O1         0.00000   0.00000      1.00000   1.97060
 H2         0.00000   0.00000      1.00000   1.86766
 H3         0.00000   0.00000      1.00000   1.86766
 BO21       0.00000   0.00000      1.00000   3.12698
 BO31       0.00000   0.00000      1.00000   3.12698
 O1         0.00000   0.00000      1.00000   1.97060
 H2         0.00000   0.00000      1.00000   1.86766
 H3         0.00000   0.00000      1.00000   1.86766
 BO21       0.00000   0.00000      1.00000   3.12698
 BO31       0.00000   0.00000      1.00000   3.12698
 O1         0.00000   0.00000      1.00000   1.97060
 H2         0.00000   0.00000      1.00000   1.86766
 H3         0.00000   0.00000      1.00000   1.86766
 BO21       0.00000   0.00000      1.00000   3.12698
 BO31       0.00000   0.00000      1.00000   3.12698
 O1         0.00000   0.00000      1.00000   1.97060
 H2         0.00000   0.00000      1.00000   1.86766
 H3         0.00000   0.00000      1.00000   1.86766
 BO21       0.00000   0.00000      1.00000   3.12698
 BO31       0.00000   0.00000      1.00000   3.12698
 O1         0.00000   0.00000      1.00000   1.97060
 H2         0.00000   0.00000      1.00000   1.86766
 H3         0.00000   0.00000      1.00000   1.86766
 BO21       0.00000   0.00000      1.00000   3.12698
 BO31       0.00000   0.00000      1.00000   3.12698
 O1         0.00000   0.00000      1.00000   1.97060
 H2         0.00000   0.00000      1.00000   1.86766
 H3         0.00000   0.00000      1.00000   1.86766
 BO21       0.00000   0.00000      1.00000   3.12698
 BO31       0.00000   0.00000      1.00000   3.12698
 O1         0.00000   0.00000      1.00000   1.97060
 H2         0.00000   0.00000      1.00000   1.86766
 H3         0.00000   0.00000      1.00000   1.86766
 BO21       0.00000   0.00000      1.00000   3.12698
 BO31       0.00000   0.00000      1.00000   3.12698
 O1         0.00000   0.00000      1.00000   1.97060
 H2         0.00000   0.00000      1.00000   1.86766
 H3         0.00000   0.00000      1.00000   1.86766
 BO21       0.00000   0.00000      1.00000   3.12698
 BO31       0.00000   0.00000      1.00000   3.12698
 O1         0.00000   0.00000      1.00000   1.97060
 H2         0.00000   0.00000      1.00000   1.86766
 H3         0.00000   0.00000      1.00000   1.86766
 BO21       0.00000   0.00000      1.00000   3.12698
 BO31       0.00000   0.00000      1.00000   3.12698
 O1         0.00000   0.00000      1.00000   1.97060
 H2         0.00000   0.00000      1.00000   1.86766
 H3         0.00000   0.00000      1.00000   1.86766
 BO21       0.00000   0.00000      1.00000   3.12698
 BO31       0.00000   0.00000      1.00000   3.12698
 O1         0.00000   0.00000      1.00000   1.97060
 H2         0.00000   0.00000      1.00000   1.86766
 H3         0.00000   0.00000      1.00000   1.86766
 BO21       0.00000   0.00000      1.00000   3.12698
 BO31       0.00000   0.00000      1.00000   3.12698
 O1         0.00000   0.00000      1.00000   1.97060
 H2         0.00000   0.00000      1.00000   1.86766
 H3         0.00000   0.00000      1.00000   1.86766
 BO21       0.00000   0.00000      1.00000   3.12698
 BO31       0.00000   0.00000      1.00000   3.12698
 O1         0.00000   0.00000      1.00000   1.97060
 H2         0.00000   0.00000      1.00000   1.86766
 H3         0.00000   0.00000      1.00000   1.86766
 BO21       0.00000   0.00000      1.00000   3.12698
 BO31       0.00000   0.00000      1.00000   3.12698
 O1         0.00000   0.00000      1.00000   1.97060
 H2         0.00000   0.00000      1.00000   1.86766
 H3         0.00000   0.00000      1.00000   1.86766
 BO21       0.00000   0.00000      1.00000   3.12698
 BO31       0.00000   0.00000      1.00000   3.12698
 O1         0.00000   0.00000      1.00000   1.97060
 H2         0.00000   0.00000      1.00000   1.86766
 H3         0.00000   0.00000      1.00000   1.86766
 BO21       0.00000   0.00000      1.00000   3.12698
 BO31       0.00000   0.00000      1.00000   3.12698
 O1         0.00000   0.00000      1.00000   1.97060
 H2         0.00000   0.00000      1.00000   1.86766
 H3         0.00000   0.00000      1.00000   1.86766
 BO21       0.00000   0.00000      1.00000   3.12698
 BO31       0.00000   0.00000      1.00000   3.12698
 O1         0.00000   0.00000      1.00000   1.97060
 H2         0.00000   0.00000      1.00000   1.86766
 H3         0.00000   0.00000      1.00000   1.86766
 BO21       0.00000   0.00000      1.00000   3.12698
 BO31       0.00000   0.00000      1.00000   3.12698
 O1         0.00000   0.00000      1.00000   1.97060
 H2         0.00000   0.00000      1.00000   1.86766
 H3         0.00000   0.00000      1.00000   1.86766
 BO21       0.00000   0.00000      1.00000   3.12698
 BO31       0.00000   0.00000      1.00000   3.12698
 O1         0.00000   0.00000      1.00000   1.97060
 H2         0.00000   0.00000      1.00000   1.86766
 H3         0.00000   0.00000      1.00000   1.86766
 BO21       0.00000   0.00000      1.00000   3.12698
 BO31       0.00000   0.00000      1.00000   3.12698
 O1         0.00000   0.00000      1.00000   1.97060
 H2         0.00000   0.00000      1.00000   1.86766
 H3         0.00000   0.00000      1.00000   1.86766
 BO21       0.00000   0.00000      1.00000   3.12698
 BO31       0.00000   0.00000      1.00000   3.12698
 O1         0.00000   0.00000      1.00000   1.97060
 H2         0.00000   0.00000      1.00000   1.86766
 H3         0.00000   0.00000      1.00000   1.86766
 BO21       0.00000   0.00000      1.00000   3.12698
 BO31       0.00000   0.00000      1.00000   3.12698
 O1         0.00000   0.00000      1.00000   1.97060
 H2         0.00000   0.00000      1.00000   1.86766
 H3         0.00000   0.00000      1.00000   1.86766
 BO21       0.00000   0.00000      1.00000   3.12698
 BO31       0.00000   0.00000      1.00000   3.12698
 O1         0.00000   0.00000      1.00000   1.97060
 H2         0.00000   0.00000      1.00000   1.86766
 H3         0.00000   0.00000      1.00000   1.86766
 BO21       0.00000   0.00000      1.00000   3.12698
 BO31       0.00000   0.00000      1.00000   3.12698
 O1         0.00000   0.00000      1.00000   1.97060
 H2         0.00000   0.00000      1.00000   1.86766
 H3         0.00000   0.00000      1.00000   1.86766
 BO21       0.00000   0.00000      1.00000   3.12698
 BO31       0.00000   0.00000      1.00000   3.12698
 O1         0.00000   0.00000      1.00000   1.97060
 H2         0.00000   0.00000      1.00000   1.86766
 H3         0.00000   0.00000      1.00000   1.86766
 BO21       0.00000   0.00000      1.00000   3.12698
 BO31       0.00000   0.00000      1.00000   3.12698
 O1         0.00000   0.00000      1.00000   1.97060
 H2         0.00000   0.00000      1.00000   1.86766
 H3         0.00000   0.00000      1.00000   1.86766
 BO21       0.00000   0.00000      1.00000   3.12698
 BO31       0.00000   0.00000      1.00000   3.12698
 O1         0.00000   0.00000      1.00000   1.97060
 H2         0.00000   0.00000      1.00000   1.86766
 H3         0.00000   0.00000      1.00000   1.86766
 BO21       0.00000   0.00000      1.00000   3.12698
 BO31       0.00000   0.00000      1.00000   3.12698
 O1         0.00000   0.00000      1.00000   1.97060
 H2         0.00000   0.00000      1.00000   1.86766
 H3         0.00000   0.00000      1.00000   1.86766
 BO21       0.00000   0.00000      1.00000   3.12698
 BO31       0.00000   0.00000      1.00000   3.12698
 O1         0.00000   0.00000      1.00000   1.97060
 H2         0.00000   0.00000      1.00000   1.86766
 H3         0.00000   0.00000      1.00000   1.86766
 BO21       0.00000   0.00000      1.00000   3.12698
 BO31       0.00000   0.00000      1.00000   3.12698
 O1         0.00000   0.00000      1.00000   1.97060
 H2         0.00000   0.00000      1.00000   1.86766
 H3         0.00000   0.00000      1.00000   1.86766
 BO21       0.00000   0.00000      1.00000   3.12698
 BO31       0.00000   0.00000      1.00000   3.12698
 O1         0.00000   0.00000      1.00000   1.97060
 H2         0.00000   0.00000      1.00000   1.86766
 H3         0.00000   0.00000      1.00000   1.86766
 BO21       0.00000   0.00000      1.00000   3.12698
 BO31       0.00000   0.00000      1.00000   3.12698
 O1         0.00000   0.00000      1.00000   1.97060
 H2         0.00000   0.00000      1.00000   1.86766
 H3         0.00000   0.00000      1.00000   1.86766
 BO21       0.00000   0.00000      1.00000   3.12698
 BO31       0.00000   0.00000      1.00000   3.12698
 O1         0.00000   0.00000      1.00000   1.97060
 H2         0.00000   0.00000      1.00000   1.86766
 H3         0.00000   0.00000      1.00000   1.86766
 BO21       0.00000   0.00000      1.00000   3.12698
 BO31       0.00000   0.00000      1.00000   3.12698
 O1         0.00000   0.00000      1.00000   1.97060
 H2         0.00000   0.00000      1.00000   1.86766
 H3         0.00000   0.00000      1.00000   1.86766
 BO21       0.00000   0.00000      1.00000   3.12698
 BO31       0.00000   0.00000      1.00000   3.12698
 O1         0.00000   0.00000      1.00000   1.97060
 H2         0.00000   0.00000      1.00000   1.86766
 H3         0.00000   0.00000      1.00000   1.86766
 BO21       0.00000   0.00000      1.00000   3.12698
 BO31       0.00000   0.00000      1.00000   3.12698
 O1         0.00000   0.00000      1.00000   1.97060
 H2         0.00000   0.00000      1.00000   1.86766
 H3         0.00000   0.00000      1.00000   1.86766
 BO21       0.00000   0.00000      1.00000   3.12698
 BO31       0.00000   0.00000      1.00000   3.12698
 O1         0.00000   0.00000      1.00000   1.97060
 H2         0.00000   0.00000      1.00000   1.86766
 H3         0.00000   0.00000      1.00000   1.86766
 BO21       0.00000   0.00000      1.00000   3.12698
 BO31       0.00000   0.00000      1.00000   3.12698
 O1         0.00000   0.00000      1.00000   1.97060
 H2         0.00000   0.00000      1.00000   1.86766
 H3         0.00000   0.00000      1.00000   1.86766
 BO21       0.00000   0.00000      1.00000   3.12698
 BO31       0.00000   0.00000      1.00000   3.12698
 O1         0.00000   0.00000      1.00000   1.97060
 H2         0.00000   0.00000      1.00000   1.86766
 H3         0.00000   0.00000      1.00000   1.86766
 BO21       0.00000   0.00000      1.00000   3.12698
 BO31       0.00000   0.00000      1.00000   3.12698
 O1         0.00000   0.00000      1.00000   1.97060
 H2         0.00000   0.00000      1.00000   1.86766
 H3         0.00000   0.00000      1.00000   1.86766
 BO21       0.00000   0.00000      1.00000   3.12698
 BO31       0.00000   0.00000      1.00000   3.12698
 O1         0.00000   0.00000      1.00000   1.97060
 H2         0.00000   0.00000      1.00000   1.86766
 H3         0.00000   0.00000      1.00000   1.86766
 BO21       0.00000   0.00000      1.00000   3.12698
 BO31       0.00000   0.00000      1.00000   3.12698
 O1         0.00000   0.00000      1.00000   1.97060
 H2         0.00000   0.00000      1.00000   1.86766
 H3         0.00000   0.00000      1.00000   1.86766
 BO21       0.00000   0.00000      1.00000   3.12698
 BO31       0.00000   0.00000      1.00000   3.12698
 O1         0.00000   0.00000      1.00000   1.97060
 H2         0.00000   0.00000      1.00000   1.86766
 H3         0.00000   0.00000      1.00000   1.86766
 BO21       0.00000   0.00000      1.00000   3.12698
 BO31       0.00000   0.00000      1.00000   3.12698
 O1         0.00000   0.00000      1.00000   1.97060
 H2         0.00000   0.00000      1.00000   1.86766
 H3         0.00000   0.00000      1.00000   1.86766
 BO21       0.00000   0.00000      1.00000   3.12698
 BO31       0.00000   0.00000      1.00000   3.12698
 O1         0.00000   0.00000      1.00000   1.97060
 H2         0.00000   0.00000      1.00000   1.86766
 H3         0.00000   0.00000      1.00000   1.86766
 BO21       0.00000   0.00000      1.00000   3.12698
 BO31       0.00000   0.00000      1.00000   3.12698
 O1         0.00000   0.00000      1.00000   1.97060
 H2         0.00000   0.00000      1.00000   1.86766
 H3         0.00000   0.00000      1.00000   1.86766
 BO21       0.00000   0.00000      1.00000   3.12698
 BO31       0.00000   0.00000      1.00000   3.12698
 O1         0.00000   0.00000      1.00000   1.97060
 H2         0.00000   0.00000      1.00000   1.86766
 H3         0.00000   0.00000      1.00000   1.86766
 BO21       0.00000   0.00000      1.00000   3.12698
 BO31       0.00000   0.00000      1.00000   3.12698
 O1         0.00000   0.00000      1.00000   1.97060
 H2         0.00000   0.00000      1.00000   1.86766
 H3         0.00000   0.00000      1.00000   1.86766
 BO21       0.00000   0.00000      1.00000   3.12698
 BO31       0.00000   0.00000      1.00000   3.12698
 O1         0.00000   0.00000      1.00000   1.97060
 H2         0.00000   0.00000      1.00000   1.86766
 H3         0.00000   0.00000      1.00000   1.86766
 BO21       0.00000   0.00000      1.00000   3.12698
 BO31       0.00000   0.00000      1.00000   3.12698

   SCREENING FOR POLARIZATION WITH EXPONENTIAL FORMULA  OFF

   SCREENING FOR POLARIZATION WITH TANG-TOENNIS FORMULA   ON

    WITH COEFFICIENTS 

     BENZEN  0.60

     WATER   0.60

                  DIPOLE MOMENTS AND THE SECOND MOMENT TENSOR

                  X        Y        Z           XX/XY    YY/XZ    ZZ/YZ
 C1            0.04703 -0.06534 -0.00686     -0.88848 -0.68301 -1.41677
                                             -0.16036 -0.48392 -0.26204
 H2            0.12975 -0.18025 -0.01893     -0.31129 -0.30543 -0.32914
                                             -0.00326 -0.01783 -0.01021
 C3           -0.02175 -0.06932  0.03533     -0.89083 -0.68229 -1.41515
                                             -0.15417 -0.48453 -0.26595
 H4           -0.06001 -0.19125  0.09748     -0.30982 -0.30588 -0.33015
                                             -0.00712 -0.01746 -0.00777
 C5           -0.06878 -0.00399  0.04220     -0.88509 -0.68875 -1.41444
                                             -0.15584 -0.48741 -0.26287
 H6           -0.18976 -0.01100  0.11642     -0.31341 -0.30185 -0.33060
                                             -0.00608 -0.01566 -0.00969
 C7           -0.04703  0.06534  0.00686     -0.88848 -0.68301 -1.41677
                                             -0.16036 -0.48392 -0.26204
 H8           -0.12975  0.18025  0.01893     -0.31129 -0.30543 -0.32914
                                             -0.00326 -0.01783 -0.01021
 C9            0.02175  0.06932 -0.03533     -0.89083 -0.68229 -1.41515
                                             -0.15417 -0.48453 -0.26595
 H10           0.06001  0.19125 -0.09748     -0.30982 -0.30588 -0.33015
                                             -0.00712 -0.01746 -0.00777
 C11           0.06878  0.00399 -0.04220     -0.88509 -0.68875 -1.41444
                                             -0.15584 -0.48741 -0.26287
 H12           0.18976  0.01100 -0.11642     -0.31341 -0.30185 -0.33060
                                             -0.00608 -0.01566 -0.00969
 BO21          0.17735 -0.24638 -0.02588     -0.58429 -0.44828 -0.79505
                                             -0.17139 -0.11924 -0.03686
 BO31          0.03138 -0.16717  0.03535     -0.87307 -1.45117 -1.61107
                                             -0.04968 -0.70676 -0.17633
 BO43         -0.08203 -0.26142  0.13325     -0.66210 -0.42425 -0.74127
                                              0.03364 -0.13920 -0.16657
 BO53         -0.11240 -0.09102  0.09626     -1.24441 -0.82427 -1.86656
                                             -0.54303 -0.32649 -0.08543
 BO65         -0.25938 -0.01504  0.15913     -0.47152 -0.63863 -0.71745
                                             -0.02158 -0.23470 -0.06446
 BO75         -0.14377  0.07616  0.06090     -1.50070 -0.74512 -1.68950
                                              0.13217 -0.39223 -0.51260
 BO87         -0.17735  0.24638  0.02588     -0.58429 -0.44828 -0.79505
                                             -0.17139 -0.11924 -0.03686
 BO97         -0.03138  0.16717 -0.03535     -0.87307 -1.45117 -1.61107
                                             -0.04968 -0.70676 -0.17633
 BO109         0.08203  0.26142 -0.13325     -0.66210 -0.42425 -0.74127
                                              0.03364 -0.13920 -0.16657
 BO111         0.14377 -0.07616 -0.06090     -1.50070 -0.74512 -1.68950
                                              0.13217 -0.39223 -0.51260
 BO119         0.11240  0.09102 -0.09626     -1.24441 -0.82427 -1.86656
                                             -0.54303 -0.32649 -0.08543
 BO1211        0.25938  0.01504 -0.15913     -0.47152 -0.63863 -0.71745
                                             -0.02158 -0.23470 -0.06446
 O1           -1.27916 -0.24936 -0.50111     -2.17110 -2.74509 -1.40043
                                              0.06523 -0.36333  0.05461
 H2            0.03480  0.01507  0.11282     -0.32288 -0.35573 -0.19797
                                              0.00701  0.01541  0.01588
 H3            0.10274  0.01174 -0.05894     -0.24869 -0.35644 -0.27146
                                              0.01243 -0.06386 -0.00312
 BO21         -0.12938 -0.01621  0.05721     -0.85904 -1.05595 -0.28252
                                              0.03851  0.05445  0.07446
 BO31         -0.05549 -0.01983 -0.12963     -0.53308 -1.05906 -0.60537
                                              0.06231 -0.29377 -0.00899
 O1           -1.13144  0.46450 -0.67352     -2.18166 -1.49716 -2.63780
                                              0.45542  0.11409 -0.21087
 H2            0.10045  0.05794  0.02683     -0.25285 -0.27659 -0.34713
                                              0.06600  0.02640  0.00316
 H3            0.02121 -0.10788  0.04559     -0.32940 -0.21083 -0.33634
                                              0.00162  0.01267 -0.04824
 BO21         -0.03866  0.12375 -0.05887     -0.55636 -0.63399 -1.00716
                                              0.30993  0.13193 -0.00219
 BO31         -0.12486 -0.05662 -0.03847     -0.89267 -0.34507 -0.95977
                                              0.02709  0.07163 -0.22800
 O1           -0.55099  0.85931 -0.95265     -2.20688 -1.74483 -2.36491
                                              0.52508  0.41936  0.19772
 H2           -0.02265 -0.11527  0.01914     -0.33004 -0.20849 -0.33805
                                              0.04355  0.01482 -0.00896
 H3            0.08189  0.02288  0.08329     -0.28086 -0.30984 -0.28587
                                              0.03769  0.07242  0.02369
 BO21         -0.09667 -0.01304 -0.10373     -0.90890 -0.34274 -0.94586
                                              0.21598  0.09587 -0.03791
 BO31          0.01704  0.13723 -0.03395     -0.69284 -0.78803 -0.71664
                                              0.19026  0.34895  0.10553
 O1           -0.00968  0.12197  1.39089     -1.26435 -2.74803 -2.30424
                                              0.11379 -0.00276  0.04002
 H2           -0.09158 -0.01358 -0.07480     -0.22653 -0.35620 -0.29385
                                              0.01483  0.05428  0.00981
 H3            0.09262  0.00047 -0.07475     -0.22501 -0.35766 -0.29391
                                              0.00529 -0.05510  0.00147
 BO21         -0.10088  0.00117  0.10048     -0.40320 -1.05876 -0.73555
                                              0.07172  0.23813  0.04752
 BO31          0.09948  0.01645  0.10054     -0.39651 -1.06518 -0.73582
                                              0.02984 -0.24239  0.01086
 O1            0.40438  0.45225  1.25757     -2.33304 -1.62647 -2.35711
                                             -0.60643  0.22848 -0.04747
 H2           -0.06869  0.05415 -0.08073     -0.30214 -0.28559 -0.28884
                                             -0.05590  0.05399 -0.03675
 H3            0.02521 -0.10277 -0.05449     -0.33456 -0.22500 -0.31702
                                             -0.04694 -0.00095  0.04243
 BO21         -0.02184  0.11803  0.07660     -0.79538 -0.68117 -0.72096
                                             -0.27853  0.25669 -0.15724
 BO31          0.08029 -0.05266  0.10515     -0.93780 -0.41497 -0.84473
                                             -0.23916  0.01533  0.19062
 O1           -0.84281 -0.24101 -1.08679     -2.58931 -1.29448 -2.43283
                                             -0.02337  0.22899 -0.20502
 H2            0.04086  0.10370  0.04176     -0.33747 -0.20905 -0.33006
                                              0.03264  0.02355  0.02548
 H3            0.04976 -0.07779  0.07510     -0.33106 -0.24639 -0.29912
                                             -0.03175  0.03967 -0.05529
 BO21         -0.06575  0.08129 -0.09667     -0.95876 -0.32742 -0.91133
                                              0.14452  0.12796  0.10326
 BO31         -0.05606 -0.11612 -0.06040     -0.93060 -0.49149 -0.77541
                                             -0.13833  0.19882 -0.25160
 O1            0.89910 -0.39729  0.99163     -1.78829 -2.71188 -1.81645
                                             -0.17756 -0.53575 -0.00374
 H2            0.01823  0.01341 -0.11685     -0.31325 -0.35466 -0.20867
                                             -0.00580 -0.04018 -0.01262
 H3           -0.11490  0.02931  0.01023     -0.21104 -0.34926 -0.31627
                                             -0.03448 -0.03260  0.00220
 BO21          0.13738 -0.03736  0.00254     -0.80465 -1.04814 -0.34472
                                             -0.04015 -0.19667 -0.06048
 BO31         -0.00744 -0.02006  0.14077     -0.35565 -1.02443 -0.81743
                                             -0.16618 -0.16337  0.00463
 O1           -1.10472 -0.46433 -0.71661     -2.42086 -1.40766 -2.48811
                                             -0.13856  0.27500 -0.36506
 H2            0.04227  0.11088  0.00925     -0.32919 -0.20173 -0.34566
                                              0.03121  0.01510 -0.00771
 H3            0.07652 -0.06095  0.06780     -0.29689 -0.26985 -0.30984
                                             -0.04304  0.05319 -0.04868
 BO21         -0.09846  0.05990 -0.08362     -0.90636 -0.29989 -0.99125
                                              0.13536  0.09200 -0.05099
 BO31         -0.06120 -0.12701 -0.01994     -0.76443 -0.59919 -0.83389
                                             -0.19084  0.25933 -0.23096
 O1            0.05538 -1.36920 -0.26787     -2.64488 -2.26097 -1.41077
                                              0.06323 -0.39434 -0.19006
 H2           -0.02847  0.05557  0.10133     -0.34674 -0.31187 -0.21796
                                             -0.00982 -0.04006  0.03647
 H3            0.02252  0.09165 -0.07253     -0.34915 -0.26970 -0.25773
                                              0.01914 -0.03012 -0.06103
 BO21         -0.02373 -0.11856  0.07520     -1.01136 -0.81298 -0.37317
                                             -0.04039 -0.19907  0.15367
 BO31          0.03174 -0.07932 -0.11391     -1.02195 -0.62769 -0.54786
                                              0.08681 -0.15539 -0.27467
 O1            0.64715  1.19995 -0.30142     -1.50662 -2.07287 -2.73714
                                             -0.45090 -0.09010 -0.06104
 H2            0.04613 -0.10893  0.01311     -0.28675 -0.23401 -0.35582
                                             -0.05948  0.00088 -0.01401
 H3           -0.11572 -0.02009  0.01930     -0.19732 -0.32503 -0.35423
                                             -0.00112 -0.02166 -0.00575
 BO21          0.13479  0.03839 -0.02514     -0.67667 -0.46530 -1.05553
                                             -0.27798 -0.00377 -0.06954
 BO31         -0.04126  0.13503 -0.01842     -0.28377 -0.86519 -1.04854
                                             -0.02155 -0.10277 -0.03323
 O1            1.24243 -0.08982 -0.63074     -2.38957 -1.26073 -2.66633
                                              0.07475 -0.18567 -0.00086
 H2           -0.06058  0.09698  0.03303     -0.31287 -0.21829 -0.34543
                                             -0.04341 -0.02400  0.02541
 H3           -0.07301 -0.08733  0.03478     -0.29967 -0.23242 -0.34448
                                              0.05388 -0.02828 -0.02416
 BO21          0.09654  0.09375 -0.04653     -0.82885 -0.36665 -1.00200
                                             -0.18772 -0.12582  0.11226
 BO31          0.08302 -0.10673 -0.04463     -0.77089 -0.42875 -0.99786
                                              0.23966 -0.14460 -0.10548
 O1            0.11468 -0.80617  1.13423     -1.26287 -2.60470 -2.44905
                                              0.03738 -0.07837 -0.21985
 H2           -0.09822  0.03970 -0.05426     -0.21647 -0.33889 -0.32122
                                             -0.02934  0.03892 -0.02670
 H3            0.08589  0.04699 -0.06769     -0.23449 -0.33387 -0.30821
                                              0.03367 -0.04957 -0.03486
 BO21         -0.09184 -0.06222  0.08927     -0.35872 -0.96661 -0.87217
                                             -0.12786  0.16802 -0.14129
 BO31          0.10842 -0.05429  0.07465     -0.43792 -0.94457 -0.81502
                                              0.14894 -0.22073 -0.17711
 O1           -0.06778 -1.38431  0.16920     -1.36623 -2.29916 -2.65123
                                             -0.09222 -0.38011 -0.02423
 H2            0.09252  0.06713 -0.03318     -0.22959 -0.30228 -0.34471
                                              0.04531 -0.04091 -0.01875
 H3           -0.08523  0.08172  0.01498     -0.23988 -0.28503 -0.35167
                                             -0.05931 -0.02667  0.00866
 BO21          0.09178 -0.10797 -0.01397     -0.42249 -0.77251 -1.00251
                                              0.19486 -0.20191 -0.08664
 BO31         -0.10157 -0.09210  0.03842     -0.46769 -0.69675 -1.03307
                                             -0.26478 -0.13938  0.03377
 O1            1.07787 -0.34431  0.81804     -2.00766 -2.01457 -2.29438
                                              0.49869 -0.17623 -0.53665
 H2           -0.00584  0.08231 -0.08578     -0.32514 -0.27196 -0.27947
                                              0.01785 -0.00365 -0.07942
 H3           -0.11005 -0.04529 -0.00218     -0.22924 -0.30947 -0.33787
                                              0.06125 -0.00572 -0.02257
 BO21          0.13456  0.04451  0.01364     -0.86530 -0.64486 -0.68735
                                              0.10282 -0.01543 -0.38349
 BO31          0.02121 -0.09428  0.10458     -0.44398 -0.80965 -0.94388
                                              0.29347 -0.02456 -0.13374
 O1            1.37063  0.07719  0.25486     -2.27078 -2.16098 -1.88487
                                             -0.14206 -0.11797  0.72171
 H2           -0.05742 -0.06238 -0.08354     -0.31064 -0.30123 -0.26470
                                              0.02227  0.03298  0.07277
 H3           -0.08995  0.05408  0.05613     -0.27257 -0.30891 -0.29510
                                             -0.04480 -0.04521  0.05549
 BO21          0.11674 -0.05776 -0.05755     -0.80808 -0.78333 -0.60610
                                              0.09088  0.14231  0.36181
 BO31          0.08135  0.06891  0.09438     -0.64083 -0.81705 -0.73962
                                             -0.20377 -0.20119  0.28592
 O1            0.63547  1.23701  0.12460     -1.64767 -2.08583 -2.58312
                                             -0.37967  0.43875 -0.19694
 H2            0.04179 -0.10868  0.02466     -0.29592 -0.23500 -0.34566
                                             -0.05255  0.02727 -0.02984
 H3           -0.11012 -0.02432 -0.03806     -0.21349 -0.32410 -0.33899
                                              0.00479  0.05237 -0.00121
 BO21          0.12854  0.04351  0.04312     -0.72532 -0.46931 -1.00288
                                             -0.24325  0.14624 -0.14065
[...]
 H3                -5.355345174053    5.411319830288   22.082964210666
 FRAGNAME=WATER   !  55
 O1                 3.117516246363   -3.297545471987   20.308044457298
 H2                 2.815935382317   -2.471045043701   20.649840417708
 H3                 2.513914171340   -3.954780563102   20.615591240898
 FRAGNAME=WATER   !  56
 O1                 5.454816401920    4.357542503285   22.151895516116
 H2                 5.295485195564    4.056229812304   21.271723553939
 H3                 5.783441841776    3.617376124122   22.636702184288
 FRAGNAME=WATER   !  57
 O1                 3.903867364752    5.916445861485   17.834390916840
 H2                 4.538171049142    6.002922984140   17.140806749422
 H3                 4.084043797550    6.605102714769   18.454202699204
 FRAGNAME=WATER   !  58
 O1                 4.854462695558   -6.832930727932   27.848933851456
 H2                 4.492852322075   -7.629862369194   27.495357337795
 H3                 5.654929070140   -6.665721630374   27.377581377264
 FRAGNAME=WATER   !  59
 O1                -2.999945724881    4.122960171271   27.433875889739
 H2                -2.080490959770    4.292953716172   27.562653153545
 H3                -3.462586219667    4.625691774444   28.085107923521
 FRAGNAME=WATER   !  60
 O1                 1.901861691020    5.332395319758   24.829178025653
 H2                 1.002046553551    5.219225365251   25.090719100527
 H3                 2.025739814605    6.255431708024   24.675761955759
 FRAGNAME=WATER   !  61
 O1                 1.705411328048   -4.814381779749   23.621520041433
 H2                 2.106115243955   -5.059852674014   22.802948806956
 H3                 2.086882522998   -3.988609577969   23.873429652717
 FRAGNAME=WATER   !  62
 O1                 6.692508647697   -0.321529389244   18.989893228639
 H2                 6.866116202395   -1.163886748382   18.601083570162
 H3                 7.267520103059    0.296106386190   18.567085554662
 FRAGNAME=WATER   !  63
 O1                -5.560606238167   -0.041802443111   15.385585773159
 H2                -5.029668307170   -0.701784668689   15.802007229639
 H3                -5.895338095919    0.510957385544   16.073546243898
 FRAGNAME=WATER   !  64
 O1                 3.593543131306    0.919010139079   26.565401207215
 H2                 4.104478362355    0.641046693500   25.822057433002
 H3                 2.697891871807    0.684408378540   26.381963780887
 FRAGNAME=WATER   !  65
 O1                -0.695910568279    4.738754601631   25.406545541024
 H2                -0.731584831810    3.909457935353   25.855848156517
 H3                -1.110978868099    4.611313777142   24.568478958462
           PBC CARTESIAN COORDINATES (ANG)
 FRAGNAME=BENZEN  !   1
 C1                 0.265146727549    0.832643627580    4.881094055828
 H2                -0.366737063368    1.707293795779    4.965256090214
 C3                 1.458620715850    0.901294613942    4.163667734678
 H4                 1.753215831808    1.829237679974    3.690900703857
 C5                 2.272602404174   -0.225414491179    4.055251668580
 H6                 3.199081311080   -0.172121593389    3.498322603368
 C7                 1.893110104261   -1.420774582748    4.664261923622
 H8                 2.524993895178   -2.295424750947    4.580099889236
 C9                 0.699636122475   -1.489425563875    5.381688239278
 H10                0.405041006517   -2.417368629906    5.854455270099
 C11               -0.114345565850   -0.362716458754    5.490104305377
 H12               -1.040824472756   -0.416009356543    6.047033370588
 FRAGNAME=WATER   !   2
 O1                -2.572123390188   -3.828321933812    6.321765970214
 H2                -2.797698154357   -3.947259564311    5.413003999240
 H3                -3.377646193827   -3.883142714089    6.810648521484
 FRAGNAME=WATER   !   3
 O1                -4.912825115477   -4.143173542112   -1.008186516635
 H2                -5.697936537748   -4.625523566964   -1.212678477875
 H3                -5.026452219652   -3.276446767732   -1.364209035357
 FRAGNAME=WATER   !   4
 O1                -3.317786286189   -3.992740645166    1.268643791845
 H2                -3.107474117346   -3.083851111179    1.125231586250
 H3                -3.974589433812   -4.223073170725    0.631121237727
 FRAGNAME=WATER   !   5
 O1                -1.664885912784    2.086436383888   -5.601019447484
 H2                -0.912874886303    2.177532128572   -5.037939137564
 H3                -2.424143949271    2.077928696958   -5.040365091075
 FRAGNAME=WATER   !   6
 O1                -4.755699434520   -4.120372857181   -4.443658957845
 H2                -4.236503899288   -4.600732479130   -3.818703692355
 H3                -4.972367209763   -3.295477735609   -4.039330418604
 FRAGNAME=WATER   !   7
 O1                -2.474126657064    1.633164690289    3.443864754296
 H2                -2.751102738693    0.787632122548    3.128845102270
 H3                -2.827633378197    2.273895496443    2.847730972141
 FRAGNAME=WATER   !   8
 O1                -1.110417024769   -4.147684304833   -1.331050220721
 H2                -1.308605317285   -4.267885365157   -0.416090352818
 H3                -0.207358267922   -4.396087025379   -1.447923759967
 FRAGNAME=WATER   !   9
 O1                 4.785820927456    3.627955819845   -5.857969879570
 H2                 4.477912469897    2.738033107006   -5.922066689204
 H3                 4.209612502625    4.153348575051   -6.389782589082
 FRAGNAME=WATER   !  10
 O1                -1.546874154145    4.012782009254    5.242901732297
 H2                -1.337407939434    3.621227398998    4.410022781819
 H3                -1.748465906070    3.304084685761    5.832806235838
 FRAGNAME=WATER   !  11
 O1                 5.254892938033   -5.245128670614   -4.687968830031
 H2                 4.855660746039   -4.400016110969   -4.819410347341
 H3                 6.178811068391   -5.136457645649   -4.847481684676
 FRAGNAME=WATER   !  12
 O1                 3.326386426379   -4.436265368978    2.707813888007
 H2                 3.768042585434   -5.229912346603    2.451020651835
 H3                 3.877879827233   -3.719407533616    2.437909596153
 FRAGNAME=WATER   !  13
 O1                -3.770543560720    5.426243164483    4.393314395863
 H2                -2.985738928535    5.096424829130    4.800966219154
 H3                -4.497965716846    5.076074405082    4.882310613419
 FRAGNAME=WATER   !  14
 O1                -5.835578827900   -2.617109010174    4.686372558083
 H2                -6.589712707148   -3.121410147347    4.946835433142
 H3                -5.136623122559   -3.232984608356    4.534594352785
 FRAGNAME=WATER   !  15
 O1                 0.118403467922    2.627620157166   -3.593334175499
 H2                 0.105731567311    1.973687610439   -2.912826937233
 H3                 0.987533343440    2.995656185689   -3.599752528793
 FRAGNAME=WATER   !  16
 O1                -6.050654782445    2.153149255768   -1.635673042373
 H2                -5.640816993631    2.659632080740   -0.952748017985
 H3                -5.355225970662    1.735586419170   -2.118268628037
 FRAGNAME=WATER   !  17
 O1                 1.420351607316    5.917200900988    3.718203345936
 H2                 1.042875180352    6.756339975941    3.507880703215
 H3                 2.298629382391    6.083155794793    4.021461613917
 FRAGNAME=WATER   !  18
 O1                -2.184757828491   -1.524128614046   -2.352170401662
 H2                -1.763059661289   -1.974960405162   -3.066173066898
 H3                -2.048149354606   -2.050350338507   -1.580608819132
 FRAGNAME=WATER   !  19
 O1                 1.185102136882    0.148407859547   -0.028323485693
 H2                 0.359814674362    0.374573378293    0.369958093602
 H3                 1.254620855350    0.660648585865   -0.818041815321
 FRAGNAME=WATER   !  20
 O1                -3.870703665816    1.113763212342    0.908021646636
 H2                -4.579626659928    0.830547160964    1.463084986022
 H3                -4.143067249324    1.926947598757    0.513778465164
 FRAGNAME=WATER   !  21
 O1                 4.312357698249    0.884659932595   -5.526070361581
 H2                 3.493028276879    0.429768495699   -5.413591323604
 H3                 4.869134131374    0.318532898967   -6.036343464322
 FRAGNAME=WATER   !  22
 O1                 2.142139174527   -0.643363052834   -4.421848358008
 H2                 2.247308475375   -0.086848440257   -3.666792493707
 H3                 1.233564171544   -0.591955686690   -4.672302347251
 FRAGNAME=WATER   !  23
 O1                 5.382020703194   -5.291932361356   -1.836964853954
 H2                 5.295406572687   -5.464694168620   -2.760831621630
 H3                 5.462524132782   -6.130157575003   -1.410612718860
 FRAGNAME=WATER   !  24
 O1                -0.798191700887   -2.593887155674   -4.495703339044
 H2                -1.377850682713   -2.762007375876   -5.221381994107
 H3                -0.359936542945   -3.407652692760   -4.304401166408
 FRAGNAME=WATER   !  25
 O1                -3.768950542931    2.361592071816   -3.702859078057
 H2                -4.584403622366    1.945005136148   -3.931704122435
 H3                -3.945696127062    3.286474978065   -3.637812461798
 FRAGNAME=WATER   !  26
 O1                -1.041096723092   -5.587157870663    1.652659823950
 H2                -1.909159208996   -5.223292193507    1.582319624764
 H3                -1.015314724895   -6.339435487507    1.083193293035
 FRAGNAME=WATER   !  27
 O1                -0.567469660447   -1.241586931398    2.254764033897
 H2                -0.214577302652   -0.575190627315    2.822444757352
 H3                 0.027481771275   -1.973337855497    2.292866960820
 FRAGNAME=WATER   !  28
 O1                 2.579737514093    3.781551740340   -2.749356018765
 H2                 3.470543173362    4.017981228501   -2.952936048754
 H3                 2.326112913974    4.298258415871   -2.001313755424
 FRAGNAME=WATER   !  29
 O1                -1.924957273399    4.307951005020   -2.434551487435
 H2                -1.314389626674    3.789343608074   -2.933682703323
 H3                -2.033117808314    5.122062175023   -2.899742583257
 FRAGNAME=WATER   !  30
 O1                 0.816205979654   -3.665306371414    1.809743320615
 H2                 1.588641780054   -4.078250033967    2.161451892995
 H3                 0.205799732697   -4.357012446233    1.610180363624
 FRAGNAME=WATER   !  31
 O1                 6.147917580973    5.208863481053   -0.193459931528
 H2                 7.001193538807    4.833196546536   -0.340677281596
 H3                 5.573849502388    4.496087720513    0.037353868761
 FRAGNAME=WATER   !  32
 O1                 2.493774935293    1.134615600928   -2.295997377123
 H2                 2.666155493302    2.056371647416   -2.403371433813
 H3                 3.282544172207    0.749774978669   -1.948694569149
 FRAGNAME=WATER   !  33
 O1                -2.644962874513   -1.455525958801    0.407192590766
 H2                -3.211928844368   -0.706008920530    0.319715436970
 H3                -1.850172185171   -1.148535559593    0.813324476976
 FRAGNAME=WATER   !  34
 O1                 0.765798229612    5.169301881261   -6.130564949708
 H2                 1.297663635250    5.413945783294   -6.870934455800
 H3                 0.038173299042    4.673872690577   -6.471138482884
 FRAGNAME=WATER   !  35
 O1                -4.092690317836    3.779668191592   -0.438761720164
 H2                -3.611428884215    4.049676191999    0.326980773298
 H3                -3.497919910278    3.842145724193   -1.168983038862
 FRAGNAME=WATER   !  36
 O1                 4.522213274688   -3.928022606627    5.286855657356
 H2                 3.961919408901   -3.966567377559    4.528262526183
 H3                 3.988928633020   -3.621316413772    6.002688917475
 FRAGNAME=WATER   !  37
 O1                -1.697429155869    1.164408828811   -2.082857872500
 H2                -2.435045327871    1.569121847591   -2.510652460239
 H3                -1.836372937193    0.231870805363   -2.126970393651
 FRAGNAME=WATER   !  38
 O1                -6.040367384999    0.578790365144   -3.850699064766
 H2                -6.935146991731    0.878269214848   -3.827027815871
 H3                -5.913374996791    0.169704360336   -4.691769827588
 FRAGNAME=WATER   !  39
 O1                 4.643577853405   -2.066196706880    2.761775506404
 H2                 5.502980861974   -2.026068774342    3.149969622743
 H3                 4.600186074235   -1.369708867843    2.126243998420
 FRAGNAME=WATER   !  40
 O1                 2.543274934976   -5.933220325964   -4.317886490189
 H2                 3.428222971522   -6.261464478615   -4.316789708225
 H3                 1.977360459168   -6.679259164366   -4.436399408196
 FRAGNAME=WATER   !  41
 O1                -1.139432418309    1.892107220582    0.481075325678
 H2                -1.847203445632    1.602657985634    1.034390576994
 H3                -1.397517393265    1.708229376731   -0.408002588968
 FRAGNAME=WATER   !  42
 O1                -5.206407321323    4.169754444305   -6.342492803045
 H2                -4.900391574007    4.529751290345   -5.525403403221
 H3                -6.136055525139    4.036122815175   -6.248816451139
 FRAGNAME=WATER   !  43
 O1                -0.275893820765    3.857570608092    2.704032784779
 H2                 0.134117474837    3.087312915291    2.344210219855
 H3                 0.419711727743    4.451743815066    2.936346312296
 FRAGNAME=WATER   !  44
 O1                 4.776867915205    0.026475411220   -1.248373384113
 H2                 4.983246768328   -0.894135896541   -1.275960393255
 H3                 5.593602676435    0.490468366143   -1.340749363939
 FRAGNAME=WATER   !  45
 O1                -2.535921472606   -5.684611570949   -3.243102532678
 H2                -1.851381495305   -5.522615361563   -3.872420180364
 H3                -2.309586460641   -5.200141199877   -2.465324044946
 FRAGNAME=WATER   !  46
 O1                 4.885875023288   -2.662627717422   -0.730702177277
 H2                 3.992548925880   -2.696152497804   -0.427844080380
 H3                 5.049939950997   -3.475122786646   -1.182158615985
 FRAGNAME=WATER   !  47
 O1                -3.109533900504   -1.385705759806    3.544625208605
 H2                -2.323881907938   -1.540903465976    3.045082344935
 H3                -2.895879640746   -1.559893105697    4.447337277809
 FRAGNAME=WATER   !  48
 O1                 2.141203692755   -2.452254050542   -0.225525506346
 H2                 1.655557187760   -2.832004986506    0.489187829816
 H3                 1.804717684401   -1.579014950553   -0.348444563042
 FRAGNAME=WATER   !  49
 O1                 3.968519421671    3.766738599209    0.808151414797
 H2                 3.770165177703    2.858162229165    0.969467960028
 H3                 3.206585195592    4.141755731499    0.396208652165
 FRAGNAME=WATER   !  50
 O1                -3.804696640338   -4.498141026953    3.983632377893
 H2                -3.637554628447   -4.298687428907    3.076350578144
 H3                -3.855860359151   -5.438295151237    4.049745542521
 FRAGNAME=WATER   !  51
 O1                -4.804318906027    1.672591519603    5.058274130934
 H2                -4.838707427482    2.447057377460    5.596696380357
 H3                -3.936211411144    1.636898188706    4.689500735033
 FRAGNAME=WATER   !  52
 O1                -4.910173017996   -1.874100052338   -2.810509443752
 H2                -4.007845925491   -1.604650885966   -2.746623459836
 H3                -5.419264409059   -1.089480212393   -2.937301069575
 FRAGNAME=WATER   !  53
 O1                -0.593045840439   -5.344255297931   -5.179323102988
 H2                -0.132998418110   -6.087993362339   -5.534412549221
 H3                -1.183663412384   -5.044297962100   -5.851688282379
 FRAGNAME=WATER   !  54
 O1                -4.550834434347    5.204637983534   -3.785280742442
 H2                -3.942263019130    5.897362540932   -3.583657395018
 H3                -5.355345174053    5.411319830288   -3.337035789334
 FRAGNAME=WATER   !  55
 O1                 3.117516246363   -3.297545471987   -5.111955542702
 H2                 2.815935382317   -2.471045043701   -4.770159582292
 H3                 2.513914171340   -3.954780563102   -4.804408759102
 FRAGNAME=WATER   !  56
 O1                 5.454816401920    4.357542503285   -3.268104483884
 H2                 5.295485195564    4.056229812304   -4.148276446061
 H3                 5.783441841776    3.617376124122   -2.783297815712
 FRAGNAME=WATER   !  57
 O1                 3.903867364752    5.916445861485    5.124390916840
 H2                 4.538171049142    6.002922984140    4.430806749422
 H3                 4.084043797550    6.605102714769    5.744202699204
 FRAGNAME=WATER   !  58
 O1                 4.854462695558    5.877069272068    2.428933851456
 H2                 4.492852322075    5.080137630806    2.075357337795
 H3                 5.654929070140    6.044278369626    1.957581377264
 FRAGNAME=WATER   !  59
 O1                -2.999945724881    4.122960171271    2.013875889739
 H2                -2.080490959770    4.292953716172    2.142653153545
 H3                -3.462586219667    4.625691774444    2.665107923521
 FRAGNAME=WATER   !  60
 O1                 1.901861691020    5.332395319758   -0.590821974347
 H2                 1.002046553551    5.219225365251   -0.329280899473
 H3                 2.025739814605    6.255431708024   -0.744238044241
 FRAGNAME=WATER   !  61
 O1                 1.705411328048   -4.814381779749   -1.798479958567
 H2                 2.106115243955   -5.059852674014   -2.617051193044
 H3                 2.086882522998   -3.988609577969   -1.546570347283
 FRAGNAME=WATER   !  62
 O1                -6.017491352303   -0.321529389244    6.279893228639
 H2                -5.843883797605   -1.163886748382    5.891083570162
 H3                -5.442479896941    0.296106386190    5.857085554662
 FRAGNAME=WATER   !  63
 O1                -5.560606238167   -0.041802443111    2.675585773159
 H2                -5.029668307170   -0.701784668689    3.092007229639
 H3                -5.895338095919    0.510957385544    3.363546243898
 FRAGNAME=WATER   !  64
 O1                 3.593543131306    0.919010139079    1.145401207215
 H2                 4.104478362355    0.641046693500    0.402057433002
 H3                 2.697891871807    0.684408378540    0.961963780887
 FRAGNAME=WATER   !  65
 O1                -0.695910568279    4.738754601631   -0.013454458976
 H2                -0.731584831810    3.909457935353    0.435848156517
 H3                -1.110978868099    4.611313777142   -0.851521041538
 .... DONE WITH THIS PORTION OF THE MD TRAJECTORY ....
 STEP CPU TIME =    98.11 TOTAL CPU TIME =      108.4 (    1.8 MIN)
 TOTAL WALL CLOCK TIME=      108.5 SECONDS, CPU UTILIZATION IS  99.94%
              8675595  WORDS OF DYNAMIC MEMORY USED
 EXECUTION OF GAMESS TERMINATED NORMALLY Wed Aug  9 20:06:45 2017
 DDI: 263640 bytes (0.3 MB / 0 MWords) used by master data server.

 ----------------------------------------
 CPU timing information for all processes
 ========================================
 0: 108.357 + 0.33 = 108.391
 ----------------------------------------
 ddikick.x: exited gracefully.
unset echo
----- accounting info -----
Files used on the master node compute-0-7.local were:
-rw-rw-r-- 1 sarom sarom 172K Aug  9 20:04 /scratch/efp2-64h2o-1c6h6.F05
-rw-rw-r-- 1 sarom sarom    0 Aug  9 20:04 /scratch/efp2-64h2o-1c6h6.F08
-rw-rw-r-- 1 sarom sarom 831K Aug  9 20:06 /scratch/efp2-64h2o-1c6h6.F10
-rw-rw-r-- 1 sarom sarom    0 Aug  9 20:04 /scratch/efp2-64h2o-1c6h6.F25
rm: No match.
ls: No match.
ls: No match.
ls: No match.
Wed Aug  9 20:06:48 CDT 2017
0.277u 0.166s 1:52.00 0.3%	0+0k 344+704io 0pf+0w
/opt/gridengine/default/spool/compute-0-7/active_jobs/35763.1/pe_hostfile compute-0-7.local
