-catch_rsh /opt/gridengine/default/spool/compute-0-6/active_jobs/35767.1/pe_hostfile
compute-0-6
The primary node assigned by SGE to this run is compute-0-6
Warning: no access to tty (Bad file descriptor).
Thus no job control in this shell.
source /home/sarom/dir.git.branch.saromleang-travis-ci/install.info
setenv GMS_PATH /home/sarom/dir.git.branch.saromleang-travis-ci
setenv GMS_BUILD_DIR /home/sarom/dir.git.branch.saromleang-travis-ci
setenv GMS_TARGET linux64
setenv GMS_FORTRAN gfortran
setenv GMS_GFORTRAN_VERNO 4.4
setenv GMS_MATHLIB mkl-so
setenv GMS_MATHLIB none
setenv GMS_MATHLIB_PATH /share/apps/intel/compilers_and_libraries_2017.1.132/linux/mkl/lib/intel64
setenv GMS_MKL_VERNO 12
setenv GMS_DDI_COMM sockets
setenv GMS_LIBCCHEM false
setenv GMS_EIGEN_PATH
setenv GMS_PHI false
setenv GMS_SHMTYPE sysv
setenv GMS_OPENMP false
unset echo
ewald-lev2-md
/home/sarom/dir.git.branch.saromleang-travis-ci/tests/solvent/efp2/parallel
----- GAMESS execution script 'rungms' -----
This job is running on host compute-0-6.local
under operating system Linux at Wed Aug 9 20:06:11 CDT 2017
Available scratch disk space (Kbyte units) at beginning of the job is
Filesystem           1K-blocks      Used Available Use% Mounted on
/dev/sda1             16126920   3962040  11345680  26% /
GAMESS temporary binary files will be written to /scratch
GAMESS supplementary output files will be written to /home/sarom/restart
Copying input file ewald-lev2-md.inp to your run's scratch directory...
cp /home/sarom/dir.git.branch.saromleang-travis-ci/tests/solvent/efp2/parallel/ewald-lev2-md.inp /scratch/ewald-lev2-md.F05
unset echo
The generated host list is
compute-0-6.local
/home/sarom/dir.git.branch.saromleang-travis-ci/ddikick.x /home/sarom/dir.git.branch.saromleang-travis-ci/gamess.00.x ewald-lev2-md -ddi 1 1 compute-0-6.local -scr /scratch

 Distributed Data Interface kickoff program.
 Initiating 1 compute processes on 1 nodes to run the following command:
 /home/sarom/dir.git.branch.saromleang-travis-ci/gamess.00.x ewald-lev2-md 

          ******************************************************
          *         GAMESS VERSION = 20 APR 2017 (R1)          *
          *             FROM IOWA STATE UNIVERSITY             *
          * M.W.SCHMIDT, K.K.BALDRIDGE, J.A.BOATZ, S.T.ELBERT, *
          *   M.S.GORDON, J.H.JENSEN, S.KOSEKI, N.MATSUNAGA,   *
          *          K.A.NGUYEN, S.J.SU, T.L.WINDUS,           *
          *       TOGETHER WITH M.DUPUIS, J.A.MONTGOMERY       *
          *         J.COMPUT.CHEM.  14, 1347-1363(1993)        *
          **************** 64 BIT LINUX VERSION ****************

  SINCE 1993, STUDENTS AND POSTDOCS WORKING AT IOWA STATE UNIVERSITY
  AND ALSO IN THEIR VARIOUS JOBS AFTER LEAVING ISU HAVE MADE IMPORTANT
  CONTRIBUTIONS TO THE CODE:
     IVANA ADAMOVIC, CHRISTINE AIKENS, YURI ALEXEEV, POOJA ARORA,
     ANDREY ASADCHEV, ROB BELL, PRADIPTA BANDYOPADHYAY, JONATHAN BENTZ,
     BRETT BODE, KURT BRORSEN, CALEB CARLIN, GALINA CHABAN, WEI CHEN,
     CHEOL HO CHOI, PAUL DAY, ALBERT DEFUSCO, NUWAN DESILVA, TIM DUDLEY,
     DMITRI FEDOROV, GRAHAM FLETCHER, MARK FREITAG, KURT GLAESEMANN,
     DAN KEMP, GRANT MERRILL, NORIYUKI MINEZAWA, JONATHAN MULLIN,
     TAKESHI NAGATA, SEAN NEDD, HEATHER NETZLOFF, BOSILJKA NJEGIC, RYAN OLSON,
     MIKE PAK, SPENCER PRUITT, LUKE ROSKOP, JIM SHOEMAKER, LYUDMILA SLIPCHENKO,
     TONY SMITH, SAROM SOK LEANG, JIE SONG, TETSUYA TAKETSUGU, SIMON WEBB,
     PENG XU, SOOHAENG YOO, FEDERICO ZAHARIEV

  ADDITIONAL CODE HAS BEEN PROVIDED BY COLLABORATORS IN OTHER GROUPS:
     IOWA STATE UNIVERSITY:
          JOE IVANIC, AARON WEST, LAIMUTIS BYTAUTAS, KLAUS RUEDENBERG
     UNIVERSITY OF TOKYO: KIMIHIKO HIRAO, TAKAHITO NAKAJIMA,
          TAKAO TSUNEDA, MUNEAKI KAMIYA, SUSUMU YANAGISAWA,
          KIYOSHI YAGI, MAHITO CHIBA, SEIKEN TOKURA, NAOAKI KAWAKAMI
     UNIVERSITY OF AARHUS: FRANK JENSEN
     UNIVERSITY OF IOWA: VISVALDAS KAIRYS, HUI LI
     NATIONAL INST. OF STANDARDS AND TECHNOLOGY: WALT STEVENS, DAVID GARMER
     UNIVERSITY OF PISA: BENEDETTA MENNUCCI, JACOPO TOMASI
     UNIVERSITY OF MEMPHIS: HENRY KURTZ, PRAKASHAN KORAMBATH
     UNIVERSITY OF ALBERTA: TOBY ZENG, MARIUSZ KLOBUKOWSKI
     UNIVERSITY OF NEW ENGLAND: MARK SPACKMAN
     MIE UNIVERSITY: HIROAKI UMEDA
     NAT. INST. OF ADVANCED INDUSTRIAL SCIENCE AND TECHNOLOGY: KAZUO KITAURA
     MICHIGAN STATE UNIVERSITY:
          KAROL KOWALSKI, MARTA WLOCH, JEFFREY GOUR, JESSE LUTZ,
          WEI LI, PIOTR PIECUCH
     UNIVERSITY OF SILESIA: MONIKA MUSIAL, STANISLAW KUCHARSKI
     FACULTES UNIVERSITAIRES NOTRE-DAME DE LA PAIX:
          OLIVIER QUINET, BENOIT CHAMPAGNE
     UNIVERSITY OF CALIFORNIA - SANTA BARBARA: BERNARD KIRTMAN
     INSTITUTE FOR MOLECULAR SCIENCE:
          KAZUYA ISHIMURA, MICHIO KATOUDA, AND SHIGERU NAGASE
     UNIVERSITY OF NOTRE DAME: ANNA POMOGAEVA, DAN CHIPMAN
     KYUSHU UNIVERSITY:
          HARUYUKI NAKANO,
          FENG LONG GU, JACEK KORCHOWIEC, MARCIN MAKOWSKI, AND YURIKO AOKI,
          HIROTOSHI MORI AND EISAKU MIYOSHI
     PENNSYLVANIA STATE UNIVERSITY:
          TZVETELIN IORDANOV, CHET SWALINA, JONATHAN SKONE,
          SHARON HAMMES-SCHIFFER
     WASEDA UNIVERSITY:
          MASATO KOBAYASHI, TOMOKO AKAMA, TSUGUKI TOUMA,
          TAKESHI YOSHIKAWA, YASUHIRO IKABATA, JUNJI SEINO,
          YUYA NAKAJIMA, HIROMI NAKAI
     NANJING UNIVERSITY: SHUHUA LI
     UNIVERSITY OF NEBRASKA:
          PEIFENG SU, DEJUN SI, NANDUN THELLAMUREGE, YALI WANG, HUI LI
     UNIVERSITY OF ZURICH: ROBERTO PEVERATI, KIM BALDRIDGE
     N. COPERNICUS UNIVERSITY AND JACKSON STATE UNIVERSITY:
          MARIA BARYSZ
     UNIVERSITY OF COPENHAGEN: Jimmy Kromann, CASPER STEINMANN
     TOKYO INSTITUTE OF TECHNOLOGY: HIROYA NAKATA
     NAGOYA UNIVERSITY: YOSHIO NISHIMOTO, STEPHAN IRLE
     MOSCOW STATE UNIVERSITY: VLADIMIR MIRONOV

 EXECUTION OF GAMESS BEGUN Wed Aug  9 20:06:11 2017

            ECHO OF THE FIRST FEW INPUT CARDS -
 INPUT CARD>!   MD NVE simulation of 64 EFP1 waters with Ewald sums and PBC                 
 INPUT CARD>!   test case is from Lyuda, for l-e-v-e-l 2 of Ewald sums.                     
 INPUT CARD>!   the numerical results (for polarization energy only) changed                
 INPUT CARD>!   in August 2011, since EFP1 code will now obey the ISCRPOL request.          
 INPUT CARD>!                                                                               
 INPUT CARD>!    AT T=          0.00 FSEC, THIS RUN'S STEP NO.=       0                     
 INPUT CARD>!    ELEC ENERGY      =        -807.70579528 KCAL/MOL                           
 INPUT CARD>!    POLZ ENERGY      =        -191.17233369 KCAL/MOL                           
 INPUT CARD>!    DISP ENERGY      =           0.00000000 KCAL/MOL                           
 INPUT CARD>!    CH-TR ENRGY      =           0.00000000 KCAL/MOL                           
 INPUT CARD>!    REP  ENERGY      =         394.35289679 KCAL/MOL                           
 INPUT CARD>!    POT  ENERGY      =        -604.52523218 KCAL/MOL                           
 INPUT CARD>!                                                                               
 INPUT CARD>!    AT T=          6.00 FSEC, THIS RUN'S STEP NO.=      20                     
 INPUT CARD>!    ELEC ENERGY      =        -799.01260580 KCAL/MOL                           
 INPUT CARD>!    POLZ ENERGY      =        -188.43413473 KCAL/MOL                           
 INPUT CARD>!    DISP ENERGY      =           0.00000000 KCAL/MOL                           
 INPUT CARD>!    CH-TR ENRGY      =           0.00000000 KCAL/MOL                           
 INPUT CARD>!    REP  ENERGY      =         391.77617793 KCAL/MOL                           
 INPUT CARD>!    POT  ENERGY      =        -595.67056260 KCAL/MOL                           
 INPUT CARD>!    TOTAL ENERGY     =        -487.06420514 KCAL/MOL  0.00253878               
 INPUT CARD>!                                                                               
 INPUT CARD>!   The 1st EFP particle is at (PBC CARTESIAN COORDS) after 20 time steps:      
 INPUT CARD>!   FRAGNAME=WATER   !   1                                                      
 INPUT CARD>!   ZO1               -2.098272299723    1.711459056010   -5.902493719904       
 INPUT CARD>!   ZH2               -2.878896256754    1.291619537513   -6.226900055361       
 INPUT CARD>!   ZH3               -2.371830656756    2.522344849695   -5.504362448882       
 INPUT CARD>!                                                                               
 INPUT CARD>!   This run takes 11 seconds on a 2.66 GHz Cloverton ( 6 Oct 2015)             
 INPUT CARD>!   answers last updated August 2011                                            
 INPUT CARD>!                                                                               
 INPUT CARD> $contrl runtyp=md coord=fragonly $end                                          
 INPUT CARD> $system mwords=1 $end                                                          
 INPUT CARD> $md     mdint=vverlet nsteps=20 dt=0.3d-15                                     
 INPUT CARD>         batht=300.0 mbt=.true. mbr=.true.                                      
 INPUT CARD>         jevery=1 kevery=10 pbcout=.true. $end                                  
 INPUT CARD> $mdprp  pressr=.true. difusn=.true. htvap=.true. $end                          
 INPUT CARD> $ewald  ifewld=.t. beta=0.3 kmax=7 level=2 $end                                
 INPUT CARD>                                                                                
 INPUT CARD> $efrag                                                                         
 INPUT CARD>iscrelec=0 iscrpol=1 iscrdisp=1  >                                              
 INPUT CARD>swr1=5.0 swr2=6.2 xbox=12.4 ybox=12.4 zbox=12.4                                 
 INPUT CARD>FRAGNAME=WATER                                                                  
 INPUT CARD>ZO1              10.2981729197546   1.7252086792803  18.8923370206671           
 INPUT CARD>ZH2               9.4950651853671   1.2962079343619  18.6436308045692           
 INPUT CARD>ZH3              10.0569296710896   2.5598646590496  19.2611588536818           
 INPUT CARD>FRAGNAME=WATER                                                                  
 INPUT CARD>ZO1               9.2414987440784   6.9460546769522  22.9048028070895           
 INPUT CARD>ZH2               8.4467828920546   6.9365672748519  23.4139345756269           
 INPUT CARD>ZH3               9.0037435346822   7.2281396698610  22.0360226443492           
    1000000 WORDS OF MEMORY AVAILABLE

     $CONTRL OPTIONS
     ---------------
 SCFTYP=RHF          RUNTYP=MD           EXETYP=RUN     
 MPLEVL=       0     CITYP =NONE         CCTYP =NONE         VBTYP =NONE    
 DFTTYP=NONE         TDDFT =NONE    
 MULT  =       1     ICHARG=       0     NZVAR =       0     COORD =FRAGONLY
 PP    =NONE         RELWFN=NONE         LOCAL =NONE         NUMGRD=       F
 ISPHER=      -1     NOSYM =       0     MAXIT =      30     UNITS =ANGS    
 PLTORB=       F     MOLPLT=       F     AIMPAC=       F     FRIEND=        
 NPRINT=       7     IREST =       0     GEOM  =INPUT   
 NORMF =       0     NORMP =       0     ITOL  =      20     ICUT  =       9
 INTTYP=BEST         GRDTYP=BEST         QMTTOL= 1.0E-06

     $SYSTEM OPTIONS
     ---------------
  REPLICATED MEMORY=     1000000 WORDS (ON EVERY NODE).
 DISTRIBUTED MEMDDI=           0 MILLION WORDS IN AGGREGATE,
 MEMDDI DISTRIBUTED OVER   1 PROCESSORS IS           0 WORDS/PROCESSOR.
 TOTAL MEMORY REQUESTED ON EACH PROCESSOR=     1000000 WORDS.
 TIMLIM=      525600.00 MINUTES, OR     365.0 DAYS.
 PARALL= F  BALTYP=  DLB     KDIAG=    0  COREFL= F
 MXSEQ2=     300 MXSEQ3=     150  mem10=         0

 READING $EFRAG GROUP
 COORD=CART      POSITION=OPTIMIZE  POLMETHD=FRGSCF   NBUFFMO=0
 READING COORDINATES OF FRAGMENT   1 NAMED   WATER 
 READING COORDINATES OF FRAGMENT   2 NAMED   WATER 
 READING COORDINATES OF FRAGMENT   3 NAMED   WATER 
 READING COORDINATES OF FRAGMENT   4 NAMED   WATER 
 READING COORDINATES OF FRAGMENT   5 NAMED   WATER 
 READING COORDINATES OF FRAGMENT   6 NAMED   WATER 
 READING COORDINATES OF FRAGMENT   7 NAMED   WATER 
 READING COORDINATES OF FRAGMENT   8 NAMED   WATER 
 READING COORDINATES OF FRAGMENT   9 NAMED   WATER 
 READING COORDINATES OF FRAGMENT  10 NAMED   WATER 
 READING COORDINATES OF FRAGMENT  11 NAMED   WATER 
 READING COORDINATES OF FRAGMENT  12 NAMED   WATER 
 READING COORDINATES OF FRAGMENT  13 NAMED   WATER 
 READING COORDINATES OF FRAGMENT  14 NAMED   WATER 
 READING COORDINATES OF FRAGMENT  15 NAMED   WATER 
 READING COORDINATES OF FRAGMENT  16 NAMED   WATER 
 READING COORDINATES OF FRAGMENT  17 NAMED   WATER 
 READING COORDINATES OF FRAGMENT  18 NAMED   WATER 
 READING COORDINATES OF FRAGMENT  19 NAMED   WATER 
 READING COORDINATES OF FRAGMENT  20 NAMED   WATER 
 READING COORDINATES OF FRAGMENT  21 NAMED   WATER 
 READING COORDINATES OF FRAGMENT  22 NAMED   WATER 
 READING COORDINATES OF FRAGMENT  23 NAMED   WATER 
 READING COORDINATES OF FRAGMENT  24 NAMED   WATER 
 READING COORDINATES OF FRAGMENT  25 NAMED   WATER 
 READING COORDINATES OF FRAGMENT  26 NAMED   WATER 
 READING COORDINATES OF FRAGMENT  27 NAMED   WATER 
 READING COORDINATES OF FRAGMENT  28 NAMED   WATER 
 READING COORDINATES OF FRAGMENT  29 NAMED   WATER 
 READING COORDINATES OF FRAGMENT  30 NAMED   WATER 
 READING COORDINATES OF FRAGMENT  31 NAMED   WATER 
 READING COORDINATES OF FRAGMENT  32 NAMED   WATER 
 READING COORDINATES OF FRAGMENT  33 NAMED   WATER 
 READING COORDINATES OF FRAGMENT  34 NAMED   WATER 
 READING COORDINATES OF FRAGMENT  35 NAMED   WATER 
 READING COORDINATES OF FRAGMENT  36 NAMED   WATER 
 READING COORDINATES OF FRAGMENT  37 NAMED   WATER 
 READING COORDINATES OF FRAGMENT  38 NAMED   WATER 
 READING COORDINATES OF FRAGMENT  39 NAMED   WATER 
 READING COORDINATES OF FRAGMENT  40 NAMED   WATER 
 READING COORDINATES OF FRAGMENT  41 NAMED   WATER 
 READING COORDINATES OF FRAGMENT  42 NAMED   WATER 
 READING COORDINATES OF FRAGMENT  43 NAMED   WATER 
 READING COORDINATES OF FRAGMENT  44 NAMED   WATER 
 READING COORDINATES OF FRAGMENT  45 NAMED   WATER 
 READING COORDINATES OF FRAGMENT  46 NAMED   WATER 
 READING COORDINATES OF FRAGMENT  47 NAMED   WATER 
 READING COORDINATES OF FRAGMENT  48 NAMED   WATER 
 READING COORDINATES OF FRAGMENT  49 NAMED   WATER 
 READING COORDINATES OF FRAGMENT  50 NAMED   WATER 
 READING COORDINATES OF FRAGMENT  51 NAMED   WATER 
 READING COORDINATES OF FRAGMENT  52 NAMED   WATER 
 READING COORDINATES OF FRAGMENT  53 NAMED   WATER 
 READING COORDINATES OF FRAGMENT  54 NAMED   WATER 
 READING COORDINATES OF FRAGMENT  55 NAMED   WATER 
 READING COORDINATES OF FRAGMENT  56 NAMED   WATER 
 READING COORDINATES OF FRAGMENT  57 NAMED   WATER 
 READING COORDINATES OF FRAGMENT  58 NAMED   WATER 
 READING COORDINATES OF FRAGMENT  59 NAMED   WATER 
 READING COORDINATES OF FRAGMENT  60 NAMED   WATER 
 READING COORDINATES OF FRAGMENT  61 NAMED   WATER 
 READING COORDINATES OF FRAGMENT  62 NAMED   WATER 
 READING COORDINATES OF FRAGMENT  63 NAMED   WATER 
 READING COORDINATES OF FRAGMENT  64 NAMED   WATER 
 FINISHED READING $EFRAG GROUP,  64 FRAGMENTS WILL BE USED.

 READING POTENTIAL PARAMETERS FOR FRAGMENT    1 FROM GROUP $WATER 
 READING POTENTIAL PARAMETERS FOR FRAGMENT    2 FROM GROUP $WATER 
 READING POTENTIAL PARAMETERS FOR FRAGMENT    3 FROM GROUP $WATER 
 READING POTENTIAL PARAMETERS FOR FRAGMENT    4 FROM GROUP $WATER 
 READING POTENTIAL PARAMETERS FOR FRAGMENT    5 FROM GROUP $WATER 
 READING POTENTIAL PARAMETERS FOR FRAGMENT    6 FROM GROUP $WATER 
 READING POTENTIAL PARAMETERS FOR FRAGMENT    7 FROM GROUP $WATER 
 READING POTENTIAL PARAMETERS FOR FRAGMENT    8 FROM GROUP $WATER 
 READING POTENTIAL PARAMETERS FOR FRAGMENT    9 FROM GROUP $WATER 
 READING POTENTIAL PARAMETERS FOR FRAGMENT   10 FROM GROUP $WATER 
 READING POTENTIAL PARAMETERS FOR FRAGMENT   11 FROM GROUP $WATER 
 READING POTENTIAL PARAMETERS FOR FRAGMENT   12 FROM GROUP $WATER 
 READING POTENTIAL PARAMETERS FOR FRAGMENT   13 FROM GROUP $WATER 
 READING POTENTIAL PARAMETERS FOR FRAGMENT   14 FROM GROUP $WATER 
 READING POTENTIAL PARAMETERS FOR FRAGMENT   15 FROM GROUP $WATER 
 READING POTENTIAL PARAMETERS FOR FRAGMENT   16 FROM GROUP $WATER 
 READING POTENTIAL PARAMETERS FOR FRAGMENT   17 FROM GROUP $WATER 
 READING POTENTIAL PARAMETERS FOR FRAGMENT   18 FROM GROUP $WATER 
 READING POTENTIAL PARAMETERS FOR FRAGMENT   19 FROM GROUP $WATER 
 READING POTENTIAL PARAMETERS FOR FRAGMENT   20 FROM GROUP $WATER 
 READING POTENTIAL PARAMETERS FOR FRAGMENT   21 FROM GROUP $WATER 
 READING POTENTIAL PARAMETERS FOR FRAGMENT   22 FROM GROUP $WATER 
 READING POTENTIAL PARAMETERS FOR FRAGMENT   23 FROM GROUP $WATER 
 READING POTENTIAL PARAMETERS FOR FRAGMENT   24 FROM GROUP $WATER 
 READING POTENTIAL PARAMETERS FOR FRAGMENT   25 FROM GROUP $WATER 
 READING POTENTIAL PARAMETERS FOR FRAGMENT   26 FROM GROUP $WATER 
 READING POTENTIAL PARAMETERS FOR FRAGMENT   27 FROM GROUP $WATER 
 READING POTENTIAL PARAMETERS FOR FRAGMENT   28 FROM GROUP $WATER 
 READING POTENTIAL PARAMETERS FOR FRAGMENT   29 FROM GROUP $WATER 
 READING POTENTIAL PARAMETERS FOR FRAGMENT   30 FROM GROUP $WATER 
 READING POTENTIAL PARAMETERS FOR FRAGMENT   31 FROM GROUP $WATER 
 READING POTENTIAL PARAMETERS FOR FRAGMENT   32 FROM GROUP $WATER 
 READING POTENTIAL PARAMETERS FOR FRAGMENT   33 FROM GROUP $WATER 
 READING POTENTIAL PARAMETERS FOR FRAGMENT   34 FROM GROUP $WATER 
 READING POTENTIAL PARAMETERS FOR FRAGMENT   35 FROM GROUP $WATER 
 READING POTENTIAL PARAMETERS FOR FRAGMENT   36 FROM GROUP $WATER 
 READING POTENTIAL PARAMETERS FOR FRAGMENT   37 FROM GROUP $WATER 
 READING POTENTIAL PARAMETERS FOR FRAGMENT   38 FROM GROUP $WATER 
 READING POTENTIAL PARAMETERS FOR FRAGMENT   39 FROM GROUP $WATER 
 READING POTENTIAL PARAMETERS FOR FRAGMENT   40 FROM GROUP $WATER 
 READING POTENTIAL PARAMETERS FOR FRAGMENT   41 FROM GROUP $WATER 
 READING POTENTIAL PARAMETERS FOR FRAGMENT   42 FROM GROUP $WATER 
 READING POTENTIAL PARAMETERS FOR FRAGMENT   43 FROM GROUP $WATER 
 READING POTENTIAL PARAMETERS FOR FRAGMENT   44 FROM GROUP $WATER 
 READING POTENTIAL PARAMETERS FOR FRAGMENT   45 FROM GROUP $WATER 
 READING POTENTIAL PARAMETERS FOR FRAGMENT   46 FROM GROUP $WATER 
 READING POTENTIAL PARAMETERS FOR FRAGMENT   47 FROM GROUP $WATER 
 READING POTENTIAL PARAMETERS FOR FRAGMENT   48 FROM GROUP $WATER 
 READING POTENTIAL PARAMETERS FOR FRAGMENT   49 FROM GROUP $WATER 
 READING POTENTIAL PARAMETERS FOR FRAGMENT   50 FROM GROUP $WATER 
 READING POTENTIAL PARAMETERS FOR FRAGMENT   51 FROM GROUP $WATER 
 READING POTENTIAL PARAMETERS FOR FRAGMENT   52 FROM GROUP $WATER 
 READING POTENTIAL PARAMETERS FOR FRAGMENT   53 FROM GROUP $WATER 
 READING POTENTIAL PARAMETERS FOR FRAGMENT   54 FROM GROUP $WATER 
 READING POTENTIAL PARAMETERS FOR FRAGMENT   55 FROM GROUP $WATER 
 READING POTENTIAL PARAMETERS FOR FRAGMENT   56 FROM GROUP $WATER 
 READING POTENTIAL PARAMETERS FOR FRAGMENT   57 FROM GROUP $WATER 
 READING POTENTIAL PARAMETERS FOR FRAGMENT   58 FROM GROUP $WATER 
 READING POTENTIAL PARAMETERS FOR FRAGMENT   59 FROM GROUP $WATER 
 READING POTENTIAL PARAMETERS FOR FRAGMENT   60 FROM GROUP $WATER 
 READING POTENTIAL PARAMETERS FOR FRAGMENT   61 FROM GROUP $WATER 
 READING POTENTIAL PARAMETERS FOR FRAGMENT   62 FROM GROUP $WATER 
 READING POTENTIAL PARAMETERS FOR FRAGMENT   63 FROM GROUP $WATER 
 READING POTENTIAL PARAMETERS FOR FRAGMENT   64 FROM GROUP $WATER 


     SUMMARY OF THE EFFECTIVE FRAGMENT POTENTIAL MODEL CHOSEN
     --------------------------------------------------------
 TOTAL NUMBER OF MULTIPOLE POINTS   =       512  (EFP1/EFP2 ELECTROSTATICS)
 TOTAL NUMBER OF POLARIZABLE POINTS =       320  (EFP1/EFP2 INDUCTION)
 TOTAL NUMBER OF L-J POINTS         =         0  (REPULSION AND DISPERSION)
 TOTAL NUMBER OF REPULSIVE POINTS   =       192  (EFP1 REPULSION/ETC.)

 THIS IS A -EFP1- TYPE RUN, WITH PAULI REPULSION, CHARGE TRANSFER, AND
 HIGHER ORDER EFFECTS COLLECTED IN A FITTED REPULSIVE POTENTIAL.

 OPTIONS FOR EFP SCREENING:
     ELECTROSTATIC EFP-EFP SCREENING CHOICE IS GAUSSIAN, FOR CHARGE/CHARGE
     POLARIZATION EFP-EFP SCREENING IS TANG-TOENNIS LIKE

     PERIODIC BOUNDARY CONDITIONS WILL BE APPLIED
     BOX SIZE IS =    12.4000   12.4000   12.4000 ANGSTROMS
     SWITCHING FUNCTIONS WILL BE APPLIED BETWEEN     5.0000 AND     6.2000 ANG.

     $EWALD OPTIONS
     -----------

     IFEWLD   =        T         TINFOIL        =        T
     BETA    =    0.300         ELECTRIC CONST =     1.00
     EPSILON =     1.00         CUT_OFF        = 0.10E+04
     CUTLIST =  1000.00         LEVEL          =    2
     KMAX    =        7         EWLDPL         =        F

 ESELFCC =  -7.21399014782155
 ESELFDD =  -0.17009865830735
 EEXCLCC =   6.93451279799736
 EEXCLCD =  -0.12286718818426
 EEXCLDD =   0.11824127396778
 EEXCLCQ =   0.00000000000000
 NUMBER OF RECIPROCAL SPACE K-VECTORS GENERATED =  1687
 READING INTER-FRAGMENT REPULSION $FRGRPL...

            MULTIPOLE COORDINATES, ELECTRONIC AND NUCLEAR CHARGES

                  X              Y              Z           ELEC.   NUC.
 ZO1       19.4607249925   3.2601716755  35.7013402368    8.00000    0.0
 ZH2       17.9430714359   2.4494778191  35.2313536369    1.00000    0.0
 ZH3       19.0048413562   4.8374427712  36.3983124394    1.00000    0.0
 O1        19.4607249925   3.2601716755  35.7013402368   -8.21083    0.0
 H2        17.9430714359   2.4494778191  35.2313536369   -0.55665    0.0
 H3        19.0048413562   4.8374427712  36.3983124394   -0.55665    0.0
 B12       18.7018986776   2.8548245673  35.4663468835   -0.33793    0.0
 B13       19.2327836378   4.0488070433  36.0498262848   -0.33793    0.0
 ZO1       17.4639003422  13.1261400352  43.2838011082    8.00000    0.0
 ZH2       15.9621051437  13.1082114449  44.2459206424    1.00000    0.0
 ZH3       17.0146081443  13.6592033770  41.6420446570    1.00000    0.0
 O1        17.4639003422  13.1261400352  43.2838011082   -8.21083    0.0
 H2        15.9621051437  13.1082114449  44.2459206424   -0.55665    0.0
 H3        17.0146081443  13.6592033770  41.6420446570   -0.55665    0.0
 B12       16.7130032011  13.1171756191  43.7648610349   -0.33793    0.0
 B13       17.2392547014  13.3926715851  42.4629230422   -0.33793    0.0
 ZO1       18.7015853391  12.8299682093  52.4678783215    8.00000    0.0
 ZH2       19.2940141521  13.1983305002  50.8263176084    1.00000    0.0
 ZH3       19.2502105211  14.1605149267  53.5214627240    1.00000    0.0
 O1        18.7015853391  12.8299682093  52.4678783215   -8.21083    0.0
 H2        19.2940141521  13.1983305002  50.8263176084   -0.55665    0.0
 H3        19.2502105211  14.1605149267  53.5214627240   -0.55665    0.0
 B12       18.9977994776  13.0141489558  51.6470981030   -0.33793    0.0
 B13       18.9758976621  13.4952411691  52.9946706608   -0.33793    0.0
 ZO1       25.8850586052  14.7499151042  40.2329784630    8.00000    0.0
 ZH2       25.0668475230  13.8353827094  38.9385498730    1.00000    0.0
 ZH3       24.6330623225  15.1758432729  41.4298388367    1.00000    0.0
 O1        25.8850586052  14.7499151042  40.2329784630   -8.21083    0.0
 H2        25.0668475230  13.8353827094  38.9385498730   -0.55665    0.0
 H3        24.6330623225  15.1758432729  41.4298388367   -0.55665    0.0
 B12       25.4759535502  14.2926490215  39.5857641909   -0.33793    0.0
 B13       25.2590609500  14.9628793033  40.8314086728   -0.33793    0.0
 ZO1       15.3609331120  22.7406200224  35.1852573902    8.00000    0.0
 ZH2       16.1436252069  21.4002727286  34.3064818401    1.00000    0.0
 ZH3       15.2554972268  22.2408121254  36.8941926116    1.00000    0.0
 O1        15.3609331120  22.7406200224  35.1852573902   -8.21083    0.0
 H2        16.1436252069  21.4002727286  34.3064818401   -0.55665    0.0
 H3        15.2554972268  22.2408121254  36.8941926116   -0.55665    0.0
 B12       15.7522790004  22.0704468076  34.7458694202   -0.33793    0.0
 B13       15.3082150104  22.4907165060  36.0397248059   -0.33793    0.0
 ZO1      -13.1476064156  29.3384065190  58.2612022029    8.00000    0.0
 ZH2      -13.1234343005  27.5562569078  58.1923347712    1.00000    0.0
 ZH3      -13.4636248282  29.7815586062  59.9597700824    1.00000    0.0
 O1       -13.1476064156  29.3384065190  58.2612022029   -8.21083    0.0
 H2       -13.1234343005  27.5562569078  58.1923347712   -0.55665    0.0
 H3       -13.4636248282  29.7815586062  59.9597700824   -0.55665    0.0
 B12      -13.1355202895  28.4473320278  58.2267681044   -0.33793    0.0
 B13      -13.3056155533  29.5599828770  59.1104857600   -0.33793    0.0
 ZO1        2.7573751462  36.3753740251  47.6425270179    8.00000    0.0
 ZH2        3.4360947563  35.1042766836  46.5913203351    1.00000    0.0
 ZH3        2.7507957331  35.7194954811  49.3011904248    1.00000    0.0
 O1         2.7573751462  36.3753740251  47.6425270179   -8.21083    0.0
 H2         3.4360947563  35.1042766836  46.5913203351   -0.55665    0.0
 H3         2.7507957331  35.7194954811  49.3011904248   -0.55665    0.0
 B12        3.0967347934  35.7398258069  47.1169235338   -0.33793    0.0
 B13        2.7540852818  36.0474352056  48.4718585787   -0.33793    0.0
 ZO1       31.8510375070  11.4299636439  28.2909086885    8.00000    0.0
 ZH2       33.4407923418  12.2387051669  28.2918908439    1.00000    0.0
 ZH3       30.7562527880  12.4502005118  29.2614484369    1.00000    0.0
 O1        31.8510375070  11.4299636439  28.2909086885   -8.21083    0.0
 H2        33.4407923418  12.2387051669  28.2918908439   -0.55665    0.0
 H3        30.7562527880  12.4502005118  29.2614484369   -0.55665    0.0
 B12       32.6459148082  11.8343339759  28.2913995381   -0.33793    0.0
 B13       31.3036450312  11.9400816483  28.7761783346   -0.33793    0.0
 ZO1       33.4437315324  18.7923401747  36.1336937098    8.00000    0.0
 ZH2       34.9382029218  18.9709664867  37.0907893986    1.00000    0.0
 ZH3       33.2939681553  17.0601851409  35.7354549364    1.00000    0.0
 O1        33.4437315324  18.7923401747  36.1336937098   -8.21083    0.0
 H2        34.9382029218  18.9709664867  37.0907893986   -0.55665    0.0
 H3        33.2939681553  17.0601851409  35.7354549364   -0.55665    0.0
 B12       34.1909669113  18.8816536955  36.6122414230   -0.33793    0.0
 B13       33.3688495281  17.9262630226  35.9345741918   -0.33793    0.0
 ZO1       34.4256264345  15.6731964381  42.6406395797    8.00000    0.0
 ZH2       35.7605157256  16.0192112103  41.5093886754    1.00000    0.0
 ZH3       35.0849945340  14.5912952108  43.8960708580    1.00000    0.0
 O1        34.4256264345  15.6731964381  42.6406395797   -8.21083    0.0
 H2        35.7605157256  16.0192112103  41.5093886754   -0.55665    0.0
 H3        35.0849945340  14.5912952108  43.8960708580   -0.55665    0.0
 B12       35.0930706118  15.8462039970  42.0750140984   -0.33793    0.0
 B13       34.7553100160  15.1322459972  43.2683551897   -0.33793    0.0
 ZO1       36.4160739739  12.3488346204  45.7832280740    8.00000    0.0
 ZH2       36.4844634849  12.6086907237  47.5465153254    1.00000    0.0
 ZH3       35.7808381522  10.7011685131  45.5321183362    1.00000    0.0
 O1        36.4160739739  12.3488346204  45.7832280740   -8.21083    0.0
 H2        36.4844634849  12.6086907237  47.5465153254   -0.55665    0.0
 H3        35.7808381522  10.7011685131  45.5321183362   -0.55665    0.0
 B12       36.4502688625  12.4787629980  46.6648713446   -0.33793    0.0
 B13       36.0984561962  11.5250018926  45.6576728500   -0.33793    0.0
 ZO1       38.9223644025  14.8105489389  38.7752895641    8.00000    0.0
 ZH2       38.4348335800  14.3292801983  37.1284506688    1.00000    0.0
 ZH3       39.8404301700  16.3312819151  38.6143215162    1.00000    0.0
 O1        38.9223644025  14.8105489389  38.7752895641   -8.21083    0.0
 H2        38.4348335800  14.3292801983  37.1284506688   -0.55665    0.0
 H3        39.8404301700  16.3312819151  38.6143215162   -0.55665    0.0
 B12       38.6785988901  14.5699143245  37.9518705410   -0.33793    0.0
 B13       39.3813971851  15.5709151829  38.6948059647   -0.33793    0.0
 ZO1       28.4245290807  19.3423037594  38.3027911227    8.00000    0.0
 ZH2       28.3122619671  17.7116019548  39.0166482305    1.00000    0.0
 ZH3       30.0242281653  19.4508367661  37.5214028224    1.00000    0.0
 O1        28.4245290807  19.3423037594  38.3027911227   -8.21083    0.0
 H2        28.3122619671  17.7116019548  39.0166482305   -0.55665    0.0
 H3        30.0242281653  19.4508367661  37.5214028224   -0.55665    0.0
 B12       28.3683951746  18.5269532145  38.6597196925   -0.33793    0.0
 B13       29.2243782737  19.3965706202  37.9120969884   -0.33793    0.0
 ZO1       30.2675191234  25.6619214631  43.4111885905    8.00000    0.0
 ZH2       28.8146160695  24.6299162792  43.4848246363    1.00000    0.0
 ZH3       30.6609023047  26.1139891683  45.0911495166    1.00000    0.0
 O1        30.2675191234  25.6619214631  43.4111885905   -8.21083    0.0
 H2        28.8146160695  24.6299162792  43.4848246363   -0.55665    0.0
 H3        30.6609023047  26.1139891683  45.0911495166   -0.55665    0.0
 B12       29.5410678453  25.1459190074  43.4480062016   -0.33793    0.0
 B13       30.4642109628  25.8879554519  44.2511686417   -0.33793    0.0
 ZO1       32.3273132516  20.3946524569  45.2316372571    8.00000    0.0
 ZH2       31.2477429564  21.5908029517  44.4666952839    1.00000    0.0
 ZH3       32.6015342993  19.1076793220  44.0275246304    1.00000    0.0
 O1        32.3273132516  20.3946524569  45.2316372571   -8.21083    0.0
 H2        31.2477429564  21.5908029517  44.4666952839   -0.55665    0.0
 H3        32.6015342993  19.1076793220  44.0275246304   -0.55665    0.0
 B12       31.7875282931  20.9927277256  44.8491667329   -0.33793    0.0
 B13       32.4644239645  19.7511659108  44.6295814062   -0.33793    0.0
 ZO1       36.4243341799   7.1819858869  44.7780397872    8.00000    0.0
 ZH2       34.9538936075   6.5107339777  45.5321018856    1.00000    0.0
 ZH3       37.1692743654   5.8597015978  43.8410165061    1.00000    0.0
 O1        36.4243341799   7.1819858869  44.7780397872   -8.21083    0.0
 H2        34.9538936075   6.5107339777  45.5321018856   -0.55665    0.0
 H3        37.1692743654   5.8597015978  43.8410165061   -0.55665    0.0
 B12       35.6891140641   6.8463604004  45.1550708794   -0.33793    0.0
 B13       36.7968044430   6.5208442105  44.3095281896   -0.33793    0.0
 ZO1       19.8736448185  18.5214735320  39.1435745230    8.00000    0.0
 ZH2       19.9883155584  20.2934219015  39.3121979142    1.00000    0.0
 ZH3       21.1364683427  18.0342605090  37.9819874761    1.00000    0.0
 O1        19.8736448185  18.5214735320  39.1435745230   -8.21083    0.0
 H2        19.9883155584  20.2934219015  39.3121979142   -0.55665    0.0
 H3        21.1364683427  18.0342605090  37.9819874761   -0.55665    0.0
 B12       19.9309798650  19.4074474151  39.2278864518   -0.33793    0.0
 B13       20.5050562572  18.2778667188  38.5627812327   -0.33793    0.0
 ZO1       12.7967167422  25.0332512040  47.0249469880    8.00000    0.0
 ZH2       12.0858039295  23.6635883723  46.1305136752    1.00000    0.0
 ZH3       13.6598910454  24.3396796375  48.4232577027    1.00000    0.0
 O1        12.7967167422  25.0332512040  47.0249469880   -8.21083    0.0
 H2        12.0858039295  23.6635883723  46.1305136752   -0.55665    0.0
 H3        13.6598910454  24.3396796375  48.4232577027   -0.55665    0.0
 B12       12.4412603001  24.3484202726  46.5777302133   -0.33793    0.0
 B13       13.2283038580  24.6864659052  47.7241022270   -0.33793    0.0
 ZO1       38.6066276295  19.5135940944  45.5036223935    8.00000    0.0
 ZH2       37.2043477519  18.5510775629  46.0407977113    1.00000    0.0
 ZH3       39.8377126808  19.3868582680  46.7880490662    1.00000    0.0
 O1        38.6066276295  19.5135940944  45.5036223935   -8.21083    0.0
 H2        37.2043477519  18.5510775629  46.0407977113   -0.55665    0.0
 H3        39.8377126808  19.3868582680  46.7880490662   -0.55665    0.0
 B12       37.9054877309  19.0323360844  45.7722096246   -0.33793    0.0
 B13       39.2221701953  19.4502264370  46.1458353021   -0.33793    0.0
 ZO1       31.9501110838  30.5185901720  39.5057083714    8.00000    0.0
 ZH2       33.2999145252  30.1483651719  40.6113070191    1.00000    0.0
 ZH3       31.6851219826  32.2803214818  39.5921249155    1.00000    0.0
 O1        31.9501110838  30.5185901720  39.5057083714   -8.21083    0.0
 H2        33.2999145252  30.1483651719  40.6113070191   -0.55665    0.0
 H3        31.6851219826  32.2803214818  39.5921249155   -0.55665    0.0
 B12       32.6250125498  30.3334773452  40.0585074154   -0.33793    0.0
 B13       31.8176162785  31.3994555002  39.5489163636   -0.33793    0.0
 ZO1       23.6194832278  29.2170515097  43.4435995491    8.00000    0.0
 ZH2       24.2853422691  28.7015798872  41.8712430392    1.00000    0.0
 ZH3       22.9330243034  27.7610064260  44.2117734293    1.00000    0.0
 O1        23.6194832278  29.2170515097  43.4435995491   -8.21083    0.0
 H2        24.2853422691  28.7015798872  41.8712430392   -0.55665    0.0
 H3        22.9330243034  27.7610064260  44.2117734293   -0.55665    0.0
 B12       23.9524127533  28.9593161614  42.6574214830   -0.33793    0.0
 B13       23.2762537704  28.4890294308  43.8276866780   -0.33793    0.0
 ZO1       44.3749476399  35.8798480099  47.5587294966    8.00000    0.0
 ZH2       43.7698821341  36.7493533744  46.1237241288    1.00000    0.0
 ZH3       46.1440587808  35.7507368912  47.3717526512    1.00000    0.0
 O1        44.3749476399  35.8798480099  47.5587294966   -8.21083    0.0
 H2        43.7698821341  36.7493533744  46.1237241288   -0.55665    0.0
 H3        46.1440587808  35.7507368912  47.3717526512   -0.55665    0.0
 B12       44.0724146137  36.3146005183  46.8412271936   -0.33793    0.0
 B13       45.2595029370  35.8152922767  47.4652414547   -0.33793    0.0
 ZO1       28.0560378811  23.3511517790  33.9225982318    8.00000    0.0
 ZH2       26.7539447101  24.1553818012  33.0065459974    1.00000    0.0
 ZH3       27.5261630825  23.2951717118  35.6247977443    1.00000    0.0
 O1        28.0560378811  23.3511517790  33.9225982318   -8.21083    0.0
 H2        26.7539447101  24.1553818012  33.0065459974   -0.55665    0.0
 H3        27.5261630825  23.2951717118  35.6247977443   -0.55665    0.0
 B12       27.4049917257  23.7532666144  33.4645719300   -0.33793    0.0
 B13       27.7911009119  23.3231615697  34.7736978034   -0.33793    0.0
 ZO1       39.8255538883  30.9366123036  37.2089483834    8.00000    0.0
 ZH2       39.2719548597  31.8439599881  35.7765962809    1.00000    0.0
 ZH3       40.3658699226  32.1452982249  38.4041559711    1.00000    0.0
 O1        39.8255538883  30.9366123036  37.2089483834   -8.21083    0.0
 H2        39.2719548597  31.8439599881  35.7765962809   -0.55665    0.0
 H3        40.3658699226  32.1452982249  38.4041559711   -0.55665    0.0
 B12       39.5487543771  31.3902856490  36.4927723878   -0.33793    0.0
 B13       40.0957119086  31.5409547673  37.8065522329   -0.33793    0.0
 ZO1       21.5780514919  20.4689643600  53.3635409013    8.00000    0.0
 ZH2       19.9385876066  19.7758008295  53.4778507409    1.00000    0.0
 ZH3       21.9826410904  20.5449708182  51.6280540746    1.00000    0.0
 O1        21.5780514919  20.4689643600  53.3635409013   -8.21083    0.0
 H2        19.9385876066  19.7758008295  53.4778507409   -0.55665    0.0
 H3        21.9826410904  20.5449708182  51.6280540746   -0.55665    0.0
 B12       20.7583198392  20.1223827397  53.4206962018   -0.33793    0.0
 B13       21.7803465811  20.5069677340  52.4957978686   -0.33793    0.0
 ZO1       26.7961638162  27.2896743721  62.6722215009    8.00000    0.0
 ZH2       28.4660279204  27.5724021012  63.2316883502    1.00000    0.0
 ZH3       26.6041037627  28.2005592631  61.1507794540    1.00000    0.0
 O1        26.7961638162  27.2896743721  62.6722215009   -8.21083    0.0
 H2        28.4660279204  27.5724021012  63.2316883502   -0.55665    0.0
 H3        26.6041037627  28.2005592631  61.1507794540   -0.55665    0.0
 B12       27.6310955213  27.4310379564  62.9519551514   -0.33793    0.0
 B13       26.7001334425  27.7451165373  61.9115007034   -0.33793    0.0
 ZO1       26.1426106609  29.1595150562  55.0761055239    8.00000    0.0
 ZH2       27.6682023790  29.0677409406  54.1565775623    1.00000    0.0
 ZH3       25.1691493462  27.7439074365  54.5967180122    1.00000    0.0
 O1        26.1426106609  29.1595150562  55.0761055239   -8.21083    0.0
 H2        27.6682023790  29.0677409406  54.1565775623   -0.55665    0.0
 H3        25.1691493462  27.7439074365  54.5967180122   -0.55665    0.0
 B12       26.9054063903  29.1136283524  54.6163418716   -0.33793    0.0
 B13       25.6558798739  28.4517116003  54.8364120965   -0.33793    0.0
 ZO1       43.9261572670  19.7003273636  48.1158665004    8.00000    0.0
 ZH2       44.4410297224  18.0336199443  47.7438759307    1.00000    0.0
 ZH3       44.4441937271  20.7152346410  46.7436472413    1.00000    0.0
 O1        43.9261572670  19.7003273636  48.1158665004   -8.21083    0.0
 H2        44.4410297224  18.0336199443  47.7438759307   -0.55665    0.0
 H3        44.4441937271  20.7152346410  46.7436472413   -0.55665    0.0
 B12       44.1835932521  18.8669738070  47.9298716251   -0.33793    0.0
 B13       44.1851752545  20.2077811553  47.4297572804   -0.33793    0.0
 ZO1       32.0886194674  43.5828940160  50.2716469190    8.00000    0.0
 ZH2       31.6260439190  43.2252851034  48.5865582036    1.00000    0.0
 ZH3       30.9129897075  42.7407565663  51.3157175268    1.00000    0.0
 O1        32.0886194674  43.5828940160  50.2716469190   -8.21083    0.0
 H2        31.6260439190  43.2252851034  48.5865582036   -0.55665    0.0
 H3        30.9129897075  42.7407565663  51.3157175268   -0.55665    0.0
 B12       31.8573320779  43.4040898414  49.4291027118   -0.33793    0.0
 B13       31.5008049721  43.1618255728  50.7936823734   -0.33793    0.0
 ZO1       39.6837351740  23.4584619837  51.3247880954    8.00000    0.0
 ZH2       41.3644678715  23.4158604196  50.7292152981    1.00000    0.0
 ZH3       39.5836566444  24.8131243478  52.4807545387    1.00000    0.0
 O1        39.6837351740  23.4584619837  51.3247880954   -8.21083    0.0
 H2        41.3644678715  23.4158604196  50.7292152981   -0.55665    0.0
 H3        39.5836566444  24.8131243478  52.4807545387   -0.55665    0.0
 B12       40.5241011516  23.4371608936  51.0270015652   -0.33793    0.0
 B13       39.6336955380  24.1357928577  51.9027711854   -0.33793    0.0
 ZO1       30.7278033759  25.4110757783  49.1373945791    8.00000    0.0
 ZH2       32.0976668935  24.3466550318  49.5519626292    1.00000    0.0
 ZH3       31.2064111583  27.0660178185  49.5994396904    1.00000    0.0
 O1        30.7278033759  25.4110757783  49.1373945791   -8.21083    0.0
 H2        32.0976668935  24.3466550318  49.5519626292   -0.55665    0.0
 H3        31.2064111583  27.0660178185  49.5994396904   -0.55665    0.0
 B12       31.4127347007  24.8788652664  49.3446783983   -0.33793    0.0
 B13       30.9671068330  26.2385466597  49.3684169289   -0.33793    0.0
 ZO1       49.4093431131  42.0768859915  46.5544714345    8.00000    0.0
 ZH2       49.6830454044  43.2324688658  47.8852980674    1.00000    0.0
 ZH3       49.7524523490  40.4527686621  47.2070840328    1.00000    0.0
 O1        49.4093431131  42.0768859915  46.5544714345   -8.21083    0.0
 H2        49.6830454044  43.2324688658  47.8852980674   -0.55665    0.0
 H3        49.7524523490  40.4527686621  47.2070840328   -0.55665    0.0
 B12       49.5461941139  42.6546775386  47.2198842852   -0.33793    0.0
 B13       49.5808975862  41.2648274368  46.8807772679   -0.33793    0.0
 ZO1        7.5705457349  30.5687010287  48.3476766719    8.00000    0.0
 ZH2        6.4432233142  30.6768188791  46.9696930215    1.00000    0.0
 ZH3        7.5687553924  32.1676142725  49.1381559469    1.00000    0.0
 O1         7.5705457349  30.5687010287  48.3476766719   -8.21083    0.0
 H2         6.4432233142  30.6768188791  46.9696930215   -0.55665    0.0
 H3         7.5687553924  32.1676142725  49.1381559469   -0.55665    0.0
 B12        7.0068847897  30.6227595531  47.6586849846   -0.33793    0.0
 B13        7.5696508288  31.3681572498  48.7429164474   -0.33793    0.0
 ZO1       23.3222501621  25.0805333221  55.5130125637    8.00000    0.0
 ZH2       22.6589898048  23.7229836732  54.5651049204    1.00000    0.0
 ZH3       22.2459290021  25.2985679020  56.9184939521    1.00000    0.0
 O1        23.3222501621  25.0805333221  55.5130125637   -8.21083    0.0
 H2        22.6589898048  23.7229836732  54.5651049204   -0.55665    0.0
 H3        22.2459290021  25.2985679020  56.9184939521   -0.55665    0.0
 B12       22.9906203919  24.4017587653  55.0390586346   -0.33793    0.0
 B13       22.7840899906  25.1895508797  56.2157531504   -0.33793    0.0
 ZO1       23.8662866130  33.6056820813  52.7140237141    8.00000    0.0
 ZH2       22.0961049385  33.7023200714  52.9102434597    1.00000    0.0
 ZH3       24.4269513100  32.2785979052  53.7656353048    1.00000    0.0
 O1        23.8662866130  33.6056820813  52.7140237141   -8.21083    0.0
 H2        22.0961049385  33.7023200714  52.9102434597   -0.55665    0.0
 H3        24.4269513100  32.2785979052  53.7656353048   -0.55665    0.0
 B12       22.9811960598  33.6540013653  52.8121332939   -0.33793    0.0
 B13       24.1466192455  32.9421402822  53.2398292165   -0.33793    0.0
 ZO1       22.1186103811  22.9824426027  44.3402444652    8.00000    0.0
 ZH2       23.7274200874  23.0150636169  43.5707956696    1.00000    0.0
 ZH3       20.9231262813  22.8485002923  43.0233308480    1.00000    0.0
 O1        22.1186103811  22.9824426027  44.3402444652   -8.21083    0.0
 H2        23.7274200874  23.0150636169  43.5707956696   -0.55665    0.0
 H3        20.9231262813  22.8485002923  43.0233308480   -0.55665    0.0
 B12       22.9230151372  22.9987531336  43.9555205573   -0.33793    0.0
 B13       21.5208682341  22.9154714713  43.6817881465   -0.33793    0.0
 ZO1       14.1281357575  27.5505451433  40.3739820692    8.00000    0.0
 ZH2       13.0955478551  26.2681512252  39.6879701791    1.00000    0.0
 ZH3       14.8311861509  28.4355830047  38.9941949918    1.00000    0.0
 O1        14.1281357575  27.5505451433  40.3739820692   -8.21083    0.0
 H2        13.0955478551  26.2681512252  39.6879701791   -0.55665    0.0
 H3        14.8311861509  28.4355830047  38.9941949918   -0.55665    0.0
 B12       13.6118418837  26.9093482776  40.0309766092   -0.33793    0.0
 B13       14.4796610316  27.9930641673  39.6840890156   -0.33793    0.0
 ZO1       22.8146760618  34.6955295948  61.3490573957    8.00000    0.0
 ZH2       21.6700075628  33.7248890546  62.3128910016    1.00000    0.0
 ZH3       23.8539228749  33.5412368450  60.4721545734    1.00000    0.0
 O1        22.8146760618  34.6955295948  61.3490573957   -8.21083    0.0
 H2        21.6700075628  33.7248890546  62.3128910016   -0.55665    0.0
 H3        23.8539228749  33.5412368450  60.4721545734   -0.55665    0.0
 B12       22.2423418370  34.2102098237  61.8309741783   -0.33793    0.0
 B13       23.3342994931  34.1183837188  60.9106059641   -0.33793    0.0
 ZO1       26.9648146318  44.9219047617  42.6975568384    8.00000    0.0
 ZH2       26.9859113861  43.7781761313  44.0660684378    1.00000    0.0
 ZH3       27.4532078743  43.9996336878  41.2510879111    1.00000    0.0
 O1        26.9648146318  44.9219047617  42.6975568384   -8.21083    0.0
 H2        26.9859113861  43.7781761313  44.0660684378   -0.55665    0.0
 H3        27.4532078743  43.9996336878  41.2510879111   -0.55665    0.0
 B12       26.9753628893  44.3500409316  43.3818126564   -0.33793    0.0
 B13       27.2090111334  44.4607697099  41.9743223930   -0.33793    0.0
 ZO1       17.6918682171  23.4641466934  42.7903023959    8.00000    0.0
 ZH2       16.8347267871  23.1879510150  44.3299155833    1.00000    0.0
 ZH3       16.8302511937  24.7826022128  41.9532388384    1.00000    0.0
 O1        17.6918682171  23.4641466934  42.7903023959   -8.21083    0.0
 H2        16.8347267871  23.1879510150  44.3299155833   -0.55665    0.0
 H3        16.8302511937  24.7826022128  41.9532388384   -0.55665    0.0
 B12       17.2632979057  23.3260486095  43.5601088246   -0.33793    0.0
 B13       17.2610601090  24.1233742084  42.3717704522   -0.33793    0.0
 ZO1       19.7119714957   8.4938118397  41.1801508439    8.00000    0.0
 ZH2       18.9987307032   9.8056340212  42.1557503451    1.00000    0.0
 ZH3       21.0227081515   7.7820150330  42.1582607435    1.00000    0.0
 O1        19.7119714957   8.4938118397  41.1801508439   -8.21083    0.0
 H2        18.9987307032   9.8056340212  42.1557503451   -0.55665    0.0
 H3        21.0227081515   7.7820150330  42.1582607435   -0.55665    0.0
 B12       19.3553509591   9.1497227896  41.6679501358   -0.33793    0.0
 B13       20.3673396833   8.1379132954  41.6692053350   -0.33793    0.0
 ZO1       13.6084426929  13.5647789257  57.4413592211    8.00000    0.0
 ZH2       11.8645830968  13.2044738506  57.3388008845    1.00000    0.0
 ZH3       14.4629875797  12.1678013142  56.7345418189    1.00000    0.0
 O1        13.6084426929  13.5647789257  57.4413592211   -8.21083    0.0
 H2        11.8645830968  13.2044738506  57.3388008845   -0.55665    0.0
 H3        14.4629875797  12.1678013142  56.7345418189   -0.55665    0.0
 B12       12.7365131037  13.3846268008  57.3900802429   -0.33793    0.0
 B13       14.0357153451  12.8662905326  57.0879507101   -0.33793    0.0
 ZO1       36.7119249021  19.2867054170  52.3932520206    8.00000    0.0
 ZH2       37.9751310211  20.5071022765  52.0828876265    1.00000    0.0
 ZH3       35.3126741881  19.7278309571  51.3789098949    1.00000    0.0
 O1        36.7119249021  19.2867054170  52.3932520206   -8.21083    0.0
 H2        37.9751310211  20.5071022765  52.0828876265   -0.55665    0.0
 H3        35.3126741881  19.7278309571  51.3789098949   -0.55665    0.0
 B12       37.3435279936  19.8969034566  52.2380701346   -0.33793    0.0
 B13       36.0122995771  19.5072677969  51.8860812688   -0.33793    0.0
 ZO1       20.7722452359   3.0069999750  47.9905364974    8.00000    0.0
 ZH2       19.7119287030   4.4275774170  47.7928680071    1.00000    0.0
 ZH3       20.3108281127   1.8422718550  46.7209354201    1.00000    0.0
 O1        20.7722452359   3.0069999750  47.9905364974   -8.21083    0.0
 H2        19.7119287030   4.4275774170  47.7928680071   -0.55665    0.0
 H3        20.3108281127   1.8422718550  46.7209354201   -0.55665    0.0
 B12       20.2420873268   3.7172886359  47.8917025968   -0.33793    0.0
 B13       20.5415370316   2.4246358549  47.3557363033   -0.33793    0.0
 ZO1       13.5069300149  13.3046682516  51.1845738103    8.00000    0.0
 ZH2       14.9200991887  12.3965826953  51.7843385635    1.00000    0.0
 ZH3       13.7865536328  15.0177905274  51.5949479704    1.00000    0.0
 O1        13.5069300149  13.3046682516  51.1845738103   -8.21083    0.0
 H2        14.9200991887  12.3965826953  51.7843385635   -0.55665    0.0
 H3        13.7865536328  15.0177905274  51.5949479704   -0.55665    0.0
 B12       14.2135142043  12.8506252844  51.4844559497   -0.33793    0.0
 B13       13.6467414264  14.1612292004  51.3897606531   -0.33793    0.0
 ZO1       17.2016337589  18.4278091646  56.0088527776    8.00000    0.0
 ZH2       17.9817803552  17.1111790268  56.9249535467    1.00000    0.0
 ZH3       15.5381834905  17.8902755349  55.6547693802    1.00000    0.0
 O1        17.2016337589  18.4278091646  56.0088527776   -8.21083    0.0
 H2        17.9817803552  17.1111790268  56.9249535467   -0.55665    0.0
 H3        15.5381834905  17.8902755349  55.6547693802   -0.55665    0.0
 B12       17.5917072645  17.7694945311  56.4669030302   -0.33793    0.0
 B13       16.3699088321  18.1590427852  55.8318109469   -0.33793    0.0
 ZO1       24.0418592946  18.6320321437  57.9887234777    8.00000    0.0
 ZH2       25.4307769333  19.4042930252  58.7986032061    1.00000    0.0
 ZH3       23.7101595709  19.5861911633  56.5187098352    1.00000    0.0
 O1        24.0418592946  18.6320321437  57.9887234777   -8.21083    0.0
 H2        25.4307769333  19.4042930252  58.7986032061   -0.55665    0.0
 H3        23.7101595709  19.5861911633  56.5187098352   -0.55665    0.0
 B12       24.7363178657  19.0181621791  58.3936634969   -0.33793    0.0
 B13       23.8760091845  19.1091112481  57.2537168115   -0.33793    0.0
 ZO1       21.0125449047  14.7695399255  57.4897635471    8.00000    0.0
 ZH2       21.3529468689  13.1397260053  58.1294645232    1.00000    0.0
 ZH3       22.5828801810  15.6037820558  57.3502234496    1.00000    0.0
 O1        21.0125449047  14.7695399255  57.4897635471   -8.21083    0.0
 H2        21.3529468689  13.1397260053  58.1294645232   -0.55665    0.0
 H3        22.5828801810  15.6037820558  57.3502234496   -0.55665    0.0
 B12       21.1827454381  13.9546331522  57.8096139177   -0.33793    0.0
 B13       21.7977120942  15.1866611775  57.4199933809   -0.33793    0.0
 ZO1        9.8472724227  24.2313471717  34.3178826844    8.00000    0.0
 ZH2        8.3762726464  23.7165301983  33.4504108446    1.00000    0.0
 ZH3       10.9385399190  22.8210716981  34.3584115723    1.00000    0.0
 O1         9.8472724227  24.2313471717  34.3178826844   -8.21083    0.0
 H2         8.3762726464  23.7165301983  33.4504108446   -0.55665    0.0
 H3        10.9385399190  22.8210716981  34.3584115723   -0.55665    0.0
 B12        9.1117726237  23.9739391371  33.8841469587   -0.33793    0.0
 B13       10.3929062600  23.5262098869  34.3381473225   -0.33793    0.0
 ZO1       17.4171463068  28.3504794546  29.8660833767    8.00000    0.0
 ZH2       18.7299741290  28.6745375580  31.0292057716    1.00000    0.0
 ZH3       18.0091765988  28.8719733567  28.2664182574    1.00000    0.0
 O1        17.4171463068  28.3504794546  29.8660833767   -8.21083    0.0
 H2        18.7299741290  28.6745375580  31.0292057716   -0.55665    0.0
 H3        18.0091765988  28.8719733567  28.2664182574   -0.55665    0.0
 B12       18.0735597706  28.5125083077  30.4476446767   -0.33793    0.0
 B13       17.7131610055  28.6112262071  29.0662509195   -0.33793    0.0
 ZO1       13.6176869536  19.8763423320  39.9799428831    8.00000    0.0
 ZH2       15.2181910905  19.8287795150  40.7657599972    1.00000    0.0
 ZH3       12.6851581311  21.1608847873  40.7934076497    1.00000    0.0
 O1        13.6176869536  19.8763423320  39.9799428831   -8.21083    0.0
 H2        15.2181910905  19.8287795150  40.7657599972   -0.55665    0.0
 H3        12.6851581311  21.1608847873  40.7934076497   -0.55665    0.0
 B12       14.4179388652  19.8525606330  40.3728510646   -0.33793    0.0
 B13       13.1514223855  20.5186132692  40.3866748909   -0.33793    0.0
 ZO1       22.6758071304  23.1837329607  38.5163029961    8.00000    0.0
 ZH2       24.0417037020  24.2794283235  38.8556589721    1.00000    0.0
 ZH3       21.4605508449  24.1395907178  37.6269929493    1.00000    0.0
 O1        22.6758071304  23.1837329607  38.5163029961   -8.21083    0.0
 H2        24.0417037020  24.2794283235  38.8556589721   -0.55665    0.0
 H3        21.4605508449  24.1395907178  37.6269929493   -0.55665    0.0
 B12       23.3587553808  23.7315801604  38.6859811133   -0.33793    0.0
 B13       22.0681789523  23.6616613575  38.0716481019   -0.33793    0.0
 ZO1       13.9278381564  31.8592136195  32.5890504665    8.00000    0.0
 ZH2       14.6555673613  30.8154211044  31.3391338130    1.00000    0.0
 ZH3       12.6548620158  30.8955445437  33.3841969363    1.00000    0.0
 O1        13.9278381564  31.8592136195  32.5890504665   -8.21083    0.0
 H2        14.6555673613  30.8154211044  31.3391338130   -0.55665    0.0
 H3        12.6548620158  30.8955445437  33.3841969363   -0.55665    0.0
 B12       14.2917028869  31.3373178333  31.9640922465   -0.33793    0.0
 B13       13.2913502142  31.3773795530  32.9866238082   -0.33793    0.0
 ZO1       22.1314430071  39.9000695582  43.9540122839    8.00000    0.0
 ZH2       23.1877921743  41.2282586031  44.5030337302    1.00000    0.0
 ZH3       21.3200004458  40.4698677034  42.4713540987    1.00000    0.0
 O1        22.1314430071  39.9000695582  43.9540122839   -8.21083    0.0
 H2        23.1877921743  41.2282586031  44.5030337302   -0.55665    0.0
 H3        21.3200004458  40.4698677034  42.4713540987   -0.55665    0.0
 B12       22.6596175332  40.5641636350  44.2285232263   -0.33793    0.0
 B13       21.7257216690  40.1849681851  43.2126834105   -0.33793    0.0
 ZO1       28.1294095554  32.2828067170  44.6160821153    8.00000    0.0
 ZH2       29.0602369013  32.9828039101  43.2651755188    1.00000    0.0
 ZH3       26.8434999535  31.2832476491  43.8889628567    1.00000    0.0
 O1        28.1294095554  32.2828067170  44.6160821153   -8.21083    0.0
 H2        29.0602369013  32.9828039101  43.2651755188   -0.55665    0.0
 H3        26.8434999535  31.2832476491  43.8889628567   -0.55665    0.0
 B12       28.5948233118  32.6328053839  43.9406293050   -0.33793    0.0
 B13       27.4864548378  31.7830272534  44.2525229740   -0.33793    0.0
 ZO1       26.3983016874  31.8941693511  35.7209377803    8.00000    0.0
 ZH2       26.2053872855  31.1722732800  34.1013593331    1.00000    0.0
 ZH3       28.1403476219  32.2102853959  35.9371109958    1.00000    0.0
 O1        26.3983016874  31.8941693511  35.7209377803   -8.21083    0.0
 H2        26.2053872855  31.1722732800  34.1013593331   -0.55665    0.0
 H3        28.1403476219  32.2102853959  35.9371109958   -0.55665    0.0
 B12       26.3018441227  31.5332214108  34.9111488863   -0.33793    0.0
 B13       27.2693242909  32.0522274688  35.8290247176   -0.33793    0.0
 ZO1       31.7979238108  13.6614341054  58.5960241916    8.00000    0.0
 ZH2       31.6579407101  12.4888851313  59.9327806711    1.00000    0.0
 ZH3       30.3297941730  13.4803681325  57.5994326351    1.00000    0.0
 O1        31.7979238108  13.6614341054  58.5960241916   -8.21083    0.0
 H2        31.6579407101  12.4888851313  59.9327806711   -0.55665    0.0
 H3        30.3297941730  13.4803681325  57.5994326351   -0.55665    0.0
 B12       31.7279326381  13.0751599362  59.2644023515   -0.33793    0.0
 B13       31.0638593695  13.5709014368  58.0977283335   -0.33793    0.0
 ZO1       30.6573599130  12.0753642967  63.9568141194    8.00000    0.0
 ZH2       29.0299728744  12.8053028761  63.9431998840    1.00000    0.0
 ZH3       31.7438196904  13.2593683510  64.7308449988    1.00000    0.0
 O1        30.6573599130  12.0753642967  63.9568141194   -8.21083    0.0
 H2        29.0299728744  12.8053028761  63.9431998840   -0.55665    0.0
 H3        31.7438196904  13.2593683510  64.7308449988   -0.55665    0.0
 B12       29.8436665207  12.4403331370  63.9500068232   -0.33793    0.0
 B13       31.2005899287  12.6673658744  64.3438293806   -0.33793    0.0
 ZO1       41.7131314065   7.0784172715  48.2109691350    8.00000    0.0
 ZH2       40.0436063796   7.1881060124  47.5928762492    1.00000    0.0
 ZH3       42.4479155708   8.6887771146  47.9913839396    1.00000    0.0
 O1        41.7131314065   7.0784172715  48.2109691350   -8.21083    0.0
 H2        40.0436063796   7.1881060124  47.5928762492   -0.55665    0.0
 H3        42.4479155708   8.6887771146  47.9913839396   -0.55665    0.0
 B12       40.8783691126   7.1332612381  47.9019228888   -0.33793    0.0
 B13       42.0805237081   7.8835967892  48.1011767340   -0.33793    0.0
 ZO1       30.9749877983   6.2650475804  53.6429290688    8.00000    0.0
 ZH2       31.9481764106   6.5159105597  55.1164812197    1.00000    0.0
 ZH3       31.3239519560   7.6373471342  52.5583083047    1.00000    0.0
 O1        30.9749877983   6.2650475804  53.6429290688   -8.21083    0.0
 H2        31.9481764106   6.5159105597  55.1164812197   -0.55665    0.0
 H3        31.3239519560   7.6373471342  52.5583083047   -0.55665    0.0
 B12       31.4615817940   6.3904786889  54.3797050529   -0.33793    0.0
 B13       31.1494695667   6.9511969761  53.1006185954   -0.33793    0.0
 ZO1       33.6737013314  23.4863603456  39.7200445930    8.00000    0.0
 ZH2       32.3974967834  23.6987450920  40.9478796478    1.00000    0.0
 ZH3       33.0163940981  24.1109977696  38.1840890141    1.00000    0.0
 O1        33.6737013314  23.4863603456  39.7200445930   -8.21083    0.0
 H2        32.3974967834  23.6987450920  40.9478796478   -0.55665    0.0
 H3        33.0163940981  24.1109977696  38.1840890141   -0.55665    0.0
 B12       33.0355995115  23.5925525223  40.3339621928   -0.33793    0.0
 B13       33.3450481688  23.7986788611  38.9520668759   -0.33793    0.0
 ZO1       25.5131428000  23.2806895523  72.9223614294    8.00000    0.0
 ZH2       27.0935648747  24.0551128644  73.2120489341    1.00000    0.0
 ZH3       24.4617926768  24.5202808544  72.1878816319    1.00000    0.0
 O1        25.5131428000  23.2806895523  72.9223614294   -8.21083    0.0
 H2        27.0935648747  24.0551128644  73.2120489341   -0.55665    0.0
 H3        24.4617926768  24.5202808544  72.1878816319   -0.55665    0.0
 B12       26.3033537131  23.6679007354  73.0672052862   -0.33793    0.0
 B13       24.9874676142  23.9004847304  72.5551216351   -0.33793    0.0
 ZO1       29.6868542533  18.5243470282  54.6750734994    8.00000    0.0
 ZH2       30.9602442398  18.0860348590  55.8445796497    1.00000    0.0
 ZH3       29.1605555432  20.1782590735  55.0861317247    1.00000    0.0
 O1        29.6868542533  18.5243470282  54.6750734994   -8.21083    0.0
 H2        30.9602442398  18.0860348590  55.8445796497   -0.55665    0.0
 H3        29.1605555432  20.1782590735  55.0861317247   -0.55665    0.0
 B12       30.3235490711  18.3051906582  55.2598262034   -0.33793    0.0
 B13       29.4237047229  19.3513027654  54.8806022409   -0.33793    0.0
 ZO1       27.3883352981  13.6125477284  54.4783279651    8.00000    0.0
 ZH2       26.8011256523  15.2385326131  54.9173521526    1.00000    0.0
 ZH3       26.0417309165  12.7878148197  53.6489568060    1.00000    0.0
 O1        27.3883352981  13.6125477284  54.4783279651   -8.21083    0.0
 H2        26.8011256523  15.2385326131  54.9173521526   -0.55665    0.0
 H3        26.0417309165  12.7878148197  53.6489568060   -0.55665    0.0
 B12       27.0947309293  14.4255399826  54.6978401505   -0.33793    0.0
 B13       26.7150335614  13.2001810859  54.0636424772   -0.33793    0.0

   CHARGE SCREENING PARAMETERS (COEF AND ZETA)
   ICHGP=   3 AI-FRAGMENT SCREENING= 1   FRAGMENT-FRAGMENT SCREENING= 1

             GAUSSIAN DAMPING    EXPONENTIAL DAMPING
 ZO1        3.17107   0.30798      3.17107   0.30798
 ZH2       -0.74356   0.22035     -0.74356   0.22035
 ZH3       -0.74356   0.22035     -0.74356   0.22035
 O1         3.06389   0.30817      3.06389   0.30817
 H2        -1.50149   0.23358     -1.50149   0.23358
 H3        -1.50149   0.23358     -1.50149   0.23358
 B12        1.99014   0.44003      1.99014   0.44003
 B13        1.99014   0.44003      1.99014   0.44003
 ZO1        3.17107   0.30798      3.17107   0.30798
 ZH2       -0.74356   0.22035     -0.74356   0.22035
 ZH3       -0.74356   0.22035     -0.74356   0.22035
 O1         3.06389   0.30817      3.06389   0.30817
 H2        -1.50149   0.23358     -1.50149   0.23358
 H3        -1.50149   0.23358     -1.50149   0.23358
 B12        1.99014   0.44003      1.99014   0.44003
 B13        1.99014   0.44003      1.99014   0.44003
 ZO1        3.17107   0.30798      3.17107   0.30798
 ZH2       -0.74356   0.22035     -0.74356   0.22035
 ZH3       -0.74356   0.22035     -0.74356   0.22035
 O1         3.06389   0.30817      3.06389   0.30817
 H2        -1.50149   0.23358     -1.50149   0.23358
 H3        -1.50149   0.23358     -1.50149   0.23358
 B12        1.99014   0.44003      1.99014   0.44003
 B13        1.99014   0.44003      1.99014   0.44003
 ZO1        3.17107   0.30798      3.17107   0.30798
 ZH2       -0.74356   0.22035     -0.74356   0.22035
 ZH3       -0.74356   0.22035     -0.74356   0.22035
 O1         3.06389   0.30817      3.06389   0.30817
 H2        -1.50149   0.23358     -1.50149   0.23358
 H3        -1.50149   0.23358     -1.50149   0.23358
 B12        1.99014   0.44003      1.99014   0.44003
 B13        1.99014   0.44003      1.99014   0.44003
 ZO1        3.17107   0.30798      3.17107   0.30798
 ZH2       -0.74356   0.22035     -0.74356   0.22035
 ZH3       -0.74356   0.22035     -0.74356   0.22035
 O1         3.06389   0.30817      3.06389   0.30817
 H2        -1.50149   0.23358     -1.50149   0.23358
 H3        -1.50149   0.23358     -1.50149   0.23358
 B12        1.99014   0.44003      1.99014   0.44003
 B13        1.99014   0.44003      1.99014   0.44003
 ZO1        3.17107   0.30798      3.17107   0.30798
 ZH2       -0.74356   0.22035     -0.74356   0.22035
 ZH3       -0.74356   0.22035     -0.74356   0.22035
 O1         3.06389   0.30817      3.06389   0.30817
 H2        -1.50149   0.23358     -1.50149   0.23358
 H3        -1.50149   0.23358     -1.50149   0.23358
 B12        1.99014   0.44003      1.99014   0.44003
 B13        1.99014   0.44003      1.99014   0.44003
 ZO1        3.17107   0.30798      3.17107   0.30798
 ZH2       -0.74356   0.22035     -0.74356   0.22035
 ZH3       -0.74356   0.22035     -0.74356   0.22035
 O1         3.06389   0.30817      3.06389   0.30817
 H2        -1.50149   0.23358     -1.50149   0.23358
 H3        -1.50149   0.23358     -1.50149   0.23358
 B12        1.99014   0.44003      1.99014   0.44003
 B13        1.99014   0.44003      1.99014   0.44003
 ZO1        3.17107   0.30798      3.17107   0.30798
 ZH2       -0.74356   0.22035     -0.74356   0.22035
 ZH3       -0.74356   0.22035     -0.74356   0.22035
 O1         3.06389   0.30817      3.06389   0.30817
 H2        -1.50149   0.23358     -1.50149   0.23358
 H3        -1.50149   0.23358     -1.50149   0.23358
 B12        1.99014   0.44003      1.99014   0.44003
 B13        1.99014   0.44003      1.99014   0.44003
 ZO1        3.17107   0.30798      3.17107   0.30798
 ZH2       -0.74356   0.22035     -0.74356   0.22035
 ZH3       -0.74356   0.22035     -0.74356   0.22035
 O1         3.06389   0.30817      3.06389   0.30817
 H2        -1.50149   0.23358     -1.50149   0.23358
 H3        -1.50149   0.23358     -1.50149   0.23358
 B12        1.99014   0.44003      1.99014   0.44003
 B13        1.99014   0.44003      1.99014   0.44003
 ZO1        3.17107   0.30798      3.17107   0.30798
 ZH2       -0.74356   0.22035     -0.74356   0.22035
 ZH3       -0.74356   0.22035     -0.74356   0.22035
 O1         3.06389   0.30817      3.06389   0.30817
 H2        -1.50149   0.23358     -1.50149   0.23358
 H3        -1.50149   0.23358     -1.50149   0.23358
 B12        1.99014   0.44003      1.99014   0.44003
 B13        1.99014   0.44003      1.99014   0.44003
 ZO1        3.17107   0.30798      3.17107   0.30798
 ZH2       -0.74356   0.22035     -0.74356   0.22035
 ZH3       -0.74356   0.22035     -0.74356   0.22035
 O1         3.06389   0.30817      3.06389   0.30817
 H2        -1.50149   0.23358     -1.50149   0.23358
 H3        -1.50149   0.23358     -1.50149   0.23358
 B12        1.99014   0.44003      1.99014   0.44003
 B13        1.99014   0.44003      1.99014   0.44003
 ZO1        3.17107   0.30798      3.17107   0.30798
 ZH2       -0.74356   0.22035     -0.74356   0.22035
 ZH3       -0.74356   0.22035     -0.74356   0.22035
 O1         3.06389   0.30817      3.06389   0.30817
 H2        -1.50149   0.23358     -1.50149   0.23358
 H3        -1.50149   0.23358     -1.50149   0.23358
 B12        1.99014   0.44003      1.99014   0.44003
 B13        1.99014   0.44003      1.99014   0.44003
 ZO1        3.17107   0.30798      3.17107   0.30798
 ZH2       -0.74356   0.22035     -0.74356   0.22035
 ZH3       -0.74356   0.22035     -0.74356   0.22035
 O1         3.06389   0.30817      3.06389   0.30817
 H2        -1.50149   0.23358     -1.50149   0.23358
 H3        -1.50149   0.23358     -1.50149   0.23358
 B12        1.99014   0.44003      1.99014   0.44003
 B13        1.99014   0.44003      1.99014   0.44003
 ZO1        3.17107   0.30798      3.17107   0.30798
 ZH2       -0.74356   0.22035     -0.74356   0.22035
 ZH3       -0.74356   0.22035     -0.74356   0.22035
 O1         3.06389   0.30817      3.06389   0.30817
 H2        -1.50149   0.23358     -1.50149   0.23358
 H3        -1.50149   0.23358     -1.50149   0.23358
 B12        1.99014   0.44003      1.99014   0.44003
 B13        1.99014   0.44003      1.99014   0.44003
 ZO1        3.17107   0.30798      3.17107   0.30798
 ZH2       -0.74356   0.22035     -0.74356   0.22035
 ZH3       -0.74356   0.22035     -0.74356   0.22035
 O1         3.06389   0.30817      3.06389   0.30817
 H2        -1.50149   0.23358     -1.50149   0.23358
 H3        -1.50149   0.23358     -1.50149   0.23358
 B12        1.99014   0.44003      1.99014   0.44003
 B13        1.99014   0.44003      1.99014   0.44003
 ZO1        3.17107   0.30798      3.17107   0.30798
 ZH2       -0.74356   0.22035     -0.74356   0.22035
 ZH3       -0.74356   0.22035     -0.74356   0.22035
 O1         3.06389   0.30817      3.06389   0.30817
 H2        -1.50149   0.23358     -1.50149   0.23358
 H3        -1.50149   0.23358     -1.50149   0.23358
 B12        1.99014   0.44003      1.99014   0.44003
 B13        1.99014   0.44003      1.99014   0.44003
 ZO1        3.17107   0.30798      3.17107   0.30798
 ZH2       -0.74356   0.22035     -0.74356   0.22035
 ZH3       -0.74356   0.22035     -0.74356   0.22035
 O1         3.06389   0.30817      3.06389   0.30817
 H2        -1.50149   0.23358     -1.50149   0.23358
 H3        -1.50149   0.23358     -1.50149   0.23358
 B12        1.99014   0.44003      1.99014   0.44003
 B13        1.99014   0.44003      1.99014   0.44003
 ZO1        3.17107   0.30798      3.17107   0.30798
 ZH2       -0.74356   0.22035     -0.74356   0.22035
 ZH3       -0.74356   0.22035     -0.74356   0.22035
 O1         3.06389   0.30817      3.06389   0.30817
 H2        -1.50149   0.23358     -1.50149   0.23358
 H3        -1.50149   0.23358     -1.50149   0.23358
 B12        1.99014   0.44003      1.99014   0.44003
 B13        1.99014   0.44003      1.99014   0.44003
 ZO1        3.17107   0.30798      3.17107   0.30798
 ZH2       -0.74356   0.22035     -0.74356   0.22035
 ZH3       -0.74356   0.22035     -0.74356   0.22035
 O1         3.06389   0.30817      3.06389   0.30817
 H2        -1.50149   0.23358     -1.50149   0.23358
 H3        -1.50149   0.23358     -1.50149   0.23358
 B12        1.99014   0.44003      1.99014   0.44003
 B13        1.99014   0.44003      1.99014   0.44003
 ZO1        3.17107   0.30798      3.17107   0.30798
 ZH2       -0.74356   0.22035     -0.74356   0.22035
 ZH3       -0.74356   0.22035     -0.74356   0.22035
 O1         3.06389   0.30817      3.06389   0.30817
 H2        -1.50149   0.23358     -1.50149   0.23358
 H3        -1.50149   0.23358     -1.50149   0.23358
 B12        1.99014   0.44003      1.99014   0.44003
 B13        1.99014   0.44003      1.99014   0.44003
 ZO1        3.17107   0.30798      3.17107   0.30798
 ZH2       -0.74356   0.22035     -0.74356   0.22035
 ZH3       -0.74356   0.22035     -0.74356   0.22035
 O1         3.06389   0.30817      3.06389   0.30817
 H2        -1.50149   0.23358     -1.50149   0.23358
 H3        -1.50149   0.23358     -1.50149   0.23358
 B12        1.99014   0.44003      1.99014   0.44003
 B13        1.99014   0.44003      1.99014   0.44003
 ZO1        3.17107   0.30798      3.17107   0.30798
 ZH2       -0.74356   0.22035     -0.74356   0.22035
 ZH3       -0.74356   0.22035     -0.74356   0.22035
 O1         3.06389   0.30817      3.06389   0.30817
 H2        -1.50149   0.23358     -1.50149   0.23358
 H3        -1.50149   0.23358     -1.50149   0.23358
 B12        1.99014   0.44003      1.99014   0.44003
 B13        1.99014   0.44003      1.99014   0.44003
 ZO1        3.17107   0.30798      3.17107   0.30798
 ZH2       -0.74356   0.22035     -0.74356   0.22035
 ZH3       -0.74356   0.22035     -0.74356   0.22035
 O1         3.06389   0.30817      3.06389   0.30817
 H2        -1.50149   0.23358     -1.50149   0.23358
 H3        -1.50149   0.23358     -1.50149   0.23358
 B12        1.99014   0.44003      1.99014   0.44003
 B13        1.99014   0.44003      1.99014   0.44003
 ZO1        3.17107   0.30798      3.17107   0.30798
 ZH2       -0.74356   0.22035     -0.74356   0.22035
 ZH3       -0.74356   0.22035     -0.74356   0.22035
 O1         3.06389   0.30817      3.06389   0.30817
 H2        -1.50149   0.23358     -1.50149   0.23358
 H3        -1.50149   0.23358     -1.50149   0.23358
 B12        1.99014   0.44003      1.99014   0.44003
 B13        1.99014   0.44003      1.99014   0.44003
 ZO1        3.17107   0.30798      3.17107   0.30798
 ZH2       -0.74356   0.22035     -0.74356   0.22035
 ZH3       -0.74356   0.22035     -0.74356   0.22035
 O1         3.06389   0.30817      3.06389   0.30817
 H2        -1.50149   0.23358     -1.50149   0.23358
 H3        -1.50149   0.23358     -1.50149   0.23358
 B12        1.99014   0.44003      1.99014   0.44003
 B13        1.99014   0.44003      1.99014   0.44003
 ZO1        3.17107   0.30798      3.17107   0.30798
 ZH2       -0.74356   0.22035     -0.74356   0.22035
 ZH3       -0.74356   0.22035     -0.74356   0.22035
 O1         3.06389   0.30817      3.06389   0.30817
 H2        -1.50149   0.23358     -1.50149   0.23358
 H3        -1.50149   0.23358     -1.50149   0.23358
 B12        1.99014   0.44003      1.99014   0.44003
 B13        1.99014   0.44003      1.99014   0.44003
 ZO1        3.17107   0.30798      3.17107   0.30798
 ZH2       -0.74356   0.22035     -0.74356   0.22035
 ZH3       -0.74356   0.22035     -0.74356   0.22035
 O1         3.06389   0.30817      3.06389   0.30817
 H2        -1.50149   0.23358     -1.50149   0.23358
 H3        -1.50149   0.23358     -1.50149   0.23358
 B12        1.99014   0.44003      1.99014   0.44003
 B13        1.99014   0.44003      1.99014   0.44003
 ZO1        3.17107   0.30798      3.17107   0.30798
 ZH2       -0.74356   0.22035     -0.74356   0.22035
 ZH3       -0.74356   0.22035     -0.74356   0.22035
 O1         3.06389   0.30817      3.06389   0.30817
 H2        -1.50149   0.23358     -1.50149   0.23358
 H3        -1.50149   0.23358     -1.50149   0.23358
 B12        1.99014   0.44003      1.99014   0.44003
 B13        1.99014   0.44003      1.99014   0.44003
 ZO1        3.17107   0.30798      3.17107   0.30798
 ZH2       -0.74356   0.22035     -0.74356   0.22035
 ZH3       -0.74356   0.22035     -0.74356   0.22035
 O1         3.06389   0.30817      3.06389   0.30817
 H2        -1.50149   0.23358     -1.50149   0.23358
 H3        -1.50149   0.23358     -1.50149   0.23358
 B12        1.99014   0.44003      1.99014   0.44003
 B13        1.99014   0.44003      1.99014   0.44003
 ZO1        3.17107   0.30798      3.17107   0.30798
 ZH2       -0.74356   0.22035     -0.74356   0.22035
 ZH3       -0.74356   0.22035     -0.74356   0.22035
 O1         3.06389   0.30817      3.06389   0.30817
 H2        -1.50149   0.23358     -1.50149   0.23358
 H3        -1.50149   0.23358     -1.50149   0.23358
 B12        1.99014   0.44003      1.99014   0.44003
 B13        1.99014   0.44003      1.99014   0.44003
 ZO1        3.17107   0.30798      3.17107   0.30798
 ZH2       -0.74356   0.22035     -0.74356   0.22035
 ZH3       -0.74356   0.22035     -0.74356   0.22035
 O1         3.06389   0.30817      3.06389   0.30817
 H2        -1.50149   0.23358     -1.50149   0.23358
 H3        -1.50149   0.23358     -1.50149   0.23358
 B12        1.99014   0.44003      1.99014   0.44003
 B13        1.99014   0.44003      1.99014   0.44003
 ZO1        3.17107   0.30798      3.17107   0.30798
 ZH2       -0.74356   0.22035     -0.74356   0.22035
 ZH3       -0.74356   0.22035     -0.74356   0.22035
 O1         3.06389   0.30817      3.06389   0.30817
 H2        -1.50149   0.23358     -1.50149   0.23358
 H3        -1.50149   0.23358     -1.50149   0.23358
 B12        1.99014   0.44003      1.99014   0.44003
 B13        1.99014   0.44003      1.99014   0.44003
 ZO1        3.17107   0.30798      3.17107   0.30798
 ZH2       -0.74356   0.22035     -0.74356   0.22035
 ZH3       -0.74356   0.22035     -0.74356   0.22035
 O1         3.06389   0.30817      3.06389   0.30817
 H2        -1.50149   0.23358     -1.50149   0.23358
 H3        -1.50149   0.23358     -1.50149   0.23358
 B12        1.99014   0.44003      1.99014   0.44003
 B13        1.99014   0.44003      1.99014   0.44003
 ZO1        3.17107   0.30798      3.17107   0.30798
 ZH2       -0.74356   0.22035     -0.74356   0.22035
 ZH3       -0.74356   0.22035     -0.74356   0.22035
 O1         3.06389   0.30817      3.06389   0.30817
 H2        -1.50149   0.23358     -1.50149   0.23358
 H3        -1.50149   0.23358     -1.50149   0.23358
 B12        1.99014   0.44003      1.99014   0.44003
 B13        1.99014   0.44003      1.99014   0.44003
 ZO1        3.17107   0.30798      3.17107   0.30798
 ZH2       -0.74356   0.22035     -0.74356   0.22035
 ZH3       -0.74356   0.22035     -0.74356   0.22035
 O1         3.06389   0.30817      3.06389   0.30817
 H2        -1.50149   0.23358     -1.50149   0.23358
 H3        -1.50149   0.23358     -1.50149   0.23358
 B12        1.99014   0.44003      1.99014   0.44003
 B13        1.99014   0.44003      1.99014   0.44003
 ZO1        3.17107   0.30798      3.17107   0.30798
 ZH2       -0.74356   0.22035     -0.74356   0.22035
 ZH3       -0.74356   0.22035     -0.74356   0.22035
 O1         3.06389   0.30817      3.06389   0.30817
 H2        -1.50149   0.23358     -1.50149   0.23358
 H3        -1.50149   0.23358     -1.50149   0.23358
 B12        1.99014   0.44003      1.99014   0.44003
 B13        1.99014   0.44003      1.99014   0.44003
 ZO1        3.17107   0.30798      3.17107   0.30798
 ZH2       -0.74356   0.22035     -0.74356   0.22035
 ZH3       -0.74356   0.22035     -0.74356   0.22035
 O1         3.06389   0.30817      3.06389   0.30817
 H2        -1.50149   0.23358     -1.50149   0.23358
 H3        -1.50149   0.23358     -1.50149   0.23358
 B12        1.99014   0.44003      1.99014   0.44003
 B13        1.99014   0.44003      1.99014   0.44003
 ZO1        3.17107   0.30798      3.17107   0.30798
 ZH2       -0.74356   0.22035     -0.74356   0.22035
 ZH3       -0.74356   0.22035     -0.74356   0.22035
 O1         3.06389   0.30817      3.06389   0.30817
 H2        -1.50149   0.23358     -1.50149   0.23358
 H3        -1.50149   0.23358     -1.50149   0.23358
 B12        1.99014   0.44003      1.99014   0.44003
 B13        1.99014   0.44003      1.99014   0.44003
 ZO1        3.17107   0.30798      3.17107   0.30798
 ZH2       -0.74356   0.22035     -0.74356   0.22035
 ZH3       -0.74356   0.22035     -0.74356   0.22035
 O1         3.06389   0.30817      3.06389   0.30817
 H2        -1.50149   0.23358     -1.50149   0.23358
 H3        -1.50149   0.23358     -1.50149   0.23358
 B12        1.99014   0.44003      1.99014   0.44003
 B13        1.99014   0.44003      1.99014   0.44003
 ZO1        3.17107   0.30798      3.17107   0.30798
 ZH2       -0.74356   0.22035     -0.74356   0.22035
 ZH3       -0.74356   0.22035     -0.74356   0.22035
 O1         3.06389   0.30817      3.06389   0.30817
 H2        -1.50149   0.23358     -1.50149   0.23358
 H3        -1.50149   0.23358     -1.50149   0.23358
 B12        1.99014   0.44003      1.99014   0.44003
 B13        1.99014   0.44003      1.99014   0.44003
 ZO1        3.17107   0.30798      3.17107   0.30798
 ZH2       -0.74356   0.22035     -0.74356   0.22035
 ZH3       -0.74356   0.22035     -0.74356   0.22035
 O1         3.06389   0.30817      3.06389   0.30817
 H2        -1.50149   0.23358     -1.50149   0.23358
 H3        -1.50149   0.23358     -1.50149   0.23358
 B12        1.99014   0.44003      1.99014   0.44003
 B13        1.99014   0.44003      1.99014   0.44003
 ZO1        3.17107   0.30798      3.17107   0.30798
 ZH2       -0.74356   0.22035     -0.74356   0.22035
 ZH3       -0.74356   0.22035     -0.74356   0.22035
 O1         3.06389   0.30817      3.06389   0.30817
 H2        -1.50149   0.23358     -1.50149   0.23358
 H3        -1.50149   0.23358     -1.50149   0.23358
 B12        1.99014   0.44003      1.99014   0.44003
 B13        1.99014   0.44003      1.99014   0.44003
 ZO1        3.17107   0.30798      3.17107   0.30798
 ZH2       -0.74356   0.22035     -0.74356   0.22035
 ZH3       -0.74356   0.22035     -0.74356   0.22035
 O1         3.06389   0.30817      3.06389   0.30817
 H2        -1.50149   0.23358     -1.50149   0.23358
 H3        -1.50149   0.23358     -1.50149   0.23358
 B12        1.99014   0.44003      1.99014   0.44003
 B13        1.99014   0.44003      1.99014   0.44003
 ZO1        3.17107   0.30798      3.17107   0.30798
 ZH2       -0.74356   0.22035     -0.74356   0.22035
 ZH3       -0.74356   0.22035     -0.74356   0.22035
 O1         3.06389   0.30817      3.06389   0.30817
 H2        -1.50149   0.23358     -1.50149   0.23358
 H3        -1.50149   0.23358     -1.50149   0.23358
 B12        1.99014   0.44003      1.99014   0.44003
 B13        1.99014   0.44003      1.99014   0.44003
 ZO1        3.17107   0.30798      3.17107   0.30798
 ZH2       -0.74356   0.22035     -0.74356   0.22035
 ZH3       -0.74356   0.22035     -0.74356   0.22035
 O1         3.06389   0.30817      3.06389   0.30817
 H2        -1.50149   0.23358     -1.50149   0.23358
 H3        -1.50149   0.23358     -1.50149   0.23358
 B12        1.99014   0.44003      1.99014   0.44003
 B13        1.99014   0.44003      1.99014   0.44003
 ZO1        3.17107   0.30798      3.17107   0.30798
 ZH2       -0.74356   0.22035     -0.74356   0.22035
 ZH3       -0.74356   0.22035     -0.74356   0.22035
 O1         3.06389   0.30817      3.06389   0.30817
 H2        -1.50149   0.23358     -1.50149   0.23358
 H3        -1.50149   0.23358     -1.50149   0.23358
 B12        1.99014   0.44003      1.99014   0.44003
 B13        1.99014   0.44003      1.99014   0.44003
 ZO1        3.17107   0.30798      3.17107   0.30798
 ZH2       -0.74356   0.22035     -0.74356   0.22035
 ZH3       -0.74356   0.22035     -0.74356   0.22035
 O1         3.06389   0.30817      3.06389   0.30817
 H2        -1.50149   0.23358     -1.50149   0.23358
 H3        -1.50149   0.23358     -1.50149   0.23358
 B12        1.99014   0.44003      1.99014   0.44003
 B13        1.99014   0.44003      1.99014   0.44003
 ZO1        3.17107   0.30798      3.17107   0.30798
 ZH2       -0.74356   0.22035     -0.74356   0.22035
 ZH3       -0.74356   0.22035     -0.74356   0.22035
 O1         3.06389   0.30817      3.06389   0.30817
 H2        -1.50149   0.23358     -1.50149   0.23358
 H3        -1.50149   0.23358     -1.50149   0.23358
 B12        1.99014   0.44003      1.99014   0.44003
 B13        1.99014   0.44003      1.99014   0.44003
 ZO1        3.17107   0.30798      3.17107   0.30798
 ZH2       -0.74356   0.22035     -0.74356   0.22035
 ZH3       -0.74356   0.22035     -0.74356   0.22035
 O1         3.06389   0.30817      3.06389   0.30817
 H2        -1.50149   0.23358     -1.50149   0.23358
 H3        -1.50149   0.23358     -1.50149   0.23358
 B12        1.99014   0.44003      1.99014   0.44003
 B13        1.99014   0.44003      1.99014   0.44003
 ZO1        3.17107   0.30798      3.17107   0.30798
 ZH2       -0.74356   0.22035     -0.74356   0.22035
 ZH3       -0.74356   0.22035     -0.74356   0.22035
 O1         3.06389   0.30817      3.06389   0.30817
 H2        -1.50149   0.23358     -1.50149   0.23358
 H3        -1.50149   0.23358     -1.50149   0.23358
 B12        1.99014   0.44003      1.99014   0.44003
 B13        1.99014   0.44003      1.99014   0.44003
[...]
 FRAGNAME=WATER   !  50
 ZO1                9.222293075426   15.024383175396   15.794302550704
 ZH2                9.997155303251   15.106666084486   16.326934229100
 ZH3                9.478849952993   15.227455641133   14.908967249081
 FRAGNAME=WATER   !  51
 ZO1                7.189252712880   10.491311652978   21.140777656601
 ZH2                8.009366423936   10.443513227449   21.605543474538
 ZH3                6.695102534803   11.192811034322   21.533960404886
 FRAGNAME=WATER   !  52
 ZO1               11.973682117392   12.276326065463   20.369537933684
 ZH2               12.773173535741   12.777147011338   20.399038886675
 ZH3               11.325403221394   12.824263353852   19.956769651153
 FRAGNAME=WATER   !  53
 ZO1                7.377359895204   16.820000441046   17.244118968367
 ZH2                7.724045772833   16.214892537645   16.608090838830
 ZH3                6.595263733399   16.425532282235   17.595685348218
 FRAGNAME=WATER   !  54
 ZO1               11.709464565735   21.170855994320   23.253639944276
 ZH2               12.337389648886   21.824669097169   23.516541010381
 ZH3               11.195067073063   21.552109644677   22.560156471012
 FRAGNAME=WATER   !  55
 ZO1               14.897975379241   17.067619174709   23.593819090996
 ZH2               15.263664511904   17.471643648807   22.823160842063
 ZH3               14.073020717985   16.688447542067   23.335832397656
 FRAGNAME=WATER   !  56
 ZO1               13.982627293701   16.900552357733   18.892518190173
 ZH2               13.889697956660   16.515645566217   18.035728044204
 ZH3               14.907889191112   17.015392969495   19.039421250580
 FRAGNAME=WATER   !  57
 ZO1               16.821216557581    7.267761278123   31.016040043827
 ZH2               16.753409608535    6.662784656244   31.737347161987
 ZH3               16.144960359614    7.033227439143   30.400775964628
 FRAGNAME=WATER   !  58
 ZO1               16.226293439573    6.367540947454   33.842184014226
 ZH2               15.376868989102    6.776615568822   33.797300708183
 ZH3               16.830831498429    7.029347613197   34.137859726181
 FRAGNAME=WATER   !  59
 ZO1               22.073089509712    3.739769172876   25.519698611526
 ZH2               21.218702653520    3.933928385685   25.168694688308
 ZH3               22.600812650675    4.511778219200   25.391679968528
 FRAGNAME=WATER   !  60
 ZO1               16.374252059930    3.331180268658   28.412795456073
 ZH2               16.932161122068    3.519024246617   29.150583076189
 ZH3               16.626315485853    3.925132952068   27.723910347183
 FRAGNAME=WATER   !  61
 ZO1               17.799967840699   12.396765891493   20.975419846047
 ZH2               17.192398435216   12.531407201963   21.685074402224
 ZH3               17.391335153313   12.744311610735   20.198818433542
 FRAGNAME=WATER   !  62
 ZO1               13.575100940705   12.332104397328   38.599060083738
 ZH2               14.386183579795   12.775434054944   38.790063280867
 ZH3               12.989824913297   12.979884626024   38.240296650372
 FRAGNAME=WATER   !  63
 ZO1               15.717272733831    9.833896098045   28.934179694057
 ZH2               16.411097767845    9.603313888763   29.531102738517
 ZH3               15.463304405089   10.718816195491   29.142254111512
 FRAGNAME=WATER   !  64
 ZO1               14.486673279676    7.199002300626   28.817930864517
 ZH2               14.249896857441    8.063160938524   29.114655026808
 ZH3               13.680395237706    6.748877605777   28.622528888603
           PBC CARTESIAN COORDINATES (ANG)
 FRAGNAME=WATER   !   1
 ZO1               -2.098272299723    1.711459056010   -5.902493719904
 ZH2               -2.878896256754    1.291619537513   -6.226900055361
 ZH3               -2.371830656756    2.522344849695   -5.504362448882
 FRAGNAME=WATER   !   2
 ZO1               -3.136346818488   -5.441432222712   -1.924833401292
 ZH2               -3.886460487634   -5.441206064363   -1.351939094914
 ZH3               -3.463145944359   -5.304872161579   -2.799723185836
 FRAGNAME=WATER   !   3
 ZO1               -2.532243379261   -5.614929578511    2.969805100220
 ZH2               -2.154560283255   -5.370733057693    2.139984642362
 ZH3               -2.217997045300   -4.991391592049    3.604886256529
 FRAGNAME=WATER   !   4
 ZO1                1.306729850789   -4.568741419473   -3.501034420493
 ZH2                0.798712284986   -5.128798689143   -4.065952522161
 ZH3                0.727171087703   -4.277473787037   -2.815357192861
 FRAGNAME=WATER   !   5
 ZO1               -4.252799757107   -0.361540323250   -6.173128669910
 ZH2               -3.905358655002   -1.093074002097   -6.657918945543
 ZH3               -4.322207209592   -0.640309804057   -5.274046562326
 FRAGNAME=WATER   !   6
 ZO1                5.397256481536    3.136804260756    6.051259487577
 ZH2                5.261493332464    2.209609459136    5.938314274002
 ZH3                5.236014244136    3.325646179396    6.961873634573
 FRAGNAME=WATER   !   7
 ZO1                1.453026479786   -5.499651286258    0.445655385916
 ZH2                1.756180763294   -6.172231683742   -0.143081858853
 ZH3                1.373600054498   -5.899795903868    1.296804128517
 FRAGNAME=WATER   !   8
 ZO1                4.454602173952    6.015109539243    2.584995808216
 ZH2                5.281815766894    6.456834328058    2.477872810377
 ZH3                3.878422286214    6.620743158352    3.023291496579
 FRAGNAME=WATER   !   9
 ZO1                5.310021964895   -2.426454303170   -5.653194758233
 ZH2                6.112342820769   -2.364259472833   -5.159948874951
 ZH3                5.206411087411   -3.334420840183   -5.889287976685
 FRAGNAME=WATER   !  10
 ZO1                5.808727197735   -4.084918648789   -2.235314444857
 ZH2                6.434451953083   -3.912302545157   -2.920552115581
 ZH3                6.218267069137   -4.693010417589   -1.640856752067
 FRAGNAME=WATER   !  11
 ZO1               -5.543176575935   -5.917777438079   -0.570260710036
 ZH2               -5.408294857040   -5.881475238152    0.363209978447
 ZH3               -5.780615140761   -6.807902214686   -0.775636619213
 FRAGNAME=WATER   !  12
 ZO1               -4.179291177652   -4.549795466827   -4.276649991757
 ZH2               -4.506091346148   -4.794204481504   -5.127734204678
 ZH3               -3.689969018132   -3.751112817332   -4.393047172418
 FRAGNAME=WATER   !  13
 ZO1                2.669932408768   -2.195889570939   -4.519102141221
 ZH2                2.755083808611   -3.069275702613   -4.171504157666
 ZH3                3.497371803495   -1.981335847476   -4.919338573683
 FRAGNAME=WATER   !  14
 ZO1                3.635302795006    1.188256942793   -1.822356240053
 ZH2                2.841370999933    0.681689480669   -1.759585505179
 ZH3                3.914669083942    1.365416459985   -0.938361083878
 FRAGNAME=WATER   !  15
 ZO1                4.676871018250   -1.618661662168   -0.851817621806
 ZH2                4.023828222692   -1.009556261715   -1.157438583744
 ZH3                4.829550238435   -2.228566190420   -1.555794877269
 FRAGNAME=WATER   !  16
 ZO1               -5.520075895216    3.799841120263   -1.078442719472
 ZH2               -6.315600299983    3.481880821650   -0.682310640496
 ZH3               -5.093658500408    3.053204454140   -1.467775929299
 FRAGNAME=WATER   !  17
 ZO1               -1.884303129383   -2.642594750741   -4.096734477289
 ZH2               -1.856885110414   -1.711670077359   -3.943417945918
 ZH3               -1.234838559738   -2.828198799160   -4.755995703248
 FRAGNAME=WATER   !  18
 ZO1               -5.622564867013    0.854310275183    0.094679844687
 ZH2               -6.270988498830    0.226624583148   -0.181790623509
 ZH3               -5.127371117116    0.445890722206    0.786673394424
 FRAGNAME=WATER   !  19
 ZO1               -4.337220794247   -2.082155537084   -0.710594838644
 ZH2               -5.046933359964   -2.635669050564   -0.426325039815
 ZH3               -3.666594359175   -2.139607825720   -0.048901652052
 FRAGNAME=WATER   !  20
 ZO1                4.493114877163    3.777462919575   -3.888309273994
 ZH2                5.112929752568    3.403410324425   -3.282675201012
 ZH3                4.471074967842    4.705127286157   -3.715591239506
 FRAGNAME=WATER   !  21
 ZO1                0.082118174900    3.071104604489   -1.805046428736
 ZH2                0.379459185392    2.716517878105   -2.627685493588
 ZH3               -0.238261542522    2.343677089320   -1.296042989743
 FRAGNAME=WATER   !  22
 ZO1               -1.269258092542   -5.783249993539    0.389358190893
 ZH2               -1.589369873286   -5.316540391812   -0.366015259496
 ZH3               -0.359318052047   -5.973045858429    0.225452405631
 FRAGNAME=WATER   !  23
 ZO1                2.429697557026   -0.004033869316    5.540523379503
 ZH2                1.786529535597    0.500333182762    5.068477590350
 ZH3                2.093374237676   -0.122693425386    6.414414098462
 FRAGNAME=WATER   !  24
 ZO1               -3.706989676414    3.974968758635   -5.092633706366
 ZH2               -4.143634539455    4.431290336857   -5.794053933403
 ZH3               -3.341127730363    4.635119763853   -4.525867316388
 FRAGNAME=WATER   !  25
 ZO1               -0.932443956630   -1.582004694889    3.444014342073
 ZH2               -1.812540878451   -1.897773805007    3.572846525022
 ZH3               -0.814294096735   -1.480221892108    2.513122658936
 FRAGNAME=WATER   !  26
 ZO1                1.769934773284    2.023036521002   -3.997321630889
 ZH2                2.615665700471    2.221745063042   -3.628360158392
 ZH3                1.703250909706    2.512098880808   -4.801839949281
 FRAGNAME=WATER   !  27
 ZO1                1.423141529555    3.021111319828    4.380309508213
 ZH2                2.164796054839    3.007594539047    3.796662083965
 ZH3                0.898740285729    2.264989842476    4.170161700642
 FRAGNAME=WATER   !  28
 ZO1               -1.547915555530   -2.003788144201    0.639569256993
 ZH2               -1.363770679198   -2.900221009799    0.408534116670
 ZH3               -1.083090236288   -1.463246825535    0.020997547752
 FRAGNAME=WATER   !  29
 ZO1                4.580583693389   -1.726911886214    1.827115294498
 ZH2                4.423434578361   -2.000893955238    0.937668030425
 ZH3                4.056940339369   -2.285116976247    2.379458638190
 FRAGNAME=WATER   !  30
 ZO1               -3.817408214237   -0.010326538393    2.318089155697
 ZH2               -2.900045572336   -0.108096700462    2.118676937615
 ZH3               -3.881095436516    0.658136944577    2.981398256887
 FRAGNAME=WATER   !  31
 ZO1                3.856985150607    1.018564282650    1.189520545166
 ZH2                4.528746414687    0.379442936300    1.365983467016
 ZH3                4.221793131491    1.862055159933    1.404733767556
 FRAGNAME=WATER   !  32
 ZO1                1.376494314829   -2.523590453599   -0.164923873033
 ZH2                1.484172834876   -1.982420799133    0.600856249112
 ZH3                1.663994530385   -3.390558241485    0.072960415834
 FRAGNAME=WATER   !  33
 ZO1                3.959862114459    3.751024447051    0.783991859369
 ZH2                3.503861575212    3.934133539481   -0.021869805275
 ZH3                4.153888091927    4.584867855321    1.181405428110
 FRAGNAME=WATER   !  34
 ZO1               -0.061558549046    0.907221389473    4.597380867119
 ZH2               -0.309870593249    0.171612547246    4.060632123284
 ZH3               -0.582871330564    0.858262197081    5.382692547520
 FRAGNAME=WATER   !  35
 ZO1                0.229758155507    5.439303889352    3.143079938454
 ZH2               -0.707825752198    5.410378199325    3.247856722788
 ZH3                0.565898473389    4.625239125353    3.482471601253
 FRAGNAME=WATER   !  36
 ZO1               -0.670928796201   -0.256266539860   -1.369158308048
 ZH2                0.215097866571   -0.381101808450   -1.669576953674
 ZH3               -1.235018444836   -0.445543543770   -2.101862571829
 FRAGNAME=WATER   !  37
 ZO1               -4.934685801059    2.183872957703   -3.422333207051
 ZH2               -5.418668964272    1.445650281936   -3.756497886180
 ZH3               -4.587826736293    2.642209538867   -4.170995228009
 FRAGNAME=WATER   !  38
 ZO1               -0.324163708332    5.977217839253   -4.747522574474
 ZH2               -0.934293057705    5.460173862576   -4.246238067150
 ZH3                0.202284229154    5.370598420169   -5.243248207839
 FRAGNAME=WATER   !  39
 ZO1                1.888452777415   -1.039163064277   -2.214875953121
 ZH2                1.925472282502   -1.766342311335   -1.614277623987
 ZH3                2.112671627598   -1.378955365742   -3.066430738883
 FRAGNAME=WATER   !  40
 ZO1               -3.058327269258    0.025817871205   -2.171236475775
 ZH2               -3.536633731165   -0.123390660335   -1.371337609242
 ZH3               -3.509579794193    0.714507620941   -2.632708079902
 FRAGNAME=WATER   !  41
 ZO1               -1.976287264212    4.470941742817   -3.024031341849
 ZH2               -2.200062339418    5.303398889873   -2.639559927958
 ZH3               -1.406317913007    4.033781902415   -2.411736750419
 FRAGNAME=WATER   !  42
 ZO1               -5.172434075847   -5.189422477272    5.600894649407
 ZH2               -6.081448611319   -5.443478885843    5.606029786440
 ZH3               -4.690533648235   -5.913228473155    5.233804316848
 FRAGNAME=WATER   !  43
 ZO1               -5.370466314833   -2.164405580043    2.909478301381
 ZH2               -4.709572068096   -1.493194065005    2.849709155682
 ZH3               -6.115929386007   -1.855477399157    2.419859426503
 FRAGNAME=WATER   !  44
 ZO1               -1.420842869849    1.581990946334    0.582758929117
 ZH2               -1.997731242648    2.323253891927    0.489982289341
 ZH3               -1.637052376853    0.981288944819   -0.112430979127
 FRAGNAME=WATER   !  45
 ZO1               -5.280960288119   -5.355468687769    2.280726502858
 ZH2               -4.539922072315   -5.758624144014    2.704054383922
 ZH3               -5.199705244888   -4.425389325233    2.419393194606
 FRAGNAME=WATER   !  46
 ZO1               -3.286736221667   -2.674571063284    4.832335336480
 ZH2               -2.940845767541   -3.336973011885    5.408930433842
 ZH3               -4.173467538723   -2.927007705601    4.630192399343
 FRAGNAME=WATER   !  47
 ZO1                0.335836539619   -2.546668897454    5.878695647150
 ZH2                0.992187502261   -2.038426564217    6.327885583159
 ZH3                0.158997909564   -2.102718545682    5.064745625251
 FRAGNAME=WATER   !  48
 ZO1               -1.309799911459   -4.578759542335    5.625109069471
 ZH2               -1.239954925918   -5.418308043561    6.050736190495
 ZH3               -0.466790326405   -4.162191064125    5.706864782035
 FRAGNAME=WATER   !  49
 ZO1                5.186564490987    0.415838445357    5.790909169584
 ZH2                4.449599296255    0.087244749196    5.301228724126
 ZH3                5.834150106070   -0.270769079898    5.799933108246
 FRAGNAME=WATER   !  50
 ZO1               -3.177706924574    2.624383175396    3.394302550704
 ZH2               -2.402844696749    2.706666084486    3.926934229100
 ZH3               -2.921150047007    2.827455641133    2.508967249081
 FRAGNAME=WATER   !  51
 ZO1               -5.210747287120   -1.908688347022   -3.659222343399
 ZH2               -4.390633576064   -1.956486772551   -3.194456525462
 ZH3               -5.704897465197   -1.207188965678   -3.266039595114
 FRAGNAME=WATER   !  52
 ZO1               -0.426317882608   -0.123673934537   -4.430462066316
 ZH2                0.373173535741    0.377147011338   -4.400961113325
 ZH3               -1.074596778606    0.424263353852   -4.843230348847
 FRAGNAME=WATER   !  53
 ZO1               -5.022640104796    4.420000441046    4.844118968367
 ZH2               -4.675954227167    3.814892537645    4.208090838830
 ZH3               -5.804736266601    4.025532282235    5.195685348218
 FRAGNAME=WATER   !  54
 ZO1               -0.690535434265   -3.629144005680   -1.546360055724
 ZH2               -0.062610351114   -2.975330902831   -1.283458989619
 ZH3               -1.204932926937   -3.247890355323   -2.239843528988
 FRAGNAME=WATER   !  55
 ZO1                2.497975379241    4.667619174709   -1.206180909004
 ZH2                2.863664511904    5.071643648807   -1.976839157937
 ZH3                1.673020717985    4.288447542067   -1.464167602344
 FRAGNAME=WATER   !  56
 ZO1                1.582627293701    4.500552357733   -5.907481809827
 ZH2                1.489697956660    4.115645566217   -6.764271955796
 ZH3                2.507889191112    4.615392969495   -5.760578749420
 FRAGNAME=WATER   !  57
 ZO1                4.421216557581   -5.132238721877   -6.183959956173
 ZH2                4.353409608535   -5.737215343756   -5.462652838013
 ZH3                3.744960359614   -5.366772560857   -6.799224035372
 FRAGNAME=WATER   !  58
 ZO1                3.826293439573   -6.032459052546   -3.357815985774
 ZH2                2.976868989102   -5.623384431178   -3.402699291817
 ZH3                4.430831498429   -5.370652386803   -3.062140273819
 FRAGNAME=WATER   !  59
 ZO1               -2.726910490288    3.739769172876    0.719698611526
 ZH2               -3.581297346480    3.933928385685    0.368694688308
 ZH3               -2.199187349325    4.511778219200    0.591679968528
 FRAGNAME=WATER   !  60
 ZO1                3.974252059930    3.331180268658    3.612795456073
 ZH2                4.532161122068    3.519024246617    4.350583076189
 ZH3                4.226315485853    3.925132952068    2.923910347183
 FRAGNAME=WATER   !  61
 ZO1                5.399967840699   -0.003234108507   -3.824580153953
 ZH2                4.792398435216    0.131407201963   -3.114925597776
 ZH3                4.991335153313    0.344311610735   -4.601181566458
 FRAGNAME=WATER   !  62
 ZO1                1.175100940705   -0.067895602672    1.399060083738
 ZH2                1.986183579795    0.375434054944    1.590063280867
 ZH3                0.589824913297    0.579884626024    1.040296650372
 FRAGNAME=WATER   !  63
 ZO1                3.317272733831   -2.566103901955    4.134179694057
 ZH2                4.011097767845   -2.796686111237    4.731102738517
 ZH3                3.063304405089   -1.681183804509    4.342254111512
 FRAGNAME=WATER   !  64
 ZO1                2.086673279676   -5.200997699374    4.017930864517
 ZH2                1.849896857441   -4.336839061476    4.314655026808
 ZH3                1.280395237706   -5.651122394223    3.822528888603
 .... DONE WITH THIS PORTION OF THE MD TRAJECTORY ....
 STEP CPU TIME =     6.21 TOTAL CPU TIME =        6.7 (    0.1 MIN)
 TOTAL WALL CLOCK TIME=        6.7 SECONDS, CPU UTILIZATION IS  99.40%
                 9920  WORDS OF DYNAMIC MEMORY USED
 EXECUTION OF GAMESS TERMINATED NORMALLY Wed Aug  9 20:06:18 2017
 DDI: 263640 bytes (0.3 MB / 0 MWords) used by master data server.

 ----------------------------------------
 CPU timing information for all processes
 ========================================
 0: 6.666 + 0.17 = 6.684
 ----------------------------------------
 ddikick.x: exited gracefully.
unset echo
----- accounting info -----
Files used on the master node compute-0-6.local were:
-rw-rw-r-- 1 sarom sarom  20K Aug  9 20:06 /scratch/ewald-lev2-md.F05
-rw-rw-r-- 1 sarom sarom    0 Aug  9 20:06 /scratch/ewald-lev2-md.F08
-rw-rw-r-- 1 sarom sarom 160K Aug  9 20:06 /scratch/ewald-lev2-md.F10
-rw-rw-r-- 1 sarom sarom    0 Aug  9 20:06 /scratch/ewald-lev2-md.F25
rm: No match.
ls: No match.
ls: No match.
ls: No match.
Wed Aug  9 20:06:21 CDT 2017
0.261u 0.153s 0:10.19 4.0%	0+0k 40+400io 0pf+0w
/opt/gridengine/default/spool/compute-0-6/active_jobs/35767.1/pe_hostfile compute-0-6.local
