-catch_rsh /opt/gridengine/default/spool/compute-1-2/active_jobs/35979.1/pe_hostfile
compute-1-2
The primary node assigned by SGE to this run is compute-1-2
Warning: no access to tty (Bad file descriptor).
Thus no job control in this shell.
source /home/sarom/dir.git.branch.saromleang-travis-ci/install.info
setenv GMS_PATH /home/sarom/dir.git.branch.saromleang-travis-ci
setenv GMS_BUILD_DIR /home/sarom/dir.git.branch.saromleang-travis-ci
setenv GMS_TARGET linux64
setenv GMS_FORTRAN gfortran
setenv GMS_GFORTRAN_VERNO 4.4
setenv GMS_MATHLIB mkl-so
setenv GMS_MATHLIB none
setenv GMS_MATHLIB_PATH /share/apps/intel/compilers_and_libraries_2017.1.132/linux/mkl/lib/intel64
setenv GMS_MKL_VERNO 12
setenv GMS_DDI_COMM sockets
setenv GMS_LIBCCHEM false
setenv GMS_EIGEN_PATH
setenv GMS_PHI false
setenv GMS_SHMTYPE sysv
setenv GMS_OPENMP false
unset echo
cc-crcc-hf
/home/sarom/dir.git.branch.saromleang-travis-ci/tests/cc
----- GAMESS execution script 'rungms' -----
This job is running on host compute-1-2.local
under operating system Linux at Wed Aug 9 20:50:41 CDT 2017
Available scratch disk space (Kbyte units) at beginning of the job is
Filesystem           1K-blocks      Used Available Use% Mounted on
/dev/sda1             16126920   9109424   6198296  60% /
GAMESS temporary binary files will be written to /scratch
GAMESS supplementary output files will be written to /home/sarom/restart
Copying input file cc-crcc-hf.inp to your run's scratch directory...
cp /home/sarom/dir.git.branch.saromleang-travis-ci/tests/cc/cc-crcc-hf.inp /scratch/cc-crcc-hf.F05
unset echo
The generated host list is
compute-1-2.local
/home/sarom/dir.git.branch.saromleang-travis-ci/ddikick.x /home/sarom/dir.git.branch.saromleang-travis-ci/gamess.00.x cc-crcc-hf -ddi 1 1 compute-1-2.local -scr /scratch

 Distributed Data Interface kickoff program.
 Initiating 1 compute processes on 1 nodes to run the following command:
 /home/sarom/dir.git.branch.saromleang-travis-ci/gamess.00.x cc-crcc-hf 

          ******************************************************
          *         GAMESS VERSION = 20 APR 2017 (R1)          *
          *             FROM IOWA STATE UNIVERSITY             *
          * M.W.SCHMIDT, K.K.BALDRIDGE, J.A.BOATZ, S.T.ELBERT, *
          *   M.S.GORDON, J.H.JENSEN, S.KOSEKI, N.MATSUNAGA,   *
          *          K.A.NGUYEN, S.J.SU, T.L.WINDUS,           *
          *       TOGETHER WITH M.DUPUIS, J.A.MONTGOMERY       *
          *         J.COMPUT.CHEM.  14, 1347-1363(1993)        *
          **************** 64 BIT LINUX VERSION ****************

  SINCE 1993, STUDENTS AND POSTDOCS WORKING AT IOWA STATE UNIVERSITY
  AND ALSO IN THEIR VARIOUS JOBS AFTER LEAVING ISU HAVE MADE IMPORTANT
  CONTRIBUTIONS TO THE CODE:
     IVANA ADAMOVIC, CHRISTINE AIKENS, YURI ALEXEEV, POOJA ARORA,
     ANDREY ASADCHEV, ROB BELL, PRADIPTA BANDYOPADHYAY, JONATHAN BENTZ,
     BRETT BODE, KURT BRORSEN, CALEB CARLIN, GALINA CHABAN, WEI CHEN,
     CHEOL HO CHOI, PAUL DAY, ALBERT DEFUSCO, NUWAN DESILVA, TIM DUDLEY,
     DMITRI FEDOROV, GRAHAM FLETCHER, MARK FREITAG, KURT GLAESEMANN,
     DAN KEMP, GRANT MERRILL, NORIYUKI MINEZAWA, JONATHAN MULLIN,
     TAKESHI NAGATA, SEAN NEDD, HEATHER NETZLOFF, BOSILJKA NJEGIC, RYAN OLSON,
     MIKE PAK, SPENCER PRUITT, LUKE ROSKOP, JIM SHOEMAKER, LYUDMILA SLIPCHENKO,
     TONY SMITH, SAROM SOK LEANG, JIE SONG, TETSUYA TAKETSUGU, SIMON WEBB,
     PENG XU, SOOHAENG YOO, FEDERICO ZAHARIEV

  ADDITIONAL CODE HAS BEEN PROVIDED BY COLLABORATORS IN OTHER GROUPS:
     IOWA STATE UNIVERSITY:
          JOE IVANIC, AARON WEST, LAIMUTIS BYTAUTAS, KLAUS RUEDENBERG
     UNIVERSITY OF TOKYO: KIMIHIKO HIRAO, TAKAHITO NAKAJIMA,
          TAKAO TSUNEDA, MUNEAKI KAMIYA, SUSUMU YANAGISAWA,
          KIYOSHI YAGI, MAHITO CHIBA, SEIKEN TOKURA, NAOAKI KAWAKAMI
     UNIVERSITY OF AARHUS: FRANK JENSEN
     UNIVERSITY OF IOWA: VISVALDAS KAIRYS, HUI LI
     NATIONAL INST. OF STANDARDS AND TECHNOLOGY: WALT STEVENS, DAVID GARMER
     UNIVERSITY OF PISA: BENEDETTA MENNUCCI, JACOPO TOMASI
     UNIVERSITY OF MEMPHIS: HENRY KURTZ, PRAKASHAN KORAMBATH
     UNIVERSITY OF ALBERTA: TOBY ZENG, MARIUSZ KLOBUKOWSKI
     UNIVERSITY OF NEW ENGLAND: MARK SPACKMAN
     MIE UNIVERSITY: HIROAKI UMEDA
     NAT. INST. OF ADVANCED INDUSTRIAL SCIENCE AND TECHNOLOGY: KAZUO KITAURA
     MICHIGAN STATE UNIVERSITY:
          KAROL KOWALSKI, MARTA WLOCH, JEFFREY GOUR, JESSE LUTZ,
          WEI LI, PIOTR PIECUCH
     UNIVERSITY OF SILESIA: MONIKA MUSIAL, STANISLAW KUCHARSKI
     FACULTES UNIVERSITAIRES NOTRE-DAME DE LA PAIX:
          OLIVIER QUINET, BENOIT CHAMPAGNE
     UNIVERSITY OF CALIFORNIA - SANTA BARBARA: BERNARD KIRTMAN
     INSTITUTE FOR MOLECULAR SCIENCE:
          KAZUYA ISHIMURA, MICHIO KATOUDA, AND SHIGERU NAGASE
     UNIVERSITY OF NOTRE DAME: ANNA POMOGAEVA, DAN CHIPMAN
     KYUSHU UNIVERSITY:
          HARUYUKI NAKANO,
          FENG LONG GU, JACEK KORCHOWIEC, MARCIN MAKOWSKI, AND YURIKO AOKI,
          HIROTOSHI MORI AND EISAKU MIYOSHI
     PENNSYLVANIA STATE UNIVERSITY:
          TZVETELIN IORDANOV, CHET SWALINA, JONATHAN SKONE,
          SHARON HAMMES-SCHIFFER
     WASEDA UNIVERSITY:
          MASATO KOBAYASHI, TOMOKO AKAMA, TSUGUKI TOUMA,
          TAKESHI YOSHIKAWA, YASUHIRO IKABATA, JUNJI SEINO,
          YUYA NAKAJIMA, HIROMI NAKAI
     NANJING UNIVERSITY: SHUHUA LI
     UNIVERSITY OF NEBRASKA:
          PEIFENG SU, DEJUN SI, NANDUN THELLAMUREGE, YALI WANG, HUI LI
     UNIVERSITY OF ZURICH: ROBERTO PEVERATI, KIM BALDRIDGE
     N. COPERNICUS UNIVERSITY AND JACKSON STATE UNIVERSITY:
          MARIA BARYSZ
     UNIVERSITY OF COPENHAGEN: Jimmy Kromann, CASPER STEINMANN
     TOKYO INSTITUTE OF TECHNOLOGY: HIROYA NAKATA
     NAGOYA UNIVERSITY: YOSHIO NISHIMOTO, STEPHAN IRLE
     MOSCOW STATE UNIVERSITY: VLADIMIR MIRONOV

 EXECUTION OF GAMESS BEGUN Wed Aug  9 20:50:41 2017

            ECHO OF THE FIRST FEW INPUT CARDS -
 INPUT CARD>!   HF...test of CR-CC calculation at 5*Re (Re=0.91681A)                        
 INPUT CARD>!                                                                               
 INPUT CARD>!   There are 80 AOs, 80 MOs, 1 frozen core, 5 correlated MOs                   
 INPUT CARD>!   Very tight accuracy inputs are used, and memory for the CC                  
 INPUT CARD>!   step is intentionally kept small enough to execute INTRIP.                  
 INPUT CARD>!                                                                               
 INPUT CARD>!   FINAL E= -99.6295016507 after 31 iterations                                 
 INPUT CARD>!   there are 36 CCSD iterations, to E(CCSD)= -100.0945369867                   
 INPUT CARD>!   MBPT(2) E= -100.1790287466, CCSD(T) E= -100.2022905209                      
 INPUT CARD>!   COUPLED-CLUSTER ENERGY E(CR-CCSD(T)) = -100.1269783526                      
 INPUT CARD>!   R-CCSD(T) DENOMINATOR   2.261203                                            
 INPUT CARD>!   largest T1 amplitude is  0.380836 for   5->6                                
 INPUT CARD>!   largest T2 amplitude is -0.994977 for 5,5->6,6                              
 INPUT CARD>!                                                                               
 INPUT CARD>!   This run takes 40 seconds on 2.66 GHz Cloverton ( 3 Apr 2015)               
 INPUT CARD>!   results are essentially unchanged since 2002                                
 INPUT CARD>!   This run needs about 600 MBytes of disk space                               
 INPUT CARD>!                                                                               
 INPUT CARD> $contrl scftyp=rhf cctyp=cr-cc runtyp=energy maxit=50 units=bohr               
 INPUT CARD>         icut=15 itol=30 $end                                                   
 INPUT CARD> $system mwords=25 $end                                                         
 INPUT CARD> $scf    nconv=10 damp=.true. $end                                              
 INPUT CARD> $trans  cuttrf=1d-15 $end                                                      
 INPUT CARD> $ccinp  nword=3000000 iconv=10 maxcc=50 $end                                   
 INPUT CARD> $data                                                                          
 INPUT CARD>HF, aug-cc-pVTZ, R=8.664 a.u.                                                   
 INPUT CARD>Cnv   2                                                                         
 INPUT CARD>                                                                                
 INPUT CARD>Fluorine       9.        0.0000000000        0.0000000000        0.00000        
 INPUT CARD> S   8                                                                          
 INPUT CARD>  1        19500.00000         0.5070000000E-03                                 
 INPUT CARD>  2        2923.000000         0.3923000000E-02                                 
 INPUT CARD>  3        664.5000000         0.2020000000E-01                                 
 INPUT CARD>  4        187.5000000         0.7901000000E-01                                 
 INPUT CARD>  5        60.62000000         0.2304390000                                     
 INPUT CARD>  6        21.42000000         0.4328720000                                     
 INPUT CARD>  7        7.950000000         0.3499640000                                     
 INPUT CARD>  8       0.8815000000        -0.7892000000E-02                                 
 INPUT CARD> S   8                                                                          
 INPUT CARD>  1        19500.00000        -0.1170000000E-03                                 
 INPUT CARD>  2        2923.000000        -0.9120000000E-03                                 
 INPUT CARD>  3        664.5000000        -0.4717000000E-02                                 
 INPUT CARD>  4        187.5000000        -0.1908600000E-01                                 
 INPUT CARD>  5        60.62000000        -0.5965500000E-01                                 
 INPUT CARD>  6        21.42000000        -0.1400100000                                     
 INPUT CARD>  7        7.950000000        -0.1767820000                                     
 INPUT CARD>  8       0.8815000000         0.6050430000                                     
 INPUT CARD> S   1                                                                          
 INPUT CARD>  1        2.257000000          1.000000000                                     
 INPUT CARD> S   1                                                                          
   25000000 WORDS OF MEMORY AVAILABLE


     RUN TITLE
     ---------
 HF, aug-cc-pVTZ, R=8.664 a.u.                                                   

 THE POINT GROUP OF THE MOLECULE IS CNV     
 THE ORDER OF THE PRINCIPAL AXIS IS     2
 *** WARNING! ATOM   1 SHELL    1 TYPE S HAS NORMALIZATION   1.02440158
 *** WARNING! ATOM   1 SHELL    2 TYPE S HAS NORMALIZATION   1.70590729
 *** WARNING! ATOM   1 SHELL    5 TYPE P HAS NORMALIZATION   2.51452869
 *** WARNING! ATOM   2 SHELL   15 TYPE S HAS NORMALIZATION   4.20152657

 ATOM      ATOMIC                      COORDINATES (BOHR)
           CHARGE         X                   Y                   Z
 FLUORINE    9.0     0.0000000000        0.0000000000        0.0000000000
 HYDROGEN    1.0     0.0000000000        0.0000000000        8.6640000000

          INTERNUCLEAR DISTANCES (ANGS.)
          ------------------------------

                1 FLUO       2 HYDR  

   1 FLUO    0.0000000    4.5847917  
   2 HYDR    4.5847917    0.0000000  

  * ... LESS THAN  3.000


     ATOMIC BASIS SET
     ----------------
 THE CONTRACTED PRIMITIVE FUNCTIONS HAVE BEEN UNNORMALIZED
 THE CONTRACTED BASIS FUNCTIONS ARE NOW NORMALIZED TO UNITY

  SHELL TYPE  PRIMITIVE        EXPONENT          CONTRACTION COEFFICIENT(S)

 FLUORINE  

      1   S       1         19500.0000000    0.000519371600
      1   S       2          2923.0000000    0.004018727387
      1   S       3           664.5000000    0.020692911859
      1   S       4           187.5000000    0.080937968612
      1   S       5            60.6200000    0.236062075041
      1   S       6            21.4200000    0.443434759512
      1   S       7             7.9500000    0.358503673552
      1   S       8             0.8815000   -0.008084577247

      2   S       9         19500.0000000   -0.000199591153
      2   S      10          2923.0000000   -0.001555787449
      2   S      11           664.5000000   -0.008046764688
      2   S      12           187.5000000   -0.032558946542
      2   S      13            60.6200000   -0.101765899400
      2   S      14            21.4200000   -0.238844079709
      2   S      15             7.9500000   -0.301573702586
      2   S      16             0.8815000    1.032147264620

      3   S      17             2.2570000    1.000000000000

      4   S      18             0.3041000    1.000000000000

      5   P      19            43.8800000    0.041904620686
      5   P      20             9.9260000    0.262697841725
      5   P      21             2.9300000    0.797759373475

      6   P      22             0.9132000    1.000000000000

      7   P      23             0.2672000    1.000000000000

      8   D      24             3.1070000    1.000000000000

      9   D      25             0.8550000    1.000000000000

     10   F      26             1.9170000    1.000000000000

     11   S      27             0.0915800    1.000000000000

     12   P      28             0.0736100    1.000000000000

     13   D      29             0.2920000    1.000000000000

     14   F      30             0.7240000    1.000000000000

 HYDROGEN  

     15   S      31            33.8700000    0.025494863235
     15   S      32             5.0950000    0.190362765893
     15   S      33             1.1590000    0.852162022245

     16   S      34             0.3258000    1.000000000000

     17   S      35             0.1027000    1.000000000000

     18   P      36             1.4070000    1.000000000000

     19   P      37             0.3880000    1.000000000000

     20   D      38             1.0570000    1.000000000000

     21   S      39             0.0252600    1.000000000000

     22   P      40             0.1020000    1.000000000000

     23   D      41             0.2470000    1.000000000000

 TOTAL NUMBER OF BASIS SET SHELLS             =   23
 NUMBER OF CARTESIAN GAUSSIAN BASIS FUNCTIONS =   80
 NUMBER OF ELECTRONS                          =   10
 CHARGE OF MOLECULE                           =    0
 SPIN MULTIPLICITY                            =    1
 NUMBER OF OCCUPIED ORBITALS (ALPHA)          =    5
 NUMBER OF OCCUPIED ORBITALS (BETA )          =    5
 TOTAL NUMBER OF ATOMS                        =    2
 THE NUCLEAR REPULSION ENERGY IS        1.0387811634

 THIS MOLECULE IS RECOGNIZED AS BEING LINEAR,
 ORBITAL LZ DEGENERACY TOLERANCE ETOLLZ= 1.00E-06

     $CONTRL OPTIONS
     ---------------
 SCFTYP=RHF          RUNTYP=ENERGY       EXETYP=RUN     
 MPLEVL=       0     CITYP =NONE         CCTYP =CR-CC        VBTYP =NONE    
 DFTTYP=NONE         TDDFT =NONE    
 MULT  =       1     ICHARG=       0     NZVAR =       0     COORD =UNIQUE  
 PP    =NONE         RELWFN=NONE         LOCAL =NONE         NUMGRD=       F
 ISPHER=      -1     NOSYM =       0     MAXIT =      50     UNITS =BOHR    
 PLTORB=       F     MOLPLT=       F     AIMPAC=       F     FRIEND=        
 NPRINT=       7     IREST =       0     GEOM  =INPUT   
 NORMF =       0     NORMP =       0     ITOL  =      30     ICUT  =      15
 INTTYP=BEST         GRDTYP=BEST         QMTTOL= 1.0E-06

     $SYSTEM OPTIONS
     ---------------
  REPLICATED MEMORY=    25000000 WORDS (ON EVERY NODE).
 DISTRIBUTED MEMDDI=           0 MILLION WORDS IN AGGREGATE,
 MEMDDI DISTRIBUTED OVER   1 PROCESSORS IS           0 WORDS/PROCESSOR.
 TOTAL MEMORY REQUESTED ON EACH PROCESSOR=    25000000 WORDS.
 TIMLIM=      525600.00 MINUTES, OR     365.0 DAYS.
 PARALL= F  BALTYP=  DLB     KDIAG=    0  COREFL= F
 MXSEQ2=     300 MXSEQ3=     150  mem10=         0

          ----------------
          PROPERTIES INPUT
          ----------------

     MOMENTS            FIELD           POTENTIAL          DENSITY
 IEMOM =       1   IEFLD =       0   IEPOT =       0   IEDEN =       0
 WHERE =COMASS     WHERE =NUCLEI     WHERE =NUCLEI     WHERE =NUCLEI  
 OUTPUT=BOTH       OUTPUT=BOTH       OUTPUT=BOTH       OUTPUT=BOTH    
 IEMINT=       0   IEFINT=       0                     IEDINT=       0
                                                       MORB  =       0
          EXTRAPOLATION IN EFFECT
          DAMPING IN EFFECT
          SOSCF IN EFFECT
 ORBITAL PRINTING OPTION: NPREO=     1    80     2     1

     -------------------------------
     INTEGRAL TRANSFORMATION OPTIONS
     -------------------------------
     NWORD  =            0
     CUTOFF = 1.0E-15     MPTRAN =       0
     DIRTRF =       F     AOINTS =DUP     

          ----------------------
          INTEGRAL INPUT OPTIONS
          ----------------------
 NOPK  =       1 NORDER=       0 SCHWRZ=       F

     ------------------------------------------
     THE POINT GROUP IS CNV, NAXIS= 2, ORDER= 4
     ------------------------------------------

     DIMENSIONS OF THE SYMMETRY SUBSPACES ARE
 A1  =   37     A2  =    7     B1  =   18     B2  =   18

 ..... DONE SETTING UP THE RUN .....
 STEP CPU TIME =     0.02 TOTAL CPU TIME =        0.0 (    0.0 MIN)
 TOTAL WALL CLOCK TIME=        0.0 SECONDS, CPU UTILIZATION IS 100.00%

          ********************
          1 ELECTRON INTEGRALS
          ********************
 ...... END OF ONE-ELECTRON INTEGRALS ......
 STEP CPU TIME =     0.00 TOTAL CPU TIME =        0.0 (    0.0 MIN)
 TOTAL WALL CLOCK TIME=        0.0 SECONDS, CPU UTILIZATION IS  66.67%

          -------------
          GUESS OPTIONS
          -------------
          GUESS =HUCKEL            NORB  =       0          NORDER=       0
          MIX   =       F          PRTMO =       F          PUNMO =       F
          TOLZ  = 1.0E-08          TOLE  = 1.0E-05
          SYMDEN=       F          PURIFY=       F

 INITIAL GUESS ORBITALS GENERATED BY HUCKEL   ROUTINE.
 HUCKEL GUESS REQUIRES     47846 WORDS.

 SYMMETRIES FOR INITIAL GUESS ORBITALS FOLLOW.   BOTH SET(S).
     5 ORBITALS ARE OCCUPIED (    1 CORE ORBITALS).
     2=A1       3=A1       4=B2       5=B1       6=A1       7=A1       8=A1  
     9=A1      10=A1      11=A1      12=A1      13=A1      14=A1      15=A1  
 ...... END OF INITIAL ORBITAL SELECTION ......
 STEP CPU TIME =     0.00 TOTAL CPU TIME =        0.0 (    0.0 MIN)
 TOTAL WALL CLOCK TIME=        0.0 SECONDS, CPU UTILIZATION IS  66.67%

                    ----------------------
                    AO INTEGRAL TECHNOLOGY
                    ----------------------
     S,P,L SHELL ROTATED AXIS INTEGRALS, REPROGRAMMED BY
        KAZUYA ISHIMURA (IMS) AND JOSE SIERRA (SYNSTAR).
     S,P,D,L SHELL ROTATED AXIS INTEGRALS PROGRAMMED BY
        KAZUYA ISHIMURA (INSTITUTE FOR MOLECULAR SCIENCE).
     S,P,D,F,G SHELL TO TOTAL QUARTET ANGULAR MOMENTUM SUM 5,
        ERIC PROGRAM BY GRAHAM FLETCHER (ELORET AND NASA ADVANCED
        SUPERCOMPUTING DIVISION, AMES RESEARCH CENTER).
     S,P,D,F,G,L SHELL GENERAL RYS QUADRATURE PROGRAMMED BY
        MICHEL DUPUIS (PACIFIC NORTHWEST NATIONAL LABORATORY).

          --------------------
          2 ELECTRON INTEGRALS
          --------------------

 THE -PK- OPTION IS OFF, THE INTEGRALS ARE NOT IN SUPERMATRIX FORM.
 STORING   15000 INTEGRALS/RECORD ON DISK, USING 12 BYTES/INTEGRAL.
 TWO ELECTRON INTEGRAL EVALUATION REQUIRES   99376 WORDS OF MEMORY.
 II,JST,KST,LST =  1  1  1  1 NREC =         1 INTLOC =    1
 II,JST,KST,LST =  2  1  1  1 NREC =         1 INTLOC =    2
 II,JST,KST,LST =  3  1  1  1 NREC =         1 INTLOC =    7
 II,JST,KST,LST =  4  1  1  1 NREC =         1 INTLOC =   22
 II,JST,KST,LST =  5  1  1  1 NREC =         1 INTLOC =   56
 II,JST,KST,LST =  6  1  1  1 NREC =         1 INTLOC =  125
 II,JST,KST,LST =  7  1  1  1 NREC =         1 INTLOC =  329
 II,JST,KST,LST =  8  1  1  1 NREC =         1 INTLOC =  776
 II,JST,KST,LST =  9  1  1  1 NREC =         1 INTLOC = 2864
 II,JST,KST,LST = 10  1  1  1 NREC =         1 INTLOC = 7967
 II,JST,KST,LST = 11  1  1  1 NREC =         2 INTLOC =12194
 II,JST,KST,LST = 12  1  1  1 NREC =         3 INTLOC =  731
 II,JST,KST,LST = 13  1  1  1 NREC =         3 INTLOC =11855
 II,JST,KST,LST = 14  1  1  1 NREC =         5 INTLOC =12962
 II,JST,KST,LST = 15  1  1  1 NREC =        11 INTLOC = 7589
 II,JST,KST,LST = 16  1  1  1 NREC =        11 INTLOC =14662
 II,JST,KST,LST = 17  1  1  1 NREC =        13 INTLOC = 9288
 II,JST,KST,LST = 18  1  1  1 NREC =        15 INTLOC = 5890
 II,JST,KST,LST = 19  1  1  1 NREC =        17 INTLOC = 1842
 II,JST,KST,LST = 20  1  1  1 NREC =        22 INTLOC =10494
 II,JST,KST,LST = 21  1  1  1 NREC =        28 INTLOC =11655
 II,JST,KST,LST = 22  1  1  1 NREC =        31 INTLOC = 8934
 II,JST,KST,LST = 23  1  1  1 NREC =        40 INTLOC =  980
 TOTAL NUMBER OF NONZERO TWO-ELECTRON INTEGRALS =              883565
         59 INTEGRAL RECORDS WERE STORED ON DISK FILE  8.
  ...... END OF TWO-ELECTRON INTEGRALS .....
 STEP CPU TIME =     0.17 TOTAL CPU TIME =        0.2 (    0.0 MIN)
 TOTAL WALL CLOCK TIME=        0.2 SECONDS, CPU UTILIZATION IS  95.00%

          --------------------------
                 RHF SCF CALCULATION
          --------------------------

     NUCLEAR ENERGY =         1.0387811634
     MAXIT =   50     NPUNCH=    2
     EXTRAP=T  DAMP=T  SHIFT=F  RSTRCT=F  DIIS=F  DEM=F  SOSCF=T
     DENSITY MATRIX CONV=  1.00E-10
     SOSCF WILL OPTIMIZE     375 ORBITAL ROTATIONS, SOGTOL=   0.250
     MEMORY REQUIRED FOR RHF ITERS=     77420 WORDS.

 ITER EX DEM    TOTAL ENERGY       E CHANGE  DENSITY CHANGE     ORB. GRAD      VIR. SHIFT       DAMPING
   1  0  0      -99.2050179165   -99.2050179165   3.023526659   0.000000000     0.000000000     1.000000000
   2  1  0      -94.0765963553     5.1284215611   3.023528144   0.626963719     0.000000000     1.000000000
   3  2  0      -98.9182295761    -4.8416332208   0.012347040   0.319928916     0.000000000    19.992252899
   4  3  0      -98.9941472521    -0.0759176760   0.112370375   0.302117108     0.000000000     1.249515806
          ---------------START SECOND ORDER SCF---------------
   5  4  0      -99.4819496810    -0.4878024289   0.120810539   0.090152355     0.000000000     0.000000000
   6  5  0      -99.5364868830    -0.0545372020   0.055405582   0.086382690     0.000000000     0.000000000
   7  6  0      -99.5659525830    -0.0294657000   0.014834795   0.007629056     0.000000000     0.000000000
   8  7  0      -99.5674373649    -0.0014847819   0.015739816   0.005235000     0.000000000     0.000000000
   9  8  0      -99.5682080871    -0.0007707222   0.044368258   0.008847896     0.000000000     0.000000000
 SOSCF IS SCALING ROTATION ANGLE MATRIX, SQCDF=    0.102773
  10  9  0      -99.5712296361    -0.0030215490   0.521934027   0.022365080     0.000000000     0.000000000
  11 10  0      -98.3926565279     1.1785731082   0.521714178   0.483919314     0.000000000     0.000000000
  12 11  0      -99.5767156461    -1.1840591182   0.252356945   0.045618146     0.000000000     0.000000000
  13 12  0      -99.5833222192    -0.0066065731   0.125422274   0.046894474     0.000000000     0.000000000
  14 13  0      -99.6002556249    -0.0169334057   0.021297363   0.029260499     0.000000000     0.000000000
  15 14  0      -99.6026739202    -0.0024182953   0.035749668   0.022577367     0.000000000     0.000000000
  16 15  0      -99.6075078491    -0.0048339289   0.020846371   0.025779973     0.000000000     0.000000000
  17 16  0      -99.6128989187    -0.0053910697   0.034327131   0.028120587     0.000000000     0.000000000
  18 17  0      -99.6218194894    -0.0089205707   0.036923282   0.022042191     0.000000000     0.000000000
  19 18  0      -99.6277068406    -0.0058873511   0.025426849   0.009827703     0.000000000     0.000000000
  20 19  0      -99.6293505146    -0.0016436740   0.005733206   0.003106078     0.000000000     0.000000000
  21 20  0      -99.6294728092    -0.0001222946   0.003800202   0.001605685     0.000000000     0.000000000
  22 21  0      -99.6294999653    -0.0000271561   0.000865055   0.000321204     0.000000000     0.000000000
  23 22  0      -99.6295014453    -0.0000014800   0.000804253   0.000112695     0.000000000     0.000000000
  24 23  0      -99.6295016267    -0.0000001814   0.000352481   0.000040920     0.000000000     0.000000000
  25 24  0      -99.6295016483    -0.0000000216   0.000088960   0.000011775     0.000000000     0.000000000
  26 25  0      -99.6295016506    -0.0000000022   0.000007670   0.000003434     0.000000000     0.000000000
  27 26  0      -99.6295016507    -0.0000000001   0.000006442   0.000001003     0.000000000     0.000000000
  28 27  0      -99.6295016507    -0.0000000000   0.000003024   0.000000321     0.000000000     0.000000000
  29 28  0      -99.6295016507    -0.0000000000   0.000001022   0.000000082     0.000000000     0.000000000
  30 29  0      -99.6295016507    -0.0000000000   0.000000188   0.000000020     0.000000000     0.000000000
  31 30  0      -99.6295016507     0.0000000000   0.000000000   0.000000005     0.000000000     0.000000000

 RHF HAS CONVERGED, NOW COMPUTING EXACT TOTAL FOCK MATRIX
 FOR USE DURING THE COUPLED CLUSTER CALCULATION THAT FOLLOWS.

          -----------------
          DENSITY CONVERGED
          -----------------
     TIME TO FORM FOCK OPERATORS=       0.3 SECONDS (       0.0 SEC/ITER)
     TIME TO SOLVE SCF EQUATIONS=       0.0 SECONDS (       0.0 SEC/ITER)

 FINAL RHF ENERGY IS      -99.6295016507 AFTER  31 ITERATIONS

 LZ VALUE ANALYSIS FOR THE MOS
 ----------------------------------------
 MO     1 (    1) HAS LZ(WEIGHT)= 0.00(100.0%) 
 MO     2 (    2) HAS LZ(WEIGHT)= 0.00(100.0%) 
 MO     3 (    3) HAS LZ(WEIGHT)=-1.00( 50.0%)  1.00( 50.0%) 
 MO     4 (    3) HAS LZ(WEIGHT)=-1.00( 50.0%)  1.00( 50.0%) 
 MO     5 (    4) HAS LZ(WEIGHT)= 0.00(100.0%) 
 MO     6 (    5) HAS LZ(WEIGHT)= 0.00(100.0%) 
 MO     7 (    6) HAS LZ(WEIGHT)= 0.00(100.0%) 
 MO     8 (    7) HAS LZ(WEIGHT)= 0.00(100.0%) 
 MO     9 (    8) HAS LZ(WEIGHT)=-1.00( 50.0%)  1.00( 50.0%) 
 MO    10 (    8) HAS LZ(WEIGHT)=-1.00( 50.0%)  1.00( 50.0%) 
 MO    11 (    9) HAS LZ(WEIGHT)= 0.00(100.0%) 
 MO    12 (   10) HAS LZ(WEIGHT)=-1.00( 50.0%)  1.00( 50.0%) 
 MO    13 (   10) HAS LZ(WEIGHT)=-1.00( 50.0%)  1.00( 50.0%) 
 MO    14 (   11) HAS LZ(WEIGHT)= 0.00(100.0%) 
 MO    15 (   12) HAS LZ(WEIGHT)= 0.00(100.0%) 
 MO    16 (   13) HAS LZ(WEIGHT)=-2.00( 50.0%)  2.00( 50.0%) 
 MO    17 (   13) HAS LZ(WEIGHT)=-2.00( 50.0%)  2.00( 50.0%) 
 MO    18 (   14) HAS LZ(WEIGHT)=-1.00( 50.0%)  1.00( 50.0%) 
 MO    19 (   14) HAS LZ(WEIGHT)=-1.00( 50.0%)  1.00( 50.0%) 
 MO    20 (   15) HAS LZ(WEIGHT)= 0.00(100.0%) 
 MO    21 (   16) HAS LZ(WEIGHT)= 0.00(100.0%) 
 MO    22 (   17) HAS LZ(WEIGHT)=-1.00( 50.0%)  1.00( 50.0%) 
 MO    23 (   17) HAS LZ(WEIGHT)=-1.00( 50.0%)  1.00( 50.0%) 
 MO    24 (   18) HAS LZ(WEIGHT)= 0.00(100.0%) 
 MO    25 (   19) HAS LZ(WEIGHT)= 0.00(100.0%) 
 MO    26 (   20) HAS LZ(WEIGHT)=-1.00( 50.0%)  1.00( 50.0%) 
 MO    27 (   20) HAS LZ(WEIGHT)=-1.00( 50.0%)  1.00( 50.0%) 
 MO    28 (   21) HAS LZ(WEIGHT)=-2.00( 50.0%)  2.00( 50.0%) 
 MO    29 (   21) HAS LZ(WEIGHT)=-2.00( 50.0%)  2.00( 50.0%) 
 MO    30 (   22) HAS LZ(WEIGHT)= 0.00(100.0%) 
 MO    31 (   23) HAS LZ(WEIGHT)=-1.00( 50.0%)  1.00( 50.0%) 
 MO    32 (   23) HAS LZ(WEIGHT)=-1.00( 50.0%)  1.00( 50.0%) 
 MO    33 (   24) HAS LZ(WEIGHT)= 0.00(100.0%) 
 MO    34 (   25) HAS LZ(WEIGHT)= 0.00(100.0%) 
 MO    35 (   26) HAS LZ(WEIGHT)=-1.00( 50.0%)  1.00( 50.0%) 
 MO    36 (   26) HAS LZ(WEIGHT)=-1.00( 50.0%)  1.00( 50.0%) 
 MO    37 (   27) HAS LZ(WEIGHT)= 0.00(100.0%) 
 MO    38 (   28) HAS LZ(WEIGHT)= 0.00(100.0%) 
 MO    39 (   29) HAS LZ(WEIGHT)=-1.00( 50.0%)  1.00( 50.0%) 
 MO    40 (   29) HAS LZ(WEIGHT)=-1.00( 50.0%)  1.00( 50.0%) 
 MO    41 (   30) HAS LZ(WEIGHT)=-2.00( 50.0%)  2.00( 50.0%) 
 MO    42 (   30) HAS LZ(WEIGHT)=-2.00( 50.0%)  2.00( 50.0%) 
 MO    43 (   31) HAS LZ(WEIGHT)= 0.00(100.0%) 
 MO    44 (   32) HAS LZ(WEIGHT)= 0.00(100.0%) 
 MO    45 (   33) HAS LZ(WEIGHT)=-1.00( 50.0%)  1.00( 50.0%) 
 MO    46 (   33) HAS LZ(WEIGHT)=-1.00( 50.0%)  1.00( 50.0%) 
 MO    47 (   34) HAS LZ(WEIGHT)=-2.00( 50.0%)  2.00( 50.0%) 
 MO    48 (   34) HAS LZ(WEIGHT)=-2.00( 50.0%)  2.00( 50.0%) 
 MO    49 (   35) HAS LZ(WEIGHT)=-3.00( 50.0%)  3.00( 50.0%) 
 MO    50 (   35) HAS LZ(WEIGHT)=-3.00( 50.0%)  3.00( 50.0%) 
 MO    51 (   36) HAS LZ(WEIGHT)=-2.00( 50.0%)  2.00( 50.0%) 
 MO    52 (   36) HAS LZ(WEIGHT)=-2.00( 50.0%)  2.00( 50.0%) 
 MO    53 (   37) HAS LZ(WEIGHT)=-1.00( 50.0%)  1.00( 50.0%) 
 MO    54 (   37) HAS LZ(WEIGHT)=-1.00( 50.0%)  1.00( 50.0%) 
 MO    55 (   38) HAS LZ(WEIGHT)= 0.00(100.0%) 
 MO    56 (   39) HAS LZ(WEIGHT)=-1.00( 50.0%)  1.00( 50.0%) 
 MO    57 (   39) HAS LZ(WEIGHT)=-1.00( 50.0%)  1.00( 50.0%) 
 MO    58 (   40) HAS LZ(WEIGHT)= 0.00(100.0%) 
 MO    59 (   41) HAS LZ(WEIGHT)= 0.00(100.0%) 
 MO    60 (   42) HAS LZ(WEIGHT)= 0.00(100.0%) 
 MO    61 (   43) HAS LZ(WEIGHT)=-1.00( 50.0%)  1.00( 50.0%) 
 MO    62 (   43) HAS LZ(WEIGHT)=-1.00( 50.0%)  1.00( 50.0%) 
 MO    63 (   44) HAS LZ(WEIGHT)= 0.00(100.0%) 
 MO    64 (   45) HAS LZ(WEIGHT)= 0.00(100.0%) 
 MO    65 (   46) HAS LZ(WEIGHT)=-1.00( 50.0%)  1.00( 50.0%) 
 MO    66 (   46) HAS LZ(WEIGHT)=-1.00( 50.0%)  1.00( 50.0%) 
 MO    67 (   47) HAS LZ(WEIGHT)=-2.00( 50.0%)  2.00( 50.0%) 
 MO    68 (   47) HAS LZ(WEIGHT)=-2.00( 50.0%)  2.00( 50.0%) 
 MO    69 (   48) HAS LZ(WEIGHT)=-3.00( 50.0%)  3.00( 50.0%) 
 MO    70 (   48) HAS LZ(WEIGHT)=-3.00( 50.0%)  3.00( 50.0%) 
 MO    71 (   49) HAS LZ(WEIGHT)= 0.00(100.0%) 
 MO    72 (   50) HAS LZ(WEIGHT)=-1.00( 50.0%)  1.00( 50.0%) 
 MO    73 (   50) HAS LZ(WEIGHT)=-1.00( 50.0%)  1.00( 50.0%) 
 MO    74 (   51) HAS LZ(WEIGHT)=-2.00( 50.0%)  2.00( 50.0%) 
 MO    75 (   51) HAS LZ(WEIGHT)=-2.00( 50.0%)  2.00( 50.0%) 
 MO    76 (   52) HAS LZ(WEIGHT)= 0.00(100.0%) 
 MO    77 (   53) HAS LZ(WEIGHT)=-1.00( 50.0%)  1.00( 50.0%) 
 MO    78 (   53) HAS LZ(WEIGHT)=-1.00( 50.0%)  1.00( 50.0%) 
 MO    79 (   54) HAS LZ(WEIGHT)= 0.00(100.0%) 
 MO    80 (   55) HAS LZ(WEIGHT)= 0.00(100.0%) 

          ------------
          EIGENVECTORS
          ------------

                      1          2          3          4          5
                  -26.2243    -1.4221    -0.5456    -0.5456    -0.3692
                     A1         A1         B2         B1         A1  
    1  F  1  S    0.971148  -0.006759  -0.000000  -0.000000  -0.000972
    2  F  1  S   -0.010735   0.567305  -0.000000  -0.000000  -0.006241
    3  F  1  S    0.048849   0.164056  -0.000000  -0.000000  -0.003011
    4  F  1  S   -0.016367   0.395231  -0.000000  -0.000000  -0.002080
    5  F  1  X   -0.000000   0.000000  -0.000000   0.394081  -0.000000
    6  F  1  Y   -0.000000   0.000000   0.394081  -0.000000  -0.000000
    7  F  1  Z    0.000093  -0.000319  -0.000000  -0.000000   0.305416
    8  F  1  X   -0.000000   0.000000  -0.000000   0.436200  -0.000000
    9  F  1  Y   -0.000000   0.000000   0.436200  -0.000000  -0.000000
   10  F  1  Z   -0.000189  -0.000014  -0.000000  -0.000000   0.347528
   11  F  1  X   -0.000000   0.000000  -0.000000   0.322879  -0.000000
   12  F  1  Y   -0.000000   0.000000   0.322879  -0.000000  -0.000000
   13  F  1  Z   -0.000007   0.000891  -0.000000  -0.000000   0.297082
   14  F  1 XX    0.002916   0.001462  -0.000000  -0.000000  -0.000213
   15  F  1 YY    0.002916   0.001462  -0.000000  -0.000000  -0.000213
   16  F  1 ZZ    0.002709   0.000717  -0.000000  -0.000000   0.000367
   17  F  1 XY   -0.000000   0.000000  -0.000000  -0.000000  -0.000000
   18  F  1 XZ   -0.000000   0.000000  -0.000000   0.000178  -0.000000
   19  F  1 YZ   -0.000000   0.000000   0.000178  -0.000000  -0.000000
   20  F  1 XX    0.008083  -0.004047  -0.000000  -0.000000  -0.001383
   21  F  1 YY    0.008083  -0.004047  -0.000000  -0.000000  -0.001383
   22  F  1 ZZ    0.007888  -0.005262  -0.000000  -0.000000  -0.001479
   23  F  1 XY   -0.000000   0.000000  -0.000000  -0.000000  -0.000000
   24  F  1 XZ   -0.000000   0.000000  -0.000000   0.000111  -0.000000
   25  F  1 YZ   -0.000000   0.000000   0.000111  -0.000000  -0.000000
   26  F  1 XXX  -0.000000   0.000000  -0.000000   0.015152  -0.000000
   27  F  1 YYY  -0.000000   0.000000   0.015152  -0.000000  -0.000000
   28  F  1 ZZZ   0.000064  -0.000081  -0.000000  -0.000000   0.013157
   29  F  1 XXY  -0.000000   0.000000   0.006776  -0.000000  -0.000000
   30  F  1 XXZ   0.000029  -0.000020  -0.000000  -0.000000   0.004400
   31  F  1 YYX  -0.000000   0.000000  -0.000000   0.006776  -0.000000
   32  F  1 YYZ   0.000029  -0.000020  -0.000000  -0.000000   0.004400
   33  F  1 ZZX  -0.000000   0.000000  -0.000000   0.008755  -0.000000
   34  F  1 ZZY  -0.000000   0.000000   0.008755  -0.000000  -0.000000
   35  F  1 XYZ  -0.000000   0.000000  -0.000000  -0.000000  -0.000000
   36  F  1  S   -0.001229   0.025349  -0.000000  -0.000000   0.020174
   37  F  1  X   -0.000000   0.000000  -0.000000   0.050872  -0.000000
   38  F  1  Y   -0.000000   0.000000   0.050872  -0.000000  -0.000000
   39  F  1  Z   -0.000028   0.000686  -0.000000  -0.000000   0.091599
   40  F  1 XX    0.002749  -0.007646  -0.000000  -0.000000  -0.005751
   41  F  1 YY    0.002749  -0.007646  -0.000000  -0.000000  -0.005751
   42  F  1 ZZ    0.002778  -0.008665  -0.000000  -0.000000   0.002307
   43  F  1 XY   -0.000000   0.000000  -0.000000  -0.000000  -0.000000
   44  F  1 XZ   -0.000000   0.000000  -0.000000   0.001628  -0.000000
   45  F  1 YZ   -0.000000   0.000000   0.001628  -0.000000  -0.000000
   46  F  1 XXX  -0.000000   0.000000  -0.000000   0.017566  -0.000000
   47  F  1 YYY  -0.000000   0.000000   0.017566  -0.000000  -0.000000
   48  F  1 ZZZ   0.000056  -0.000050  -0.000000  -0.000000   0.014172
   49  F  1 XXY  -0.000000   0.000000   0.007856  -0.000000  -0.000000
   50  F  1 XXZ   0.000025  -0.000087  -0.000000  -0.000000   0.004254
   51  F  1 YYX  -0.000000   0.000000  -0.000000   0.007856  -0.000000
   52  F  1 YYZ   0.000025  -0.000087  -0.000000  -0.000000   0.004254
   53  F  1 ZZX  -0.000000   0.000000  -0.000000   0.009858  -0.000000
   54  F  1 ZZY  -0.000000   0.000000   0.009858  -0.000000  -0.000000
   55  F  1 XYZ  -0.000000   0.000000  -0.000000  -0.000000  -0.000000
   56  H  2  S    0.000012   0.000633  -0.000000  -0.000000   0.111174
   57  H  2  S   -0.000012   0.001441  -0.000000  -0.000000   0.224049
   58  H  2  S   -0.000055   0.002617  -0.000000  -0.000000   0.257653
   59  H  2  X   -0.000000   0.000000  -0.000000  -0.000009  -0.000000
   60  H  2  Y   -0.000000   0.000000  -0.000009  -0.000000  -0.000000
   61  H  2  Z   -0.000008   0.000011  -0.000000  -0.000000  -0.000248
   62  H  2  X   -0.000000   0.000000  -0.000000   0.000111  -0.000000
   63  H  2  Y   -0.000000   0.000000   0.000111  -0.000000  -0.000000
   64  H  2  Z    0.000026  -0.000270  -0.000000  -0.000000  -0.000249
   65  H  2 XX    0.000010  -0.000064  -0.000000  -0.000000  -0.000395
   66  H  2 YY    0.000010  -0.000064  -0.000000  -0.000000  -0.000395
   67  H  2 ZZ    0.000001  -0.000054  -0.000000  -0.000000  -0.000460
   68  H  2 XY   -0.000000   0.000000  -0.000000  -0.000000  -0.000000
   69  H  2 XZ   -0.000000   0.000000  -0.000000  -0.000013  -0.000000
   70  H  2 YZ   -0.000000   0.000000  -0.000013  -0.000000  -0.000000
   71  H  2  S    0.000063  -0.000529  -0.000000  -0.000000   0.025812
   72  H  2  X   -0.000000   0.000000  -0.000000  -0.000023  -0.000000
   73  H  2  Y   -0.000000   0.000000  -0.000023  -0.000000  -0.000000
   74  H  2  Z   -0.000051  -0.000253  -0.000000  -0.000000  -0.008511
   75  H  2 XX    0.000007  -0.000283  -0.000000  -0.000000  -0.002777
   76  H  2 YY    0.000007  -0.000283  -0.000000  -0.000000  -0.002777
   77  H  2 ZZ    0.000035  -0.000180  -0.000000  -0.000000  -0.001576
   78  H  2 XY   -0.000000   0.000000  -0.000000  -0.000000  -0.000000
   79  H  2 XZ   -0.000000   0.000000  -0.000000   0.000033  -0.000000
   80  H  2 YZ   -0.000000   0.000000   0.000033  -0.000000  -0.000000

                      6          7          8          9         10
                   -0.2490     0.0312     0.1306     0.1357     0.1357
                     A1         A1         A1         B1         B2  
    1  F  1  S    0.000659   0.008124   0.032560   0.000000   0.000000
    2  F  1  S   -0.000821   0.007270   0.095462   0.000000   0.000000
    3  F  1  S    0.000876   0.013824   0.073238   0.000000   0.000000
    4  F  1  S   -0.006826  -0.051609  -0.120871   0.000000   0.000000
    5  F  1  X   -0.000000   0.000000   0.000000  -0.005304   0.000000
    6  F  1  Y   -0.000000   0.000000   0.000000   0.000000  -0.005304
    7  F  1  Z   -0.198563  -0.009079   0.036421   0.000000   0.000000
    8  F  1  X   -0.000000   0.000000   0.000000  -0.017454   0.000000
    9  F  1  Y   -0.000000   0.000000   0.000000   0.000000  -0.017454
   10  F  1  Z   -0.225430  -0.004340   0.059429   0.000000   0.000000
   11  F  1  X   -0.000000   0.000000   0.000000  -0.075835   0.000000
   12  F  1  Y   -0.000000   0.000000   0.000000   0.000000  -0.075835
   13  F  1  Z   -0.190746   0.035443   0.168569   0.000000   0.000000
   14  F  1 XX    0.000033   0.000574   0.001929   0.000000   0.000000
   15  F  1 YY    0.000033   0.000574   0.001929   0.000000   0.000000
   16  F  1 ZZ    0.000087   0.000034   0.000854   0.000000   0.000000
   17  F  1 XY   -0.000000   0.000000   0.000000   0.000000   0.000000
   18  F  1 XZ   -0.000000   0.000000   0.000000   0.000270   0.000000
   19  F  1 YZ   -0.000000   0.000000   0.000000   0.000000   0.000270
   20  F  1 XX    0.001567   0.016649   0.064935   0.000000   0.000000
   21  F  1 YY    0.001567   0.016649   0.064935   0.000000   0.000000
   22  F  1 ZZ    0.001807   0.020571   0.069304   0.000000   0.000000
   23  F  1 XY   -0.000000   0.000000   0.000000   0.000000   0.000000
   24  F  1 XZ   -0.000000   0.000000   0.000000  -0.001153   0.000000
   25  F  1 YZ   -0.000000   0.000000   0.000000   0.000000  -0.001153
   26  F  1 XXX  -0.000000   0.000000   0.000000   0.005566   0.000000
   27  F  1 YYY  -0.000000   0.000000   0.000000   0.000000   0.005566
   28  F  1 ZZZ  -0.008844  -0.003487  -0.007580   0.000000   0.000000
   29  F  1 XXY  -0.000000   0.000000   0.000000   0.000000   0.002489
   30  F  1 XXZ  -0.002934  -0.001616  -0.003773   0.000000   0.000000
   31  F  1 YYX  -0.000000   0.000000   0.000000   0.002489   0.000000
   32  F  1 YYZ  -0.002934  -0.001616  -0.003773   0.000000   0.000000
   33  F  1 ZZX  -0.000000   0.000000   0.000000   0.002341   0.000000
   34  F  1 ZZY  -0.000000   0.000000   0.000000   0.000000   0.002341
   35  F  1 XYZ  -0.000000   0.000000   0.000000   0.000000   0.000000
   36  F  1  S   -0.010233  -0.207204  -0.550461   0.000000   0.000000
   37  F  1  X   -0.000000   0.000000   0.000000   0.118765   0.000000
   38  F  1  Y   -0.000000   0.000000   0.000000   0.000000   0.118765
   39  F  1  Z   -0.061522  -0.132182  -0.249390   0.000000   0.000000
   40  F  1 XX    0.002738   0.047687   0.162835   0.000000   0.000000
   41  F  1 YY    0.002738   0.047687   0.162835   0.000000   0.000000
   42  F  1 ZZ    0.004148   0.035626   0.141261   0.000000   0.000000
   43  F  1 XY   -0.000000   0.000000   0.000000   0.000000   0.000000
   44  F  1 XZ   -0.000000   0.000000   0.000000   0.004939   0.000000
   45  F  1 YZ   -0.000000   0.000000   0.000000   0.000000   0.004939
   46  F  1 XXX  -0.000000   0.000000   0.000000   0.020034   0.000000
   47  F  1 YYY  -0.000000   0.000000   0.000000   0.000000   0.020034
   48  F  1 ZZZ  -0.009726  -0.012788  -0.034128   0.000000   0.000000
   49  F  1 XXY  -0.000000   0.000000   0.000000   0.000000   0.008959
   50  F  1 XXZ  -0.003336  -0.005358  -0.014727   0.000000   0.000000
   51  F  1 YYX  -0.000000   0.000000   0.000000   0.008959   0.000000
   52  F  1 YYZ  -0.003336  -0.005358  -0.014727   0.000000   0.000000
   53  F  1 ZZX  -0.000000   0.000000   0.000000   0.009347   0.000000
   54  F  1 ZZY  -0.000000   0.000000   0.000000   0.000000   0.009347
   55  F  1 XYZ  -0.000000   0.000000   0.000000   0.000000   0.000000
   56  H  2  S    0.176066  -0.037043   0.000902   0.000000   0.000000
   57  H  2  S    0.354717   0.049564  -0.004551   0.000000   0.000000
   58  H  2  S    0.390033  -1.359054   0.103645   0.000000   0.000000
   59  H  2  X   -0.000000   0.000000   0.000000   0.027356   0.000000
   60  H  2  Y   -0.000000   0.000000   0.000000   0.000000   0.027356
   61  H  2  Z    0.000409   0.002912   0.023247   0.000000   0.000000
   62  H  2  X   -0.000000   0.000000   0.000000  -0.057895   0.000000
   63  H  2  Y   -0.000000   0.000000   0.000000   0.000000  -0.057895
   64  H  2  Z    0.003146  -0.010855  -0.044497   0.000000   0.000000
   65  H  2 XX    0.000034   0.019625  -0.002201   0.000000   0.000000
   66  H  2 YY    0.000034   0.019625  -0.002201   0.000000   0.000000
   67  H  2 ZZ    0.000085   0.019833  -0.003310   0.000000   0.000000
   68  H  2 XY   -0.000000   0.000000   0.000000   0.000000   0.000000
   69  H  2 XZ   -0.000000   0.000000   0.000000  -0.001046   0.000000
   70  H  2 YZ   -0.000000   0.000000   0.000000   0.000000  -0.001046
   71  H  2  S    0.050173   1.523234  -0.063468   0.000000   0.000000
   72  H  2  X   -0.000000   0.000000   0.000000   1.019968   0.000000
   73  H  2  Y   -0.000000   0.000000   0.000000   0.000000   1.019968
   74  H  2  Z    0.017521   0.086254   0.889554   0.000000   0.000000
   75  H  2 XX    0.000827   0.185319  -0.021951   0.000000   0.000000
   76  H  2 YY    0.000827   0.185319  -0.021951   0.000000   0.000000
   77  H  2 ZZ   -0.001096   0.183188  -0.011942   0.000000   0.000000
   78  H  2 XY   -0.000000   0.000000   0.000000   0.000000   0.000000
   79  H  2 XZ   -0.000000   0.000000   0.000000   0.011416   0.000000
   80  H  2 YZ   -0.000000   0.000000   0.000000   0.000000   0.011416

                     11         12         13         14         15
                    0.2338     0.2445     0.2445     0.2579     0.3014
                     A1         B1         B2         A1         A1  
    1  F  1  S   -0.106910   0.000000   0.000000  -0.040256   0.022387
    2  F  1  S   -0.316437   0.000000   0.000000  -0.117112   0.073609
    3  F  1  S   -0.237122   0.000000   0.000000  -0.083518   0.049128
    4  F  1  S    0.300945   0.000000   0.000000   0.055992  -0.020335
    5  F  1  X    0.000000  -0.061730   0.000000   0.000000  -0.000000
    6  F  1  Y    0.000000   0.000000  -0.061730   0.000000  -0.000000
    7  F  1  Z    0.031632   0.000000   0.000000  -0.040392   0.060649
    8  F  1  X    0.000000  -0.154862   0.000000   0.000000  -0.000000
    9  F  1  Y    0.000000   0.000000  -0.154862   0.000000  -0.000000
   10  F  1  Z    0.074743   0.000000   0.000000  -0.081707   0.131670
   11  F  1  X    0.000000  -0.686786   0.000000   0.000000  -0.000000
   12  F  1  Y    0.000000   0.000000  -0.686786   0.000000  -0.000000
   13  F  1  Z    0.302418   0.000000   0.000000  -0.346661   0.552014
   14  F  1 XX   -0.004417   0.000000   0.000000  -0.001227   0.000021
   15  F  1 YY   -0.004417   0.000000   0.000000  -0.001227   0.000021
   16  F  1 ZZ   -0.004695   0.000000   0.000000  -0.000230   0.001655
   17  F  1 XY    0.000000   0.000000   0.000000   0.000000  -0.000000
   18  F  1 XZ    0.000000   0.000151   0.000000   0.000000  -0.000000
   19  F  1 YZ    0.000000   0.000000   0.000151   0.000000  -0.000000
   20  F  1 XX   -0.211257   0.000000   0.000000  -0.070484   0.042391
   21  F  1 YY   -0.211257   0.000000   0.000000  -0.070484   0.042391
   22  F  1 ZZ   -0.211133   0.000000   0.000000  -0.077080   0.035626
   23  F  1 XY    0.000000   0.000000   0.000000   0.000000  -0.000000
   24  F  1 XZ    0.000000  -0.000969   0.000000   0.000000  -0.000000
   25  F  1 YZ    0.000000   0.000000  -0.000969   0.000000  -0.000000
   26  F  1 XXX   0.000000   0.042970   0.000000   0.000000  -0.000000
   27  F  1 YYY   0.000000   0.000000   0.042970   0.000000  -0.000000
   28  F  1 ZZZ  -0.018248   0.000000   0.000000   0.017616  -0.030634
   29  F  1 XXY   0.000000   0.000000   0.019217   0.000000  -0.000000
   30  F  1 XXZ  -0.008503   0.000000   0.000000   0.008442  -0.013990
   31  F  1 YYX   0.000000   0.019217   0.000000   0.000000  -0.000000
   32  F  1 YYZ  -0.008503   0.000000   0.000000   0.008442  -0.013990
   33  F  1 ZZX   0.000000   0.018567   0.000000   0.000000  -0.000000
   34  F  1 ZZY   0.000000   0.000000   0.018567   0.000000  -0.000000
   35  F  1 XYZ   0.000000   0.000000   0.000000   0.000000  -0.000000
   36  F  1  S    2.007750   0.000000   0.000000   0.907180  -0.455619
   37  F  1  X    0.000000   1.248415   0.000000   0.000000  -0.000000
   38  F  1  Y    0.000000   0.000000   1.248415   0.000000  -0.000000
   39  F  1  Z   -0.500446   0.000000   0.000000   0.690541  -0.987582
   40  F  1 XX   -0.519822   0.000000   0.000000  -0.209844   0.098468
   41  F  1 YY   -0.519822   0.000000   0.000000  -0.209844   0.098468
   42  F  1 ZZ   -0.519211   0.000000   0.000000  -0.185644   0.129136
   43  F  1 XY    0.000000   0.000000   0.000000   0.000000  -0.000000
   44  F  1 XZ    0.000000   0.003273   0.000000   0.000000  -0.000000
   45  F  1 YZ    0.000000   0.000000   0.003273   0.000000  -0.000000
   46  F  1 XXX   0.000000   0.166992   0.000000   0.000000  -0.000000
   47  F  1 YYY   0.000000   0.000000   0.166992   0.000000  -0.000000
   48  F  1 ZZZ  -0.072511   0.000000   0.000000   0.076661  -0.124597
   49  F  1 XXY   0.000000   0.000000   0.074681   0.000000  -0.000000
   50  F  1 XXZ  -0.032195   0.000000   0.000000   0.033455  -0.056681
   51  F  1 YYX   0.000000   0.074681   0.000000   0.000000  -0.000000
   52  F  1 YYZ  -0.032195   0.000000   0.000000   0.033455  -0.056681
   53  F  1 ZZX   0.000000   0.075024   0.000000   0.000000  -0.000000
   54  F  1 ZZY   0.000000   0.000000   0.075024   0.000000  -0.000000
   55  F  1 XYZ   0.000000   0.000000   0.000000   0.000000  -0.000000
   56  H  2  S    0.037418   0.000000   0.000000  -0.239750  -0.188546
   57  H  2  S    0.178398   0.000000   0.000000  -1.409455  -1.085713
   58  H  2  S   -0.392199   0.000000   0.000000   4.048002   2.969005
   59  H  2  X    0.000000  -0.002177   0.000000   0.000000  -0.000000
   60  H  2  Y    0.000000   0.000000  -0.002177   0.000000  -0.000000
   61  H  2  Z    0.001572   0.000000   0.000000   0.007118  -0.006688
   62  H  2  X    0.000000  -0.004897   0.000000   0.000000  -0.000000
   63  H  2  Y    0.000000   0.000000  -0.004897   0.000000  -0.000000
   64  H  2  Z    0.013076   0.000000   0.000000  -0.002840  -0.017641
   65  H  2 XX    0.010146   0.000000   0.000000  -0.072674  -0.060572
   66  H  2 YY    0.010146   0.000000   0.000000  -0.072674  -0.060572
   67  H  2 ZZ    0.007218   0.000000   0.000000  -0.078491  -0.051664
   68  H  2 XY    0.000000   0.000000   0.000000   0.000000  -0.000000
   69  H  2 XZ    0.000000   0.002147   0.000000   0.000000  -0.000000
   70  H  2 YZ    0.000000   0.000000   0.002147   0.000000  -0.000000
   71  H  2  S   -0.034483   0.000000   0.000000  -1.198372  -0.465816
   72  H  2  X    0.000000  -0.136720   0.000000   0.000000  -0.000000
   73  H  2  Y    0.000000   0.000000  -0.136720   0.000000  -0.000000
   74  H  2  Z    0.134624   0.000000   0.000000   0.363437  -0.405331
   75  H  2 XX    0.083724   0.000000   0.000000  -0.838903  -0.587395
   76  H  2 YY    0.083724   0.000000   0.000000  -0.838903  -0.587395
   77  H  2 ZZ    0.110205   0.000000   0.000000  -0.772119  -0.688626
   78  H  2 XY    0.000000   0.000000   0.000000   0.000000  -0.000000
   79  H  2 XZ    0.000000  -0.022108   0.000000   0.000000  -0.000000
   80  H  2 YZ    0.000000   0.000000  -0.022108   0.000000  -0.000000

                     16         17         18         19         20
                    0.7000     0.7000     0.7027     0.7027     0.7094
                     A2         A1         B1         B2         A1  
    1  F  1  S   -0.000000   0.000000   0.000000   0.000000  -0.043695
    2  F  1  S   -0.000000   0.000000   0.000000   0.000000  -0.046023
    3  F  1  S   -0.000000   0.000000   0.000000   0.000000  -0.086245
    4  F  1  S   -0.000000   0.000000   0.000000   0.000000   0.522804
    5  F  1  X   -0.000000   0.000000  -0.014778   0.000000   0.000000
    6  F  1  Y   -0.000000   0.000000   0.000000  -0.014778   0.000000
    7  F  1  Z   -0.000000   0.000000   0.000000   0.000000   0.039165
    8  F  1  X   -0.000000   0.000000  -0.004729   0.000000   0.000000
    9  F  1  Y   -0.000000   0.000000   0.000000  -0.004729   0.000000
   10  F  1  Z   -0.000000   0.000000   0.000000   0.000000   0.023271
   11  F  1  X   -0.000000   0.000000   0.056043   0.000000   0.000000
   12  F  1  Y   -0.000000   0.000000   0.000000   0.056043   0.000000
   13  F  1  Z   -0.000000   0.000000   0.000000   0.000000  -0.113314
   14  F  1 XX   -0.000000   0.000021   0.000000   0.000000  -0.004348
   15  F  1 YY   -0.000000  -0.000021   0.000000   0.000000  -0.004348
   16  F  1 ZZ   -0.000000   0.000000   0.000000   0.000000  -0.001536
   17  F  1 XY    0.000025   0.000000   0.000000   0.000000   0.000000
   18  F  1 XZ   -0.000000   0.000000  -0.000416   0.000000   0.000000
   19  F  1 YZ   -0.000000   0.000000   0.000000  -0.000416   0.000000
   20  F  1 XX   -0.000000  -0.000095   0.000000   0.000000  -0.105821
   21  F  1 YY   -0.000000   0.000095   0.000000   0.000000  -0.105821
   22  F  1 ZZ   -0.000000   0.000000   0.000000   0.000000  -0.117549
   23  F  1 XY   -0.000109   0.000000   0.000000   0.000000   0.000000
   24  F  1 XZ   -0.000000   0.000000   0.001769   0.000000   0.000000
   25  F  1 YZ   -0.000000   0.000000   0.000000   0.001769   0.000000
   26  F  1 XXX  -0.000000   0.000000  -0.006795   0.000000   0.000000
   27  F  1 YYY  -0.000000   0.000000   0.000000  -0.006795   0.000000
   28  F  1 ZZZ  -0.000000   0.000000   0.000000   0.000000   0.014153
   29  F  1 XXY  -0.000000   0.000000   0.000000  -0.003039   0.000000
   30  F  1 XXZ  -0.000000  -0.000003   0.000000   0.000000   0.006231
   31  F  1 YYX  -0.000000   0.000000  -0.003039   0.000000   0.000000
   32  F  1 YYZ  -0.000000   0.000003   0.000000   0.000000   0.006231
   33  F  1 ZZX  -0.000000   0.000000  -0.003077   0.000000   0.000000
   34  F  1 ZZY  -0.000000   0.000000   0.000000  -0.003077   0.000000
   35  F  1 XYZ  -0.000003   0.000000   0.000000   0.000000   0.000000
   36  F  1  S   -0.000000   0.000000   0.000000   0.000000   0.152136
   37  F  1  X   -0.000000   0.000000   0.029571   0.000000   0.000000
   38  F  1  Y   -0.000000   0.000000   0.000000   0.029571   0.000000
   39  F  1  Z   -0.000000   0.000000   0.000000   0.000000  -0.120043
   40  F  1 XX   -0.000000   0.000459   0.000000   0.000000  -0.240471
   41  F  1 YY   -0.000000  -0.000459   0.000000   0.000000  -0.240471
   42  F  1 ZZ   -0.000000   0.000000   0.000000   0.000000  -0.183479
   43  F  1 XY    0.000530   0.000000   0.000000   0.000000   0.000000
   44  F  1 XZ   -0.000000   0.000000  -0.008978   0.000000   0.000000
   45  F  1 YZ   -0.000000   0.000000   0.000000  -0.008978   0.000000
   46  F  1 XXX  -0.000000   0.000000  -0.024446   0.000000   0.000000
   47  F  1 YYY  -0.000000   0.000000   0.000000  -0.024446   0.000000
   48  F  1 ZZZ  -0.000000   0.000000   0.000000   0.000000   0.053919
   49  F  1 XXY  -0.000000   0.000000   0.000000  -0.010933   0.000000
   50  F  1 XXZ  -0.000000   0.000012   0.000000   0.000000   0.023819
   51  F  1 YYX  -0.000000   0.000000  -0.010933   0.000000   0.000000
   52  F  1 YYZ  -0.000000  -0.000012   0.000000   0.000000   0.023819
   53  F  1 ZZX  -0.000000   0.000000  -0.011021   0.000000   0.000000
   54  F  1 ZZY  -0.000000   0.000000   0.000000  -0.011021   0.000000
   55  F  1 XYZ   0.000014   0.000000   0.000000   0.000000   0.000000
   56  H  2  S   -0.000000   0.000000   0.000000   0.000000   0.002698
   57  H  2  S   -0.000000   0.000000   0.000000   0.000000  -0.000792
   58  H  2  S   -0.000000   0.000000   0.000000   0.000000  -0.075115
   59  H  2  X   -0.000000   0.000000  -0.001180   0.000000   0.000000
   60  H  2  Y   -0.000000   0.000000   0.000000  -0.001180   0.000000
   61  H  2  Z   -0.000000   0.000000   0.000000   0.000000   0.004052
   62  H  2  X   -0.000000   0.000000   0.005135   0.000000   0.000000
   63  H  2  Y   -0.000000   0.000000   0.000000   0.005135   0.000000
   64  H  2  Z   -0.000000   0.000000   0.000000   0.000000  -0.068709
   65  H  2 XX   -0.000000  -0.054717   0.000000   0.000000   0.033898
   66  H  2 YY   -0.000000   0.054717   0.000000   0.000000   0.033898
   67  H  2 ZZ   -0.000000   0.000000   0.000000   0.000000  -0.057585
   68  H  2 XY   -0.063181   0.000000   0.000000   0.000000   0.000000
   69  H  2 XZ   -0.000000   0.000000  -0.062868   0.000000   0.000000
   70  H  2 YZ   -0.000000   0.000000   0.000000  -0.062868   0.000000
   71  H  2  S   -0.000000   0.000000   0.000000   0.000000   0.056068
   72  H  2  X   -0.000000   0.000000  -0.016690   0.000000   0.000000
   73  H  2  Y   -0.000000   0.000000   0.000000  -0.016690   0.000000
   74  H  2  Z   -0.000000   0.000000   0.000000   0.000000  -0.011737
   75  H  2 XX   -0.000000   0.887923   0.000000   0.000000  -0.479236
   76  H  2 YY   -0.000000  -0.887923   0.000000   0.000000  -0.479236
   77  H  2 ZZ   -0.000000   0.000000   0.000000   0.000000   1.025882
   78  H  2 XY    1.025285   0.000000   0.000000   0.000000   0.000000
   79  H  2 XZ   -0.000000   0.000000   1.024165   0.000000   0.000000
   80  H  2 YZ   -0.000000   0.000000   0.000000   1.024165   0.000000

                     21         22         23         24         25
                    0.8654     0.8657     0.8657     0.8826     0.9279
                     A1         B1         B2         A1         A1  
    1  F  1  S   -0.154416   0.000000   0.000000   0.018082  -0.253714
    2  F  1  S   -0.172675   0.000000   0.000000   0.028871  -0.292079
    3  F  1  S   -0.280201   0.000000   0.000000   0.039300  -0.444458
    4  F  1  S    1.529738   0.000000   0.000000  -0.177737   2.255457
    5  F  1  X   -0.000000  -0.022241   0.000000   0.000000  -0.000000
    6  F  1  Y   -0.000000   0.000000  -0.022241   0.000000  -0.000000
    7  F  1  Z    0.026500   0.000000   0.000000  -0.001341  -0.059839
    8  F  1  X   -0.000000  -0.009962   0.000000   0.000000  -0.000000
    9  F  1  Y   -0.000000   0.000000  -0.009962   0.000000  -0.000000
   10  F  1  Z    0.021768   0.000000   0.000000   0.011409  -0.031903
   11  F  1  X   -0.000000   0.118403   0.000000   0.000000  -0.000000
   12  F  1  Y   -0.000000   0.000000   0.118403   0.000000  -0.000000
   13  F  1  Z   -0.097705   0.000000   0.000000   0.080329   0.317815
   14  F  1 XX   -0.010130   0.000000   0.000000  -0.005979  -0.002782
   15  F  1 YY   -0.010130   0.000000   0.000000  -0.005979  -0.002782
   16  F  1 ZZ   -0.003077   0.000000   0.000000   0.016650  -0.024293
   17  F  1 XY   -0.000000   0.000000   0.000000   0.000000  -0.000000
   18  F  1 XZ   -0.000000  -0.002159   0.000000   0.000000  -0.000000
   19  F  1 YZ   -0.000000   0.000000  -0.002159   0.000000  -0.000000
   20  F  1 XX   -0.341241   0.000000   0.000000   0.073123  -0.573894
   21  F  1 YY   -0.341241   0.000000   0.000000   0.073123  -0.573894
   22  F  1 ZZ   -0.366259   0.000000   0.000000  -0.009947  -0.497621
   23  F  1 XY   -0.000000   0.000000   0.000000   0.000000  -0.000000
   24  F  1 XZ   -0.000000   0.008184   0.000000   0.000000  -0.000000
   25  F  1 YZ   -0.000000   0.000000   0.008184   0.000000  -0.000000
   26  F  1 XXX  -0.000000  -0.010587   0.000000   0.000000  -0.000000
   27  F  1 YYY  -0.000000   0.000000  -0.010587   0.000000  -0.000000
   28  F  1 ZZZ   0.008444   0.000000   0.000000  -0.007314  -0.027521
   29  F  1 XXY  -0.000000   0.000000  -0.004735   0.000000  -0.000000
   30  F  1 XXZ   0.003849   0.000000   0.000000  -0.002387  -0.012159
   31  F  1 YYX  -0.000000  -0.004735   0.000000   0.000000  -0.000000
   32  F  1 YYZ   0.003849   0.000000   0.000000  -0.002387  -0.012159
   33  F  1 ZZX  -0.000000  -0.004684   0.000000   0.000000  -0.000000
   34  F  1 ZZY  -0.000000   0.000000  -0.004684   0.000000  -0.000000
   35  F  1 XYZ  -0.000000   0.000000   0.000000   0.000000  -0.000000
   36  F  1  S    0.987042   0.000000   0.000000  -0.116116   2.062685
   37  F  1  X   -0.000000   0.003622   0.000000   0.000000  -0.000000
   38  F  1  Y   -0.000000   0.000000   0.003622   0.000000  -0.000000
   39  F  1  Z   -0.069864   0.000000   0.000000  -0.097066   0.023940
   40  F  1 XX   -0.891782   0.000000   0.000000  -0.092031  -1.240087
   41  F  1 YY   -0.891782   0.000000   0.000000  -0.092031  -1.240087
   42  F  1 ZZ   -0.737080   0.000000   0.000000   0.470751  -1.811651
   43  F  1 XY   -0.000000   0.000000   0.000000   0.000000  -0.000000
   44  F  1 XZ   -0.000000  -0.052258   0.000000   0.000000  -0.000000
   45  F  1 YZ   -0.000000   0.000000  -0.052258   0.000000  -0.000000
   46  F  1 XXX  -0.000000  -0.042838   0.000000   0.000000  -0.000000
   47  F  1 YYY  -0.000000   0.000000  -0.042838   0.000000  -0.000000
   48  F  1 ZZZ   0.038945   0.000000   0.000000  -0.021051  -0.115359
   49  F  1 XXY  -0.000000   0.000000  -0.019158   0.000000  -0.000000
   50  F  1 XXZ   0.016640   0.000000   0.000000  -0.013118  -0.051146
   51  F  1 YYX  -0.000000  -0.019158   0.000000   0.000000  -0.000000
   52  F  1 YYZ   0.016640   0.000000   0.000000  -0.013118  -0.051146
   53  F  1 ZZX  -0.000000  -0.019684   0.000000   0.000000  -0.000000
   54  F  1 ZZY  -0.000000   0.000000  -0.019684   0.000000  -0.000000
   55  F  1 XYZ  -0.000000   0.000000   0.000000   0.000000  -0.000000
   56  H  2  S    0.025280   0.000000   0.000000  -0.133725  -0.018513
   57  H  2  S    0.072687   0.000000   0.000000  -0.321266  -0.162906
   58  H  2  S   -1.010980   0.000000   0.000000   5.004359   1.471193
   59  H  2  X   -0.000000  -0.083432   0.000000   0.000000  -0.000000
   60  H  2  Y   -0.000000   0.000000  -0.083432   0.000000  -0.000000
   61  H  2  Z   -0.069161   0.000000   0.000000  -0.012814   0.032044
   62  H  2  X   -0.000000   1.301679   0.000000   0.000000  -0.000000
   63  H  2  Y   -0.000000   0.000000   1.301679   0.000000  -0.000000
   64  H  2  Z    1.084663   0.000000   0.000000   0.220768  -0.515261
   65  H  2 XX    0.041050   0.000000   0.000000  -0.217753  -0.051112
   66  H  2 YY    0.041050   0.000000   0.000000  -0.217753  -0.051112
   67  H  2 ZZ    0.046598   0.000000   0.000000  -0.218274  -0.045545
   68  H  2 XY   -0.000000   0.000000   0.000000   0.000000  -0.000000
   69  H  2 XZ   -0.000000   0.001850   0.000000   0.000000  -0.000000
   70  H  2 YZ   -0.000000   0.000000   0.001850   0.000000  -0.000000
   71  H  2  S    0.132676   0.000000   0.000000  -0.613698  -0.330293
   72  H  2  X   -0.000000  -0.728216   0.000000   0.000000  -0.000000
   73  H  2  Y   -0.000000   0.000000  -0.728216   0.000000  -0.000000
   74  H  2  Z   -0.595154   0.000000   0.000000  -0.132027   0.371718
   75  H  2 XX    0.408784   0.000000   0.000000  -1.950245  -0.461160
   76  H  2 YY    0.408784   0.000000   0.000000  -1.950245  -0.461160
   77  H  2 ZZ    0.336270   0.000000   0.000000  -1.932393  -0.645593
   78  H  2 XY   -0.000000   0.000000   0.000000   0.000000  -0.000000
   79  H  2 XZ   -0.000000  -0.006640   0.000000   0.000000  -0.000000
   80  H  2 YZ   -0.000000   0.000000  -0.006640   0.000000  -0.000000

                     26         27         28         29         30
                    0.9685     0.9685     0.9756     0.9756     0.9891
                     B1         B2         A1         A2         A1  
    1  F  1  S    0.000000   0.000000   0.000000   0.000000   0.080390
    2  F  1  S    0.000000   0.000000   0.000000   0.000000   0.094742
    3  F  1  S    0.000000   0.000000   0.000000   0.000000   0.139156
    4  F  1  S    0.000000   0.000000   0.000000   0.000000  -0.693618
    5  F  1  X   -0.022487   0.000000   0.000000   0.000000  -0.000000
    6  F  1  Y    0.000000  -0.022487   0.000000   0.000000  -0.000000
    7  F  1  Z    0.000000   0.000000   0.000000   0.000000   0.126875
    8  F  1  X   -0.013413   0.000000   0.000000   0.000000  -0.000000
    9  F  1  Y    0.000000  -0.013413   0.000000   0.000000  -0.000000
   10  F  1  Z    0.000000   0.000000   0.000000   0.000000   0.084620
   11  F  1  X    0.152013   0.000000   0.000000   0.000000  -0.000000
   12  F  1  Y    0.000000   0.152013   0.000000   0.000000  -0.000000
   13  F  1  Z    0.000000   0.000000   0.000000   0.000000  -0.764186
   14  F  1 XX    0.000000   0.000000  -0.036720   0.000000   0.019958
   15  F  1 YY    0.000000   0.000000   0.036720   0.000000   0.019958
   16  F  1 ZZ    0.000000   0.000000   0.000000   0.000000  -0.031500
   17  F  1 XY    0.000000   0.000000   0.000000   0.042400  -0.000000
   18  F  1 XZ    0.041722   0.000000   0.000000   0.000000  -0.000000
   19  F  1 YZ    0.000000   0.041722   0.000000   0.000000  -0.000000
   20  F  1 XX    0.000000   0.000000   0.118422   0.000000   0.116234
   21  F  1 YY    0.000000   0.000000  -0.118422   0.000000   0.116234
   22  F  1 ZZ    0.000000   0.000000   0.000000   0.000000   0.279005
   23  F  1 XY    0.000000   0.000000   0.000000  -0.136742  -0.000000
   24  F  1 XZ   -0.136543   0.000000   0.000000   0.000000  -0.000000
   25  F  1 YZ    0.000000  -0.136543   0.000000   0.000000  -0.000000
   26  F  1 XXX  -0.010513   0.000000   0.000000   0.000000  -0.000000
   27  F  1 YYY   0.000000  -0.010513   0.000000   0.000000  -0.000000
   28  F  1 ZZZ   0.000000   0.000000   0.000000   0.000000   0.056599
   29  F  1 XXY   0.000000  -0.004702   0.000000   0.000000  -0.000000
   30  F  1 XXZ   0.000000   0.000000   0.000196   0.000000   0.024692
   31  F  1 YYX  -0.004702   0.000000   0.000000   0.000000  -0.000000
   32  F  1 YYZ   0.000000   0.000000  -0.000196   0.000000   0.024692
   33  F  1 ZZX  -0.005239   0.000000   0.000000   0.000000  -0.000000
   34  F  1 ZZY   0.000000  -0.005239   0.000000   0.000000  -0.000000
   35  F  1 XYZ   0.000000   0.000000   0.000000  -0.000226  -0.000000
   36  F  1  S    0.000000   0.000000   0.000000   0.000000  -0.662136
   37  F  1  X   -0.046791   0.000000   0.000000   0.000000  -0.000000
   38  F  1  Y    0.000000  -0.046791   0.000000   0.000000  -0.000000
   39  F  1  Z    0.000000   0.000000   0.000000   0.000000   0.140084
   40  F  1 XX    0.000000   0.000000  -0.930631   0.000000   0.897803
   41  F  1 YY    0.000000   0.000000   0.930631   0.000000   0.897803
   42  F  1 ZZ    0.000000   0.000000   0.000000   0.000000  -0.438454
   43  F  1 XY    0.000000   0.000000   0.000000   1.074600  -0.000000
   44  F  1 XZ    1.071700   0.000000   0.000000   0.000000  -0.000000
   45  F  1 YZ    0.000000   1.071700   0.000000   0.000000  -0.000000
   46  F  1 XXX  -0.049772   0.000000   0.000000   0.000000  -0.000000
   47  F  1 YYY   0.000000  -0.049772   0.000000   0.000000  -0.000000
   48  F  1 ZZZ   0.000000   0.000000   0.000000   0.000000   0.253407
   49  F  1 XXY   0.000000  -0.022259   0.000000   0.000000  -0.000000
   50  F  1 XXZ   0.000000   0.000000  -0.000924   0.000000   0.114069
   51  F  1 YYX  -0.022259   0.000000   0.000000   0.000000  -0.000000
   52  F  1 YYZ   0.000000   0.000000   0.000924   0.000000   0.114069
   53  F  1 ZZX  -0.020119   0.000000   0.000000   0.000000  -0.000000
   54  F  1 ZZY   0.000000  -0.020119   0.000000   0.000000  -0.000000
   55  F  1 XYZ   0.000000   0.000000   0.000000   0.001067  -0.000000
   56  H  2  S    0.000000   0.000000   0.000000   0.000000  -0.016983
   57  H  2  S    0.000000   0.000000   0.000000   0.000000  -0.190082
   58  H  2  S    0.000000   0.000000   0.000000   0.000000   1.499287
   59  H  2  X   -0.003254   0.000000   0.000000   0.000000  -0.000000
   60  H  2  Y    0.000000  -0.003254   0.000000   0.000000  -0.000000
   61  H  2  Z    0.000000   0.000000   0.000000   0.000000  -0.018488
   62  H  2  X    0.062892   0.000000   0.000000   0.000000  -0.000000
   63  H  2  Y    0.000000   0.062892   0.000000   0.000000  -0.000000
   64  H  2  Z    0.000000   0.000000   0.000000   0.000000   0.373680
   65  H  2 XX    0.000000   0.000000  -0.000009   0.000000  -0.050084
   66  H  2 YY    0.000000   0.000000   0.000009   0.000000  -0.050084
   67  H  2 ZZ    0.000000   0.000000   0.000000   0.000000  -0.050429
   68  H  2 XY    0.000000   0.000000   0.000000   0.000011  -0.000000
   69  H  2 XZ   -0.000035   0.000000   0.000000   0.000000  -0.000000
   70  H  2 YZ    0.000000  -0.000035   0.000000   0.000000  -0.000000
   71  H  2  S    0.000000   0.000000   0.000000   0.000000  -0.142599
   72  H  2  X   -0.044269   0.000000   0.000000   0.000000  -0.000000
   73  H  2  Y    0.000000  -0.044269   0.000000   0.000000  -0.000000
   74  H  2  Z    0.000000   0.000000   0.000000   0.000000  -0.269033
   75  H  2 XX    0.000000   0.000000   0.000453   0.000000  -0.590854
   76  H  2 YY    0.000000   0.000000  -0.000453   0.000000  -0.590854
   77  H  2 ZZ    0.000000   0.000000   0.000000   0.000000  -0.515125
   78  H  2 XY    0.000000   0.000000   0.000000  -0.000523  -0.000000
   79  H  2 XZ    0.006079   0.000000   0.000000   0.000000  -0.000000
   80  H  2 YZ    0.000000   0.006079   0.000000   0.000000  -0.000000

                     31         32         33         34         35
                    1.0305     1.0305     1.0804     2.7510     2.8433
                     B1         B2         A1         A1         B1  
    1  F  1  S    0.000000   0.000000   0.055833   0.087453  -0.000000
    2  F  1  S    0.000000   0.000000   0.061664   0.209332  -0.000000
    3  F  1  S    0.000000   0.000000   0.080709   0.198947  -0.000000
    4  F  1  S    0.000000   0.000000  -0.350433  -0.962499  -0.000000
    5  F  1  X   -0.356780   0.000000  -0.000000  -0.000000   0.173884
    6  F  1  Y    0.000000  -0.356780  -0.000000  -0.000000  -0.000000
    7  F  1  Z    0.000000   0.000000  -0.338236   0.006966  -0.000000
    8  F  1  X   -0.232378   0.000000  -0.000000  -0.000000   0.989265
    9  F  1  Y    0.000000  -0.232378  -0.000000  -0.000000  -0.000000
   10  F  1  Z    0.000000   0.000000  -0.253683   0.062110  -0.000000
   11  F  1  X    2.466209   0.000000  -0.000000  -0.000000   2.361078
   12  F  1  Y    0.000000   2.466209  -0.000000  -0.000000  -0.000000
   13  F  1  Z    0.000000   0.000000   2.390102   0.165426  -0.000000
   14  F  1 XX    0.000000   0.000000   0.004394   0.005469  -0.000000
   15  F  1 YY    0.000000   0.000000   0.004394   0.005469  -0.000000
   16  F  1 ZZ    0.000000   0.000000  -0.009849   0.006305  -0.000000
   17  F  1 XY    0.000000   0.000000  -0.000000  -0.000000  -0.000000
   18  F  1 XZ   -0.002455   0.000000  -0.000000  -0.000000   0.000264
   19  F  1 YZ    0.000000  -0.002455  -0.000000  -0.000000  -0.000000
   20  F  1 XX    0.000000   0.000000   0.086521   0.276062  -0.000000
   21  F  1 YY    0.000000   0.000000   0.086521   0.276062  -0.000000
   22  F  1 ZZ    0.000000   0.000000   0.123209   0.008535  -0.000000
   23  F  1 XY    0.000000   0.000000  -0.000000  -0.000000  -0.000000
   24  F  1 XZ    0.007018   0.000000  -0.000000  -0.000000  -0.019432
   25  F  1 YZ    0.000000   0.007018  -0.000000  -0.000000  -0.000000
   26  F  1 XXX  -0.165797   0.000000  -0.000000  -0.000000  -0.374590
   27  F  1 YYY   0.000000  -0.165797  -0.000000  -0.000000  -0.000000
   28  F  1 ZZZ   0.000000   0.000000  -0.154798  -0.031212  -0.000000
   29  F  1 XXY   0.000000  -0.074147  -0.000000  -0.000000  -0.000000
   30  F  1 XXZ   0.000000   0.000000  -0.066853  -0.006246  -0.000000
   31  F  1 YYX  -0.074147   0.000000  -0.000000  -0.000000  -0.167522
   32  F  1 YYZ   0.000000   0.000000  -0.066853  -0.006246  -0.000000
   33  F  1 ZZX  -0.076242   0.000000  -0.000000  -0.000000  -0.156584
   34  F  1 ZZY   0.000000  -0.076242  -0.000000  -0.000000  -0.000000
   35  F  1 XYZ   0.000000   0.000000  -0.000000  -0.000000  -0.000000
   36  F  1  S    0.000000   0.000000  -0.632367  -0.135796  -0.000000
   37  F  1  X   -0.748513   0.000000  -0.000000  -0.000000  -0.436736
   38  F  1  Y    0.000000  -0.748513  -0.000000  -0.000000  -0.000000
   39  F  1  Z    0.000000   0.000000  -0.883557  -0.066772  -0.000000
   40  F  1 XX    0.000000   0.000000   0.467456   0.203856  -0.000000
   41  F  1 YY    0.000000   0.000000   0.467456   0.203856  -0.000000
   42  F  1 ZZ    0.000000   0.000000   0.088462   0.302495  -0.000000
   43  F  1 XY    0.000000   0.000000  -0.000000  -0.000000  -0.000000
   44  F  1 XZ   -0.062025   0.000000  -0.000000  -0.000000   0.010203
   45  F  1 YZ    0.000000  -0.062025  -0.000000  -0.000000  -0.000000
   46  F  1 XXX  -0.776471   0.000000  -0.000000  -0.000000  -1.896159
   47  F  1 YYY   0.000000  -0.776471  -0.000000  -0.000000  -0.000000
   48  F  1 ZZZ   0.000000   0.000000  -0.732047  -0.073482  -0.000000
   49  F  1 XXY   0.000000  -0.347248  -0.000000  -0.000000  -0.000000
   50  F  1 XXZ   0.000000   0.000000  -0.331932  -0.079534  -0.000000
   51  F  1 YYX  -0.347248   0.000000  -0.000000  -0.000000  -0.847988
   52  F  1 YYZ   0.000000   0.000000  -0.331932  -0.079534  -0.000000
   53  F  1 ZZX  -0.343860   0.000000  -0.000000  -0.000000  -0.915098
   54  F  1 ZZY   0.000000  -0.343860  -0.000000  -0.000000  -0.000000
   55  F  1 XYZ   0.000000   0.000000  -0.000000  -0.000000  -0.000000
   56  H  2  S    0.000000   0.000000  -0.020180  -2.573721  -0.000000
   57  H  2  S    0.000000   0.000000  -0.090959   4.129099  -0.000000
   58  H  2  S    0.000000   0.000000   0.469987   4.470703  -0.000000
   59  H  2  X    0.004638   0.000000  -0.000000  -0.000000  -0.007802
   60  H  2  Y    0.000000   0.004638  -0.000000  -0.000000  -0.000000
   61  H  2  Z    0.000000   0.000000  -0.017777   0.001024  -0.000000
   62  H  2  X   -0.092542   0.000000  -0.000000  -0.000000  -0.005982
   63  H  2  Y    0.000000  -0.092542  -0.000000  -0.000000  -0.000000
   64  H  2  Z    0.000000   0.000000   0.349323   0.004803  -0.000000
   65  H  2 XX    0.000000   0.000000  -0.016144  -0.992984  -0.000000
   66  H  2 YY    0.000000   0.000000  -0.016144  -0.992984  -0.000000
   67  H  2 ZZ    0.000000   0.000000  -0.020169  -0.987325  -0.000000
   68  H  2 XY    0.000000   0.000000  -0.000000  -0.000000  -0.000000
   69  H  2 XZ    0.000797   0.000000  -0.000000  -0.000000  -0.009014
   70  H  2 YZ    0.000000   0.000797  -0.000000  -0.000000  -0.000000
   71  H  2  S    0.000000   0.000000   0.094188  -0.470020  -0.000000
   72  H  2  X    0.080281   0.000000  -0.000000  -0.000000   0.018137
   73  H  2  Y    0.000000   0.080281  -0.000000  -0.000000  -0.000000
   74  H  2  Z    0.000000   0.000000  -0.375369  -0.014943  -0.000000
   75  H  2 XX    0.000000   0.000000  -0.249575  -2.370487  -0.000000
   76  H  2 YY    0.000000   0.000000  -0.249575  -2.370487  -0.000000
   77  H  2 ZZ    0.000000   0.000000   0.011313  -2.362931  -0.000000
   78  H  2 XY    0.000000   0.000000  -0.000000  -0.000000  -0.000000
   79  H  2 XZ   -0.045203   0.000000  -0.000000  -0.000000  -0.006665
   80  H  2 YZ    0.000000  -0.045203  -0.000000  -0.000000  -0.000000

                     36         37         38         39         40
                    2.8433     2.8549     2.9469     2.9534     2.9534
                     B2         A1         A1         B1         B2  
    1  F  1  S   -0.000000  -0.230597  -0.749160   0.000000   0.000000
    2  F  1  S   -0.000000  -0.556443  -1.814597   0.000000   0.000000
    3  F  1  S   -0.000000  -0.494980  -1.501769   0.000000   0.000000
    4  F  1  S   -0.000000   2.417470   7.254244   0.000000   0.000000
    5  F  1  X   -0.000000   0.000000   0.000000   0.002387   0.000000
    6  F  1  Y    0.173884   0.000000   0.000000   0.000000   0.002387
    7  F  1  Z   -0.000000   0.175527  -0.014183   0.000000   0.000000
    8  F  1  X   -0.000000   0.000000   0.000000   0.014910   0.000000
    9  F  1  Y    0.989265   0.000000   0.000000   0.000000   0.014910
   10  F  1  Z   -0.000000   0.966826  -0.057048   0.000000   0.000000
   11  F  1  X   -0.000000   0.000000   0.000000   0.038902   0.000000
   12  F  1  Y    2.361078   0.000000   0.000000   0.000000   0.038902
   13  F  1  Z   -0.000000   2.360134  -0.193756   0.000000   0.000000
   14  F  1 XX   -0.000000  -0.010578  -0.019471   0.000000   0.000000
   15  F  1 YY   -0.000000  -0.010578  -0.019471   0.000000   0.000000
   16  F  1 ZZ   -0.000000  -0.010742  -0.018205   0.000000   0.000000
   17  F  1 XY   -0.000000   0.000000   0.000000   0.000000   0.000000
   18  F  1 XZ   -0.000000   0.000000   0.000000   0.003332   0.000000
   19  F  1 YZ    0.000264   0.000000   0.000000   0.000000   0.003332
   20  F  1 XX   -0.000000  -0.422100  -1.794241   0.000000   0.000000
   21  F  1 YY   -0.000000  -0.422100  -1.794241   0.000000   0.000000
   22  F  1 ZZ   -0.000000  -0.505850  -0.311161   0.000000   0.000000
   23  F  1 XY   -0.000000   0.000000   0.000000   0.000000   0.000000
   24  F  1 XZ   -0.000000   0.000000   0.000000   1.263916   0.000000
   25  F  1 YZ   -0.019432   0.000000   0.000000   0.000000   1.263916
   26  F  1 XXX  -0.000000   0.000000   0.000000  -0.004766   0.000000
   27  F  1 YYY  -0.374590   0.000000   0.000000   0.000000  -0.004766
   28  F  1 ZZZ  -0.000000  -0.349536   0.016063   0.000000   0.000000
   29  F  1 XXY  -0.167522   0.000000   0.000000   0.000000  -0.002131
   30  F  1 XXZ  -0.000000  -0.167136   0.014967   0.000000   0.000000
   31  F  1 YYX  -0.000000   0.000000   0.000000  -0.002131   0.000000
   32  F  1 YYZ  -0.000000  -0.167136   0.014967   0.000000   0.000000
   33  F  1 ZZX  -0.000000   0.000000   0.000000  -0.004420   0.000000
   34  F  1 ZZY  -0.156584   0.000000   0.000000   0.000000  -0.004420
   35  F  1 XYZ  -0.000000   0.000000   0.000000   0.000000   0.000000
   36  F  1  S   -0.000000   0.344350   1.332432   0.000000   0.000000
   37  F  1  X   -0.000000   0.000000   0.000000  -0.007206   0.000000
   38  F  1  Y   -0.436736   0.000000   0.000000   0.000000  -0.007206
   39  F  1  Z   -0.000000  -0.472308   0.060150   0.000000   0.000000
   40  F  1 XX   -0.000000  -0.592755  -1.590081   0.000000   0.000000
   41  F  1 YY   -0.000000  -0.592755  -1.590081   0.000000   0.000000
   42  F  1 ZZ   -0.000000  -0.554004  -2.410054   0.000000   0.000000
   43  F  1 XY   -0.000000   0.000000   0.000000   0.000000   0.000000
   44  F  1 XZ   -0.000000   0.000000   0.000000  -0.695550   0.000000
   45  F  1 YZ    0.010203   0.000000   0.000000   0.000000  -0.695550
   46  F  1 XXX  -0.000000   0.000000   0.000000  -0.039302   0.000000
   47  F  1 YYY  -1.896159   0.000000   0.000000   0.000000  -0.039302
   48  F  1 ZZZ  -0.000000  -1.958681   0.188324   0.000000   0.000000
   49  F  1 XXY  -0.847988   0.000000   0.000000   0.000000  -0.017576
   50  F  1 XXZ  -0.000000  -0.809292   0.030295   0.000000   0.000000
   51  F  1 YYX  -0.000000   0.000000   0.000000  -0.017576   0.000000
   52  F  1 YYZ  -0.000000  -0.809292   0.030295   0.000000   0.000000
   53  F  1 ZZX  -0.000000   0.000000   0.000000   0.001086   0.000000
   54  F  1 ZZY  -0.915098   0.000000   0.000000   0.000000   0.001086
   55  F  1 XYZ  -0.000000   0.000000   0.000000   0.000000   0.000000
   56  H  2  S   -0.000000   0.113094  -0.435485   0.000000   0.000000
   57  H  2  S   -0.000000  -0.210190   0.628118   0.000000   0.000000
   58  H  2  S   -0.000000  -0.110538   0.909706   0.000000   0.000000
   59  H  2  X   -0.000000   0.000000   0.000000  -0.004821   0.000000
   60  H  2  Y   -0.007802   0.000000   0.000000   0.000000  -0.004821
   61  H  2  Z   -0.000000   0.011588  -0.006260   0.000000   0.000000
   62  H  2  X   -0.000000   0.000000   0.000000  -0.001521   0.000000
   63  H  2  Y   -0.005982   0.000000   0.000000   0.000000  -0.001521
   64  H  2  Z   -0.000000   0.017568  -0.011353   0.000000   0.000000
   65  H  2 XX   -0.000000   0.029962  -0.144837   0.000000   0.000000
   66  H  2 YY   -0.000000   0.029962  -0.144837   0.000000   0.000000
   67  H  2 ZZ   -0.000000   0.061125  -0.174654   0.000000   0.000000
   68  H  2 XY   -0.000000   0.000000   0.000000   0.000000   0.000000
   69  H  2 XZ   -0.000000   0.000000   0.000000  -0.001774   0.000000
   70  H  2 YZ   -0.009014   0.000000   0.000000   0.000000  -0.001774
   71  H  2  S   -0.000000   0.044563  -0.164000   0.000000   0.000000
   72  H  2  X   -0.000000   0.000000   0.000000   0.005847   0.000000
   73  H  2  Y    0.018137   0.000000   0.000000   0.000000   0.005847
   74  H  2  Z   -0.000000  -0.062514   0.038951   0.000000   0.000000
   75  H  2 XX   -0.000000   0.074669  -0.430478   0.000000   0.000000
   76  H  2 YY   -0.000000   0.074669  -0.430478   0.000000   0.000000
   77  H  2 ZZ   -0.000000   0.103640  -0.450107   0.000000   0.000000
   78  H  2 XY   -0.000000   0.000000   0.000000   0.000000   0.000000
   79  H  2 XZ   -0.000000   0.000000   0.000000  -0.000593   0.000000
   80  H  2 YZ   -0.006665   0.000000   0.000000   0.000000  -0.000593

                     41         42         43         44         45
                    2.9631     2.9631     2.9782     3.0160     3.0173
                     A1         A2         A1         A1         B1  
    1  F  1  S   -0.000000  -0.000000  -0.982706  -0.015485   0.000000
    2  F  1  S   -0.000000  -0.000000  -2.373516  -0.037066   0.000000
    3  F  1  S   -0.000000  -0.000000  -1.957206  -0.031669   0.000000
    4  F  1  S   -0.000000  -0.000000   9.457021   0.153080   0.000000
    5  F  1  X   -0.000000  -0.000000  -0.000000   0.000000   0.006937
    6  F  1  Y   -0.000000  -0.000000  -0.000000   0.000000   0.000000
    7  F  1  Z   -0.000000  -0.000000  -0.034155   0.007679   0.000000
    8  F  1  X   -0.000000  -0.000000  -0.000000   0.000000   0.045576
    9  F  1  Y   -0.000000  -0.000000  -0.000000   0.000000   0.000000
   10  F  1  Z   -0.000000  -0.000000  -0.147707   0.051685   0.000000
   11  F  1  X   -0.000000  -0.000000  -0.000000   0.000000   0.100536
   12  F  1  Y   -0.000000  -0.000000  -0.000000   0.000000   0.000000
   13  F  1  Z   -0.000000  -0.000000  -0.522538   0.101775   0.000000
   14  F  1 XX    0.003708  -0.000000  -0.021160  -0.000292   0.000000
   15  F  1 YY   -0.003708  -0.000000  -0.021160  -0.000292   0.000000
   16  F  1 ZZ   -0.000000  -0.000000  -0.027561  -0.000894   0.000000
   17  F  1 XY   -0.000000   0.004282  -0.000000   0.000000   0.000000
   18  F  1 XZ   -0.000000  -0.000000  -0.000000   0.000000  -0.000163
   19  F  1 YZ   -0.000000  -0.000000  -0.000000   0.000000   0.000000
   20  F  1 XX    1.094218  -0.000000  -1.315903   0.004492   0.000000
   21  F  1 YY   -1.094218  -0.000000  -1.315903   0.004492   0.000000
   22  F  1 ZZ   -0.000000  -0.000000  -2.460724  -0.093693   0.000000
   23  F  1 XY   -0.000000   1.263495  -0.000000   0.000000   0.000000
   24  F  1 XZ   -0.000000  -0.000000  -0.000000   0.000000  -0.016702
   25  F  1 YZ   -0.000000  -0.000000  -0.000000   0.000000   0.000000
   26  F  1 XXX  -0.000000  -0.000000  -0.000000   0.000000   0.079539
   27  F  1 YYY  -0.000000  -0.000000  -0.000000   0.000000   0.000000
   28  F  1 ZZZ  -0.000000  -0.000000   0.066198  -0.175456   0.000000
   29  F  1 XXY  -0.000000  -0.000000  -0.000000   0.000000   0.000000
   30  F  1 XXZ  -0.001368  -0.000000   0.023981   0.097009   0.000000
   31  F  1 YYX  -0.000000  -0.000000  -0.000000   0.000000   0.035571
[...]
   49  F  1 XXY   0.000000  -2.134275   0.000000  -0.000000   0.000000
   50  F  1 XXZ   0.002915   0.000000   0.000000  -2.159806   0.022514
   51  F  1 YYX   0.000000   0.000000  -2.134275  -0.000000   0.000000
   52  F  1 YYZ   0.002915   0.000000   0.000000  -2.159806   0.022514
   53  F  1 ZZX   0.000000   0.000000  -2.134939  -0.000000   0.000000
   54  F  1 ZZY   0.000000  -2.134939   0.000000  -0.000000   0.000000
   55  F  1 XYZ   0.000000   0.000000   0.000000  -0.000000   0.000000
   56  H  2  S   -0.004859   0.000000   0.000000   0.004469  -0.005830
   57  H  2  S    0.011418   0.000000   0.000000  -0.044936   0.012336
   58  H  2  S    0.011686   0.000000   0.000000   0.053807   0.030222
   59  H  2  X    0.000000   0.000000   0.004330  -0.000000   0.000000
   60  H  2  Y    0.000000   0.004330   0.000000  -0.000000   0.000000
   61  H  2  Z   -0.002274   0.000000   0.000000  -0.013748   0.005433
   62  H  2  X    0.000000   0.000000  -0.010930  -0.000000   0.000000
   63  H  2  Y    0.000000  -0.010930   0.000000  -0.000000   0.000000
   64  H  2  Z    0.004881   0.000000   0.000000   0.039281  -0.015230
   65  H  2 XX   -0.003502   0.000000   0.000000   0.011135  -0.006705
   66  H  2 YY   -0.003502   0.000000   0.000000   0.011135  -0.006705
   67  H  2 ZZ   -0.004138   0.000000   0.000000  -0.007014  -0.000825
   68  H  2 XY    0.000000   0.000000   0.000000  -0.000000   0.000000
   69  H  2 XZ    0.000000   0.000000   0.003379  -0.000000   0.000000
   70  H  2 YZ    0.000000   0.003379   0.000000  -0.000000   0.000000
   71  H  2  S    0.003913   0.000000   0.000000   0.046325  -0.031763
   72  H  2  X    0.000000   0.000000   0.016550  -0.000000   0.000000
   73  H  2  Y    0.000000   0.016550   0.000000  -0.000000   0.000000
   74  H  2  Z   -0.004861   0.000000   0.000000  -0.079268   0.026657
   75  H  2 XX   -0.007962   0.000000   0.000000  -0.025976  -0.003980
   76  H  2 YY   -0.007962   0.000000   0.000000  -0.025976  -0.003980
   77  H  2 ZZ   -0.007109   0.000000   0.000000   0.020744  -0.018893
   78  H  2 XY    0.000000   0.000000   0.000000  -0.000000   0.000000
   79  H  2 XZ    0.000000   0.000000  -0.008027  -0.000000   0.000000
   80  H  2 YZ    0.000000  -0.008027   0.000000  -0.000000   0.000000
 ...... END OF RHF CALCULATION ......
 STEP CPU TIME =     0.36 TOTAL CPU TIME =        0.6 (    0.0 MIN)
 TOTAL WALL CLOCK TIME=        0.5 SECONDS, CPU UTILIZATION IS 100.00%

     ----------------------------------------------------------------
     PROPERTY VALUES FOR THE RHF   SELF-CONSISTENT FIELD WAVEFUNCTION
     ----------------------------------------------------------------

          ---------------------------------------
          MULLIKEN AND LOWDIN POPULATION ANALYSES
          ---------------------------------------

               ----- POPULATIONS IN EACH AO -----
                             MULLIKEN      LOWDIN
              1  F  1  S      1.94132     1.57529
              2  F  1  S      1.07900     0.61914
              3  F  1  S      0.27209     0.41923
              4  F  1  S      0.70402     0.29904
              5  F  1  X      0.58129     0.52240
              6  F  1  Y      0.58129     0.52240
              7  F  1  Z      0.35916     0.32276
              8  F  1  X      0.81345     0.38355
              9  F  1  Y      0.81345     0.38355
             10  F  1  Z      0.53520     0.25190
             11  F  1  X      0.48427     0.27066
             12  F  1  Y      0.48427     0.27066
             13  F  1  Z      0.39615     0.22283
             14  F  1 XX      0.00276     0.16057
             15  F  1 YY      0.00276     0.16057
             16  F  1 ZZ      0.00176     0.15956
             17  F  1 XY      0.00000     0.00000
             18  F  1 XZ      0.00000     0.00000
             19  F  1 YZ      0.00000     0.00000
             20  F  1 XX     -0.00468     0.15195
             21  F  1 YY     -0.00468     0.15195
             22  F  1 ZZ     -0.00625     0.15043
             23  F  1 XY      0.00000     0.00000
             24  F  1 XZ      0.00000     0.00000
             25  F  1 YZ      0.00000     0.00000
             26  F  1 XXX     0.02357     0.24098
             27  F  1 YYY     0.02357     0.24098
             28  F  1 ZZZ     0.01683     0.15895
             29  F  1 XXY     0.00786     0.10519
             30  F  1 XXZ     0.00418     0.06798
             31  F  1 YYX     0.00786     0.10519
             32  F  1 YYZ     0.00418     0.06798
             33  F  1 ZZX     0.01019     0.10708
             34  F  1 ZZY     0.01019     0.10708
             35  F  1 XYZ     0.00000     0.00000
             36  F  1  S      0.03028     0.07423
             37  F  1  X      0.03755     0.05866
             38  F  1  Y      0.03755     0.05866
             39  F  1  Z      0.07513     0.08739
             40  F  1 XX     -0.00566     0.02623
             41  F  1 YY     -0.00566     0.02623
             42  F  1 ZZ     -0.00626     0.02586
             43  F  1 XY      0.00000     0.00000
             44  F  1 XZ      0.00001     0.00000
             45  F  1 YZ      0.00001     0.00000
             46  F  1 XXX     0.02384     0.16696
             47  F  1 YYY     0.02384     0.16696
             48  F  1 ZZZ     0.01672     0.12726
             49  F  1 XXY     0.00795     0.07147
             50  F  1 XXZ     0.00372     0.05340
             51  F  1 YYX     0.00795     0.07147
             52  F  1 YYZ     0.00372     0.05340
             53  F  1 ZZX     0.01001     0.07303
             54  F  1 ZZY     0.01001     0.07303
             55  F  1 XYZ     0.00000     0.00000
             56  H  2  S      0.08195     0.08568
             57  H  2  S      0.23024     0.12094
             58  H  2  S      0.25857     0.11198
             59  H  2  X     -0.00000     0.00000
             60  H  2  Y     -0.00000     0.00000
             61  H  2  Z      0.00000     0.00000
             62  H  2  X      0.00000     0.00000
             63  H  2  Y      0.00000     0.00000
             64  H  2  Z      0.00000     0.00002
             65  H  2 XX     -0.00026     0.03682
             66  H  2 YY     -0.00026     0.03682
             67  H  2 ZZ     -0.00030     0.03699
             68  H  2 XY      0.00000     0.00000
             69  H  2 XZ      0.00000     0.00000
             70  H  2 YZ      0.00000     0.00000
             71  H  2  S      0.01810     0.04239
             72  H  2  X     -0.00000     0.00000
             73  H  2  Y     -0.00000     0.00000
             74  H  2  Z      0.00068     0.00066
             75  H  2 XX     -0.00176     0.03732
             76  H  2 YY     -0.00176     0.03732
             77  H  2 ZZ     -0.00102     0.03895
             78  H  2 XY      0.00000     0.00000
             79  H  2 XZ     -0.00000     0.00000
             80  H  2 YZ     -0.00000     0.00000

          ----- MULLIKEN ATOMIC OVERLAP POPULATIONS -----
          (OFF-DIAGONAL ELEMENTS NEED TO BE MULTIPLIED BY 2)

             1           2

    1    9.4048213
    2    0.0109883   0.5732021

          TOTAL MULLIKEN AND LOWDIN ATOMIC POPULATIONS
       ATOM         MULL.POP.    CHARGE          LOW.POP.     CHARGE
    1 FLUORINE      9.415810   -0.415810         9.414113   -0.414113
    2 HYDROGEN      0.584190    0.415810         0.585887    0.414113

          -------------------------------
          BOND ORDER AND VALENCE ANALYSIS     BOND ORDER THRESHOLD=0.050
          -------------------------------

                   BOND                       BOND                       BOND
  ATOM PAIR DIST  ORDER      ATOM PAIR DIST  ORDER      ATOM PAIR DIST  ORDER
    1   2  4.585  0.827

                       TOTAL       BONDED        FREE
      ATOM            VALENCE     VALENCE     VALENCE
    1 FLUORINE          0.827       0.827      -0.000
    2 HYDROGEN          0.827       0.827      -0.000

          ---------------------
          ELECTROSTATIC MOMENTS
          ---------------------

 POINT   1           X           Y           Z (BOHR)    CHARGE
                 0.000000    0.000000    0.436454       -0.00 (A.U.)
         DX          DY          DZ         /D/  (DEBYE)
     0.000000    0.000000    9.085135    9.085135
 ...... END OF PROPERTY EVALUATION ......
 STEP CPU TIME =     0.00 TOTAL CPU TIME =        0.6 (    0.0 MIN)
 TOTAL WALL CLOCK TIME=        0.6 SECONDS, CPU UTILIZATION IS  98.21%

     ---------------------------
     COUPLED CLUSTER CALCULATION
     ---------------------------
 CCTYP                        =CR-CC   
 TOTAL NUMBER OF MOS          =    80
 NUMBER OF OCCUPIED MOS       =     5
 NUMBER OF FROZEN CORE MOS    =     1
 NUMBER OF FROZEN VIRTUAL MOS =     0
 MAXIMUM CC ITERATIONS        =    50
 MAXIMUM DIIS ITERATIONS      =     5
 CONVERGENCE CRITERION FOR CC =    10
 AMPLITUDE ACCURACY THRESHOLD = 0.0E+00
 MAXIMUM MEMORY USAGE IN CC   =     3000000

     --------------------------------------------
     PARTIAL TWO ELECTRON INTEGRAL TRANSFORMATION
     --------------------------------------------

 NUMBER OF CORE MOLECULAR ORBITALS     =    1
 NUMBER OF OCCUPIED MOLECULAR ORBITALS =   80
 TOTAL NUMBER OF MOLECULAR ORBITALS    =   80
 TOTAL NUMBER OF ATOMIC ORBITALS       =   80
 THRESHOLD FOR KEEPING TRANSFORMED 2E- INTEGRALS = 1.000E-15
 AO INTEGRALS WILL BE READ IN FROM DISK...
 EVALUATING THE FROZEN CORE ENERGY...
 ----- FROZEN CORE ENERGY =       -75.7089646280

 PLAN A: REQUIREMENTS FOR FULLY IN-MEMORY TRANSFORMATION:
 # OF WORDS AVAILABLE =             25000000
 # OF WORDS NEEDED    =             20568962

 CHOOSING IN MEMORY PARTIAL TRANSFORMATION...
 TOTAL NUMBER OF TRANSFORMED 2E- INTEGRALS KEPT =      1149638
 ... END OF INTEGRAL TRANSFORMATION ...
 STEP CPU TIME =     1.65 TOTAL CPU TIME =        2.2 (    0.0 MIN)
 TOTAL WALL CLOCK TIME=        2.2 SECONDS, CPU UTILIZATION IS 100.00%

   -----------------------
   COUPLED-CLUSTER PROGRAM
   -----------------------

   -------------------------------------------------------
   P.PIECUCH, S.A.KUCHARSKI, M.WLOCH, K.KOWALSKI, M.MUSIAL
   -------------------------------------------------------

 *****************************************************************
 THE FOLLOWING PAPERS SHOULD BE CITED WHEN USING COUPLED-CLUSTER
 OPTIONS:

 CCTYP = LCCD, CCD, CCSD, CCSD(T)
 P. PIECUCH, S.A. KUCHARSKI, K. KOWALSKI, AND M. MUSIAL,
 COMP. PHYS. COMMUN. 149, 71-96 (2002).

 CCTYP = R-CC, CR-CC, CCSD(TQ), CR-CC(Q)
 P. PIECUCH, S.A. KUCHARSKI, K. KOWALSKI, AND M. MUSIAL,
 COMP. PHYS. COMMUN. 149, 71-96 (2002);
 K. KOWALSKI AND P. PIECUCH, J. CHEM. PHYS. 113, 18-35 (2000);
 K. KOWALSKI AND P. PIECUCH, J. CHEM. PHYS. 113, 5644-5652 (2000).

 CCTYP = EOM-CCSD, CR-EOM
 P. PIECUCH, S.A. KUCHARSKI, K. KOWALSKI, AND M. MUSIAL,
 COMP. PHYS. COMMUN. 149, 71-96 (2002);
 K. KOWALSKI AND P. PIECUCH, J. CHEM. PHYS. 120, 1715-1738 (2004);
 M. WLOCH, J.R. GOUR, K. KOWALSKI, AND P. PIECUCH,
 J. CHEM. PHYS. 122, 214107-1 - 214107-15 (2005).

 CCTYP = CR-CCL
 P. PIECUCH, S.A. KUCHARSKI, K. KOWALSKI, AND M. MUSIAL,
 COMP. PHYS. COMMUN. 149, 71-96 (2002);
 P. PIECUCH AND M. WLOCH, J. CHEM. PHYS. 123,
 224105-1 - 224105-10 (2005).

 CCTYP = CR-EOML
 P. PIECUCH, S.A. KUCHARSKI, K. KOWALSKI, AND M. MUSIAL,
 COMP. PHYS. COMMUN. 149, 71-96 (2002);
 P. PIECUCH, J. R. GOUR, AND M. WLOCH,
 INT. J. QUANTUM CHEM. 109, 3268-3304 (2009);
 K. KOWALSKI AND P. PIECUCH,
 J. CHEM. PHYS. 120, 1715-1738 (2004).

 IN ADDITION, THE USE OF CCPRP=.TRUE. IN $CCINP AND/OR THE USE
 OF CCPRPE=.TRUE. IN $EOMINP SHOULD REFERENCE

 M. WLOCH, J.R. GOUR, K. KOWALSKI, AND P. PIECUCH,
 J. CHEM. PHYS. 122, 214107-1 - 214107-15 (2005).
 *****************************************************************


 THE FOLLOWING CALCULATIONS WILL BE PERFORMED:
                                                     CCSD   
                                                     CCSD[T]
                                                     CCSD(T)
                                                   R-CCSD[T]
                                                   R-CCSD(T)
                                                  CR-CCSD[T]
                                                  CR-CCSD(T)

 THE FOLLOWING ENERGY WILL BE CONSIDERED THE HIGHEST LEVEL: CR-CCSD(T)
 THE AVAILABLE REPLICATED MEMORY IS     3000000 WORDS.
 CONVERGENCE THRESHOLD:   1.0E-10
 MAXIMUM NUMBER OF ITERATIONS:   50

 MEMORY TO BE USED IN CC INTEGRAL SORTING IS     2983125 WORDS.
 THE MINIMUM MEMORY TO ACCOMPLISH SORTING IS     2139375 WORDS.
      1149638 NON-ZERO TRANSFORMED 2E- INTEGRALS WERE SORTED INTO FILE 72:
           22 [IJ|KL] TYPE,         846 [AJ|KL] TYPE,
         7561 [AB|IJ] TYPE,       11384 [IA|BJ] TYPE,
       201905 [AB|CI] TYPE,      927920 [AB|CD] TYPE.
 TRANSFORMED INTEGRAL FILE  9 WAS READ   15 TIMES.
 ....... DONE WITH CC INTEGRAL PREPARATION .......
 STEP CPU TIME =     0.75 TOTAL CPU TIME =        2.9 (    0.0 MIN)
 TOTAL WALL CLOCK TIME=        3.0 SECONDS, CPU UTILIZATION IS  99.66%

 MEMORY REQUIRED FOR THE CCSD ITERATIONS IS     2480972 WORDS.
 ITER:  1   CCSD    CORR. ENERGY:  -0.0494206607   CONV.:  1.6954E+00
 ITER:  2   CCSD    CORR. ENERGY:  -0.5625960048   CONV.: -1.5681E+00
 ITER:  3   CCSD    CORR. ENERGY:  -0.4879867082   CONV.: -7.4335E-01
 ITER:  4   CCSD    CORR. ENERGY:  -0.4395414814   CONV.: -5.4495E-01
 ITER:  5   CCSD    CORR. ENERGY:  -0.4396522367   CONV.: -5.4518E-01
 ITER:  6   CCSD    CORR. ENERGY:  -0.4406446744   CONV.: -5.5122E-01
 ITER:  7   CCSD    CORR. ENERGY:   0.2221765806   CONV.: -2.1536E+00
 ITER:  8   CCSD    CORR. ENERGY:  -0.3950101635   CONV.:  4.1430E-01
 ITER:  9   CCSD    CORR. ENERGY:  -0.4424762503   CONV.:  2.2182E-01
 ITER: 10   CCSD    CORR. ENERGY:  -0.4516881548   CONV.:  1.1679E-01
 ITER: 11   CCSD    CORR. ENERGY:  -0.4638599472   CONV.:  1.1919E-02
 ITER: 12   CCSD    CORR. ENERGY:  -0.4667720949   CONV.: -1.5357E-02
 ITER: 13   CCSD    CORR. ENERGY:  -0.4652841587   CONV.: -1.1832E-03
 ITER: 14   CCSD    CORR. ENERGY:  -0.4650900019   CONV.: -2.3184E-04
 ITER: 15   CCSD    CORR. ENERGY:  -0.4650105612   CONV.:  1.7646E-04
 ITER: 16   CCSD    CORR. ENERGY:  -0.4650570944   CONV.: -6.2314E-05
 ITER: 17   CCSD    CORR. ENERGY:  -0.4650326817   CONV.:  3.3649E-05
 ITER: 18   CCSD    CORR. ENERGY:  -0.4650397941   CONV.: -2.2265E-05
 ITER: 19   CCSD    CORR. ENERGY:  -0.4650367437   CONV.: -4.7509E-06
 ITER: 20   CCSD    CORR. ENERGY:  -0.4650348179   CONV.:  2.6837E-06
 ITER: 21   CCSD    CORR. ENERGY:  -0.4650353032   CONV.:  2.4180E-07
 ITER: 22   CCSD    CORR. ENERGY:  -0.4650352817   CONV.:  1.3674E-07
 ITER: 23   CCSD    CORR. ENERGY:  -0.4650353506   CONV.: -5.0543E-08
 ITER: 24   CCSD    CORR. ENERGY:  -0.4650353323   CONV.:  3.1549E-08
 ITER: 25   CCSD    CORR. ENERGY:  -0.4650353286   CONV.:  2.4345E-08
 ITER: 26   CCSD    CORR. ENERGY:  -0.4650353415   CONV.: -2.7055E-08
 ITER: 27   CCSD    CORR. ENERGY:  -0.4650353346   CONV.:  1.3899E-08
 ITER: 28   CCSD    CORR. ENERGY:  -0.4650353364   CONV.: -2.2423E-09
 ITER: 29   CCSD    CORR. ENERGY:  -0.4650353356   CONV.:  1.4511E-09
 ITER: 30   CCSD    CORR. ENERGY:  -0.4650353360   CONV.: -5.7857E-10
 ITER: 31   CCSD    CORR. ENERGY:  -0.4650353361   CONV.: -7.2004E-10
 ITER: 32   CCSD    CORR. ENERGY:  -0.4650353358   CONV.:  3.7228E-10
 ITER: 33   CCSD    CORR. ENERGY:  -0.4650353360   CONV.: -2.5889E-10
 ITER: 34   CCSD    CORR. ENERGY:  -0.4650353359   CONV.:  1.8021E-10
 ITER: 35   CCSD    CORR. ENERGY:  -0.4650353360   CONV.: -5.1259E-11
 ITER: 36   CCSD    CORR. ENERGY:  -0.4650353359   CONV.: -5.1259E-11

     THE    CCSD     ITERATIONS HAVE CONVERGED

    MBPT(2) CORRELATION ENERGY:  -0.5495270959
    CCSD    CORRELATION ENERGY:  -0.4650353359

 T1 DIAGNOSTIC        =     0.14287853
 NORM OF THE T1 VECTOR=     0.40412152
 NORM OF THE T2 VECTOR=     1.02865671

 THE FIVE LARGEST T1 AMPLITUDES ARE:
 T1 AMPLITUDE IS  0.380836 FOR I=   5 -> A=   6
 T1 AMPLITUDE IS  0.079588 FOR I=   5 -> A=  14
 T1 AMPLITUDE IS  0.067003 FOR I=   5 -> A=   7
 T1 AMPLITUDE IS -0.046554 FOR I=   5 -> A=  33
 T1 AMPLITUDE IS -0.035874 FOR I=   5 -> A=   8

 THE FIVE LARGEST SPIN-UNIQUE T2 AMPLITUDES ARE:
 T2 AMPLITUDE IS -0.994977 FOR I,J=   5   5 -> A,B=   6   6
 T2 AMPLITUDE IS  0.080678 FOR I,J=   5   5 -> A,B=   6  15
 T2 AMPLITUDE IS -0.056963 FOR I,J=   5   5 -> A,B=   6   7
 T2 AMPLITUDE IS -0.050995 FOR I,J=   5   5 -> A,B=   6  33
 T2 AMPLITUDE IS -0.039736 FOR I,J=   5   5 -> A,B=   6   8
 PRINTED T2(I-ALPHA,J-BETA -> A-ALPHA,B-BETA) VALUES
 EQUAL   T2(J-ALPHA,I-BETA -> B-ALPHA,A-BETA) AMPLITUDES.

 ....... DONE WITH CC AMPLITUDE ITERATIONS .......
 STEP CPU TIME =    46.74 TOTAL CPU TIME =       49.7 (    0.8 MIN)
 TOTAL WALL CLOCK TIME=       49.7 SECONDS, CPU UTILIZATION IS  99.90%
 MEMORY REQUIRED FOR NONITERATIVE TRIPLES  (INTQUA ) IS      2199675 WORDS.
 MEMORY REQUIRED FOR NONITERATIVE TRIPLES  (INTRIPL) IS      3887175 WORDS.
 MEMORY REQUIRED FOR NONITERATIVE TRIPLES  (INTRIP ) IS      2204475 WORDS.
 THERE IS NOT ENOUGH MEMORY TO RUN INTRIPL, CHOOSING INTRIP INSTEAD.
 MEMORY REQUIRED FOR NONITERATIVE TRIPLES  (INTRIH ) IS      2209275 WORDS.
 MEMORY REQUIRED FOR NONITERATIVE TRIPLES (T3WT2N ) IS      4408650 WORDS.
 MEMORY REQUIRED FOR NONITERATIVE TRIPLES (T3SQTOT) IS       602175 WORDS.

                      SUMMARY OF RESULTS

      REFERENCE ENERGY:      -99.6295016507
        MBPT(2) ENERGY:     -100.1790287466   CORR.E=  -0.5495270959
        CCSD    ENERGY:     -100.0945369867   CORR.E=  -0.4650353359
        CCSD[T] ENERGY:     -100.2163933044   CORR.E=  -0.5868916537
        CCSD(T) ENERGY:     -100.2022905382   CORR.E=  -0.5727888875
      R-CCSD[T] ENERGY:     -100.1485872690   CORR.E=  -0.5190856183
      R-CCSD(T) ENERGY:     -100.1421901712   CORR.E=  -0.5126885205
     CR-CCSD[T] ENERGY:     -100.1234072864   CORR.E=  -0.4939056357
     CR-CCSD(T) ENERGY:     -100.1269783526   CORR.E=  -0.4974767019

          R-CCSD[T] DENOMINATOR     2.2544991915
          R-CCSD(T) DENOMINATOR     2.2612035804

 THE FOLLOWING METHOD AND ENERGY WILL BE CONSIDERED THE HIGHEST LEVEL RESULT:
 COUPLED-CLUSTER ENERGY E(CR-CCSD(T)) =     -100.1269783526

 ..... DONE WITH CC NON-ITERATIVE TRIPLES CORRECTIONS .....
 STEP CPU TIME =     5.74 TOTAL CPU TIME =       55.4 (    0.9 MIN)
 TOTAL WALL CLOCK TIME=       55.5 SECONDS, CPU UTILIZATION IS  99.91%
             20568962  WORDS OF DYNAMIC MEMORY USED
 EXECUTION OF GAMESS TERMINATED NORMALLY Wed Aug  9 20:51:37 2017
 DDI: 263640 bytes (0.3 MB / 0 MWords) used by master data server.

 ----------------------------------------
 CPU timing information for all processes
 ========================================
 0: 53.955 + 1.489 = 55.445
 ----------------------------------------
 ddikick.x: exited gracefully.
unset echo
----- accounting info -----
Files used on the master node compute-1-2.local were:
-rw-rw-r-- 1 sarom sarom 3.3K Aug  9 20:50 /scratch/cc-crcc-hf.F05
-rw-rw-r-- 1 sarom sarom  11M Aug  9 20:50 /scratch/cc-crcc-hf.F08
-rw-rw-r-- 1 sarom sarom  14M Aug  9 20:50 /scratch/cc-crcc-hf.F09
-rw-rw-r-- 1 sarom sarom 1.7M Aug  9 20:51 /scratch/cc-crcc-hf.F10
-rw-rw-r-- 1 sarom sarom 633K Aug  9 20:51 /scratch/cc-crcc-hf.F70
-rw-rw-r-- 1 sarom sarom 6.9M Aug  9 20:51 /scratch/cc-crcc-hf.F71
-rw-rw-r-- 1 sarom sarom 557M Aug  9 20:50 /scratch/cc-crcc-hf.F72
-rw-rw-r-- 1 sarom sarom 7.1K Aug  9 20:51 /scratch/cc-crcc-hf.F73
-rw-rw-r-- 1 sarom sarom 3.5M Aug  9 20:51 /scratch/cc-crcc-hf.F74
-rw-rw-r-- 1 sarom sarom    0 Aug  9 20:50 /scratch/cc-crcc-hf.F75
-rw-rw-r-- 1 sarom sarom 113K Aug  9 20:51 /scratch/cc-crcc-hf.F76
-rw-rw-r-- 1 sarom sarom  39M Aug  9 20:51 /scratch/cc-crcc-hf.F77
rm: cannot remove `/scratch/tmp': Is a directory
ls: No match.
ls: No match.
ls: No match.
Wed Aug  9 20:51:40 CDT 2017
0.255u 0.271s 0:59.08 0.8%	0+0k 0+360io 0pf+0w
/opt/gridengine/default/spool/compute-1-2/active_jobs/35979.1/pe_hostfile compute-1-2.local
