----- GAMESS execution script 'rungms' -----
This job is running on host compute-3-0
under operating system Linux at Mon Nov 28 12:14:27 CST 2016
Available scratch disk space (Kbyte units) at beginning of the job is
Filesystem            1K-blocks       Used  Available Use% Mounted on
bolt.local:/export/home/sarom
                     9590469632 1552067584 7551234048  18% /home/sarom
Copying input file cc-ccsd-pf3.inp to your run's scratch directory...
cp cc-ccsd-pf3.inp .//cc-ccsd-pf3.F05
unset echo
/home/sarom/gamessGH/ddikick.x /home/sarom/gamessGH/gamess.00.x cc-ccsd-pf3 -ddi 1 1 localhost -scr ./

 Distributed Data Interface kickoff program.
 Initiating 1 compute processes on 1 nodes to run the following command:
 /home/sarom/gamessGH/gamess.00.x cc-ccsd-pf3 

          ******************************************************
          *         GAMESS VERSION = 18 AUG 2016 (R1)          *
          *             FROM IOWA STATE UNIVERSITY             *
          * M.W.SCHMIDT, K.K.BALDRIDGE, J.A.BOATZ, S.T.ELBERT, *
          *   M.S.GORDON, J.H.JENSEN, S.KOSEKI, N.MATSUNAGA,   *
          *          K.A.NGUYEN, S.J.SU, T.L.WINDUS,           *
          *       TOGETHER WITH M.DUPUIS, J.A.MONTGOMERY       *
          *         J.COMPUT.CHEM.  14, 1347-1363(1993)        *
          **************** 64 BIT LINUX VERSION ****************

  SINCE 1993, STUDENTS AND POSTDOCS WORKING AT IOWA STATE UNIVERSITY
  AND ALSO IN THEIR VARIOUS JOBS AFTER LEAVING ISU HAVE MADE IMPORTANT
  CONTRIBUTIONS TO THE CODE:
     IVANA ADAMOVIC, CHRISTINE AIKENS, YURI ALEXEEV, POOJA ARORA,
     ANDREY ASADCHEV, ROB BELL, PRADIPTA BANDYOPADHYAY, JONATHAN BENTZ,
     BRETT BODE, KURT BRORSEN, CALEB CARLIN, GALINA CHABAN, WEI CHEN,
     CHEOL HO CHOI, PAUL DAY, ALBERT DEFUSCO, NUWAN DESILVA, TIM DUDLEY,
     DMITRI FEDOROV, GRAHAM FLETCHER, MARK FREITAG, KURT GLAESEMANN,
     DAN KEMP, GRANT MERRILL, NORIYUKI MINEZAWA, JONATHAN MULLIN,
     TAKESHI NAGATA, SEAN NEDD, HEATHER NETZLOFF, BOSILJKA NJEGIC, RYAN OLSON,
     MIKE PAK, SPENCER PRUITT, LUKE ROSKOP, JIM SHOEMAKER, LYUDMILA SLIPCHENKO,
     TONY SMITH, SAROM SOK LEANG, JIE SONG, TETSUYA TAKETSUGU, SIMON WEBB,
     PENG XU, SOOHAENG YOO, FEDERICO ZAHARIEV

  ADDITIONAL CODE HAS BEEN PROVIDED BY COLLABORATORS IN OTHER GROUPS:
     IOWA STATE UNIVERSITY:
          JOE IVANIC, AARON WEST, LAIMUTIS BYTAUTAS, KLAUS RUEDENBERG
     UNIVERSITY OF TOKYO: KIMIHIKO HIRAO, TAKAHITO NAKAJIMA,
          TAKAO TSUNEDA, MUNEAKI KAMIYA, SUSUMU YANAGISAWA,
          KIYOSHI YAGI, MAHITO CHIBA, SEIKEN TOKURA, NAOAKI KAWAKAMI
     UNIVERSITY OF AARHUS: FRANK JENSEN
     UNIVERSITY OF IOWA: VISVALDAS KAIRYS, HUI LI
     NATIONAL INST. OF STANDARDS AND TECHNOLOGY: WALT STEVENS, DAVID GARMER
     UNIVERSITY OF PISA: BENEDETTA MENNUCCI, JACOPO TOMASI
     UNIVERSITY OF MEMPHIS: HENRY KURTZ, PRAKASHAN KORAMBATH
     UNIVERSITY OF ALBERTA: TOBY ZENG, MARIUSZ KLOBUKOWSKI
     UNIVERSITY OF NEW ENGLAND: MARK SPACKMAN
     MIE UNIVERSITY: HIROAKI UMEDA
     NAT. INST. OF ADVANCED INDUSTRIAL SCIENCE AND TECHNOLOGY: KAZUO KITAURA
     MICHIGAN STATE UNIVERSITY:
          KAROL KOWALSKI, MARTA WLOCH, JEFFREY GOUR, JESSE LUTZ,
          WEI LI, PIOTR PIECUCH
     UNIVERSITY OF SILESIA: MONIKA MUSIAL, STANISLAW KUCHARSKI
     FACULTES UNIVERSITAIRES NOTRE-DAME DE LA PAIX:
          OLIVIER QUINET, BENOIT CHAMPAGNE
     UNIVERSITY OF CALIFORNIA - SANTA BARBARA: BERNARD KIRTMAN
     INSTITUTE FOR MOLECULAR SCIENCE:
          KAZUYA ISHIMURA, MICHIO KATOUDA, AND SHIGERU NAGASE
     UNIVERSITY OF NOTRE DAME: ANNA POMOGAEVA, DAN CHIPMAN
     KYUSHU UNIVERSITY:
          HARUYUKI NAKANO,
          FENG LONG GU, JACEK KORCHOWIEC, MARCIN MAKOWSKI, AND YURIKO AOKI,
          HIROTOSHI MORI AND EISAKU MIYOSHI
     PENNSYLVANIA STATE UNIVERSITY:
          TZVETELIN IORDANOV, CHET SWALINA, JONATHAN SKONE,
          SHARON HAMMES-SCHIFFER
     WASEDA UNIVERSITY:
          MASATO KOBAYASHI, TOMOKO AKAMA, TSUGUKI TOUMA,
          TAKESHI YOSHIKAWA, YASUHIRO IKABATA, JUNJI SEINO,
          YUYA NAKAJIMA, HIROMI NAKAI
     NANJING UNIVERSITY: SHUHUA LI
     UNIVERSITY OF NEBRASKA:
          PEIFENG SU, DEJUN SI, NANDUN THELLAMUREGE, YALI WANG, HUI LI
     UNIVERSITY OF ZURICH: ROBERTO PEVERATI, KIM BALDRIDGE
     N. COPERNICUS UNIVERSITY AND JACKSON STATE UNIVERSITY:
          MARIA BARYSZ
     UNIVERSITY OF COPENHAGEN: Jimmy Kromann, CASPER STEINMANN
     TOKYO INSTITUTE OF TECHNOLOGY: HIROYA NAKATA
     NAGOYA UNIVERSITY: YOSHIO NISHIMOTO, STEPHAN IRLE
     MOSCOW STATE UNIVERSITY: VLADIMIR MIRONOV

 EXECUTION OF GAMESS BEGUN Mon Nov 28 12:14:28 2016

            ECHO OF THE FIRST FEW INPUT CARDS -
 INPUT CARD>!   PF3...cc-pVTZ basis...CCSD w/o triples.                                     
 INPUT CARD>!   150 AOs, 129 MOs, 21 occupied (8 are frozen core)                           
 INPUT CARD>!                                                                               
 INPUT CARD>!                     SUMMARY OF RESULTS                                        
 INPUT CARD>!     REFERENCE ENERGY:     -639.3033240499                                     
 INPUT CARD>!       MBPT(2) ENERGY:     -640.1985802655   CORR.E=  -0.8952562156            
 INPUT CARD>!       CCSD    ENERGY:     -640.2033784244                                     
 INPUT CARD>!                                                                               
 INPUT CARD>!   this run takes 449 seconds on 2.66 GHz Cloverton ( 6 Apr 2015)              
 INPUT CARD>!                                                                               
 INPUT CARD>!   ------------------------------------------------------------------          
 INPUT CARD>!   Sean found a bug in linux gfortran library with this test case,             
 INPUT CARD>!   note that the Linux energy below was odd man out.                           
 INPUT CARD>!   The resolution to this problem was updating Fedora 7's gfortran's           
 INPUT CARD>!   run time on our Dell nodes to match the slightly newer version              
 INPUT CARD>!   on Dynamo, where the run was OK.                                            
 INPUT CARD>!   The fix in libgfortran.so is believed to be for direct access I/O.          
 INPUT CARD>!                                                                               
 INPUT CARD>!  all machines get SCF energy= -639.3033240499                                 
 INPUT CARD>!    correct CCSD corr. energy is -0.9000543745                                 
 INPUT CARD>!       =====>     CCSD ENERGY: -640.1993311638  (Redhat, gfortran, MKL)        
 INPUT CARD>!                  CCSD ENERGY: -640.2033784244  (SUSE, ifort, MKL)             
 INPUT CARD>!                  CCSD ENERGY: -640.2033784244  (Redhat, xlf, ESSL)            
 INPUT CARD>!                  CCSD ENERGY: -640.2033784244  (Solaris, f90, sunperf)        
 INPUT CARD>!                  CCSD ENERGY: -640.2033784244  (HP-UX, f90, veclib)           
 INPUT CARD>!  all machines get MBPT(2) E=  -640.1985802655, and numbers of integrals       
 INPUT CARD>!  of each type (etc. ) look OK, but file size is a difference (below)          
 INPUT CARD>!                                                                               
 INPUT CARD>!  The gfortran run is bad in all versions I have tried,                        
 INPUT CARD>!         GAMESS VERSION = 24 MAR 2007 (R6) - #108                              
 INPUT CARD>!         GAMESS VERSION = 11 APR 2008 (R1) - #110                              
 INPUT CARD>!         GAMESS VERSION = 12 JAN 2009 (R5) - #120                              
 INPUT CARD>!         GAMESS VERSION = 25 MAR 2010 (R3) - #123 (latest)                     
 INPUT CARD>!  with the first of these being the oldest binary that I have                  
 INPUT CARD>!  on this machine.  The RedHat Fedora 7, gfortran, MKL versions                
 INPUT CARD>!  are identical as I have never changed the Dell system software.              
 INPUT CARD>!                                                                               
 INPUT CARD> $contrl scftyp=rhf cctyp=ccsd runtyp=energy ispher=1 $end                      
 INPUT CARD> $system mwords=380 $end                                                        
 INPUT CARD>!            problem does not manifest itself for CCD basis set.                
 INPUT CARD> $basis  gbasis=cct $end                                                        
 INPUT CARD> $guess  guess=huckel $end                                                      
 INPUT CARD> $scf    dirscf=.true. $end                                                     
 INPUT CARD> $data                                                                          
 INPUT CARD>PF3...input given to me w/o C3v symmetry...CCSD iterations are bad???           
 INPUT CARD>C1                                                                              
 INPUT CARD>P          15.0   0.0000002452   0.0017766832   0.5096236079                    
 INPUT CARD>F           9.0   0.0000002700   1.3740757143  -0.2665911847                    
 INPUT CARD>F           9.0   1.1872866695  -0.6879258940  -0.2677215198                    
 INPUT CARD>F           9.0  -1.1872871846  -0.6879265036  -0.2677217038                    
  380000000 WORDS OF MEMORY AVAILABLE

     BASIS OPTIONS
     -------------
     GBASIS=CCT          IGAUSS=       0      POLAR=NONE    
     NDFUNC=       0     NFFUNC=       0     DIFFSP=       F
     NPFUNC=       0      DIFFS=       F     BASNAM=        


     RUN TITLE
     ---------
 PF3...input given to me w/o C3v symmetry...CCSD iterations are bad???           

 THE POINT GROUP OF THE MOLECULE IS C1      
 THE ORDER OF THE PRINCIPAL AXIS IS     0

 ATOM      ATOMIC                      COORDINATES (BOHR)
           CHARGE         X                   Y                   Z
 P          15.0     0.0000004634        0.0033574444        0.9630489758
 F           9.0     0.0000005102        2.5966265864       -0.5037842898
 F           9.0     2.2436464742       -1.2999914395       -0.5059203134
 F           9.0    -2.2436474476       -1.2999925915       -0.5059206611

          INTERNUCLEAR DISTANCES (ANGS.)
          ------------------------------

                1 P          2 F          3 F          4 F     

   1 P       0.0000000    1.5766147 *  1.5778479 *  1.5778491 *
   2 F       1.5766147 *  0.0000000    2.3793909 *  2.3793919 *
   3 F       1.5778479 *  2.3793909 *  0.0000000    2.3745739 *
   4 F       1.5778491 *  2.3793919 *  2.3745739 *  0.0000000  

  * ... LESS THAN  3.000


     ATOMIC BASIS SET
     ----------------
 THE CONTRACTED PRIMITIVE FUNCTIONS HAVE BEEN UNNORMALIZED
 THE CONTRACTED BASIS FUNCTIONS ARE NOW NORMALIZED TO UNITY

  SHELL TYPE  PRIMITIVE        EXPONENT          CONTRACTION COEFFICIENT(S)

 P         

      1   S       1        312400.0000000    0.000057689641
      1   S       2         46800.0000000    0.000448246591
      1   S       3         10650.0000000    0.002349131061
      1   S       4          3018.0000000    0.009781571802
      1   S       5           986.8000000    0.034142936511
      1   S       6           357.4000000    0.100192955985
      1   S       7           139.6000000    0.234346168617
      1   S       8            57.6300000    0.382391849918
      1   S       9            24.6000000    0.318052941833
      1   S      10            10.1200000    0.070770999093
      1   S      11             4.2830000   -0.001817789630
      1   S      12             1.8050000    0.002161561737
      1   S      13             0.2782000    0.000432249354

      2   S      14        312400.0000000   -0.000016380204
      2   S      15         46800.0000000   -0.000127233535
      2   S      16         10650.0000000   -0.000668625166
      2   S      17          3018.0000000   -0.002795303744
      2   S      18           986.8000000   -0.009928227435
      2   S      19           357.4000000   -0.030244566456
      2   S      20           139.6000000   -0.077884705328
      2   S      21            57.6300000   -0.156724571545
      2   S      22            24.6000000   -0.198042753651
      2   S      23            10.1200000    0.037971251521
      2   S      24             4.2830000    0.552751544147
      2   S      25             1.8050000    0.542611452452
      2   S      26             0.2782000   -0.009675942874

      3   S      27        312400.0000000    0.000006865735
      3   S      28         46800.0000000    0.000053281983
      3   S      29         10650.0000000    0.000280421002
      3   S      30          3018.0000000    0.001170789768
      3   S      31           986.8000000    0.004173591138
      3   S      32           357.4000000    0.012720496749
      3   S      33           139.6000000    0.033152766352
      3   S      34            57.6300000    0.067671246836
      3   S      35            24.6000000    0.089831018862
      3   S      36            10.1200000   -0.020305232360
      3   S      37             4.2830000   -0.313280408979
      3   S      38             1.8050000   -0.563687905527
      3   S      39             0.2782000    1.117494073734

      4   S      40             0.6158000    1.000000000000

      5   S      41             0.1055000    1.000000000000

      6   P      42           504.9000000    0.002433660431
      6   P      43           119.4000000    0.019305559477
      6   P      44            37.9600000    0.088473106893
      6   P      45            13.9500000    0.254701981099
      6   P      46             5.4570000    0.440199242653
      6   P      47             2.1770000    0.383632006272
      6   P      48             0.2877000   -0.003946337074

      7   P      49           504.9000000   -0.000954298933
      7   P      50           119.4000000   -0.007664025747
      7   P      51            37.9600000   -0.035465925259
      7   P      52            13.9500000   -0.106164716437
      7   P      53             5.4570000   -0.187210586037
      7   P      54             2.1770000   -0.181495819791
      7   P      55             0.2877000    0.991672644618

      8   P      56             0.8010000    1.000000000000

      9   P      57             0.0971400    1.000000000000

     10   D      58             0.6480000    1.000000000000

     11   D      59             0.2180000    1.000000000000

     12   F      60             0.4520000    1.000000000000

     13   D      61             3.1200000    1.000000000000

 F         

     14   S      62         19500.0000000    0.000519371600
     14   S      63          2923.0000000    0.004018727387
     14   S      64           664.5000000    0.020692911859
     14   S      65           187.5000000    0.080937968612
     14   S      66            60.6200000    0.236062075041
     14   S      67            21.4200000    0.443434759512
     14   S      68             7.9500000    0.358503673552
     14   S      69             0.8815000   -0.008084577247

     15   S      70         19500.0000000   -0.000199591153
     15   S      71          2923.0000000   -0.001555787449
     15   S      72           664.5000000   -0.008046764688
     15   S      73           187.5000000   -0.032558946542
     15   S      74            60.6200000   -0.101765899400
     15   S      75            21.4200000   -0.238844079709
     15   S      76             7.9500000   -0.301573702586
     15   S      77             0.8815000    1.032147264620

     16   S      78             2.2570000    1.000000000000

     17   S      79             0.3041000    1.000000000000

     18   P      80            43.8800000    0.041904620686
     18   P      81             9.9260000    0.262697841725
     18   P      82             2.9300000    0.797759373475

     19   P      83             0.9132000    1.000000000000

     20   P      84             0.2672000    1.000000000000

     21   D      85             3.1070000    1.000000000000

     22   D      86             0.8550000    1.000000000000

     23   F      87             1.9170000    1.000000000000

 F         

     24   S      88         19500.0000000    0.000519371600
     24   S      89          2923.0000000    0.004018727387
     24   S      90           664.5000000    0.020692911859
     24   S      91           187.5000000    0.080937968612
     24   S      92            60.6200000    0.236062075041
     24   S      93            21.4200000    0.443434759512
     24   S      94             7.9500000    0.358503673552
     24   S      95             0.8815000   -0.008084577247

     25   S      96         19500.0000000   -0.000199591153
     25   S      97          2923.0000000   -0.001555787449
     25   S      98           664.5000000   -0.008046764688
     25   S      99           187.5000000   -0.032558946542
     25   S     100            60.6200000   -0.101765899400
     25   S     101            21.4200000   -0.238844079709
     25   S     102             7.9500000   -0.301573702586
     25   S     103             0.8815000    1.032147264620

     26   S     104             2.2570000    1.000000000000

     27   S     105             0.3041000    1.000000000000

     28   P     106            43.8800000    0.041904620686
     28   P     107             9.9260000    0.262697841725
     28   P     108             2.9300000    0.797759373475

     29   P     109             0.9132000    1.000000000000

     30   P     110             0.2672000    1.000000000000

     31   D     111             3.1070000    1.000000000000

     32   D     112             0.8550000    1.000000000000

     33   F     113             1.9170000    1.000000000000

 F         

     34   S     114         19500.0000000    0.000519371600
     34   S     115          2923.0000000    0.004018727387
     34   S     116           664.5000000    0.020692911859
     34   S     117           187.5000000    0.080937968612
     34   S     118            60.6200000    0.236062075041
     34   S     119            21.4200000    0.443434759512
     34   S     120             7.9500000    0.358503673552
     34   S     121             0.8815000   -0.008084577247

     35   S     122         19500.0000000   -0.000199591153
     35   S     123          2923.0000000   -0.001555787449
     35   S     124           664.5000000   -0.008046764688
     35   S     125           187.5000000   -0.032558946542
     35   S     126            60.6200000   -0.101765899400
     35   S     127            21.4200000   -0.238844079709
     35   S     128             7.9500000   -0.301573702586
     35   S     129             0.8815000    1.032147264620

     36   S     130             2.2570000    1.000000000000

     37   S     131             0.3041000    1.000000000000

     38   P     132            43.8800000    0.041904620686
     38   P     133             9.9260000    0.262697841725
     38   P     134             2.9300000    0.797759373475

     39   P     135             0.9132000    1.000000000000

     40   P     136             0.2672000    1.000000000000

     41   D     137             3.1070000    1.000000000000

     42   D     138             0.8550000    1.000000000000

     43   F     139             1.9170000    1.000000000000

 TOTAL NUMBER OF BASIS SET SHELLS             =   43
 NUMBER OF CARTESIAN GAUSSIAN BASIS FUNCTIONS =  150
 NOTE: THIS RUN WILL RESTRICT THE MO VARIATION SPACE TO SPHERICAL HARMONICS.
 THE NUMBER OF ORBITALS KEPT IN THE VARIATIONAL SPACE WILL BE PRINTED LATER.
 NUMBER OF ELECTRONS                          =   42
 CHARGE OF MOLECULE                           =    0
 SPIN MULTIPLICITY                            =    1
 NUMBER OF OCCUPIED ORBITALS (ALPHA)          =   21
 NUMBER OF OCCUPIED ORBITALS (BETA )          =   21
 TOTAL NUMBER OF ATOMS                        =    4
 THE NUCLEAR REPULSION ENERGY IS      189.9437336018

     $CONTRL OPTIONS
     ---------------
 SCFTYP=RHF          RUNTYP=ENERGY       EXETYP=RUN     
 MPLEVL=       0     CITYP =NONE         CCTYP =CCSD         VBTYP =NONE    
 DFTTYP=NONE         TDDFT =NONE    
 MULT  =       1     ICHARG=       0     NZVAR =       0     COORD =UNIQUE  
 PP    =NONE         RELWFN=NONE         LOCAL =NONE         NUMGRD=       F
 ISPHER=       1     NOSYM =       0     MAXIT =      30     UNITS =ANGS    
 PLTORB=       F     MOLPLT=       F     AIMPAC=       F     FRIEND=        
 NPRINT=       7     IREST =       0     GEOM  =INPUT   
 NORMF =       0     NORMP =       0     ITOL  =      20     ICUT  =       9
 INTTYP=BEST         GRDTYP=BEST         QMTTOL= 1.0E-06

     $SYSTEM OPTIONS
     ---------------
  REPLICATED MEMORY=   380000000 WORDS (ON EVERY NODE).
 DISTRIBUTED MEMDDI=           0 MILLION WORDS IN AGGREGATE,
 MEMDDI DISTRIBUTED OVER   1 PROCESSORS IS           0 WORDS/PROCESSOR.
 TOTAL MEMORY REQUESTED ON EACH PROCESSOR=   380000000 WORDS.
 TIMLIM=      525600.00 MINUTES, OR     365.0 DAYS.
 PARALL= F  BALTYP=  DLB     KDIAG=    0  COREFL= F
 MXSEQ2=     300 MXSEQ3=     150  mem10=         0

          ----------------
          PROPERTIES INPUT
          ----------------

     MOMENTS            FIELD           POTENTIAL          DENSITY
 IEMOM =       1   IEFLD =       0   IEPOT =       0   IEDEN =       0
 WHERE =COMASS     WHERE =NUCLEI     WHERE =NUCLEI     WHERE =NUCLEI  
 OUTPUT=BOTH       OUTPUT=BOTH       OUTPUT=BOTH       OUTPUT=BOTH    
 IEMINT=       0   IEFINT=       0                     IEDINT=       0
                                                       MORB  =       0
          EXTRAPOLATION IN EFFECT
          SOSCF IN EFFECT
 ORBITAL PRINTING OPTION: NPREO=     1   150     2     1

     -------------------------------
     INTEGRAL TRANSFORMATION OPTIONS
     -------------------------------
     NWORD  =            0
     CUTOFF = 1.0E-09     MPTRAN =       0
     DIRTRF =       T     AOINTS =DUP     

          ----------------------
          INTEGRAL INPUT OPTIONS
          ----------------------
 NOPK  =       1 NORDER=       0 SCHWRZ=       T

     ------------------------------------------
     THE POINT GROUP IS C1 , NAXIS= 0, ORDER= 1
     ------------------------------------------

 -- VARIATIONAL SPACE WILL BE RESTRICTED TO PURE SPHERICAL HARMONICS ONLY --
 AFTER EXCLUDING CONTAMINANT COMBINATIONS FROM THE CARTESIAN GAUSSIAN BASIS
 SET, THE NUMBER OF SPHERICAL HARMONICS KEPT IN THE VARIATION SPACE IS  129

     DIMENSIONS OF THE SYMMETRY SUBSPACES ARE
 A   =  129

 ..... DONE SETTING UP THE RUN .....
 STEP CPU TIME =     0.03 TOTAL CPU TIME =        0.1 (    0.0 MIN)
 TOTAL WALL CLOCK TIME=        0.2 SECONDS, CPU UTILIZATION IS  23.81%

          ********************
          1 ELECTRON INTEGRALS
          ********************
 ...... END OF ONE-ELECTRON INTEGRALS ......
 STEP CPU TIME =     0.01 TOTAL CPU TIME =        0.1 (    0.0 MIN)
 TOTAL WALL CLOCK TIME=        0.2 SECONDS, CPU UTILIZATION IS  27.27%

          -------------
          GUESS OPTIONS
          -------------
          GUESS =HUCKEL            NORB  =       0          NORDER=       0
          MIX   =       F          PRTMO =       F          PUNMO =       F
          TOLZ  = 1.0E-08          TOLE  = 1.0E-05
          SYMDEN=       F          PURIFY=       F

 INITIAL GUESS ORBITALS GENERATED BY HUCKEL   ROUTINE.
 HUCKEL GUESS REQUIRES    167748 WORDS.

 STATISTICS FOR GENERATION OF SYMMETRY ORBITAL -Q- MATRIX
 NUMBER OF CARTESIAN ATOMIC ORBITALS=        150
 NUMBER OF SPHERICAL CONTAMINANTS DROPPED=    21
 NUMBER OF LINEARLY DEPENDENT MOS DROPPED=     0
 TOTAL NUMBER OF MOS IN VARIATION SPACE=     129

 SYMMETRIES FOR INITIAL GUESS ORBITALS FOLLOW.   BOTH SET(S).
    21 ORBITALS ARE OCCUPIED (    8 CORE ORBITALS).
     9=A       10=A       11=A       12=A       13=A       14=A       15=A   
    16=A       17=A       18=A       19=A       20=A       21=A       22=A   
    23=A       24=A       25=A       26=A       27=A       28=A       29=A   
    30=A       31=A   
 ...... END OF INITIAL ORBITAL SELECTION ......
 STEP CPU TIME =     0.05 TOTAL CPU TIME =        0.1 (    0.0 MIN)
 TOTAL WALL CLOCK TIME=        0.3 SECONDS, CPU UTILIZATION IS  42.31%

                    ----------------------
                    AO INTEGRAL TECHNOLOGY
                    ----------------------
     S,P,L SHELL ROTATED AXIS INTEGRALS, REPROGRAMMED BY
        KAZUYA ISHIMURA (IMS) AND JOSE SIERRA (SYNSTAR).
     S,P,D,L SHELL ROTATED AXIS INTEGRALS PROGRAMMED BY
        KAZUYA ISHIMURA (INSTITUTE FOR MOLECULAR SCIENCE).
     S,P,D,F,G SHELL TO TOTAL QUARTET ANGULAR MOMENTUM SUM 5,
        ERIC PROGRAM BY GRAHAM FLETCHER (ELORET AND NASA ADVANCED
        SUPERCOMPUTING DIVISION, AMES RESEARCH CENTER).
     S,P,D,F,G,L SHELL GENERAL RYS QUADRATURE PROGRAMMED BY
        MICHEL DUPUIS (PACIFIC NORTHWEST NATIONAL LABORATORY).

          --------------------
          2 ELECTRON INTEGRALS
          --------------------

 DIRECT SCF METHOD SKIPS INTEGRAL STORAGE ON DISK.
 DIRECT TRANSFORMATION SKIPS AO INTEGRAL STORAGE ON DISK.
  ...... END OF TWO-ELECTRON INTEGRALS .....
 STEP CPU TIME =     0.01 TOTAL CPU TIME =        0.1 (    0.0 MIN)
 TOTAL WALL CLOCK TIME=        0.4 SECONDS, CPU UTILIZATION IS  26.67%

          --------------------------
                 RHF SCF CALCULATION
          --------------------------

     NUCLEAR ENERGY =       189.9437336018
     MAXIT =   30     NPUNCH=    2
     EXTRAP=T  DAMP=F  SHIFT=F  RSTRCT=F  DIIS=F  DEM=F  SOSCF=T
     DENSITY MATRIX CONV=  2.00E-06
     SOSCF WILL OPTIMIZE    2268 ORBITAL ROTATIONS, SOGTOL=   0.250
     MEMORY REQUIRED FOR RHF ITERS=    224664 WORDS.

 DIRECT SCF CALCULATION, SCHWRZ=T   FDIFF=T,  DIRTHR=  0.00E+00 NITDIR=10
 SCHWARZ INEQUALITY OVERHEAD:     11325 INTEGRALS, T=        0.02

                                                                                   NONZERO     BLOCKS
 ITER EX DEM     TOTAL ENERGY        E CHANGE  DENSITY CHANGE     ORB. GRAD      INTEGRALS    SKIPPED
   1  0  0     -638.1662760173  -638.1662760173   0.212666007   0.000000000       47338664      46906
          ---------------START SECOND ORDER SCF---------------
   2  1  0     -639.2548314204    -1.0885554031   0.122718987   0.063272967       47397403      48707
   3  2  0     -639.2963921340    -0.0415607136   0.032508644   0.019410601       46846962      61019
   4  3  0     -639.3029245739    -0.0065324399   0.009775089   0.004267239       46158138      71541
   5  4  0     -639.3032964014    -0.0003718275   0.002478911   0.001054926       45491222      81272
   6  5  0     -639.3033217727    -0.0000253713   0.000800004   0.000344201       44227216      95549
   7  6  0     -639.3033239561    -0.0000021834   0.000310911   0.000063105       42984593     107522
   8  7  0     -639.3033240423    -0.0000000862   0.000152525   0.000018796       40045498     132467
   9  8  0     -639.3033240491    -0.0000000068   0.000022812   0.000002519       37284332     150191
  10  9  0     -639.3033240498    -0.0000000008   0.000001248   0.000001230       33256305     177967
  11 10  0     -639.3033240499    -0.0000000000   0.000001041   0.000000191       29883060     208553

 RHF HAS CONVERGED, NOW COMPUTING EXACT TOTAL FOCK MATRIX
 FOR USE DURING THE COUPLED CLUSTER CALCULATION THAT FOLLOWS.

          -----------------
          DENSITY CONVERGED
          -----------------
     TIME TO FORM FOCK OPERATORS=      39.3 SECONDS (       3.6 SEC/ITER)
     FOCK TIME ON FIRST ITERATION=       3.7, LAST ITERATION=       2.4
     TIME TO SOLVE SCF EQUATIONS=       0.1 SECONDS (       0.0 SEC/ITER)

 FINAL RHF ENERGY IS     -639.3033240499 AFTER  11 ITERATIONS

          ------------
          EIGENVECTORS
          ------------

                      1          2          3          4          5
                  -80.1254   -26.3418   -26.3410   -26.3410    -7.6472
                     A          A          A          A          A   
    1  P  1  S    1.000117   0.000035   0.000001   0.000051  -0.000020
    2  P  1  S    0.000020   0.000205   0.000004   0.000297   0.956270
    3  P  1  S    0.000069   0.000288   0.000005   0.000417  -0.000797
    4  P  1  S   -0.000859  -0.000173  -0.000003  -0.000250   0.060558
    5  P  1  S   -0.000037  -0.000962  -0.000018  -0.001398   0.000763
    6  P  1  X    0.000000   0.000000  -0.000190   0.000002   0.000000
    7  P  1  Y   -0.000000  -0.000156   0.000001   0.000108   0.000008
    8  P  1  Z   -0.000216   0.000064   0.000001   0.000093  -0.010135
    9  P  1  X   -0.000000   0.000000  -0.000292   0.000004  -0.000000
   10  P  1  Y   -0.000000  -0.000238   0.000002   0.000166   0.000002
   11  P  1  Z   -0.000142   0.000072   0.000001   0.000105   0.002479
   12  P  1  X   -0.000000  -0.000000   0.000029  -0.000000   0.000000
   13  P  1  Y    0.000000   0.000024  -0.000000  -0.000017   0.000001
   14  P  1  Z    0.000118  -0.000017  -0.000000  -0.000024  -0.004150
   15  P  1  X    0.000000   0.000000  -0.000675   0.000009   0.000000
   16  P  1  Y   -0.000000  -0.000557   0.000005   0.000386   0.000001
   17  P  1  Z    0.000008   0.000427   0.000008   0.000619  -0.000213
   18  P  1 XX    0.000004  -0.000122   0.000001   0.000095   0.000124
   19  P  1 YY    0.000004   0.000133  -0.000001  -0.000078   0.000126
   20  P  1 ZZ   -0.000008  -0.000012  -0.000000  -0.000017  -0.000249
   21  P  1 XY    0.000000   0.000000  -0.000178   0.000002  -0.000000
   22  P  1 XZ    0.000000   0.000000  -0.000239   0.000003  -0.000000
   23  P  1 YZ    0.000000  -0.000198   0.000002   0.000137  -0.000001
   24  P  1 XX    0.000001   0.000150  -0.000000  -0.000018  -0.000086
   25  P  1 YY    0.000002  -0.000068   0.000002   0.000135  -0.000089
   26  P  1 ZZ   -0.000003  -0.000082  -0.000002  -0.000117   0.000175
   27  P  1 XY    0.000000  -0.000000   0.000155  -0.000002   0.000000
   28  P  1 XZ    0.000000  -0.000000   0.000361  -0.000005   0.000000
   29  P  1 YZ    0.000000   0.000296  -0.000003  -0.000206  -0.000002
   30  P  1 XXX   0.000000   0.000000  -0.000030   0.000000   0.000000
   31  P  1 YYY   0.000010   0.000085   0.000002   0.000176   0.000029
   32  P  1 ZZZ   0.000011   0.000103   0.000002   0.000148   0.000028
   33  P  1 XXY  -0.000013  -0.000159  -0.000003  -0.000205  -0.000039
   34  P  1 XXZ  -0.000008   0.000133  -0.000003  -0.000236  -0.000019
   35  P  1 YYX   0.000000   0.000000  -0.000012   0.000000   0.000000
   36  P  1 YYZ  -0.000008  -0.000271   0.000000   0.000038  -0.000019
   37  P  1 ZZX   0.000000  -0.000000   0.000053  -0.000001  -0.000000
   38  P  1 ZZY  -0.000000   0.000044  -0.000000  -0.000031   0.000001
   39  P  1 XYZ  -0.000000  -0.000000   0.000283  -0.000004   0.000000
   40  P  1 XX   -0.000001   0.000037  -0.000000  -0.000032   0.000356
   41  P  1 YY   -0.000001  -0.000044   0.000000   0.000022   0.000354
   42  P  1 ZZ    0.000002   0.000007   0.000000   0.000010  -0.000710
   43  P  1 XY   -0.000000  -0.000000   0.000056  -0.000001   0.000000
   44  P  1 XZ   -0.000000  -0.000000   0.000068  -0.000001   0.000000
   45  P  1 YZ   -0.000000   0.000056  -0.000000  -0.000039  -0.000002
   46  F  2  S    0.000006   0.975461   0.000161   0.012374  -0.000089
   47  F  2  S    0.000009  -0.000891  -0.000000  -0.000028   0.000284
   48  F  2  S   -0.000003   0.043607   0.000007   0.000546   0.000084
   49  F  2  S   -0.000062   0.004017   0.000001   0.000115   0.000976
   50  F  2  X    0.000000  -0.000000  -0.000012   0.000000   0.000000
   51  F  2  Y    0.000003  -0.000900   0.000000   0.000007  -0.000240
   52  F  2  Z   -0.000002   0.000485   0.000000   0.000001   0.000155
   53  F  2  X   -0.000000  -0.000000   0.000022  -0.000000  -0.000000
   54  F  2  Y    0.000008   0.000594  -0.000000  -0.000027  -0.000456
   55  F  2  Z   -0.000004  -0.000310   0.000000   0.000018   0.000225
   56  F  2  X    0.000000  -0.000000   0.000124  -0.000002   0.000000
   57  F  2  Y    0.000036  -0.000744   0.000000   0.000019  -0.000575
   58  F  2  Z   -0.000015   0.000329  -0.000002  -0.000175   0.000238
   59  F  2 XX    0.000001   0.000007   0.000000   0.000001  -0.000015
   60  F  2 YY   -0.000001  -0.000021  -0.000000  -0.000004   0.000006
   61  F  2 ZZ   -0.000000   0.000014   0.000000   0.000003   0.000010
   62  F  2 XY    0.000000  -0.000000   0.000007  -0.000000   0.000000
   63  F  2 XZ    0.000000   0.000000  -0.000012   0.000000   0.000000
   64  F  2 YZ    0.000003   0.000015  -0.000000  -0.000011  -0.000033
   65  F  2 XX   -0.000001   0.000014  -0.000000  -0.000002  -0.000069
   66  F  2 YY   -0.000002  -0.000005   0.000000   0.000025   0.000167
   67  F  2 ZZ    0.000002  -0.000009  -0.000000  -0.000023  -0.000098
   68  F  2 XY    0.000000   0.000000  -0.000045   0.000001  -0.000000
   69  F  2 XZ    0.000000  -0.000000   0.000040  -0.000001   0.000000
   70  F  2 YZ   -0.000003   0.000033   0.000001   0.000043  -0.000060
   71  F  2 XXX   0.000000   0.000000  -0.000006   0.000000   0.000000
   72  F  2 YYY  -0.000002  -0.000001  -0.000000  -0.000013  -0.000022
   73  F  2 ZZZ  -0.000003  -0.000002  -0.000000  -0.000007  -0.000015
   74  F  2 XXY   0.000004  -0.000000   0.000000   0.000011   0.000018
   75  F  2 XXZ  -0.000002   0.000002   0.000000   0.000004  -0.000004
   76  F  2 YYX   0.000000  -0.000000   0.000008  -0.000000  -0.000000
   77  F  2 YYZ   0.000006   0.000001   0.000000   0.000005   0.000024
   78  F  2 ZZX   0.000000  -0.000000  -0.000001   0.000000  -0.000000
   79  F  2 ZZY  -0.000001   0.000001   0.000000   0.000007   0.000011
   80  F  2 XYZ   0.000000   0.000000  -0.000013   0.000000   0.000000
   81  F  3  S    0.000006  -0.008761   0.698574   0.680880  -0.000089
   82  F  3  S    0.000009  -0.000004  -0.000631  -0.000628   0.000282
   83  F  3  S   -0.000003  -0.000397   0.031233   0.030433   0.000083
   84  F  3  S   -0.000062   0.000010   0.002848   0.002840   0.000975
   85  F  3  X    0.000002   0.000014  -0.000566  -0.000530  -0.000206
   86  F  3  Y   -0.000001  -0.000018   0.000323   0.000316   0.000120
   87  F  3  Z   -0.000002  -0.000008   0.000350   0.000336   0.000154
   88  F  3  X    0.000007  -0.000018   0.000387   0.000335  -0.000393
   89  F  3  Y   -0.000004   0.000028  -0.000213  -0.000208   0.000229
   90  F  3  Z   -0.000004   0.000018  -0.000233  -0.000205   0.000224
   91  F  3  X    0.000031   0.000067  -0.000444  -0.000465  -0.000497
   92  F  3  Y   -0.000018   0.000063   0.000328   0.000201   0.000288
   93  F  3  Z   -0.000015  -0.000128   0.000323   0.000138   0.000238
   94  F  3 XX   -0.000000   0.000002  -0.000006  -0.000013   0.000000
   95  F  3 YY    0.000001  -0.000004  -0.000002   0.000002  -0.000010
   96  F  3 ZZ   -0.000000   0.000002   0.000008   0.000011   0.000010
   97  F  3 XY    0.000001   0.000004   0.000011   0.000009  -0.000010
   98  F  3 XZ    0.000002  -0.000011   0.000011   0.000007  -0.000028
   99  F  3 YZ   -0.000001  -0.000003  -0.000013   0.000003   0.000016
  100  F  3 XX   -0.000002  -0.000011  -0.000024   0.000025   0.000107
  101  F  3 YY   -0.000001   0.000027   0.000020  -0.000007  -0.000009
  102  F  3 ZZ    0.000003  -0.000016   0.000004  -0.000018  -0.000098
  103  F  3 XY    0.000001  -0.000025   0.000002   0.000010  -0.000118
  104  F  3 XZ   -0.000002   0.000040   0.000012   0.000028  -0.000052
  105  F  3 YZ    0.000001   0.000010   0.000016  -0.000040   0.000030
  106  F  3 XXX   0.000000   0.000002   0.000004  -0.000005  -0.000005
  107  F  3 YYY  -0.000003  -0.000005   0.000004  -0.000004  -0.000012
  108  F  3 ZZZ  -0.000003  -0.000005   0.000002  -0.000005  -0.000014
  109  F  3 XXY   0.000004   0.000009  -0.000006   0.000007   0.000022
  110  F  3 XXZ   0.000004  -0.000004  -0.000006   0.000008   0.000016
  111  F  3 YYX   0.000000  -0.000007  -0.000003   0.000003  -0.000003
  112  F  3 YYZ  -0.000000   0.000010   0.000004  -0.000001   0.000003
  113  F  3 ZZX  -0.000001   0.000004  -0.000002   0.000004   0.000009
  114  F  3 ZZY   0.000000  -0.000003   0.000001  -0.000002  -0.000005
  115  F  3 XYZ  -0.000004  -0.000005  -0.000003   0.000004  -0.000013
  116  F  4  S    0.000006  -0.008757  -0.680940   0.698515  -0.000089
  117  F  4  S    0.000009  -0.000004   0.000615  -0.000644   0.000282
  118  F  4  S   -0.000003  -0.000397  -0.030444   0.031222   0.000083
  119  F  4  S   -0.000062   0.000010  -0.002775   0.002912   0.000975
  120  F  4  X   -0.000002  -0.000014  -0.000553   0.000545   0.000206
  121  F  4  Y   -0.000001  -0.000018  -0.000315   0.000324   0.000120
  122  F  4  Z   -0.000002  -0.000008  -0.000342   0.000345   0.000154
  123  F  4  X   -0.000007   0.000018   0.000378  -0.000345   0.000393
  124  F  4  Y   -0.000004   0.000028   0.000207  -0.000213   0.000229
  125  F  4  Z   -0.000004   0.000018   0.000228  -0.000210   0.000224
  126  F  4  X   -0.000031  -0.000067  -0.000432   0.000476   0.000497
  127  F  4  Y   -0.000018   0.000063  -0.000323   0.000209   0.000288
  128  F  4  Z   -0.000015  -0.000128  -0.000319   0.000146   0.000238
  129  F  4 XX   -0.000000   0.000002   0.000006  -0.000013   0.000000
  130  F  4 YY    0.000001  -0.000004   0.000002   0.000002  -0.000010
  131  F  4 ZZ   -0.000000   0.000002  -0.000008   0.000011   0.000010
  132  F  4 XY   -0.000001  -0.000004   0.000010  -0.000010   0.000010
  133  F  4 XZ   -0.000002   0.000011   0.000011  -0.000007   0.000028
  134  F  4 YZ   -0.000001  -0.000003   0.000013   0.000002   0.000016
  135  F  4 XX   -0.000002  -0.000011   0.000025   0.000025   0.000107
  136  F  4 YY   -0.000001   0.000027  -0.000020  -0.000007  -0.000009
  137  F  4 ZZ    0.000003  -0.000016  -0.000004  -0.000018  -0.000098
  138  F  4 XY   -0.000001   0.000025   0.000002  -0.000010   0.000118
  139  F  4 XZ    0.000002  -0.000040   0.000012  -0.000029   0.000052
  140  F  4 YZ    0.000001   0.000010  -0.000017  -0.000040   0.000030
  141  F  4 XXX  -0.000000  -0.000002   0.000004   0.000005   0.000005
  142  F  4 YYY  -0.000003  -0.000005  -0.000004  -0.000004  -0.000012
  143  F  4 ZZZ  -0.000003  -0.000005  -0.000002  -0.000005  -0.000014
  144  F  4 XXY   0.000004   0.000009   0.000006   0.000007   0.000022
  145  F  4 XXZ   0.000004  -0.000004   0.000007   0.000008   0.000016
  146  F  4 YYX  -0.000000   0.000007  -0.000003  -0.000003   0.000003
  147  F  4 YYZ  -0.000000   0.000010  -0.000004  -0.000001   0.000003
  148  F  4 ZZX   0.000001  -0.000004  -0.000002  -0.000004  -0.000009
  149  F  4 ZZY   0.000000  -0.000003  -0.000001  -0.000002  -0.000005
  150  F  4 XYZ   0.000004   0.000005  -0.000003  -0.000004   0.000013

                      6          7          8          9         10
                   -5.5406    -5.5405    -5.5378    -1.6878    -1.6363
                     A          A          A          A          A   
    1  P  1  S   -0.000005  -0.000000   0.001128  -0.000020  -0.000005
    2  P  1  S   -0.000082  -0.000000   0.018300  -0.012799   0.000040
    3  P  1  S   -0.000015  -0.000000   0.003215   0.158512  -0.001054
    4  P  1  S    0.000022   0.000000  -0.005543   0.014942  -0.000076
    5  P  1  S    0.000005   0.000000   0.000262   0.011690  -0.000128
    6  P  1  X   -0.000230   0.959586   0.000001  -0.000000   0.000005
    7  P  1  Y    0.959579   0.000230   0.003665  -0.000206  -0.026137
    8  P  1  Z   -0.003667  -0.000002   0.961647   0.020435  -0.000112
    9  P  1  X    0.000000  -0.001480  -0.000000   0.000000  -0.000014
   10  P  1  Y   -0.001482  -0.000000  -0.000004   0.000486   0.075882
   11  P  1  Z    0.000000  -0.000000   0.000150  -0.057258   0.000407
   12  P  1  X   -0.000019   0.077773   0.000000   0.000000  -0.000005
   13  P  1  Y    0.077770   0.000019   0.000293   0.000205   0.028250
   14  P  1  Z   -0.000288  -0.000000   0.074577  -0.021609   0.000131
   15  P  1  X   -0.000000   0.000460   0.000000   0.000000  -0.000001
   16  P  1  Y    0.000453   0.000000   0.000001   0.000018   0.003396
   17  P  1  Z   -0.000006  -0.000000   0.000708   0.004320  -0.000001
   18  P  1 XX   -0.000333  -0.000000   0.000575   0.002515  -0.022403
   19  P  1 YY    0.000330   0.000000   0.000578   0.003082   0.022377
   20  P  1 ZZ    0.000003   0.000000  -0.001153  -0.005597   0.000026
   21  P  1 XY    0.000000  -0.000378  -0.000000  -0.000000   0.000005
   22  P  1 XZ    0.000000  -0.001514  -0.000000  -0.000000   0.000006
   23  P  1 YZ   -0.001520  -0.000000  -0.000004  -0.000206  -0.031324
   24  P  1 XX    0.000466   0.000000  -0.000442   0.002257  -0.013688
   25  P  1 YY   -0.000463  -0.000000  -0.000443   0.002609   0.013683
   26  P  1 ZZ   -0.000003  -0.000000   0.000885  -0.004866   0.000004
   27  P  1 XY   -0.000000   0.000542   0.000000  -0.000000   0.000003
   28  P  1 XZ   -0.000000   0.001755   0.000000  -0.000000   0.000003
   29  P  1 YZ    0.001762   0.000000   0.000008  -0.000108  -0.018037
   30  P  1 XXX  -0.000000   0.000097   0.000000  -0.000000   0.000000
   31  P  1 YYY   0.000098   0.000000  -0.000061   0.010654  -0.001957
   32  P  1 ZZZ   0.000002   0.000000  -0.000146   0.012246  -0.000073
   33  P  1 XXY   0.000044   0.000000   0.000084  -0.014305  -0.000755
   34  P  1 XXZ   0.000089   0.000000   0.000098  -0.008050   0.013262
   35  P  1 YYX  -0.000000   0.000044   0.000000  -0.000000   0.000000
   36  P  1 YYZ  -0.000092  -0.000000   0.000098  -0.008379  -0.013164
   37  P  1 ZZX   0.000000  -0.000174  -0.000000   0.000000  -0.000001
   38  P  1 ZZY  -0.000175  -0.000000  -0.000002   0.000011   0.003380
   39  P  1 XYZ  -0.000000   0.000100  -0.000000   0.000000  -0.000003
   40  P  1 XX    0.000256   0.000000   0.001657   0.000470  -0.003325
   41  P  1 YY   -0.000268  -0.000000   0.001658   0.000561   0.003322
   42  P  1 ZZ    0.000012   0.000000  -0.003314  -0.001032   0.000003
   43  P  1 XY   -0.000000   0.000305   0.000000  -0.000000   0.000001
   44  P  1 XZ    0.000001  -0.002303  -0.000000  -0.000000   0.000001
   45  P  1 YZ   -0.002301  -0.000001  -0.000008  -0.000032  -0.004349
   46  F  2  S   -0.000262  -0.000000   0.000132  -0.001059  -0.001175
   47  F  2  S    0.000886   0.000000  -0.000485   0.308590   0.454892
   48  F  2  S    0.000384   0.000000  -0.000177   0.086008   0.128023
   49  F  2  S    0.002371   0.000001  -0.000903   0.183425   0.272795
   50  F  2  X   -0.000000   0.000156   0.000000   0.000000  -0.000001
   51  F  2  Y   -0.000717  -0.000000   0.000462  -0.021417  -0.019312
   52  F  2  Z    0.000457   0.000000  -0.000070   0.009633   0.012787
   53  F  2  X   -0.000000   0.000249   0.000000   0.000000  -0.000001
   54  F  2  Y   -0.000854  -0.000000   0.000631  -0.034124  -0.032733
   55  F  2  Z    0.000571   0.000000  -0.000068   0.015573   0.021240
   56  F  2  X   -0.000000   0.000473   0.000000   0.000000  -0.000000
   57  F  2  Y   -0.001005  -0.000000   0.000674  -0.008682  -0.008059
   58  F  2  Z    0.000503   0.000000  -0.000011   0.002388   0.005937
   59  F  2 XX   -0.000072  -0.000000   0.000018  -0.000531  -0.000655
   60  F  2 YY    0.000077   0.000000  -0.000056   0.000743   0.000779
   61  F  2 ZZ   -0.000005  -0.000000   0.000038  -0.000212  -0.000124
   62  F  2 XY    0.000000  -0.000006   0.000000  -0.000000   0.000000
   63  F  2 XZ   -0.000000   0.000026   0.000000  -0.000000   0.000000
   64  F  2 YZ   -0.000112  -0.000000   0.000021  -0.000796  -0.000914
   65  F  2 XX   -0.000005  -0.000000   0.000114  -0.003522  -0.003913
   66  F  2 YY   -0.000005  -0.000000  -0.000206   0.005506   0.004762
   67  F  2 ZZ    0.000010   0.000000   0.000091  -0.001984  -0.000849
   68  F  2 XY    0.000000  -0.000248  -0.000000  -0.000000   0.000000
   69  F  2 XZ   -0.000000   0.000050   0.000000   0.000000  -0.000000
   70  F  2 YZ   -0.000058  -0.000000   0.000033  -0.004576  -0.006488
   71  F  2 XXX   0.000000   0.000000  -0.000000  -0.000000   0.000000
   72  F  2 YYY   0.000019   0.000000  -0.000008  -0.000809  -0.000413
   73  F  2 ZZZ   0.000019   0.000000  -0.000002  -0.000782  -0.000724
   74  F  2 XXY  -0.000027  -0.000000  -0.000005   0.000979   0.000868
   75  F  2 XXZ   0.000013   0.000000   0.000005  -0.000388  -0.000496
   76  F  2 YYX  -0.000000   0.000007   0.000000   0.000000  -0.000000
   77  F  2 YYZ  -0.000039  -0.000000  -0.000002   0.001437   0.001467
   78  F  2 ZZX   0.000000  -0.000007  -0.000000   0.000000   0.000000
   79  F  2 ZZY   0.000002   0.000000   0.000016   0.000106  -0.000314
   80  F  2 XYZ  -0.000000   0.000003  -0.000000  -0.000000   0.000000
   81  F  3  S    0.000130  -0.000225   0.000132  -0.001045   0.000597
   82  F  3  S   -0.000439   0.000759  -0.000489   0.303405  -0.230971
   83  F  3  S   -0.000191   0.000330  -0.000178   0.084551  -0.064992
   84  F  3  S   -0.001185   0.002045  -0.000912   0.180429  -0.138542
   85  F  3  X    0.000375  -0.000493   0.000402  -0.018290   0.010053
   86  F  3  Y   -0.000063   0.000376  -0.000233   0.010622  -0.002369
   87  F  3  Z   -0.000228   0.000393  -0.000073   0.009463  -0.006480
   88  F  3  X    0.000475  -0.000572   0.000549  -0.029136   0.016852
   89  F  3  Y   -0.000027   0.000476  -0.000317   0.016936  -0.004320
   90  F  3  Z   -0.000286   0.000492  -0.000071   0.015316  -0.010777
   91  F  3  X    0.000638  -0.000630   0.000587  -0.007391   0.004382
   92  F  3  Y    0.000104   0.000641  -0.000339   0.004333  -0.000645
   93  F  3  Z   -0.000251   0.000436  -0.000013   0.002337  -0.003013
   94  F  3 XX   -0.000023   0.000031  -0.000037   0.000418  -0.000337
   95  F  3 YY    0.000021  -0.000027  -0.000000  -0.000206   0.000271
   96  F  3 ZZ    0.000002  -0.000004   0.000038  -0.000212   0.000066
   97  F  3 XY    0.000035  -0.000066   0.000038  -0.000626   0.000284
   98  F  3 XZ    0.000060  -0.000077   0.000019  -0.000677   0.000346
   99  F  3 YZ   -0.000009   0.000060  -0.000011   0.000393  -0.000327
  100  F  3 XX   -0.000158  -0.000099  -0.000125   0.003170  -0.002140
  101  F  3 YY    0.000164   0.000090   0.000034  -0.001213   0.001704
  102  F  3 ZZ   -0.000006   0.000010   0.000091  -0.001957   0.000437
  103  F  3 XY   -0.000108  -0.000060   0.000159  -0.004479   0.001679
  104  F  3 XZ    0.000047  -0.000030   0.000028  -0.003890   0.003344
  105  F  3 YZ    0.000024   0.000047  -0.000016   0.002263  -0.000810
  106  F  3 XXX   0.000006   0.000002  -0.000008  -0.000042   0.000127
  107  F  3 YYY  -0.000007   0.000020   0.000005  -0.000710   0.000352
  108  F  3 ZZZ  -0.000010   0.000017  -0.000003  -0.000772   0.000370
  109  F  3 XXY   0.000015  -0.000023   0.000001   0.001008  -0.000386
  110  F  3 XXZ   0.000015  -0.000022   0.000000   0.000963  -0.000673
  111  F  3 YYX  -0.000004  -0.000003  -0.000003  -0.000035  -0.000303
  112  F  3 YYZ  -0.000002  -0.000001   0.000003   0.000072   0.000177
  113  F  3 ZZX  -0.000004  -0.000000   0.000014   0.000091   0.000133
  114  F  3 ZZY  -0.000005  -0.000004  -0.000008  -0.000055  -0.000085
  115  F  3 XYZ  -0.000012   0.000024   0.000003  -0.000904   0.000385
  116  F  4  S    0.000130   0.000225   0.000132  -0.001045   0.000596
  117  F  4  S   -0.000439  -0.000759  -0.000489   0.303401  -0.230822
  118  F  4  S   -0.000191  -0.000330  -0.000178   0.084550  -0.064950
  119  F  4  S   -0.001184  -0.002046  -0.000912   0.180426  -0.138452
  120  F  4  X   -0.000374  -0.000493  -0.000402   0.018290  -0.010048
  121  F  4  Y   -0.000063  -0.000376  -0.000233   0.010622  -0.002365
  122  F  4  Z   -0.000228  -0.000393  -0.000073   0.009463  -0.006476
  123  F  4  X   -0.000475  -0.000572  -0.000549   0.029136  -0.016843
  124  F  4  Y   -0.000027  -0.000476  -0.000317   0.016935  -0.004313
  125  F  4  Z   -0.000286  -0.000492  -0.000071   0.015316  -0.010770
  126  F  4  X   -0.000638  -0.000630  -0.000587   0.007391  -0.004380
  127  F  4  Y    0.000105  -0.000641  -0.000339   0.004333  -0.000644
  128  F  4  Z   -0.000251  -0.000436  -0.000013   0.002337  -0.003011
  129  F  4 XX   -0.000023  -0.000031  -0.000037   0.000418  -0.000337
  130  F  4 YY    0.000021   0.000027  -0.000000  -0.000206   0.000271
  131  F  4 ZZ    0.000002   0.000004   0.000038  -0.000212   0.000066
  132  F  4 XY   -0.000035  -0.000066  -0.000038   0.000626  -0.000284
  133  F  4 XZ   -0.000060  -0.000077  -0.000019   0.000677  -0.000345
  134  F  4 YZ   -0.000009  -0.000060  -0.000011   0.000393  -0.000327
  135  F  4 XX   -0.000158   0.000099  -0.000125   0.003170  -0.002140
  136  F  4 YY    0.000164  -0.000090   0.000034  -0.001213   0.001703
  137  F  4 ZZ   -0.000006  -0.000010   0.000091  -0.001957   0.000436
  138  F  4 XY    0.000109  -0.000060  -0.000159   0.004479  -0.001678
  139  F  4 XZ   -0.000047  -0.000030  -0.000028   0.003890  -0.003342
  140  F  4 YZ    0.000024  -0.000047  -0.000016   0.002263  -0.000809
  141  F  4 XXX  -0.000006   0.000002   0.000008   0.000042  -0.000127
  142  F  4 YYY  -0.000007  -0.000020   0.000005  -0.000710   0.000351
  143  F  4 ZZZ  -0.000010  -0.000017  -0.000003  -0.000772   0.000370
  144  F  4 XXY   0.000015   0.000023   0.000001   0.001008  -0.000386
  145  F  4 XXZ   0.000015   0.000022   0.000000   0.000963  -0.000673
  146  F  4 YYX   0.000004  -0.000003   0.000003   0.000035   0.000303
  147  F  4 YYZ  -0.000002   0.000001   0.000003   0.000072   0.000177
  148  F  4 ZZX   0.000004  -0.000000  -0.000014  -0.000091  -0.000133
  149  F  4 ZZY  -0.000005   0.000004  -0.000008  -0.000055  -0.000085
  150  F  4 XYZ   0.000012   0.000024  -0.000003   0.000904  -0.000385

                     11         12         13         14         15
                   -1.6355    -0.9177    -0.7893    -0.7888    -0.7642
                     A          A          A          A          A   
    1  P  1  S    0.000000   0.002854   0.000023  -0.000000  -0.000082
    2  P  1  S   -0.000000   0.016688   0.000148  -0.000000   0.000594
    3  P  1  S    0.000001   0.439137   0.000353  -0.000001   0.109675
    4  P  1  S    0.000000   0.055649  -0.000028  -0.000000   0.015521
    5  P  1  S    0.000000   0.045224  -0.000210  -0.000000   0.070206
    6  P  1  X    0.025956  -0.000000  -0.000003  -0.032344   0.000000
    7  P  1  Y    0.000005  -0.000074   0.032525  -0.000003   0.000116
    8  P  1  Z    0.000000   0.017070   0.000040  -0.000000  -0.013585
    9  P  1  X   -0.075664   0.000000   0.000018   0.215529  -0.000000
   10  P  1  Y   -0.000014   0.000290  -0.215792   0.000018  -0.000762
   11  P  1  Z   -0.000000  -0.058152  -0.000676   0.000000   0.153881
   12  P  1  X   -0.028097   0.000000   0.000007   0.077375  -0.000000
   13  P  1  Y   -0.000005   0.000135  -0.077631   0.000007  -0.000273
   14  P  1  Z   -0.000000  -0.027339  -0.000181   0.000000   0.046647
   15  P  1  X   -0.003429  -0.000000   0.000001   0.008230   0.000000
   16  P  1  Y   -0.000001   0.000063  -0.007778   0.000001  -0.000066
   17  P  1  Z    0.000000   0.037199  -0.000061  -0.000000   0.048956
   18  P  1 XX    0.000004   0.001495   0.020841  -0.000002   0.021815
   19  P  1 YY   -0.000004   0.001883  -0.021022   0.000002   0.022121
   20  P  1 ZZ   -0.000000  -0.003378   0.000181  -0.000000  -0.043936
   21  P  1 XY    0.025961  -0.000000  -0.000002  -0.023923  -0.000000
   22  P  1 XZ    0.031198  -0.000000  -0.000005  -0.060239   0.000000
   23  P  1 YZ    0.000006  -0.000078   0.060396  -0.000005   0.000376
   24  P  1 XX    0.000003  -0.001313  -0.002152   0.000000   0.019974
   25  P  1 YY   -0.000003  -0.001216   0.001959  -0.000000   0.020411
   26  P  1 ZZ   -0.000000   0.002529   0.000193  -0.000000  -0.040385
   27  P  1 XY    0.015920  -0.000000   0.000000   0.002600  -0.000000
   28  P  1 XZ    0.017994  -0.000000  -0.000002  -0.027035   0.000000
   29  P  1 YZ    0.000003  -0.000051   0.026983  -0.000002   0.000241
   30  P  1 XXX   0.001940  -0.000000  -0.000000  -0.001489   0.000000
   31  P  1 YYY   0.000000   0.008628   0.001250  -0.000000   0.011437
   32  P  1 ZZZ   0.000000   0.010399  -0.000020  -0.000000   0.006517
   33  P  1 XXY   0.000000  -0.011571   0.000739  -0.000000  -0.015216
   34  P  1 XXZ  -0.000003  -0.006890  -0.005112   0.000000  -0.004381
   35  P  1 YYX   0.000761  -0.000000   0.000000  -0.000450   0.000000
   36  P  1 YYZ   0.000002  -0.007062   0.005139  -0.000000  -0.004362
   37  P  1 ZZX  -0.003365   0.000000   0.000000   0.002448  -0.000000
   38  P  1 ZZY  -0.000001  -0.000004  -0.002416   0.000000  -0.000128
   39  P  1 XYZ  -0.015341   0.000000   0.000001   0.005832   0.000000
   40  P  1 XX    0.000001   0.000215   0.003196  -0.000000   0.003218
   41  P  1 YY   -0.000001   0.000281  -0.003226   0.000000   0.003262
   42  P  1 ZZ   -0.000000  -0.000495   0.000030  -0.000000  -0.006480
   43  P  1 XY    0.003849  -0.000000  -0.000000  -0.003664  -0.000000
   44  P  1 XZ    0.004326  -0.000000  -0.000001  -0.008754   0.000000
   45  P  1 YZ    0.000001  -0.000017   0.008783  -0.000001   0.000059
   46  F  2  S    0.000000  -0.001366  -0.000592   0.000000  -0.000642
   47  F  2  S   -0.000084  -0.121380   0.086464  -0.000007   0.003669
   48  F  2  S   -0.000024  -0.038893   0.030591  -0.000003   0.001843
   49  F  2  S   -0.000050  -0.117882   0.108820  -0.000009   0.003320
   50  F  2  X   -0.003458   0.000000   0.000012   0.146715  -0.000001
   51  F  2  Y    0.000004  -0.142127   0.188912  -0.000016   0.101561
   52  F  2  Z   -0.000002   0.067163  -0.135589   0.000011   0.168947
   53  F  2  X   -0.005462   0.000000   0.000015   0.184867  -0.000001
   54  F  2  Y    0.000006  -0.177564   0.238072  -0.000020   0.129304
   55  F  2  Z   -0.000004   0.084205  -0.171184   0.000014   0.211222
   56  F  2  X   -0.001922   0.000000   0.000010   0.124191  -0.000000
   57  F  2  Y    0.000001  -0.103152   0.146935  -0.000012   0.086264
   58  F  2  Z   -0.000001   0.043959  -0.108605   0.000009   0.142500
   59  F  2 XX    0.000000  -0.001537   0.001807  -0.000000   0.000100
   60  F  2 YY   -0.000000   0.002161  -0.002288   0.000000  -0.001644
   61  F  2 ZZ    0.000000  -0.000624   0.000481  -0.000000   0.001544
   62  F  2 XY    0.000186  -0.000000  -0.000000  -0.001782   0.000000
   63  F  2 XZ    0.000126   0.000000   0.000000   0.000639  -0.000000
   64  F  2 YZ    0.000000  -0.002205   0.002897  -0.000000  -0.001221
   65  F  2 XX    0.000001  -0.006729   0.008638  -0.000001   0.001027
   66  F  2 YY   -0.000001   0.009865  -0.009181   0.000001  -0.010792
   67  F  2 ZZ    0.000000  -0.003136   0.000543  -0.000000   0.009765
   68  F  2 XY    0.001281  -0.000000  -0.000001  -0.009841   0.000000
   69  F  2 XZ   -0.001130   0.000000   0.000001   0.006366  -0.000000
   70  F  2 YZ    0.000001  -0.009084   0.014724  -0.000001  -0.006219
   71  F  2 XXX   0.000231  -0.000000  -0.000000  -0.001210   0.000000
   72  F  2 YYY   0.000000  -0.001166   0.000577  -0.000000   0.002047
   73  F  2 ZZZ   0.000000  -0.001166   0.001318  -0.000000   0.000228
   74  F  2 XXY  -0.000000   0.001503  -0.001599   0.000000  -0.000542
   75  F  2 XXZ   0.000000  -0.000685   0.001085  -0.000000  -0.000337
   76  F  2 YYX  -0.000320   0.000000   0.000000   0.001575  -0.000000
   77  F  2 YYZ  -0.000000   0.002249  -0.002853   0.000000   0.000031
   78  F  2 ZZX   0.000010   0.000000   0.000000   0.000048  -0.000000
   79  F  2 ZZY   0.000000   0.000061   0.000825  -0.000000  -0.002204
   80  F  2 XYZ   0.000272  -0.000000  -0.000000  -0.001435   0.000000
   81  F  3  S    0.001039  -0.001357   0.000302   0.000504  -0.000634
   82  F  3  S   -0.395959  -0.120967  -0.043663  -0.074824   0.003332
   83  F  3  S   -0.111448  -0.038753  -0.015438  -0.026464   0.001710
   84  F  3  S   -0.237614  -0.117308  -0.054843  -0.093963   0.002919
   85  F  3  X    0.013622  -0.122103  -0.145374  -0.104721   0.085655
   86  F  3  Y   -0.009940   0.070921  -0.060206   0.145085  -0.050782
   87  F  3  Z   -0.011096   0.066695   0.067057   0.116165   0.167571
   88  F  3  X    0.023199  -0.152553  -0.183182  -0.131976   0.109047
   89  F  3  Y   -0.016674   0.088613  -0.075838   0.182837  -0.064645
   90  F  3  Z   -0.018437   0.083628   0.084678   0.146683   0.209501
   91  F  3  X    0.005590  -0.088621  -0.117372  -0.079117   0.072750
   92  F  3  Y   -0.004363   0.051502  -0.054190   0.117244  -0.043158
   93  F  3  Z   -0.005144   0.043679   0.053714   0.093094   0.141317
   94  F  3 XX   -0.000288   0.001219   0.001787   0.000416  -0.001179
   95  F  3 YY    0.000182  -0.000599  -0.001535   0.000005  -0.000348
   96  F  3 ZZ    0.000105  -0.000620  -0.000253  -0.000422   0.001527
   97  F  3 XY    0.000671  -0.001841  -0.000279  -0.002212   0.000863
   98  F  3 XZ    0.000717  -0.001894  -0.001525  -0.001994  -0.001058
   99  F  3 YZ   -0.000344   0.001101   0.000255   0.001525   0.000612
  100  F  3 XX   -0.001761   0.005624   0.008689   0.000386  -0.007644
  101  F  3 YY    0.001015  -0.002519  -0.008379   0.000120  -0.002003
  102  F  3 ZZ    0.000745  -0.003105  -0.000310  -0.000506   0.009646
  103  F  3 XY    0.004098  -0.008283  -0.000378  -0.010151   0.005849
  104  F  3 XZ    0.004582  -0.007814  -0.009101  -0.009367  -0.005390
  105  F  3 YZ   -0.003316   0.004539  -0.001006   0.009123   0.003087
  106  F  3 XXX  -0.000254  -0.000016  -0.000797   0.000930   0.001041
  107  F  3 YYY   0.000585  -0.001109  -0.000629  -0.001103   0.000189
  108  F  3 ZZZ   0.000628  -0.001158  -0.000662  -0.001136   0.000222
  109  F  3 XXY  -0.000653   0.001518   0.000678   0.001103  -0.001348
  110  F  3 XXZ  -0.000741   0.001499   0.001856   0.001064  -0.000049
  111  F  3 YYX   0.000105  -0.000028   0.001441  -0.000652   0.000491
  112  F  3 YYZ  -0.000102   0.000055  -0.000968   0.000460  -0.000249
  113  F  3 ZZX   0.000236   0.000049  -0.000372  -0.000596  -0.001887
  114  F  3 ZZY  -0.000132  -0.000030   0.000166   0.000376   0.001094
  115  F  3 XYZ   0.000922  -0.001464  -0.000383  -0.002058  -0.000186
  116  F  4  S   -0.001040  -0.001357   0.000302  -0.000504  -0.000634
  117  F  4  S    0.396049  -0.120967  -0.043650   0.074832   0.003332
  118  F  4  S    0.111474  -0.038752  -0.015433   0.026466   0.001710
  119  F  4  S    0.237668  -0.117307  -0.054826   0.093973   0.002919
  120  F  4  X    0.013626   0.122103   0.145356  -0.104746  -0.085655
  121  F  4  Y    0.009941   0.070921  -0.060230  -0.145074  -0.050781
  122  F  4  Z    0.011098   0.066695   0.067037  -0.116176   0.167569
  123  F  4  X    0.023206   0.152552   0.183158  -0.132008  -0.109046
  124  F  4  Y    0.016676   0.088613  -0.075869  -0.182823  -0.064644
  125  F  4  Z    0.018442   0.083628   0.084653  -0.146697   0.209499
  126  F  4  X    0.005592   0.088621   0.117358  -0.079138  -0.072749
  127  F  4  Y    0.004364   0.051502  -0.054210  -0.117235  -0.043157
  128  F  4  Z    0.005145   0.043678   0.053697  -0.093103   0.141316
  129  F  4 XX    0.000288   0.001219   0.001787  -0.000416  -0.001179
  130  F  4 YY   -0.000182  -0.000599  -0.001535  -0.000005  -0.000348
  131  F  4 ZZ   -0.000106  -0.000620  -0.000253   0.000422   0.001527
  132  F  4 XY    0.000671   0.001841   0.000279  -0.002212  -0.000863
  133  F  4 XZ    0.000717   0.001894   0.001525  -0.001994   0.001058
  134  F  4 YZ    0.000344   0.001101   0.000255  -0.001525   0.000612
  135  F  4 XX    0.001761   0.005624   0.008689  -0.000388  -0.007644
  136  F  4 YY   -0.001016  -0.002519  -0.008379  -0.000118  -0.002003
  137  F  4 ZZ   -0.000745  -0.003105  -0.000310   0.000506   0.009646
  138  F  4 XY    0.004099   0.008283   0.000376  -0.010151  -0.005849
  139  F  4 XZ    0.004583   0.007814   0.009100  -0.009369   0.005390
  140  F  4 YZ    0.003316   0.004539  -0.001007  -0.009123   0.003087
  141  F  4 XXX  -0.000254   0.000016   0.000797   0.000930  -0.001041
  142  F  4 YYY  -0.000585  -0.001109  -0.000628   0.001103   0.000189
  143  F  4 ZZZ  -0.000629  -0.001158  -0.000662   0.001136   0.000222
  144  F  4 XXY   0.000653   0.001518   0.000677  -0.001104  -0.001348
  145  F  4 XXZ   0.000741   0.001499   0.001856  -0.001064  -0.000049
  146  F  4 YYX   0.000105   0.000028  -0.001441  -0.000651  -0.000491
  147  F  4 YYZ   0.000102   0.000055  -0.000968  -0.000460  -0.000249
  148  F  4 ZZX   0.000237  -0.000049   0.000372  -0.000596   0.001887
  149  F  4 ZZY   0.000132  -0.000030   0.000166  -0.000376   0.001094
  150  F  4 XYZ   0.000922   0.001464   0.000383  -0.002058   0.000186

                     16         17         18         19         20
                   -0.7230    -0.7227    -0.6790    -0.6784    -0.6653
                     A          A          A          A          A   
    1  P  1  S    0.000003   0.000000   0.000004   0.000000  -0.000000
    2  P  1  S    0.000004   0.000000   0.000023   0.000000  -0.000000
    3  P  1  S   -0.001124   0.000001   0.000052   0.000000  -0.000000
    4  P  1  S   -0.000175   0.000000  -0.000012  -0.000000   0.000000
    5  P  1  S   -0.000705   0.000000  -0.000019  -0.000000   0.000000
    6  P  1  X   -0.000000   0.008561  -0.000000   0.001536  -0.000101
    7  P  1  Y   -0.008503  -0.000000   0.001508   0.000000   0.000000
    8  P  1  Z    0.000018  -0.000000   0.000007  -0.000000   0.000000
    9  P  1  X    0.000001  -0.052141   0.000002  -0.019561   0.000306
   10  P  1  Y    0.050958  -0.000000  -0.019479  -0.000003  -0.000000
   11  P  1  Z   -0.000710   0.000001  -0.000409  -0.000000   0.000000
   12  P  1  X    0.000000  -0.021349   0.000001  -0.008546   0.000245
   13  P  1  Y    0.021017   0.000000  -0.008515  -0.000001  -0.000000
   14  P  1  Z   -0.000182   0.000000  -0.000090  -0.000000  -0.000000
   15  P  1  X   -0.000000   0.014986  -0.000005   0.036112  -0.001095
   16  P  1  Y   -0.014823  -0.000000   0.036211   0.000005   0.000000
   17  P  1  Z   -0.000260   0.000000  -0.000185  -0.000000   0.000000
   18  P  1 XX   -0.055882  -0.000000   0.025264   0.000003   0.000000
   19  P  1 YY    0.055763   0.000000  -0.025367  -0.000003  -0.000000
   20  P  1 ZZ    0.000119  -0.000000   0.000103   0.000000   0.000000
   21  P  1 XY   -0.000001   0.064911  -0.000004   0.028969  -0.000779
   22  P  1 XZ   -0.000000  -0.001175  -0.000005   0.041632  -0.000794
   23  P  1 YZ    0.001752   0.000000   0.041676   0.000005   0.000000
   24  P  1 XX   -0.050823  -0.000000   0.018470   0.000002   0.000000
   25  P  1 YY    0.050667   0.000000  -0.018653  -0.000002  -0.000000
   26  P  1 ZZ    0.000156  -0.000000   0.000183   0.000000  -0.000000
   27  P  1 XY   -0.000000   0.058737  -0.000003   0.020947  -0.000589
   28  P  1 XZ    0.000000  -0.016347  -0.000004   0.028334  -0.000293
   29  P  1 YZ    0.016697   0.000000   0.028328   0.000004   0.000000
   30  P  1 XXX  -0.000000  -0.009444  -0.000002   0.014634  -0.025851
   31  P  1 YYY   0.009343   0.000000   0.015244   0.000002   0.000000
   32  P  1 ZZZ  -0.000017   0.000000  -0.000033  -0.000000  -0.000000
   33  P  1 XXY   0.004425   0.000000   0.006759   0.000001   0.000000
   34  P  1 XXZ   0.021382   0.000000  -0.022782  -0.000003  -0.000000
   35  P  1 YYX   0.000000  -0.004052  -0.000001   0.007562   0.034246
   36  P  1 YYZ  -0.021359  -0.000000   0.022827   0.000003   0.000000
   37  P  1 ZZX  -0.000000   0.016723   0.000003  -0.027196   0.000437
   38  P  1 ZZY  -0.016960  -0.000000  -0.027211  -0.000004  -0.000000
   39  P  1 XYZ   0.000000  -0.024860   0.000003  -0.026211   0.000573
   40  P  1 XX   -0.008960  -0.000000   0.003933   0.000000   0.000000
   41  P  1 YY    0.008943   0.000000  -0.003950  -0.000001  -0.000000
   42  P  1 ZZ    0.000017  -0.000000   0.000017   0.000000   0.000000
   43  P  1 XY   -0.000000   0.010402  -0.000001   0.004507  -0.000124
   44  P  1 XZ   -0.000000  -0.000553  -0.000001   0.006384  -0.000120
   45  P  1 YZ    0.000633   0.000000   0.006390   0.000001   0.000000
   46  F  2  S   -0.000420  -0.000000   0.000341   0.000000   0.000000
   47  F  2  S   -0.021067  -0.000000   0.006601   0.000001   0.000000
   48  F  2  S   -0.007575  -0.000000   0.002986   0.000000   0.000000
   49  F  2  S   -0.033551  -0.000000   0.018073   0.000002   0.000000
   50  F  2  X   -0.000001   0.217901  -0.000020   0.142162   0.220194
   51  F  2  Y   -0.015068   0.000001   0.225735   0.000029   0.000001
   52  F  2  Z    0.206025   0.000002   0.165530   0.000021   0.000000
   53  F  2  X   -0.000001   0.272228  -0.000025   0.178742   0.275762
   54  F  2  Y   -0.017846   0.000001   0.281354   0.000036   0.000001
   55  F  2  Z    0.256869   0.000002   0.208049   0.000027   0.000001
   56  F  2  X   -0.000001   0.189781  -0.000018   0.128332   0.205627
   57  F  2  Y   -0.006470   0.000001   0.198235   0.000025   0.000001
   58  F  2  Z    0.176864   0.000002   0.156515   0.000020   0.000000
   59  F  2 XX   -0.001099  -0.000000   0.000976   0.000000   0.000000
   60  F  2 YY    0.000021  -0.000000  -0.002242  -0.000000  -0.000000
   61  F  2 ZZ    0.001078   0.000000   0.001265   0.000000   0.000000
   62  F  2 XY    0.000000  -0.002039   0.000000  -0.000516  -0.000824
   63  F  2 XZ   -0.000000   0.000858  -0.000000   0.000691   0.000750
   64  F  2 YZ   -0.002083  -0.000000   0.000569   0.000000   0.000000
   65  F  2 XX   -0.003722  -0.000000   0.003546   0.000000   0.000000
   66  F  2 YY   -0.002720  -0.000000  -0.015586  -0.000002  -0.000000
   67  F  2 ZZ    0.006442   0.000000   0.012040   0.000002   0.000000
   68  F  2 XY    0.000000  -0.010120   0.000001  -0.007161  -0.011215
   69  F  2 XZ   -0.000000   0.006225  -0.000001   0.004398   0.006732
   70  F  2 YZ   -0.010338  -0.000000  -0.002489  -0.000000  -0.000000
   71  F  2 XXX   0.000000  -0.001126   0.000000  -0.000734  -0.001203
   72  F  2 YYY   0.000967   0.000000   0.002364   0.000000   0.000000
   73  F  2 ZZZ  -0.000349   0.000000   0.000694   0.000000   0.000000
   74  F  2 XXY   0.000525  -0.000000  -0.000917  -0.000000  -0.000000
   75  F  2 XXZ  -0.000762  -0.000000  -0.000182  -0.000000  -0.000000
   76  F  2 YYX  -0.000000   0.001289  -0.000000   0.000953   0.001646
   77  F  2 YYZ   0.001230   0.000000  -0.000749  -0.000000  -0.000000
   78  F  2 ZZX  -0.000000   0.000222  -0.000000   0.000033  -0.000032
   79  F  2 ZZY  -0.001822  -0.000000  -0.002255  -0.000000  -0.000000
   80  F  2 XYZ   0.000000  -0.001378   0.000000  -0.000898  -0.001339
   81  F  3  S    0.000219   0.000364  -0.000170   0.000281  -0.000001
   82  F  3  S    0.010653   0.018746  -0.003437   0.005705   0.000053
   83  F  3  S    0.003830   0.006741  -0.001541   0.002598  -0.000008
   84  F  3  S    0.016747   0.029769  -0.009129   0.015501  -0.000049
   85  F  3  X   -0.088322   0.066562  -0.037680   0.201953  -0.117538
   86  F  3  Y   -0.165805   0.084864   0.161156  -0.043248  -0.194282
   87  F  3  Z   -0.104041  -0.179148  -0.083466   0.144265  -0.002048
   88  F  3  X   -0.110716   0.082414  -0.046319   0.252111  -0.147206
   89  F  3  Y   -0.206882   0.106433   0.201997  -0.053285  -0.243315
   90  F  3  Z   -0.129717  -0.223352  -0.104885   0.181274  -0.002581
   91  F  3  X   -0.079693   0.052929  -0.031687   0.178245  -0.109518
   92  F  3  Y   -0.142687   0.076821   0.143999  -0.036844  -0.181367
   93  F  3  Z   -0.089354  -0.153798  -0.078866   0.136402  -0.001975
   94  F  3 XX    0.001471  -0.000539   0.000386  -0.001405   0.000662
   95  F  3 YY   -0.000920   0.001470   0.000253   0.000308  -0.000650
   96  F  3 ZZ   -0.000550  -0.000931  -0.000639   0.001097  -0.000012
   97  F  3 XY    0.001152   0.000009  -0.001032   0.001287   0.000392
   98  F  3 XZ    0.000534   0.001788   0.000054   0.000586  -0.000405
   99  F  3 YZ   -0.001167  -0.000555   0.000652   0.000029  -0.000661
  100  F  3 XX    0.008045  -0.001195   0.000857  -0.011788   0.008872
  101  F  3 YY   -0.004793   0.006754   0.005209   0.001305  -0.008684
  102  F  3 ZZ   -0.003252  -0.005559  -0.006067   0.010483  -0.000189
  103  F  3 XY    0.004537  -0.001934  -0.007829   0.006766   0.005523
  104  F  3 XZ    0.001820   0.009345   0.002948  -0.000856  -0.003494
  105  F  3 YZ   -0.007249  -0.001919   0.002587   0.002812  -0.006014
  106  F  3 XXX  -0.001252  -0.000306   0.000052   0.001253  -0.001277
  107  F  3 YYY   0.000367   0.000447  -0.000246   0.000405  -0.000035
  108  F  3 ZZZ   0.000175   0.000309  -0.000351   0.000607  -0.000016
  109  F  3 XXY   0.000138   0.000098   0.000873  -0.001544   0.000043
  110  F  3 XXZ   0.000528  -0.001147  -0.000265  -0.000838   0.001057
  111  F  3 YYX   0.000981  -0.001011  -0.001066   0.000005   0.001672
  112  F  3 YYZ  -0.000762   0.000732   0.000737   0.000024  -0.001035
  113  F  3 ZZX   0.000698   0.001422   0.000997  -0.001686   0.000042
  114  F  3 ZZY  -0.000630  -0.000697  -0.000543   0.001001   0.000004
  115  F  3 XYZ   0.001091   0.000544  -0.000521   0.000047   0.000676
  116  F  4  S    0.000219  -0.000364  -0.000170  -0.000281   0.000001
  117  F  4  S    0.010653  -0.018746  -0.003435  -0.005706  -0.000053
  118  F  4  S    0.003830  -0.006741  -0.001541  -0.002599   0.000008
  119  F  4  S    0.016747  -0.029769  -0.009125  -0.015503   0.000049
  120  F  4  X    0.088319   0.066564   0.037628   0.201964  -0.117538
  121  F  4  Y   -0.165803  -0.084866   0.161144   0.043289   0.194284
  122  F  4  Z   -0.104043   0.179148  -0.083429  -0.144287   0.002047
  123  F  4  X    0.110713   0.082416   0.046255   0.252124  -0.147207
  124  F  4  Y   -0.206880  -0.106436   0.201982   0.053337   0.243318
  125  F  4  Z   -0.129720   0.223352  -0.104839  -0.181303   0.002580
  126  F  4  X    0.079691   0.052930   0.031641   0.178254  -0.109518
  127  F  4  Y   -0.142686  -0.076824   0.143988   0.036881   0.181369
  128  F  4  Z   -0.089356   0.153798  -0.078831  -0.136423   0.001974
  129  F  4 XX    0.001471   0.000539   0.000386   0.001405  -0.000662
  130  F  4 YY   -0.000920  -0.001470   0.000253  -0.000308   0.000650
  131  F  4 ZZ   -0.000550   0.000931  -0.000639  -0.001097   0.000012
  132  F  4 XY   -0.001152   0.000009   0.001031   0.001288   0.000392
  133  F  4 XZ   -0.000534   0.001788  -0.000054   0.000586  -0.000405
  134  F  4 YZ   -0.001167   0.000555   0.000652  -0.000029   0.000661
  135  F  4 XX    0.008045   0.001195   0.000854   0.011788  -0.008872
  136  F  4 YY   -0.004793  -0.006754   0.005209  -0.001303   0.008684
  137  F  4 ZZ   -0.003252   0.005559  -0.006064  -0.010485   0.000189
  138  F  4 XY   -0.004537  -0.001934   0.007827   0.006768   0.005523
  139  F  4 XZ   -0.001821   0.009345  -0.002947  -0.000857  -0.003494
  140  F  4 YZ   -0.007249   0.001919   0.002588  -0.002811   0.006015
  141  F  4 XXX   0.001252  -0.000306  -0.000052   0.001253  -0.001277
  142  F  4 YYY   0.000367  -0.000447  -0.000246  -0.000405   0.000035
  143  F  4 ZZZ   0.000175  -0.000309  -0.000351  -0.000607   0.000016
  144  F  4 XXY   0.000138  -0.000098   0.000873   0.001544  -0.000043
  145  F  4 XXZ   0.000528   0.001147  -0.000266   0.000838  -0.001057
  146  F  4 YYX  -0.000981  -0.001011   0.001066   0.000006   0.001672
  147  F  4 YYZ  -0.000762  -0.000732   0.000737  -0.000023   0.001035
  148  F  4 ZZX  -0.000698   0.001422  -0.000996  -0.001687   0.000042
  149  F  4 ZZY  -0.000630   0.000697  -0.000543  -0.001001  -0.000004
  150  F  4 XYZ  -0.001091   0.000544   0.000521   0.000047   0.000676

                     21         22         23         24         25
                   -0.4643     0.1344     0.1352     0.2615     0.3559
                     A          A          A          A          A   
    1  P  1  S   -0.001512  -0.000000  -0.000030  -0.004547  -0.076270
    2  P  1  S    0.002078  -0.000000  -0.000206  -0.043639  -0.557498
    3  P  1  S    0.376734  -0.000000  -0.000192  -0.346146  -1.155363
    4  P  1  S    0.059067  -0.000000  -0.000106   0.022806  -0.247090
    5  P  1  S    0.452940   0.000000   0.002078  -1.075475   2.599074
    6  P  1  X    0.000000  -0.038087   0.000000  -0.000000   0.000000
    7  P  1  Y   -0.000003  -0.000000  -0.038037  -0.000140   0.000260
    8  P  1  Z   -0.015615  -0.000000  -0.000055  -0.051829  -0.318980
    9  P  1  X    0.000000   0.283556  -0.000003   0.000000   0.000001
   10  P  1  Y    0.000393   0.000003   0.282591   0.000192  -0.000377
   11  P  1  Z    0.371684   0.000000  -0.000963   0.029442  -0.941739
   12  P  1  X   -0.000000   0.117100  -0.000001   0.000000  -0.000000
   13  P  1  Y    0.000111   0.000001   0.116764   0.000150  -0.000369
   14  P  1  Z    0.117467   0.000000  -0.000220   0.064322   0.057911
   15  P  1  X    0.000000   1.005523  -0.000011  -0.000001   0.000001
   16  P  1  Y    0.000187   0.000010   1.009252   0.003671   0.002152
   17  P  1  Z    0.155894   0.000000  -0.001782   1.417544   0.182197
   18  P  1 XX   -0.015924   0.000000   0.040643  -0.006071  -0.010035
   19  P  1 YY   -0.016432  -0.000000  -0.040614  -0.005321  -0.009624
   20  P  1 ZZ    0.032355   0.000000  -0.000029   0.011392   0.019658
   21  P  1 XY    0.000000   0.047074  -0.000001  -0.000000  -0.000000
   22  P  1 XZ    0.000000   0.076418  -0.000001  -0.000000  -0.000000
   23  P  1 YZ   -0.000018   0.000001   0.076784   0.000454  -0.000346
   24  P  1 XX   -0.025004   0.000001   0.061062  -0.028063   0.065223
   25  P  1 YY   -0.025399  -0.000001  -0.060492  -0.027294   0.071619
   26  P  1 ZZ    0.050403  -0.000000  -0.000570   0.055357  -0.136842
   27  P  1 XY   -0.000000   0.070872  -0.000001   0.000000  -0.000001
   28  P  1 XZ   -0.000000   0.125374  -0.000001   0.000000  -0.000001
   29  P  1 YZ    0.000107   0.000001   0.124978   0.000651  -0.002324
   30  P  1 XXX  -0.000000   0.003270  -0.000000   0.000000  -0.000000
   31  P  1 YYY  -0.015250   0.000000   0.003136  -0.002803   0.079657
   32  P  1 ZZZ  -0.017718   0.000000   0.000037  -0.008767   0.085104
   33  P  1 XXY   0.020484  -0.000000   0.001421   0.003692  -0.106863
   34  P  1 XXZ   0.011847  -0.000000  -0.004079   0.005872  -0.056232
   35  P  1 YYX  -0.000000   0.001376  -0.000000   0.000000  -0.000000
   36  P  1 YYZ   0.011925   0.000000   0.004030   0.005889  -0.057947
   37  P  1 ZZX   0.000000  -0.005763   0.000000  -0.000000   0.000000
   38  P  1 ZZY  -0.000024  -0.000000  -0.005628   0.000068  -0.000008
   39  P  1 XYZ   0.000000  -0.004846   0.000000  -0.000000   0.000000
   40  P  1 XX   -0.003634   0.000000   0.008374  -0.001451  -0.000661
   41  P  1 YY   -0.003734  -0.000000  -0.008349  -0.001250  -0.000664
   42  P  1 ZZ    0.007368   0.000000  -0.000025   0.002701   0.001325
   43  P  1 XY    0.000000   0.009680  -0.000000  -0.000000  -0.000000
   44  P  1 XZ    0.000000   0.017206  -0.000000  -0.000000  -0.000000
   45  P  1 YZ    0.000003   0.000000   0.017269   0.000097  -0.000083
   46  F  2  S    0.000904   0.000000   0.014718  -0.020621   0.031403
   47  F  2  S   -0.027809  -0.000001  -0.063014   0.081402   0.001527
   48  F  2  S   -0.008282  -0.000000  -0.029821   0.037109  -0.009750
   49  F  2  S   -0.056461  -0.000004  -0.375542   0.600393  -0.646196
   50  F  2  X   -0.000000  -0.085326   0.000001  -0.000000   0.000000
   51  F  2  Y    0.048061   0.000000   0.027723  -0.084208  -0.025665
   52  F  2  Z   -0.114956  -0.000001  -0.084267  -0.008547   0.025287
   53  F  2  X   -0.000000  -0.090089   0.000001  -0.000000   0.000000
   54  F  2  Y    0.061902   0.000000   0.039714  -0.092673  -0.030444
   55  F  2  Z   -0.141439  -0.000001  -0.104151   0.002003   0.034515
   56  F  2  X    0.000000  -0.199755   0.000002   0.000000   0.000000
   57  F  2  Y    0.051160   0.000000   0.038811  -0.312957   0.285611
   58  F  2  Z   -0.130281  -0.000002  -0.148502  -0.012675  -0.181853
   59  F  2 XX    0.000158   0.000000   0.000505   0.000772  -0.001873
   60  F  2 YY   -0.000639  -0.000000  -0.001830  -0.001991   0.002775
   61  F  2 ZZ    0.000480   0.000000   0.001325   0.001219  -0.000902
   62  F  2 XY   -0.000000  -0.001896   0.000000  -0.000000   0.000000
   63  F  2 XZ   -0.000000   0.001396  -0.000000   0.000000  -0.000000
   64  F  2 YZ    0.000247  -0.000000  -0.000131   0.000636  -0.003171
   65  F  2 XX    0.002581  -0.000000  -0.002304  -0.004796   0.026807
   66  F  2 YY   -0.003740  -0.000000   0.000042   0.006614  -0.027785
   67  F  2 ZZ    0.001159   0.000000   0.002262  -0.001818   0.000978
   68  F  2 XY   -0.000000  -0.000092   0.000000  -0.000000   0.000000
   69  F  2 XZ   -0.000000   0.005950  -0.000000  -0.000000   0.000000
   70  F  2 YZ    0.004137  -0.000000  -0.003140  -0.005328   0.046482
   71  F  2 XXX   0.000000  -0.000181   0.000000  -0.000000  -0.000000
   72  F  2 YYY   0.000474  -0.000000  -0.000046  -0.000357   0.000351
   73  F  2 ZZZ   0.000663   0.000000   0.000061  -0.000412   0.001433
   74  F  2 XXY  -0.000708   0.000000   0.000116   0.000606  -0.001751
   75  F  2 XXZ   0.000344  -0.000000  -0.000031  -0.000569   0.001471
   76  F  2 YYX   0.000000  -0.000203   0.000000   0.000000   0.000000
   77  F  2 YYZ  -0.001234  -0.000000  -0.000051   0.001122  -0.003394
   78  F  2 ZZX  -0.000000   0.000446  -0.000000  -0.000000   0.000000
   79  F  2 ZZY   0.000073  -0.000000  -0.000054  -0.000127   0.001280
   80  F  2 XYZ   0.000000  -0.000461   0.000000   0.000000  -0.000000
   81  F  3  S    0.000912   0.012619  -0.007378  -0.020797   0.031161
   82  F  3  S   -0.027627  -0.054371   0.031245   0.081199   0.001168
   83  F  3  S   -0.008225  -0.025689   0.014837   0.037138  -0.009810
   84  F  3  S   -0.056318  -0.321963   0.187120   0.602043  -0.639659
   85  F  3  X    0.041374  -0.000612  -0.048650  -0.072516  -0.021982
   86  F  3  Y   -0.024336  -0.049066  -0.056731   0.042390   0.012686
   87  F  3  Z   -0.114947  -0.072968   0.042415  -0.007967   0.024880
   88  F  3  X    0.053301   0.007173  -0.055782  -0.079672  -0.026372
   89  F  3  Y   -0.031332  -0.056314  -0.057172   0.046719   0.015216
   90  F  3  Z   -0.141411  -0.090128   0.052372   0.002699   0.034158
   91  F  3  X    0.044094  -0.021596  -0.102916  -0.270510   0.245150
   92  F  3  Y   -0.025969  -0.103203  -0.139930   0.156999  -0.142096
   93  F  3  Z   -0.130317  -0.128204   0.074646  -0.011596  -0.180643
   94  F  3 XX   -0.000436  -0.001787  -0.000607  -0.001282   0.001593
   95  F  3 YY   -0.000041   0.000641   0.001276   0.000074  -0.000699
   96  F  3 ZZ    0.000477   0.001146  -0.000669   0.001208  -0.000894
   97  F  3 XY    0.000396   0.000543  -0.001402   0.001379  -0.002305
   98  F  3 XZ    0.000215   0.000256   0.000659   0.000550  -0.002740
   99  F  3 YZ   -0.000124   0.000657   0.001009  -0.000321   0.001579
  100  F  3 XX   -0.002141  -0.000466   0.000260   0.003818  -0.013955
  101  F  3 YY    0.000983  -0.001464   0.000915  -0.001915   0.012968
  102  F  3 ZZ    0.001158   0.001930  -0.001175  -0.001903   0.000987
  103  F  3 XY    0.003173  -0.001077   0.000617  -0.005635   0.027111
  104  F  3 XZ    0.003584  -0.000896   0.003988  -0.004539   0.039936
  105  F  3 YZ   -0.002082   0.003957   0.003644   0.002670  -0.023209
  106  F  3 XXX  -0.000042  -0.000075  -0.000184   0.000059  -0.000622
  107  F  3 YYY   0.000534  -0.000189  -0.000138  -0.000457   0.001416
  108  F  3 ZZZ   0.000662   0.000049  -0.000030  -0.000412   0.001426
  109  F  3 XXY  -0.000680   0.000037  -0.000136   0.000548  -0.001251
  110  F  3 XXZ  -0.000835  -0.000209  -0.000280   0.000690  -0.002153
  111  F  3 YYX  -0.000010   0.000028   0.000026   0.000024  -0.000269
  112  F  3 YYZ  -0.000053   0.000143   0.000320  -0.000138   0.000241
  113  F  3 ZZX   0.000065   0.000073   0.000221  -0.000104   0.001103
  114  F  3 ZZY  -0.000037   0.000217   0.000321   0.000065  -0.000648
  115  F  3 XYZ   0.000792  -0.000108  -0.000199  -0.000843   0.002429
  116  F  4  S    0.000912  -0.012619  -0.007377  -0.020797   0.031161
  117  F  4  S   -0.027627   0.054372   0.031244   0.081199   0.001168
  118  F  4  S   -0.008225   0.025689   0.014837   0.037138  -0.009810
  119  F  4  S   -0.056318   0.321967   0.187113   0.602041  -0.639655
  120  F  4  X   -0.041374  -0.000611   0.048650   0.072516   0.021982
[...]
  137  F  4 ZZ   -0.020655   0.041107   0.060333  -0.083133
  138  F  4 XY    0.323000  -0.092279  -0.229804   0.178429
  139  F  4 XZ    0.198717  -0.157676  -0.232762   0.113950
  140  F  4 YZ    0.241812  -0.069437  -0.148122   0.067756
  141  F  4 XXX  -0.051481  -0.014512   0.013135   0.000740
  142  F  4 YYY  -0.053972   0.017023   0.014400  -0.022047
  143  F  4 ZZZ  -0.049290   0.013572   0.019980  -0.022136
  144  F  4 XXY   0.068205  -0.011949  -0.020679   0.033090
  145  F  4 XXZ   0.032722  -0.030263  -0.024080   0.021053
  146  F  4 YYX   0.050161   0.017903  -0.008316   0.003043
  147  F  4 YYZ   0.033407   0.012055  -0.002727   0.008645
  148  F  4 ZZX   0.018907   0.001567  -0.009306  -0.004036
  149  F  4 ZZY   0.004206  -0.010890   0.001360  -0.003511
  150  F  4 XYZ   0.095421  -0.013847  -0.038326   0.014919
 ...... END OF RHF CALCULATION ......
 STEP CPU TIME =    43.52 TOTAL CPU TIME =       43.6 (    0.7 MIN)
 TOTAL WALL CLOCK TIME=       44.8 SECONDS, CPU UTILIZATION IS  97.30%

     ----------------------------------------------------------------
     PROPERTY VALUES FOR THE RHF   SELF-CONSISTENT FIELD WAVEFUNCTION
     ----------------------------------------------------------------

          ---------------------------------------
          MULLIKEN AND LOWDIN POPULATION ANALYSES
          ---------------------------------------

               ----- POPULATIONS IN EACH AO -----
                             MULLIKEN      LOWDIN
              1  P  1  S      2.00023     1.97990
              2  P  1  S      1.91039     1.08737
              3  P  1  S      1.05960     0.57416
              4  P  1  S      0.17275     0.33201
              5  P  1  S      0.51804     0.28404
              6  P  1  X      1.91741     1.62799
              7  P  1  Y      1.91743     1.62809
              8  P  1  Z      1.92148     1.63767
              9  P  1  X      0.28298     0.26434
             10  P  1  Y      0.28322     0.26429
             11  P  1  Z      0.63933     0.43106
             12  P  1  X      0.14531     0.29982
             13  P  1  Y      0.14556     0.30034
             14  P  1  Z      0.20703     0.37471
             15  P  1  X      0.02594     0.10062
             16  P  1  Y      0.02575     0.10059
             17  P  1  Z      0.17436     0.21192
             18  P  1 XX      0.02927     0.18034
             19  P  1 YY      0.05434     0.18086
             20  P  1 ZZ      0.05463     0.19726
             21  P  1 XY      0.05096     0.05695
             22  P  1 XZ      0.05122     0.05238
             23  P  1 YZ      0.00000     0.05312
             24  P  1 XX      0.06361     0.17372
             25  P  1 YY      0.06822     0.17320
             26  P  1 ZZ      0.06823     0.23495
             27  P  1 XY      0.03962     0.15112
             28  P  1 XZ      0.03976     0.10977
             29  P  1 YZ      0.00000     0.11005
             30  P  1 XXX     0.02459     0.13869
             31  P  1 YYY     0.02818     0.13644
             32  P  1 ZZZ     0.01901     0.19714
             33  P  1 XXY     0.01067     0.08882
             34  P  1 XXZ     0.01916     0.17037
             35  P  1 YYX     0.02827     0.09715
             36  P  1 YYZ     0.01866     0.17110
             37  P  1 ZZX     0.00000     0.08258
             38  P  1 ZZY     0.00000     0.08354
             39  P  1 XYZ     0.00000     0.05839
             40  P  1 XX      0.00096     0.15998
             41  P  1 YY      0.00160     0.15996
             42  P  1 ZZ      0.00160     0.15903
             43  P  1 XY      0.00145     0.00169
             44  P  1 XZ      0.00146     0.00161
             45  P  1 YZ      0.00000     0.00162
             46  F  2  S      1.94974     1.57922
             47  F  2  S      1.07440     0.59191
             48  F  2  S      0.26161     0.40360
             49  F  2  S      0.61854     0.29694
             50  F  2  X      0.53482     0.45820
             51  F  2  Y      0.47746     0.40602
             52  F  2  Z      0.52485     0.44885
             53  F  2  X      0.86197     0.49141
             54  F  2  Y      0.79866     0.44537
             55  F  2  Z      0.84858     0.48649
             56  F  2  X      0.49558     0.40388
             57  F  2  Y      0.40502     0.36748
             58  F  2  Z      0.46057     0.40531
             59  F  2 XX      0.00009     0.14984
             60  F  2 YY      0.00022     0.15102
             61  F  2 ZZ      0.00011     0.15001
             62  F  2 XY      0.00003     0.00019
             63  F  2 XZ      0.00028     0.00006
             64  F  2 YZ      0.00000     0.00036
             65  F  2 XX      0.00178     0.14032
             66  F  2 YY      0.00341     0.14226
             67  F  2 ZZ      0.00204     0.14193
             68  F  2 XY      0.00080     0.00101
             69  F  2 XZ      0.00422     0.00030
             70  F  2 YZ      0.00000     0.00546
             71  F  2 XXX     0.00005     0.24564
             72  F  2 YYY     0.00012     0.23084
             73  F  2 ZZZ    -0.00000     0.24356
             74  F  2 XXY     0.00005     0.10042
             75  F  2 XXZ     0.00008     0.11047
             76  F  2 YYX     0.00005     0.11464
             77  F  2 YYZ     0.00008     0.11589
             78  F  2 ZZX     0.00000     0.11338
             79  F  2 ZZY     0.00000     0.10406
             80  F  2 XYZ     0.00000     0.00002
             81  F  3  S      1.94974     1.57903
             82  F  3  S      1.07435     0.59004
             83  F  3  S      0.26161     0.40259
             84  F  3  S      0.61882     0.29429
             85  F  3  X      0.49215     0.41931
             86  F  3  Y      0.52032     0.44484
             87  F  3  Z      0.52460     0.44870
             88  F  3  X      0.81485     0.45486
             89  F  3  Y      0.84590     0.48280
             90  F  3  Z      0.84823     0.48328
             91  F  3  X      0.42822     0.37819
             92  F  3  Y      0.47310     0.40209
             93  F  3  Z      0.46102     0.40201
             94  F  3 XX      0.00009     0.15001
             95  F  3 YY      0.00013     0.14957
             96  F  3 ZZ      0.00019     0.14945
             97  F  3 XY      0.00022     0.00026
             98  F  3 XZ      0.00009     0.00028
             99  F  3 YZ      0.00000     0.00013
            100  F  3 XX      0.00177     0.13888
            101  F  3 YY      0.00235     0.13983
            102  F  3 ZZ      0.00307     0.13948
            103  F  3 XY      0.00335     0.00277
            104  F  3 XZ      0.00166     0.00390
            105  F  3 YZ      0.00000     0.00176
            106  F  3 XXX     0.00005     0.23246
            107  F  3 YYY     0.00006     0.24135
            108  F  3 ZZZ     0.00006     0.24236
            109  F  3 XXY     0.00005     0.11338
            110  F  3 XXZ     0.00002     0.11374
            111  F  3 YYX     0.00010     0.10560
            112  F  3 YYZ     0.00008     0.11167
            113  F  3 ZZX     0.00000     0.10584
            114  F  3 ZZY     0.00000     0.11158
            115  F  3 XYZ     0.00000     0.00012
            116  F  4  S      1.94974     1.57903
            117  F  4  S      1.07435     0.59004
            118  F  4  S      0.26161     0.40259
            119  F  4  S      0.61882     0.29429
            120  F  4  X      0.49215     0.41931
            121  F  4  Y      0.52032     0.44484
            122  F  4  Z      0.52460     0.44870
            123  F  4  X      0.81485     0.45486
            124  F  4  Y      0.84590     0.48280
            125  F  4  Z      0.84823     0.48328
            126  F  4  X      0.42822     0.37819
            127  F  4  Y      0.47310     0.40209
            128  F  4  Z      0.46102     0.40201
            129  F  4 XX      0.00009     0.15001
            130  F  4 YY      0.00013     0.14957
            131  F  4 ZZ      0.00019     0.14945
            132  F  4 XY      0.00022     0.00026
            133  F  4 XZ      0.00009     0.00028
            134  F  4 YZ      0.00000     0.00013
            135  F  4 XX      0.00177     0.13888
            136  F  4 YY      0.00235     0.13983
            137  F  4 ZZ      0.00307     0.13948
            138  F  4 XY      0.00335     0.00277
            139  F  4 XZ      0.00166     0.00390
            140  F  4 YZ      0.00000     0.00176
            141  F  4 XXX     0.00005     0.23246
            142  F  4 YYY     0.00006     0.24135
            143  F  4 ZZZ     0.00006     0.24236
            144  F  4 XXY     0.00005     0.11338
            145  F  4 XXZ     0.00002     0.11374
            146  F  4 YYX     0.00010     0.10560
            147  F  4 YYZ     0.00008     0.11167
            148  F  4 ZZX     0.00000     0.10584
            149  F  4 ZZY     0.00000     0.11158
            150  F  4 XYZ     0.00000     0.00012

          ----- MULLIKEN ATOMIC OVERLAP POPULATIONS -----
          (OFF-DIAGONAL ELEMENTS NEED TO BE MULTIPLIED BY 2)

             1           2           3           4

    1   13.1520015
    2    0.2901684   9.0700211
    3    0.2900465  -0.0174895   9.0717026
    4    0.2900462  -0.0174895  -0.0179966   9.0717037

          TOTAL MULLIKEN AND LOWDIN ATOMIC POPULATIONS
       ATOM         MULL.POP.    CHARGE          LOW.POP.     CHARGE
    1 P            14.022263    0.977737        14.880745    0.119255
    2 F             9.325211   -0.325211         9.046384   -0.046384
    3 F             9.326263   -0.326263         9.036435   -0.036435
    4 F             9.326264   -0.326264         9.036436   -0.036436

          MULLIKEN SPHERICAL HARMONIC POPULATIONS
       ATOM           S       P       D      F      G      H      I    TOTAL
    1 P             5.66    7.69    0.53   0.15   0.00   0.00   0.00   14.02
    2 F             3.90    5.41    0.01   0.00   0.00   0.00   0.00    9.33
    3 F             3.90    5.41    0.01   0.00   0.00   0.00   0.00    9.33
    4 F             3.90    5.41    0.01   0.00   0.00   0.00   0.00    9.33

          -------------------------------
          BOND ORDER AND VALENCE ANALYSIS     BOND ORDER THRESHOLD=0.050
          -------------------------------

                   BOND                       BOND                       BOND
  ATOM PAIR DIST  ORDER      ATOM PAIR DIST  ORDER      ATOM PAIR DIST  ORDER
    1   2  1.577  1.025        1   3  1.578  1.024        1   4  1.578  1.024

                       TOTAL       BONDED        FREE
      ATOM            VALENCE     VALENCE     VALENCE
    1 P                 3.072       3.072      -0.000
    2 F                 1.023       1.023       0.000
    3 F                 1.021       1.021       0.000
    4 F                 1.021       1.021       0.000

          ---------------------
          ELECTROSTATIC MOMENTS
          ---------------------

 POINT   1           X           Y           Z (BOHR)    CHARGE
                 0.000000    0.000457    0.011763        0.00 (A.U.)
         DX          DY          DZ         /D/  (DEBYE)
     0.000005    0.015817    1.248910    1.249010
 ...... END OF PROPERTY EVALUATION ......
 STEP CPU TIME =     0.03 TOTAL CPU TIME =       43.7 (    0.7 MIN)
 TOTAL WALL CLOCK TIME=       44.9 SECONDS, CPU UTILIZATION IS  97.28%

     ---------------------------
     COUPLED CLUSTER CALCULATION
     ---------------------------
 CCTYP                        =CCSD    
 TOTAL NUMBER OF MOS          =   129
 NUMBER OF OCCUPIED MOS       =    21
 NUMBER OF FROZEN CORE MOS    =     8
 NUMBER OF FROZEN VIRTUAL MOS =     0
 MAXIMUM CC ITERATIONS        =    30
 MAXIMUM DIIS ITERATIONS      =     5
 CONVERGENCE CRITERION FOR CC =     7
 AMPLITUDE ACCURACY THRESHOLD = 0.0E+00

     --------------------------------------------
     PARTIAL TWO ELECTRON INTEGRAL TRANSFORMATION
     --------------------------------------------

 NUMBER OF CORE MOLECULAR ORBITALS     =    8
 NUMBER OF OCCUPIED MOLECULAR ORBITALS =  129
 TOTAL NUMBER OF MOLECULAR ORBITALS    =  129
 TOTAL NUMBER OF ATOMIC ORBITALS       =  150
 THRESHOLD FOR KEEPING TRANSFORMED 2E- INTEGRALS = 1.000E-09
 AO INTEGRALS WILL BE CALCULATED IN DIRECT MODE...
 EVALUATING THE FROZEN CORE ENERGY...
 ----- FROZEN CORE ENERGY =      -682.8135695291

 PLAN A: REQUIREMENTS FOR FULLY IN-MEMORY TRANSFORMATION:
 # OF WORDS AVAILABLE =            380000000
 # OF WORDS NEEDED    =            205777544

 CHOOSING IN MEMORY PARTIAL TRANSFORMATION...
 DIRECT TRANSFORMATION SKIPS AO INTEGRAL STORAGE ON DISK.
 TOTAL NUMBER OF TRANSFORMED 2E- INTEGRALS KEPT =     26844885
 ... END OF INTEGRAL TRANSFORMATION ...
 STEP CPU TIME =    40.68 TOTAL CPU TIME =       84.4 (    1.4 MIN)
 TOTAL WALL CLOCK TIME=       85.8 SECONDS, CPU UTILIZATION IS  98.26%

   -----------------------
   COUPLED-CLUSTER PROGRAM
   -----------------------

   -------------------------------------------------------
   P.PIECUCH, S.A.KUCHARSKI, M.WLOCH, K.KOWALSKI, M.MUSIAL
   -------------------------------------------------------

 *****************************************************************
 THE FOLLOWING PAPERS SHOULD BE CITED WHEN USING COUPLED-CLUSTER
 OPTIONS:

 CCTYP = LCCD, CCD, CCSD, CCSD(T)
 P. PIECUCH, S.A. KUCHARSKI, K. KOWALSKI, AND M. MUSIAL,
 COMP. PHYS. COMMUN. 149, 71-96 (2002).

 CCTYP = R-CC, CR-CC, CCSD(TQ), CR-CC(Q)
 P. PIECUCH, S.A. KUCHARSKI, K. KOWALSKI, AND M. MUSIAL,
 COMP. PHYS. COMMUN. 149, 71-96 (2002);
 K. KOWALSKI AND P. PIECUCH, J. CHEM. PHYS. 113, 18-35 (2000);
 K. KOWALSKI AND P. PIECUCH, J. CHEM. PHYS. 113, 5644-5652 (2000).

 CCTYP = EOM-CCSD, CR-EOM
 P. PIECUCH, S.A. KUCHARSKI, K. KOWALSKI, AND M. MUSIAL,
 COMP. PHYS. COMMUN. 149, 71-96 (2002);
 K. KOWALSKI AND P. PIECUCH, J. CHEM. PHYS. 120, 1715-1738 (2004);
 M. WLOCH, J.R. GOUR, K. KOWALSKI, AND P. PIECUCH,
 J. CHEM. PHYS. 122, 214107-1 - 214107-15 (2005).

 CCTYP = CR-CCL
 P. PIECUCH, S.A. KUCHARSKI, K. KOWALSKI, AND M. MUSIAL,
 COMP. PHYS. COMMUN. 149, 71-96 (2002);
 P. PIECUCH AND M. WLOCH, J. CHEM. PHYS. 123,
 224105-1 - 224105-10 (2005).

 CCTYP = CR-EOML
 P. PIECUCH, S.A. KUCHARSKI, K. KOWALSKI, AND M. MUSIAL,
 COMP. PHYS. COMMUN. 149, 71-96 (2002);
 P. PIECUCH, J. R. GOUR, AND M. WLOCH,
 INT. J. QUANTUM CHEM. 109, 3268-3304 (2009);
 K. KOWALSKI AND P. PIECUCH,
 J. CHEM. PHYS. 120, 1715-1738 (2004).

 IN ADDITION, THE USE OF CCPRP=.TRUE. IN $CCINP AND/OR THE USE
 OF CCPRPE=.TRUE. IN $EOMINP SHOULD REFERENCE

 M. WLOCH, J.R. GOUR, K. KOWALSKI, AND P. PIECUCH,
 J. CHEM. PHYS. 122, 214107-1 - 214107-15 (2005).
 *****************************************************************


 THE FOLLOWING CALCULATIONS WILL BE PERFORMED:
                                                     CCSD   

 THE FOLLOWING ENERGY WILL BE CONSIDERED THE HIGHEST LEVEL:    CCSD   
 THE AVAILABLE REPLICATED MEMORY IS   380000000 WORDS.
 CONVERGENCE THRESHOLD:   1.0E-07
 MAXIMUM NUMBER OF ITERATIONS:   30

 MEMORY TO BE USED IN CC INTEGRAL SORTING IS   137338608 WORDS.
 THE MINIMUM MEMORY TO ACCOMPLISH SORTING IS    17665968 WORDS.
     26844885 NON-ZERO TRANSFORMED 2E- INTEGRALS WERE SORTED INTO FILE 72:
         4161 [IJ|KL] TYPE,      126074 [AJ|KL] TYPE,
       530184 [AB|IJ] TYPE,      970749 [IA|BJ] TYPE,
      8132921 [AB|CI] TYPE,    17080796 [AB|CD] TYPE.
 TRANSFORMED INTEGRAL FILE  9 WAS READ    3 TIMES.
 ....... DONE WITH CC INTEGRAL PREPARATION .......
 STEP CPU TIME =    10.05 TOTAL CPU TIME =       94.4 (    1.6 MIN)
 TOTAL WALL CLOCK TIME=      223.5 SECONDS, CPU UTILIZATION IS  42.24%

 MEMORY REQUIRED FOR THE CCSD ITERATIONS IS    25802714 WORDS.
 ITER:  1   CCSD    CORR. ENERGY:  -0.8779379215   CONV.: -1.0034E-02
 ITER:  2   CCSD    CORR. ENERGY:  -0.8916942114   CONV.: -5.4051E-03
 ITER:  3   CCSD    CORR. ENERGY:  -0.8922845479   CONV.: -2.0745E-03
 ITER:  4   CCSD    CORR. ENERGY:  -0.8928668799   CONV.: -1.6432E-02
 ITER:  5   CCSD    CORR. ENERGY:  -0.8928937818   CONV.: -1.6372E-02
 ITER:  6   CCSD    CORR. ENERGY:  -0.8936022208   CONV.: -1.4892E-02
 ITER:  7   CCSD    CORR. ENERGY:  -0.8959946085   CONV.: -9.3428E-03
 ITER:  8   CCSD    CORR. ENERGY:  -0.8998931649   CONV.: -5.4185E-04
 ITER:  9   CCSD    CORR. ENERGY:  -0.9000384804   CONV.: -6.1593E-05
 ITER: 10   CCSD    CORR. ENERGY:  -0.9000547986   CONV.: -2.9609E-05
 ITER: 11   CCSD    CORR. ENERGY:  -0.9000538632   CONV.: -6.8774E-06
 ITER: 12   CCSD    CORR. ENERGY:  -0.9000546325   CONV.:  4.0609E-06
 ITER: 13   CCSD    CORR. ENERGY:  -0.9000543984   CONV.: -1.0452E-06
 ITER: 14   CCSD    CORR. ENERGY:  -0.9000543507   CONV.: -2.1216E-07
 ITER: 15   CCSD    CORR. ENERGY:  -0.9000543700   CONV.: -1.0572E-07
 ITER: 16   CCSD    CORR. ENERGY:  -0.9000543682   CONV.: -7.6122E-08
 ITER: 17   CCSD    CORR. ENERGY:  -0.9000543745   CONV.: -7.6122E-08

     THE    CCSD     ITERATIONS HAVE CONVERGED

    MBPT(2) CORRELATION ENERGY:  -0.8952562156
    CCSD    CORRELATION ENERGY:  -0.9000543745

 T1 DIAGNOSTIC        =     0.01334131
 NORM OF THE T1 VECTOR=     0.06802757
 NORM OF THE T2 VECTOR=     0.39560983

 THE FIVE LARGEST T1 AMPLITUDES ARE:
 T1 AMPLITUDE IS -0.024682 FOR I=  18 -> A=  23
 T1 AMPLITUDE IS -0.024625 FOR I=  19 -> A=  22
 T1 AMPLITUDE IS -0.022967 FOR I=  14 -> A=  22
 T1 AMPLITUDE IS -0.022762 FOR I=  13 -> A=  23
 T1 AMPLITUDE IS -0.016463 FOR I=  21 -> A=  24

 THE FIVE LARGEST SPIN-UNIQUE T2 AMPLITUDES ARE:
 T2 AMPLITUDE IS -0.063827 FOR I,J=  21  21 -> A,B=  22  22
 T2 AMPLITUDE IS -0.063549 FOR I,J=  21  21 -> A,B=  23  23
 T2 AMPLITUDE IS  0.028993 FOR I,J=  21  21 -> A,B=  22  26
 T2 AMPLITUDE IS -0.028976 FOR I,J=  21  21 -> A,B=  23  27
 T2 AMPLITUDE IS -0.028687 FOR I,J=  21  21 -> A,B=  31  31
 PRINTED T2(I-ALPHA,J-BETA -> A-ALPHA,B-BETA) VALUES
 EQUAL   T2(J-ALPHA,I-BETA -> B-ALPHA,A-BETA) AMPLITUDES.

 ....... DONE WITH CC AMPLITUDE ITERATIONS .......
 STEP CPU TIME =  1312.62 TOTAL CPU TIME =     1407.0 (   23.5 MIN)
 TOTAL WALL CLOCK TIME=     1552.3 SECONDS, CPU UTILIZATION IS  90.64%

                      SUMMARY OF RESULTS

      REFERENCE ENERGY:     -639.3033240499
        MBPT(2) ENERGY:     -640.1985802655   CORR.E=  -0.8952562156
        CCSD    ENERGY:     -640.2033784244   CORR.E=  -0.9000543745

 THE FOLLOWING METHOD AND ENERGY WILL BE CONSIDERED THE HIGHEST LEVEL RESULT:
 COUPLED-CLUSTER ENERGY E(CCSD) =     -640.2033784244

            205821644  WORDS OF DYNAMIC MEMORY USED
 EXECUTION OF GAMESS TERMINATED NORMALLY Mon Nov 28 12:40:20 2016
 DDI: 263640 bytes (0.3 MB / 0 MWords) used by master data server.

 ----------------------------------------
 CPU timing information for all processes
 ========================================
 0: 1395.210 + 11.836 = 1407.47
 ----------------------------------------
 ddikick.x: exited gracefully.
unset echo
----- accounting info -----
Files used on the master node compute-3-0 were:
-rw-rw-r-- 1 sarom sarom     314511 Nov 28  2016 .//cc-ccsd-pf3.dat
-rw-rw-r-- 1 sarom sarom       6039 Nov 28  2016 .//cc-ccsd-pf3.F05
-rw-rw-r-- 1 sarom sarom  322287696 Nov 28  2016 .//cc-ccsd-pf3.F09
-rw-rw-r-- 1 sarom sarom    3075680 Nov 28  2016 .//cc-ccsd-pf3.F10
-rw-rw-r-- 1 sarom sarom   31865856 Nov 28  2016 .//cc-ccsd-pf3.F70
-rw-rw-r-- 1 sarom sarom  157809600 Nov 28  2016 .//cc-ccsd-pf3.F71
-rw-rw-r-- 1 sarom sarom 2862065664 Nov 28  2016 .//cc-ccsd-pf3.F72
-rw-rw-r-- 1 sarom sarom      33696 Nov 28  2016 .//cc-ccsd-pf3.F73
-rw-rw-r-- 1 sarom sarom   31539456 Nov 28  2016 .//cc-ccsd-pf3.F74
-rw-rw-r-- 1 sarom sarom          0 Nov 28  2016 .//cc-ccsd-pf3.F75
-rw-rw-r-- 1 sarom sarom          0 Nov 28  2016 .//cc-ccsd-pf3.F76
-rw-rw-r-- 1 sarom sarom          0 Nov 28  2016 .//cc-ccsd-pf3.F77
-rw-rw-r-- 1 sarom sarom       6039 Nov 28  2016 .//cc-ccsd-pf3.inp
-rw-rw-r-- 1 sarom sarom     326535 Nov 28  2016 .//cc-ccsd-pf3.log
Mon Nov 28 12:40:24 CST 2016
0.206u 0.798s 25:57.14 0.0%	0+0k 64+144io 0pf+0w
