-catch_rsh /opt/gridengine/default/spool/compute-0-7/active_jobs/35989.1/pe_hostfile
compute-0-7
The primary node assigned by SGE to this run is compute-0-7
Warning: no access to tty (Bad file descriptor).
Thus no job control in this shell.
source /home/sarom/dir.git.branch.saromleang-travis-ci/install.info
setenv GMS_PATH /home/sarom/dir.git.branch.saromleang-travis-ci
setenv GMS_BUILD_DIR /home/sarom/dir.git.branch.saromleang-travis-ci
setenv GMS_TARGET linux64
setenv GMS_FORTRAN gfortran
setenv GMS_GFORTRAN_VERNO 4.4
setenv GMS_MATHLIB mkl-so
setenv GMS_MATHLIB none
setenv GMS_MATHLIB_PATH /share/apps/intel/compilers_and_libraries_2017.1.132/linux/mkl/lib/intel64
setenv GMS_MKL_VERNO 12
setenv GMS_DDI_COMM sockets
setenv GMS_LIBCCHEM false
setenv GMS_EIGEN_PATH
setenv GMS_PHI false
setenv GMS_SHMTYPE sysv
setenv GMS_OPENMP false
unset echo
cc-multiref
/home/sarom/dir.git.branch.saromleang-travis-ci/tests/cc
----- GAMESS execution script 'rungms' -----
This job is running on host compute-0-7.local
under operating system Linux at Wed Aug 9 20:53:41 CDT 2017
Available scratch disk space (Kbyte units) at beginning of the job is
Filesystem           1K-blocks      Used Available Use% Mounted on
/dev/sda1             16126920   3962060  11345660  26% /
GAMESS temporary binary files will be written to /scratch
GAMESS supplementary output files will be written to /home/sarom/restart
Copying input file cc-multiref.inp to your run's scratch directory...
cp /home/sarom/dir.git.branch.saromleang-travis-ci/tests/cc/cc-multiref.inp /scratch/cc-multiref.F05
unset echo
The generated host list is
compute-0-7.local
/home/sarom/dir.git.branch.saromleang-travis-ci/ddikick.x /home/sarom/dir.git.branch.saromleang-travis-ci/gamess.00.x cc-multiref -ddi 1 1 compute-0-7.local -scr /scratch

 Distributed Data Interface kickoff program.
 Initiating 1 compute processes on 1 nodes to run the following command:
 /home/sarom/dir.git.branch.saromleang-travis-ci/gamess.00.x cc-multiref 

          ******************************************************
          *         GAMESS VERSION = 20 APR 2017 (R1)          *
          *             FROM IOWA STATE UNIVERSITY             *
          * M.W.SCHMIDT, K.K.BALDRIDGE, J.A.BOATZ, S.T.ELBERT, *
          *   M.S.GORDON, J.H.JENSEN, S.KOSEKI, N.MATSUNAGA,   *
          *          K.A.NGUYEN, S.J.SU, T.L.WINDUS,           *
          *       TOGETHER WITH M.DUPUIS, J.A.MONTGOMERY       *
          *         J.COMPUT.CHEM.  14, 1347-1363(1993)        *
          **************** 64 BIT LINUX VERSION ****************

  SINCE 1993, STUDENTS AND POSTDOCS WORKING AT IOWA STATE UNIVERSITY
  AND ALSO IN THEIR VARIOUS JOBS AFTER LEAVING ISU HAVE MADE IMPORTANT
  CONTRIBUTIONS TO THE CODE:
     IVANA ADAMOVIC, CHRISTINE AIKENS, YURI ALEXEEV, POOJA ARORA,
     ANDREY ASADCHEV, ROB BELL, PRADIPTA BANDYOPADHYAY, JONATHAN BENTZ,
     BRETT BODE, KURT BRORSEN, CALEB CARLIN, GALINA CHABAN, WEI CHEN,
     CHEOL HO CHOI, PAUL DAY, ALBERT DEFUSCO, NUWAN DESILVA, TIM DUDLEY,
     DMITRI FEDOROV, GRAHAM FLETCHER, MARK FREITAG, KURT GLAESEMANN,
     DAN KEMP, GRANT MERRILL, NORIYUKI MINEZAWA, JONATHAN MULLIN,
     TAKESHI NAGATA, SEAN NEDD, HEATHER NETZLOFF, BOSILJKA NJEGIC, RYAN OLSON,
     MIKE PAK, SPENCER PRUITT, LUKE ROSKOP, JIM SHOEMAKER, LYUDMILA SLIPCHENKO,
     TONY SMITH, SAROM SOK LEANG, JIE SONG, TETSUYA TAKETSUGU, SIMON WEBB,
     PENG XU, SOOHAENG YOO, FEDERICO ZAHARIEV

  ADDITIONAL CODE HAS BEEN PROVIDED BY COLLABORATORS IN OTHER GROUPS:
     IOWA STATE UNIVERSITY:
          JOE IVANIC, AARON WEST, LAIMUTIS BYTAUTAS, KLAUS RUEDENBERG
     UNIVERSITY OF TOKYO: KIMIHIKO HIRAO, TAKAHITO NAKAJIMA,
          TAKAO TSUNEDA, MUNEAKI KAMIYA, SUSUMU YANAGISAWA,
          KIYOSHI YAGI, MAHITO CHIBA, SEIKEN TOKURA, NAOAKI KAWAKAMI
     UNIVERSITY OF AARHUS: FRANK JENSEN
     UNIVERSITY OF IOWA: VISVALDAS KAIRYS, HUI LI
     NATIONAL INST. OF STANDARDS AND TECHNOLOGY: WALT STEVENS, DAVID GARMER
     UNIVERSITY OF PISA: BENEDETTA MENNUCCI, JACOPO TOMASI
     UNIVERSITY OF MEMPHIS: HENRY KURTZ, PRAKASHAN KORAMBATH
     UNIVERSITY OF ALBERTA: TOBY ZENG, MARIUSZ KLOBUKOWSKI
     UNIVERSITY OF NEW ENGLAND: MARK SPACKMAN
     MIE UNIVERSITY: HIROAKI UMEDA
     NAT. INST. OF ADVANCED INDUSTRIAL SCIENCE AND TECHNOLOGY: KAZUO KITAURA
     MICHIGAN STATE UNIVERSITY:
          KAROL KOWALSKI, MARTA WLOCH, JEFFREY GOUR, JESSE LUTZ,
          WEI LI, PIOTR PIECUCH
     UNIVERSITY OF SILESIA: MONIKA MUSIAL, STANISLAW KUCHARSKI
     FACULTES UNIVERSITAIRES NOTRE-DAME DE LA PAIX:
          OLIVIER QUINET, BENOIT CHAMPAGNE
     UNIVERSITY OF CALIFORNIA - SANTA BARBARA: BERNARD KIRTMAN
     INSTITUTE FOR MOLECULAR SCIENCE:
          KAZUYA ISHIMURA, MICHIO KATOUDA, AND SHIGERU NAGASE
     UNIVERSITY OF NOTRE DAME: ANNA POMOGAEVA, DAN CHIPMAN
     KYUSHU UNIVERSITY:
          HARUYUKI NAKANO,
          FENG LONG GU, JACEK KORCHOWIEC, MARCIN MAKOWSKI, AND YURIKO AOKI,
          HIROTOSHI MORI AND EISAKU MIYOSHI
     PENNSYLVANIA STATE UNIVERSITY:
          TZVETELIN IORDANOV, CHET SWALINA, JONATHAN SKONE,
          SHARON HAMMES-SCHIFFER
     WASEDA UNIVERSITY:
          MASATO KOBAYASHI, TOMOKO AKAMA, TSUGUKI TOUMA,
          TAKESHI YOSHIKAWA, YASUHIRO IKABATA, JUNJI SEINO,
          YUYA NAKAJIMA, HIROMI NAKAI
     NANJING UNIVERSITY: SHUHUA LI
     UNIVERSITY OF NEBRASKA:
          PEIFENG SU, DEJUN SI, NANDUN THELLAMUREGE, YALI WANG, HUI LI
     UNIVERSITY OF ZURICH: ROBERTO PEVERATI, KIM BALDRIDGE
     N. COPERNICUS UNIVERSITY AND JACKSON STATE UNIVERSITY:
          MARIA BARYSZ
     UNIVERSITY OF COPENHAGEN: Jimmy Kromann, CASPER STEINMANN
     TOKYO INSTITUTE OF TECHNOLOGY: HIROYA NAKATA
     NAGOYA UNIVERSITY: YOSHIO NISHIMOTO, STEPHAN IRLE
     MOSCOW STATE UNIVERSITY: VLADIMIR MIRONOV

 EXECUTION OF GAMESS BEGUN Wed Aug  9 20:53:41 2017

            ECHO OF THE FIRST FEW INPUT CARDS -
 INPUT CARD>!   test for robustness of CC methods on a multireference molecule,             
 INPUT CARD>!   collected from Aaron in February 2012.                                      
 INPUT CARD>!                                                                               
 INPUT CARD>!   ROHF with Na=Nb is the same as RHF, but executes through                    
 INPUT CARD>!   different codes, causing it to find different results below.                
 INPUT CARD>!   See 'cc-compare' for a single reference case, where these                   
 INPUT CARD>!   two programs agree perfectly.                                               
 INPUT CARD>!                                                                               
 INPUT CARD>!   RHF and ROHF both have FINAL energy=     -152.6951541172.                   
 INPUT CARD>!    RHF-based right-CCSD starts at E(corr)=   -0.4391399016,                   
 INPUT CARD>!                         using MP2 doubles amplitudes as its guess,            
 INPUT CARD>!                         converged E(CCSD)= -153.1269835608.                   
 INPUT CARD>!   ROHF-based right-CCSD starts at E(corr)=   -0.4353625553                    
 INPUT CARD>!                         using an unknown initial guess,                       
 INPUT CARD>!                         converged E(CCSD)= -153.1941150500.                   
 INPUT CARD>!    This run is chosen to be ROHF, and getw -153.1941149870                    
 INPUT CARD>!                                                                               
 INPUT CARD>!   We request CR-CCL below to be sure the ROHF runs the left-CCSD.             
 INPUT CARD>!   The triples corrections of course diff, and aren't recorded here.           
 INPUT CARD>!                                                                               
 INPUT CARD>!   iterations are numerous,                                                    
 INPUT CARD>!    RHF-based code: right CCSD= 105 iters, left-CCSD= 249 iters,               
 INPUT CARD>!   ROHF-based code: right CCSD=  97 iters, left-CCSD= 456 iters.               
 INPUT CARD>!                                                                               
 INPUT CARD>!   orbital 12 is the HOMO, orbital 13 the LUMO of this closed shell.           
 INPUT CARD>!                                                                               
 INPUT CARD>!   For the RHF-based implementation, the right-CCSD has two large T1's,        
 INPUT CARD>!        T1 AMPLITUDE IS -0.460944 FOR I=  12 -> A=  13                         
 INPUT CARD>!        T1 AMPLITUDE IS  0.109722 FOR I=   9 -> A=  13                         
 INPUT CARD>!   and its left-CCSD greatly reduces these, (print bug! there's 3 cores)       
 INPUT CARD>!        LA1=  -0.2428659409 FOR   I -> A   =    9   10                         
 INPUT CARD>!        LA1=   0.0657633055 FOR   I -> A   =    6   10                         
 INPUT CARD>!   The RHF program can do a density matrix, and prints the fairly              
 INPUT CARD>!   benign looking 17.67 e- in principal and 0.33 in secndary NOs.              
 INPUT CARD>!                                                                               
 INPUT CARD>!   For the ROHF-based implementation, the right-CCSD has                       
 INPUT CARD>!        T1=   0.8268849275 FOR IA -> AA =  12  13                              
 INPUT CARD>!        T1=   0.8268849212 FOR IB -> AB =  12  13                              
 INPUT CARD>!        T2=  -0.7456463842 FOR IA,JB -> AA, BB =  12  12  13  13               
 INPUT CARD>!   and its left-CCSD again greatly reduces these amplitudes,                   
 INPUT CARD>!        LA1=   0.1364476918 FOR IA -> AA =  12  13                             
 INPUT CARD>!        LA1=   0.1364469203 FOR IB -> AB =  12  13                             
 INPUT CARD>!        LA2=  -0.1410144061 FOR IA,JB -> AA, BB =  12  12  13  13              
 INPUT CARD>!                                                                               
 INPUT CARD>!   These large amplitudes teach us not to trust CC for MR problems.            
 INPUT CARD>!   MWS does not understand why the large amplitudes are much smaller           
 INPUT CARD>!   in the left CCSD solutions.                                                 
 INPUT CARD>!                                                                               
 INPUT CARD>!   this run takes 73/309 seconds for RHF/ROHF on 2.66 GHz Clov (18 Jul 2016)   
 INPUT CARD>!                                                                               
  250000000 WORDS OF MEMORY AVAILABLE

     BASIS OPTIONS
     -------------
     GBASIS=N31          IGAUSS=       6      POLAR=POPN31  
     NDFUNC=       1     NFFUNC=       0     DIFFSP=       F
     NPFUNC=       0      DIFFS=       F     BASNAM=        


     RUN TITLE
     ---------
 Aaron's point 14...somewhere in the O + C2H4 system                             

 THE POINT GROUP OF THE MOLECULE IS C1      
 THE ORDER OF THE PRINCIPAL AXIS IS     0

 ATOM      ATOMIC                      COORDINATES (BOHR)
           CHARGE         X                   Y                   Z
 C           6.0    -0.8894128224        0.0484102365        0.6936924948
 C           6.0     1.2220522561        0.0768441413       -1.2344705256
 O           8.0    -0.1600229831        0.3105364663        3.2382865890
 H           1.0    -2.2929818968        1.4876025871        0.2787237432
 H           1.0    -1.8624188954       -1.7645807544        0.6414128649
 H           1.0     3.1464138532       -0.0986442349       -0.6292948240
 H           1.0     0.7645482550       -0.2938658868       -3.1735255705

          INTERNUCLEAR DISTANCES (ANGS.)
          ------------------------------

                1 C          2 C          3 O          4 H          5 H     

   1 C       0.0000000    1.5131977 *  1.4076193 *  1.0862296 *  1.0891813 *
   2 C       1.5131977 *  0.0000000    2.4803854 *  2.1583337 *  2.1445555 *
   3 O       1.4076193 *  2.4803854 *  0.0000000    2.0284828 *  1.9763206 *
   4 H       1.0862296 *  2.1583337 *  2.0284828 *  0.0000000    1.7465755 *
   5 H       1.0891813 *  2.1445555 *  1.9763206 *  1.7465755 *  0.0000000  
   6 H       2.2488363 *  1.0715286 *  2.7013003 *  3.0365601    2.8731181 *
   7 H       2.2331102 *  1.0723735 *  3.4429668    2.6160923 *  2.5716987 *

                6 H          7 H     

   1 C       2.2488363 *  2.2331102 *
   2 C       1.0715286 *  1.0723735 *
   3 O       2.7013003 *  3.4429668  
   4 H       3.0365601    2.6160923 *
   5 H       2.8731181 *  2.5716987 *
   6 H       0.0000000    1.8471626 *
   7 H       1.8471626 *  0.0000000  

  * ... LESS THAN  3.000


     ATOMIC BASIS SET
     ----------------
 THE CONTRACTED PRIMITIVE FUNCTIONS HAVE BEEN UNNORMALIZED
 THE CONTRACTED BASIS FUNCTIONS ARE NOW NORMALIZED TO UNITY

  SHELL TYPE  PRIMITIVE        EXPONENT          CONTRACTION COEFFICIENT(S)

 C         

      1   S       1          3047.5248800    0.001834737132
      1   S       2           457.3695180    0.014037322813
      1   S       3           103.9486850    0.068842622264
      1   S       4            29.2101553    0.232184443216
      1   S       5             9.2866630    0.467941348435
      1   S       6             3.1639270    0.362311985337

      2   L       7             7.8682723   -0.119332419775    0.068999066591
      2   L       8             1.8812885   -0.160854151696    0.316423960957
      2   L       9             0.5442493    1.143456437840    0.744308290898

      3   L      10             0.1687145    1.000000000000    1.000000000000

      4   D      11             0.8000000    1.000000000000

 C         

      5   S      12          3047.5248800    0.001834737132
      5   S      13           457.3695180    0.014037322813
      5   S      14           103.9486850    0.068842622264
      5   S      15            29.2101553    0.232184443216
      5   S      16             9.2866630    0.467941348435
      5   S      17             3.1639270    0.362311985337

      6   L      18             7.8682723   -0.119332419775    0.068999066591
      6   L      19             1.8812885   -0.160854151696    0.316423960957
      6   L      20             0.5442493    1.143456437840    0.744308290898

      7   L      21             0.1687145    1.000000000000    1.000000000000

      8   D      22             0.8000000    1.000000000000

 O         

      9   S      23          5484.6716600    0.001831074430
      9   S      24           825.2349460    0.013950172200
      9   S      25           188.0469580    0.068445078098
      9   S      26            52.9645000    0.232714335992
      9   S      27            16.8975704    0.470192897984
      9   S      28             5.7996353    0.358520852987

     10   L      29            15.5396162   -0.110777549525    0.070874268231
     10   L      30             3.5999336   -0.148026262701    0.339752839147
     10   L      31             1.0137618    1.130767015354    0.727158577316

     11   L      32             0.2700058    1.000000000000    1.000000000000

     12   D      33             0.8000000    1.000000000000

 H         

     13   S      34            18.7311370    0.033494604338
     13   S      35             2.8253944    0.234726953484
     13   S      36             0.6401217    0.813757326146

     14   S      37             0.1612778    1.000000000000

 H         

     15   S      38            18.7311370    0.033494604338
     15   S      39             2.8253944    0.234726953484
     15   S      40             0.6401217    0.813757326146

     16   S      41             0.1612778    1.000000000000

 H         

     17   S      42            18.7311370    0.033494604338
     17   S      43             2.8253944    0.234726953484
     17   S      44             0.6401217    0.813757326146

     18   S      45             0.1612778    1.000000000000

 H         

     19   S      46            18.7311370    0.033494604338
     19   S      47             2.8253944    0.234726953484
     19   S      48             0.6401217    0.813757326146

     20   S      49             0.1612778    1.000000000000

 TOTAL NUMBER OF BASIS SET SHELLS             =   20
 NUMBER OF CARTESIAN GAUSSIAN BASIS FUNCTIONS =   53
 NOTE: THIS RUN WILL RESTRICT THE MO VARIATION SPACE TO SPHERICAL HARMONICS.
 THE NUMBER OF ORBITALS KEPT IN THE VARIATIONAL SPACE WILL BE PRINTED LATER.
 NUMBER OF ELECTRONS                          =   24
 CHARGE OF MOLECULE                           =    0
 SPIN MULTIPLICITY                            =    1
 NUMBER OF OCCUPIED ORBITALS (ALPHA)          =   12
 NUMBER OF OCCUPIED ORBITALS (BETA )          =   12
 TOTAL NUMBER OF ATOMS                        =    7
 THE NUCLEAR REPULSION ENERGY IS       66.8041054592

     $CONTRL OPTIONS
     ---------------
 SCFTYP=ROHF         RUNTYP=ENERGY       EXETYP=RUN     
 MPLEVL=       0     CITYP =NONE         CCTYP =CR-CCL       VBTYP =NONE    
 DFTTYP=NONE         TDDFT =NONE    
 MULT  =       1     ICHARG=       0     NZVAR =       0     COORD =UNIQUE  
 PP    =NONE         RELWFN=NONE         LOCAL =NONE         NUMGRD=       F
 ISPHER=       1     NOSYM =       0     MAXIT =      30     UNITS =ANGS    
 PLTORB=       F     MOLPLT=       F     AIMPAC=       F     FRIEND=        
 NPRINT=       7     IREST =       0     GEOM  =INPUT   
 NORMF =       0     NORMP =       0     ITOL  =      20     ICUT  =       9
 INTTYP=BEST         GRDTYP=BEST         QMTTOL= 1.0E-06

     $SYSTEM OPTIONS
     ---------------
  REPLICATED MEMORY=   250000000 WORDS (ON EVERY NODE).
 DISTRIBUTED MEMDDI=           0 MILLION WORDS IN AGGREGATE,
 MEMDDI DISTRIBUTED OVER   1 PROCESSORS IS           0 WORDS/PROCESSOR.
 TOTAL MEMORY REQUESTED ON EACH PROCESSOR=   250000000 WORDS.
 TIMLIM=      525600.00 MINUTES, OR     365.0 DAYS.
 PARALL= F  BALTYP=  DLB     KDIAG=    0  COREFL= F
 MXSEQ2=     300 MXSEQ3=     150  mem10=         0

          ----------------
          PROPERTIES INPUT
          ----------------

     MOMENTS            FIELD           POTENTIAL          DENSITY
 IEMOM =       1   IEFLD =       0   IEPOT =       0   IEDEN =       0
 WHERE =COMASS     WHERE =NUCLEI     WHERE =NUCLEI     WHERE =NUCLEI  
 OUTPUT=BOTH       OUTPUT=BOTH       OUTPUT=BOTH       OUTPUT=BOTH    
 IEMINT=       0   IEFINT=       0                     IEDINT=       0
                                                       MORB  =       0
          EXTRAPOLATION IN EFFECT
          DIIS IN EFFECT
 ORBITAL PRINTING OPTION: NPREO=     1    53     2     1

     -------------------------------
     INTEGRAL TRANSFORMATION OPTIONS
     -------------------------------
     NWORD  =            0
     CUTOFF = 1.0E-09     MPTRAN =       0
     DIRTRF =       F     AOINTS =DUP     

          ----------------------
          INTEGRAL INPUT OPTIONS
          ----------------------
 NOPK  =       1 NORDER=       0 SCHWRZ=       T

     -------------------------------------------
     EQUATION OF MOTION INPUT FOR EXCITED STATES
     -------------------------------------------
     OPTIONS FOR STATE SELECTION:
     GROUP =C1        NSTATE= 0, 0, 0, 0, 0, 0, 0, 0    IROOT = 1, 0
     OPTIONS FOR THE EOM-CCSD:
     MEOM  =       0  MAXEOM=      50  MICEOM=      80  CVGEOM= 1.0E-07
     OPTIONS FOR EOM-CCSD WITH ROHF REFERENCES:
     JREST =       0  MULT =      -1
     OPTIONS FOR PROPERTIES:
     CCPRP =       F  CCPRPE =       F
     OPTIONS FOR INITIAL GUESSES:
     MINIT =       2  MACT =       0  NOACT =       0  NUACT =       0
     NO DOUBLE EXCITATIONS WILL BE INCLUDED IN THE INITIAL GUESS

     ------------------------------------------
     THE POINT GROUP IS C1 , NAXIS= 0, ORDER= 1
     ------------------------------------------

 -- VARIATIONAL SPACE WILL BE RESTRICTED TO PURE SPHERICAL HARMONICS ONLY --
 AFTER EXCLUDING CONTAMINANT COMBINATIONS FROM THE CARTESIAN GAUSSIAN BASIS
 SET, THE NUMBER OF SPHERICAL HARMONICS KEPT IN THE VARIATION SPACE IS   50

     DIMENSIONS OF THE SYMMETRY SUBSPACES ARE
 A   =   50

 ..... DONE SETTING UP THE RUN .....
 STEP CPU TIME =     0.02 TOTAL CPU TIME =        0.0 (    0.0 MIN)
 TOTAL WALL CLOCK TIME=        0.0 SECONDS, CPU UTILIZATION IS  66.67%

          ********************
          1 ELECTRON INTEGRALS
          ********************
 ...... END OF ONE-ELECTRON INTEGRALS ......
 STEP CPU TIME =     0.01 TOTAL CPU TIME =        0.0 (    0.0 MIN)
 TOTAL WALL CLOCK TIME=        0.0 SECONDS, CPU UTILIZATION IS 100.00%

          -------------
          GUESS OPTIONS
          -------------
          GUESS =HUCKEL            NORB  =       0          NORDER=       0
          MIX   =       F          PRTMO =       F          PUNMO =       F
          TOLZ  = 1.0E-08          TOLE  = 1.0E-05
          SYMDEN=       F          PURIFY=       F

 INITIAL GUESS ORBITALS GENERATED BY HUCKEL   ROUTINE.
 HUCKEL GUESS REQUIRES     27154 WORDS.

 STATISTICS FOR GENERATION OF SYMMETRY ORBITAL -Q- MATRIX
 NUMBER OF CARTESIAN ATOMIC ORBITALS=         53
 NUMBER OF SPHERICAL CONTAMINANTS DROPPED=     3
 NUMBER OF LINEARLY DEPENDENT MOS DROPPED=     0
 TOTAL NUMBER OF MOS IN VARIATION SPACE=      50

 SYMMETRIES FOR INITIAL GUESS ORBITALS FOLLOW.  ALPHA SET(S).
    12 ORBITALS ARE OCCUPIED (    3 CORE ORBITALS).
     4=A        5=A        6=A        7=A        8=A        9=A       10=A   
    11=A       12=A       13=A       14=A       15=A       16=A       17=A   
    18=A       19=A       20=A       21=A       22=A   

 SYMMETRIES FOR INITIAL GUESS ORBITALS FOLLOW.   BETA SET(S).
    12 ORBITALS ARE OCCUPIED (    3 CORE ORBITALS).
     4=A        5=A        6=A        7=A        8=A        9=A       10=A   
    11=A       12=A       13=A       14=A       15=A       16=A       17=A   
    18=A       19=A       20=A       21=A       22=A   
 ...... END OF INITIAL ORBITAL SELECTION ......
 STEP CPU TIME =     0.00 TOTAL CPU TIME =        0.0 (    0.0 MIN)
 TOTAL WALL CLOCK TIME=        0.0 SECONDS, CPU UTILIZATION IS 100.00%

                    ----------------------
                    AO INTEGRAL TECHNOLOGY
                    ----------------------
     S,P,L SHELL ROTATED AXIS INTEGRALS, REPROGRAMMED BY
        KAZUYA ISHIMURA (IMS) AND JOSE SIERRA (SYNSTAR).
     S,P,D,L SHELL ROTATED AXIS INTEGRALS PROGRAMMED BY
        KAZUYA ISHIMURA (INSTITUTE FOR MOLECULAR SCIENCE).
     S,P,D,F,G SHELL TO TOTAL QUARTET ANGULAR MOMENTUM SUM 5,
        ERIC PROGRAM BY GRAHAM FLETCHER (ELORET AND NASA ADVANCED
        SUPERCOMPUTING DIVISION, AMES RESEARCH CENTER).
     S,P,D,F,G,L SHELL GENERAL RYS QUADRATURE PROGRAMMED BY
        MICHEL DUPUIS (PACIFIC NORTHWEST NATIONAL LABORATORY).

          --------------------
          2 ELECTRON INTEGRALS
          --------------------

 THE -PK- OPTION IS OFF, THE INTEGRALS ARE NOT IN SUPERMATRIX FORM.
 STORING   15000 INTEGRALS/RECORD ON DISK, USING 12 BYTES/INTEGRAL.
 TWO ELECTRON INTEGRAL EVALUATION REQUIRES   90606 WORDS OF MEMORY.
 SCHWARZ INEQUALITY OVERHEAD:      1430 INTEGRALS, T=        0.00
 II,JST,KST,LST =  1  1  1  1 NREC =         1 INTLOC =    1
 II,JST,KST,LST =  2  1  1  1 NREC =         1 INTLOC =    2
 II,JST,KST,LST =  3  1  1  1 NREC =         1 INTLOC =   34
 II,JST,KST,LST =  4  1  1  1 NREC =         1 INTLOC =  214
 II,JST,KST,LST =  5  1  1  1 NREC =         1 INTLOC = 1189
 II,JST,KST,LST =  6  1  1  1 NREC =         1 INTLOC = 3195
 II,JST,KST,LST =  7  1  1  1 NREC =         2 INTLOC =  926
 II,JST,KST,LST =  8  1  1  1 NREC =         3 INTLOC = 8160
 II,JST,KST,LST =  9  1  1  1 NREC =         7 INTLOC = 6053
 II,JST,KST,LST = 10  1  1  1 NREC =         8 INTLOC = 3758
 II,JST,KST,LST = 11  1  1  1 NREC =        13 INTLOC = 1633
 II,JST,KST,LST = 12  1  1  1 NREC =        20 INTLOC =  668
 II,JST,KST,LST = 13  1  1  1 NREC =        34 INTLOC =13150
 II,JST,KST,LST = 14  1  1  1 NREC =        38 INTLOC = 1352
 II,JST,KST,LST = 15  1  1  1 NREC =        41 INTLOC = 8043
 II,JST,KST,LST = 16  1  1  1 NREC =        45 INTLOC = 2875
 II,JST,KST,LST = 17  1  1  1 NREC =        49 INTLOC = 1484
 II,JST,KST,LST = 18  1  1  1 NREC =        53 INTLOC = 2422
 II,JST,KST,LST = 19  1  1  1 NREC =        57 INTLOC = 8354
 II,JST,KST,LST = 20  1  1  1 NREC =        61 INTLOC =11452
 SCHWARZ INEQUALITY TEST SKIPPED         648 INTEGRAL BLOCKS.
 TOTAL NUMBER OF NONZERO TWO-ELECTRON INTEGRALS =              985156
         66 INTEGRAL RECORDS WERE STORED ON DISK FILE  8.
  ...... END OF TWO-ELECTRON INTEGRALS .....
 STEP CPU TIME =     0.07 TOTAL CPU TIME =        0.1 (    0.0 MIN)
 TOTAL WALL CLOCK TIME=        0.1 SECONDS, CPU UTILIZATION IS  83.33%

          ---------------------------
                 ROHF SCF CALCULATION
          ---------------------------

     NUCLEAR ENERGY =        66.8041054592
     MAXIT = 30     NPUNCH=  2     MULT=  1
     EXTRAP=T  DAMP=F  SHIFT=F  RSTRCT=F  DIIS=T  SOSCF=F
     DENSITY MATRIX CONV=  1.00E-06
     ROHF CANONICALIZATION PARAMETERS
             C-C     O-O     V-V
     ALPHA -0.5000  0.5000  1.5000
     BETA   1.5000  0.5000 -0.5000
     MEMORY REQUIRED FOR UHF/ROHF ITERS=     56741 WORDS.

 ITER EX      TOTAL ENERGY        E CHANGE  DENSITY CHANGE    DIIS ERROR
          * * *   INITIATING DIIS PROCEDURE   * * *
   1  0     -152.0869255569  -152.0869255569   0.839663460   0.621976967
   2  1     -151.7234804573     0.3634450996   0.718920695   0.453494952
   3  2     -152.4987692493    -0.7752887920   0.184589517   0.176395414
   4  3     -152.6804222045    -0.1816529552   0.035154513   0.047570755
   5  4     -152.6909493620    -0.0105271574   0.016493784   0.013212846
   6  5     -152.6928536035    -0.0019042415   0.015636480   0.008010057
   7  6     -152.6940462886    -0.0011926852   0.024549271   0.005451534
   8  7     -152.6950025802    -0.0009562915   0.010237100   0.002148418
   9  8     -152.6951266465    -0.0001240663   0.004534545   0.000820084
  10  9     -152.6951478008    -0.0000211544   0.001643656   0.000356031
  11 10     -152.6951513142    -0.0000035133   0.001142999   0.000242608
  12 11     -152.6951529666    -0.0000016524   0.001415599   0.000157625
  13 12     -152.6951539974    -0.0000010307   0.000540594   0.000049588
  14 13     -152.6951541125    -0.0000001151   0.000070011   0.000009820
  15 14     -152.6951541166    -0.0000000041   0.000016923   0.000006023
  16 15     -152.6951541171    -0.0000000005   0.000007390   0.000002192
  17 16     -152.6951541172    -0.0000000001   0.000001955   0.000000891
  18 17     -152.6951541172    -0.0000000000   0.000000978   0.000000246

 ROHF HAS CONVERGED, NOW COMPUTING EXACT ALPHA,BETA FOCK MATRICES
 FOR USE DURING THE COUPLED CLUSTER CALCULATION THAT FOLLOWS.

          -----------------
          DENSITY CONVERGED
          -----------------
     TIME TO FORM FOCK OPERATORS=       0.3 SECONDS (       0.0 SEC/ITER)
     TIME TO SOLVE SCF EQUATIONS=       0.0 SECONDS (       0.0 SEC/ITER)

 FINAL ROHF ENERGY IS     -152.6951541172 AFTER  18 ITERATIONS

          --------------------
          SPIN SZ   =    0.000
          S-SQUARED =    0.000
          --------------------

          ------------
          EIGENVECTORS
          ------------

                      1          2          3          4          5
                  -20.4049   -11.3877   -11.2750    -1.1910    -1.0377
                     A          A          A          A          A   
    1  C  1  S   -0.000075   0.002877   0.996265  -0.121704  -0.052544
    2  C  1  S   -0.000632  -0.000293   0.025350   0.238133   0.103327
    3  C  1  X    0.000141  -0.000184   0.000216   0.037808   0.037518
    4  C  1  Y    0.000075  -0.000020  -0.000156   0.004561  -0.013514
    5  C  1  Z    0.000536   0.000085  -0.000808   0.077504  -0.152651
    6  C  1  S    0.006770   0.002770  -0.016979   0.130656   0.098465
    7  C  1  X    0.001160   0.001640  -0.000425  -0.004475   0.002689
    8  C  1  Y    0.000112  -0.000073   0.000346  -0.002938  -0.002788
    9  C  1  Z    0.003238  -0.000910   0.001573  -0.016488  -0.039871
   10  C  1 XX    0.000054  -0.000134  -0.000052  -0.006030   0.007164
   11  C  1 YY   -0.000054   0.000221  -0.000020  -0.006950   0.001439
   12  C  1 ZZ   -0.000000  -0.000088   0.000071   0.012980  -0.008603
   13  C  1 XY    0.000028  -0.000019  -0.000039   0.000814  -0.000914
   14  C  1 XZ    0.000032   0.000292   0.000032   0.006076  -0.017075
   15  C  1 YZ    0.000002   0.000017   0.000014   0.002127  -0.001823
   16  C  2  S    0.000025   0.996287  -0.003031  -0.058300  -0.176180
   17  C  2  S    0.000019   0.023652  -0.000509   0.121439   0.370721
   18  C  2  X    0.000187   0.000289   0.000115  -0.033211  -0.016747
   19  C  2  Y   -0.000019  -0.000108   0.000005  -0.001770  -0.018466
   20  C  2  Z   -0.000210  -0.000432  -0.000127   0.039505  -0.011822
   21  C  2  S   -0.001285  -0.013357   0.004302   0.086721   0.313955
   22  C  2  X   -0.000594   0.000221  -0.001695   0.000280   0.003248
   23  C  2  Y    0.000033   0.000447  -0.000028  -0.001084  -0.009323
   24  C  2  Z   -0.000809  -0.000284   0.001596   0.008339  -0.025533
   25  C  2 XX    0.000088   0.000363  -0.000144   0.003796   0.011315
   26  C  2 YY   -0.000003  -0.000667   0.000197  -0.008314  -0.019949
   27  C  2 ZZ   -0.000084   0.000304  -0.000053   0.004518   0.008634
   28  C  2 XY    0.000027  -0.000071  -0.000009  -0.000344  -0.000743
   29  C  2 XZ    0.000101   0.000048   0.000454  -0.005928   0.002707
   30  C  2 YZ    0.000024   0.000165   0.000019   0.000703   0.004148
   31  O  3  S    0.995909   0.000007  -0.000102  -0.174418   0.098803
   32  O  3  S    0.022145  -0.000035  -0.000152   0.376493  -0.216249
   33  O  3  X   -0.000422  -0.000012  -0.000070  -0.021423   0.011879
   34  O  3  Y   -0.000171  -0.000006  -0.000021  -0.009132   0.001223
   35  O  3  Z   -0.001627   0.000047  -0.000111  -0.084639   0.004864
   36  O  3  S   -0.010385  -0.000216   0.001778   0.401769  -0.247178
   37  O  3  X    0.001057  -0.000094   0.000130  -0.013059   0.004006
   38  O  3  Y    0.000427   0.000054  -0.000013  -0.006023   0.001315
   39  O  3  Z    0.003659   0.000106  -0.000339  -0.052912   0.009401
   40  O  3 XX    0.000276   0.000067   0.000123  -0.005480   0.000075
   41  O  3 YY    0.000277  -0.000066   0.000219  -0.007025   0.000502
   42  O  3 ZZ   -0.000553  -0.000001  -0.000342   0.012505  -0.000577
   43  O  3 XY   -0.000047   0.000008  -0.000026   0.000712  -0.000151
   44  O  3 XZ   -0.000281  -0.000020  -0.000213   0.005725  -0.001045
   45  O  3 YZ   -0.000111  -0.000006  -0.000073   0.002396  -0.000212
   46  H  4  S   -0.000387  -0.000158  -0.000014   0.055191   0.033690
   47  H  4  S   -0.000314   0.000503   0.003206   0.003470   0.001203
   48  H  5  S   -0.000460  -0.000192  -0.000001   0.060147   0.036583
   49  H  5  S   -0.000527   0.000460   0.003371   0.005457   0.003483
   50  H  6  S    0.000046  -0.000336  -0.000248   0.030684   0.123616
   51  H  6  S    0.000718   0.002842   0.000248  -0.000600   0.021319
   52  H  7  S   -0.000090  -0.000371  -0.000232   0.028577   0.139115
   53  H  7  S    0.000030   0.002833   0.000287   0.001014   0.021448

                      6          7          8          9         10
                   -0.8474    -0.7027    -0.6195    -0.6047    -0.4526
                     A          A          A          A          A   
    1  C  1  S   -0.132179  -0.020942  -0.017117  -0.006758   0.040491
    2  C  1  S    0.261514   0.047324   0.029737   0.014331  -0.104834
    3  C  1  X   -0.112573   0.094573  -0.309989  -0.157255  -0.162514
    4  C  1  Y   -0.020202  -0.005792  -0.154656   0.388066  -0.050848
    5  C  1  Z   -0.105440   0.007298   0.142851   0.007573  -0.346198
    6  C  1  S    0.275467   0.044743   0.103767   0.031114  -0.100743
    7  C  1  X   -0.042156   0.022994  -0.121456  -0.072806  -0.092725
    8  C  1  Y   -0.015841  -0.004831  -0.074972   0.197695  -0.028409
    9  C  1  Z   -0.073353  -0.020504   0.002537  -0.018906  -0.156489
   10  C  1 XX    0.002180   0.008226  -0.004534   0.006993   0.007612
   11  C  1 YY    0.013936  -0.001544   0.020965  -0.003942   0.011764
   12  C  1 ZZ   -0.016116  -0.006682  -0.016431  -0.003051  -0.019377
   13  C  1 XY   -0.001799   0.001187   0.005806  -0.024026  -0.002089
   14  C  1 XZ    0.000245  -0.004002   0.017518   0.010778  -0.009776
   15  C  1 YZ   -0.003127  -0.000214   0.002413  -0.013335  -0.003135
   16  C  2  S    0.071285  -0.004840   0.028654   0.003704  -0.008976
   17  C  2  S   -0.152685   0.017114  -0.069093  -0.007170   0.016768
   18  C  2  X   -0.215824   0.238829   0.335139   0.123019  -0.001487
   19  C  2  Y    0.023792   0.034293  -0.069057   0.088524  -0.000215
   20  C  2  Z    0.119596   0.406096  -0.175089  -0.051148   0.092576
   21  C  2  S   -0.180122   0.010989  -0.097641  -0.018754   0.025937
   22  C  2  X   -0.068052   0.123284   0.195688   0.067141  -0.024844
   23  C  2  Y    0.011353   0.013113  -0.041383   0.058462  -0.001689
   24  C  2  Z    0.046450   0.166096  -0.083181  -0.027563   0.051070
   25  C  2 XX   -0.004482   0.030975   0.007905   0.006505   0.016538
   26  C  2 YY    0.010212   0.000597  -0.000813  -0.001901   0.001670
   27  C  2 ZZ   -0.005730  -0.031572  -0.007092  -0.004604  -0.018208
   28  C  2 XY    0.002377  -0.004831   0.001553  -0.012327   0.000555
   29  C  2 XZ   -0.018751  -0.004149   0.016374   0.006048   0.000467
   30  C  2 YZ   -0.003769  -0.009833  -0.001759   0.006569  -0.003645
   31  O  3  S    0.078497   0.028390   0.017762   0.003683  -0.066414
   32  O  3  S   -0.175835  -0.063504  -0.041717  -0.009078   0.145562
   33  O  3  X   -0.032976   0.029481  -0.122102  -0.060003   0.090904
   34  O  3  Y   -0.007270  -0.006512  -0.063544   0.152086   0.029178
   35  O  3  Z   -0.051358  -0.055940  -0.004064  -0.010530   0.436127
   36  O  3  S   -0.219826  -0.088452  -0.053365  -0.006634   0.319497
   37  O  3  X   -0.016971   0.011145  -0.071067  -0.032807   0.062171
   38  O  3  Y   -0.002325  -0.003810  -0.034119   0.076704   0.019975
   39  O  3  Z   -0.025286  -0.030376  -0.006005  -0.008230   0.292922
   40  O  3 XX   -0.002295  -0.002548   0.001979   0.001225   0.013272
   41  O  3 YY   -0.002770  -0.001925  -0.000300  -0.002271   0.014634
   42  O  3 ZZ    0.005065   0.004472  -0.001679   0.001046  -0.027905
   43  O  3 XY    0.000606  -0.000074   0.002537  -0.002717  -0.000948
   44  O  3 XZ    0.004545  -0.000667   0.009347   0.004221  -0.010136
   45  O  3 YZ    0.000957   0.000805   0.004619  -0.009904  -0.004096
   46  H  4  S    0.141918  -0.018807   0.061446   0.239215   0.058905
   47  H  4  S    0.049261  -0.015605   0.037428   0.168788   0.073820
   48  H  5  S    0.137131  -0.002802   0.187726  -0.161509   0.054032
   49  H  5  S    0.044489  -0.007426   0.129146  -0.116826   0.073762
   50  H  6  S   -0.146324   0.203133   0.137369   0.058489   0.043428
   51  H  6  S   -0.061502   0.101392   0.073687   0.041388   0.068096
   52  H  7  S   -0.100980  -0.259985   0.033631   0.000021  -0.071695
   53  H  7  S   -0.040759  -0.169089   0.032536   0.001750  -0.076794

                     11         12         13         14         15
                   -0.3213    -0.2962    -0.0269     0.2152     0.2432
                     A          A          A          A          A   
    1  C  1  S   -0.008268  -0.003509   0.004488  -0.014308  -0.076949
    2  C  1  S    0.002881   0.003377  -0.014870   0.000197   0.027326
    3  C  1  X   -0.066072   0.002735  -0.019630  -0.076471  -0.105517
    4  C  1  Y    0.024084  -0.078302  -0.101656  -0.019664  -0.041836
    5  C  1  Z   -0.006630  -0.005782   0.022476   0.012019  -0.115734
    6  C  1  S    0.067098   0.022937   0.020668   0.440477   1.529732
    7  C  1  X    0.057846   0.004156   0.010135  -0.091277  -0.279495
    8  C  1  Y   -0.013245   0.047351  -0.064451  -0.012980  -0.159499
    9  C  1  Z   -0.107347  -0.052569  -0.005919   0.128667  -0.294870
   10  C  1 XX    0.014098  -0.000224  -0.003584  -0.001214  -0.012452
   11  C  1 YY    0.007782   0.011520   0.008414   0.000832  -0.010689
   12  C  1 ZZ   -0.021880  -0.011296  -0.004830   0.000383   0.023141
   13  C  1 XY   -0.003788   0.012190   0.031959  -0.002686   0.002868
   14  C  1 XZ    0.034788   0.002441  -0.000511   0.002247   0.006751
   15  C  1 YZ   -0.008273   0.039491  -0.001131   0.001481   0.003560
   16  C  2  S    0.036160   0.013685  -0.012169  -0.112866   0.042858
   17  C  2  S   -0.083576  -0.035018   0.020363   0.149333  -0.017835
   18  C  2  X    0.093742   0.019550   0.023250   0.090519  -0.181105
   19  C  2  Y   -0.012115  -0.164858   0.447154  -0.058761  -0.001489
   20  C  2  Z   -0.122561  -0.012158  -0.059226  -0.207461  -0.180873
   21  C  2  S   -0.279411  -0.078997   0.059886   1.905891  -0.810279
   22  C  2  X    0.121516   0.051278   0.052196   0.345722  -0.528531
   23  C  2  Y    0.009797  -0.196475   0.613158  -0.226400   0.038518
   24  C  2  Z   -0.030851   0.027212  -0.089380  -0.676521  -0.805462
   25  C  2 XX   -0.004011  -0.001831  -0.000847  -0.000572   0.019726
   26  C  2 YY   -0.001119   0.000870  -0.000313   0.001010  -0.009567
   27  C  2 ZZ    0.005130   0.000961   0.001160  -0.000438  -0.010159
   28  C  2 XY   -0.002066   0.006686   0.006912  -0.000562   0.001631
   29  C  2 XZ    0.004591   0.000184   0.000394  -0.008663   0.000052
   30  C  2 YZ    0.001556  -0.001166  -0.006877   0.000147  -0.001815
   31  O  3  S    0.000882  -0.000634   0.000637  -0.002649  -0.014669
   32  O  3  S   -0.011485  -0.001781  -0.001271   0.026212   0.038467
   33  O  3  X    0.570839   0.075571   0.038346   0.076160  -0.007264
   34  O  3  Y   -0.098436   0.561994   0.141872   0.005364   0.004480
   35  O  3  Z   -0.126517  -0.064971  -0.009907  -0.016080  -0.071561
   36  O  3  S    0.037192   0.021518  -0.004277  -0.101824   0.057613
   37  O  3  X    0.472964   0.062719   0.035212   0.107301   0.026426
   38  O  3  Y   -0.083797   0.487320   0.146790   0.009783   0.014642
   39  O  3  Z   -0.121293  -0.063785  -0.009184   0.023639  -0.074246
   40  O  3 XX   -0.009977  -0.001582  -0.000259  -0.001381   0.000485
   41  O  3 YY    0.000249  -0.003973   0.000078   0.001846  -0.002310
   42  O  3 ZZ    0.009727   0.005554   0.000181  -0.000466   0.001824
   43  O  3 XY   -0.002220  -0.005240   0.000682  -0.000351  -0.000065
   44  O  3 XZ   -0.021261  -0.002762  -0.000882  -0.001303   0.001258
   45  O  3 YZ    0.004096  -0.022379  -0.003969   0.000279   0.000178
   46  H  4  S    0.095625  -0.067959  -0.109894   0.028696  -0.035527
   47  H  4  S    0.152429  -0.130765  -0.181824  -0.155271  -0.882409
   48  H  5  S    0.028596   0.096320   0.142332   0.013019  -0.024182
   49  H  5  S    0.041111   0.167438   0.253600  -0.266484  -0.979853
   50  H  6  S   -0.000499   0.002575  -0.019920  -0.053505   0.064825
   51  H  6  S    0.044625  -0.017818  -0.030957  -1.108963   1.477624
   52  H  7  S    0.040261   0.012963  -0.016612  -0.032737  -0.018965
   53  H  7  S    0.124560   0.044405  -0.023608  -1.756221  -0.825851

                     16         17         18         19         20
                    0.2823     0.3248     0.3853     0.4116     0.6860
                     A          A          A          A          A   
    1  C  1  S   -0.103656   0.009632  -0.084536  -0.057015   0.045454
    2  C  1  S    0.069041  -0.017590   0.035489   0.040032  -0.121352
    3  C  1  X   -0.092674   0.049498   0.304774  -0.063374   0.081709
    4  C  1  Y   -0.035903  -0.382221   0.016100  -0.003211   0.043933
    5  C  1  Z   -0.087622   0.041306  -0.157031   0.136248  -0.092819
    6  C  1  S    2.046005  -0.137270   1.916049   0.988952   0.449899
    7  C  1  X   -0.596232   0.239203   1.853319   0.061147  -0.617547
    8  C  1  Y   -0.149395  -1.562438   0.128153   0.083551  -0.116501
    9  C  1  Z   -0.435356   0.180434  -0.548192   1.854781   0.143831
   10  C  1 XX    0.013022   0.000357  -0.016061   0.006672   0.048521
   11  C  1 YY    0.000333   0.001543   0.012246   0.009818  -0.088849
   12  C  1 ZZ   -0.013355  -0.001900   0.003815  -0.016490   0.040329
   13  C  1 XY    0.001257  -0.003098  -0.007585  -0.001143  -0.001048
   14  C  1 XZ   -0.002504  -0.001016  -0.012847  -0.012877  -0.069592
   15  C  1 YZ    0.000097   0.014784  -0.001362  -0.005427   0.008705
   16  C  2  S    0.017043   0.000416   0.082313  -0.001947  -0.034396
   17  C  2  S    0.050636   0.001923  -0.105084   0.029327   0.092167
   18  C  2  X    0.186288   0.006899   0.061821  -0.193940  -0.655154
   19  C  2  Y    0.015340  -0.022092  -0.018037  -0.006406   0.065889
   20  C  2  Z    0.168926   0.022317  -0.065564  -0.027436   0.500161
   21  C  2  S   -0.410323  -0.067262  -1.620751   0.249273   0.581921
   22  C  2  X    1.155533  -0.085255   1.264109  -0.729491   1.108130
   23  C  2  Y    0.097243   0.414676  -0.075336  -0.018338  -0.124135
   24  C  2  Z    0.621491  -0.024866  -1.661958  -0.085245  -0.621186
   25  C  2 XX    0.005988  -0.003099  -0.008281  -0.038371  -0.004847
   26  C  2 YY   -0.009319  -0.001880   0.006086   0.002542   0.032850
   27  C  2 ZZ    0.003331   0.004979   0.002194   0.035829  -0.028003
   28  C  2 XY    0.001967   0.012647  -0.004397  -0.001954   0.005431
   29  C  2 XZ   -0.011735   0.003237  -0.049740  -0.002511  -0.055043
   30  C  2 YZ    0.000697  -0.025227  -0.001772   0.004430  -0.011019
   31  O  3  S    0.001011  -0.001283   0.019947   0.080194  -0.015614
   32  O  3  S    0.001075   0.004337   0.005031  -0.062352   0.073580
   33  O  3  X    0.024679  -0.016837  -0.065530   0.092592   0.102518
   34  O  3  Y    0.000412   0.092864  -0.000364   0.031440   0.007571
   35  O  3  Z    0.079213  -0.014227   0.112076   0.224544  -0.121832
   36  O  3  S    0.002421  -0.008622  -0.432590  -1.437438  -0.019201
   37  O  3  X    0.056091  -0.042355  -0.224960   0.328654   0.157973
   38  O  3  Y    0.007922   0.265060   0.005461   0.099026   0.024595
   39  O  3  Z    0.098986  -0.024004   0.390331   0.820439  -0.117644
   40  O  3 XX   -0.001148   0.001239   0.002915   0.018061   0.015732
   41  O  3 YY   -0.000378  -0.001495   0.012520   0.017940  -0.001223
   42  O  3 ZZ    0.001526   0.000256  -0.015435  -0.036001  -0.014509
   43  O  3 XY    0.000465  -0.003896  -0.001035  -0.001929  -0.000970
   44  O  3 XZ   -0.002673   0.001231   0.004025  -0.018182  -0.002266
   45  O  3 YZ    0.000036  -0.002810  -0.002192  -0.006336  -0.002466
   46  H  4  S    0.007716   0.005108   0.031445   0.073347  -0.053888
   47  H  4  S   -1.103670   1.759142   0.503431  -0.216990  -0.049267
   48  H  5  S    0.001257  -0.008180   0.029975   0.082143  -0.158800
   49  H  5  S   -1.197505  -1.587928   0.420483  -0.376512  -0.008736
   50  H  6  S   -0.006092  -0.001909  -0.101312  -0.099143  -0.277865
   51  H  6  S   -1.317376   0.064195  -0.064115   0.746580  -0.354616
   52  H  7  S    0.027150  -0.007296  -0.068497   0.156233  -0.282964
   53  H  7  S    1.265003   0.070901  -0.513131  -0.248025  -0.054919

                     21         22         23         24         25
                    0.7323     0.7866     0.8263     0.8676     0.9002
                     A          A          A          A          A   
    1  C  1  S   -0.003842   0.011653   0.039951   0.016219   0.013456
    2  C  1  S    0.024353  -0.333605  -0.307233  -0.148637  -0.048204
    3  C  1  X   -0.026781  -0.749199  -0.335523  -0.252991   0.060606
    4  C  1  Y    0.019016   0.000884   0.004315  -0.486926  -0.522945
    5  C  1  Z    0.027372   0.385202  -0.659716  -0.547233   0.420918
    6  C  1  S   -0.030882   0.567777  -0.159235   0.198981   0.011690
    7  C  1  X    0.131211   1.304817   0.174210   0.666758  -0.461377
    8  C  1  Y   -0.063394  -0.001724  -0.309274   1.348338   1.486238
    9  C  1  Z   -0.041800  -0.233965   0.019490   1.133876  -1.471916
   10  C  1 XX   -0.000880  -0.034560  -0.009690  -0.088235   0.032424
   11  C  1 YY    0.005655   0.036826  -0.026675   0.001215   0.025394
   12  C  1 ZZ   -0.004775  -0.002266   0.036365   0.087020  -0.057818
   13  C  1 XY    0.003579  -0.025640  -0.027063   0.074579   0.101014
   14  C  1 XZ    0.008629  -0.000347   0.056689   0.004227  -0.029765
   15  C  1 YZ   -0.024562   0.000151   0.016843   0.002257  -0.003774
   16  C  2  S   -0.008779  -0.050225   0.000284   0.010174  -0.012952
   17  C  2  S    0.063752  -0.539867  -0.150512   0.099576  -0.007039
   18  C  2  X    0.042186   0.038450  -0.211825   0.171777  -0.415512
   19  C  2  Y    1.100159  -0.047091  -0.054342   0.125844   0.048998
   20  C  2  Z   -0.123554   0.250501  -0.382299   0.294916  -0.247900
   21  C  2  S   -0.068117   0.490612   0.153749  -0.101059  -0.140581
   22  C  2  X   -0.004862  -0.114894   0.933602  -0.817160   1.468790
   23  C  2  Y   -1.061449  -0.063760   0.217133  -0.527479  -0.438564
   24  C  2  Z    0.072722  -0.877392   1.117688  -0.982984   0.973294
   25  C  2 XX   -0.007274  -0.060926  -0.052148   0.087532  -0.075396
   26  C  2 YY    0.006896   0.149889   0.009286  -0.015254   0.039254
   27  C  2 ZZ    0.000377  -0.088963   0.042862  -0.072278   0.036142
   28  C  2 XY   -0.008994  -0.001548   0.038766  -0.051199  -0.021785
   29  C  2 XZ   -0.003488   0.067612  -0.003744  -0.000889   0.013975
   30  C  2 YZ    0.000594  -0.029615   0.008182   0.023183   0.083072
   31  O  3  S    0.000043   0.005508  -0.031233  -0.004878  -0.014590
   32  O  3  S    0.000621   0.006093   0.097577   0.124127  -0.027728
   33  O  3  X   -0.011435  -0.015490  -0.214492   0.082941  -0.078736
   34  O  3  Y    0.054119   0.008433  -0.003451  -0.113459  -0.162957
   35  O  3  Z    0.008161  -0.003729  -0.182211  -0.251104   0.165332
   36  O  3  S    0.008116  -0.195711   0.090826  -0.771300   0.735465
   37  O  3  X   -0.025417  -0.141210  -0.112956   0.000282  -0.049855
   38  O  3  Y    0.009431   0.015922   0.023960  -0.155587  -0.226544
   39  O  3  Z    0.009688   0.159834  -0.275799   0.204735  -0.270369
   40  O  3 XX   -0.000959   0.013692   0.034609   0.030113  -0.018102
   41  O  3 YY   -0.000860   0.010685   0.029669   0.061317  -0.032508
   42  O  3 ZZ    0.001819  -0.024378  -0.064278  -0.091430   0.050610
   43  O  3 XY   -0.010098   0.001036  -0.006682   0.006483   0.016790
   44  O  3 XZ    0.002633   0.037138  -0.052946  -0.013716   0.009937
   45  O  3 YZ    0.010990  -0.000287  -0.013439  -0.006220   0.016487
   46  H  4  S    0.091862   0.122652   0.195436  -0.270571  -0.266052
   47  H  4  S    0.169649   0.091960   0.083448   0.029026  -0.488977
   48  H  5  S   -0.048960   0.042089  -0.057913   0.309343   0.374209
   49  H  5  S   -0.157824   0.060399   0.017060   0.435359   0.296117
   50  H  6  S   -0.043667  -0.275804  -0.332062   0.280194  -0.238983
   51  H  6  S    0.000545   0.110174  -0.570334   0.355173  -0.763405
   52  H  7  S   -0.022522  -0.411498   0.250817  -0.090637   0.130460
   53  H  7  S   -0.025180  -0.418017   0.571385  -0.444930   0.504942

                     26         27         28         29         30
                    0.9545     1.0859     1.1109     1.1157     1.1880
                     A          A          A          A          A   
    1  C  1  S   -0.045423   0.013554  -0.004054  -0.007741   0.039886
    2  C  1  S   -0.075322  -0.194527   0.161222  -0.067314  -1.303555
    3  C  1  X    0.356980   0.199945   0.062062   0.008203   0.590028
    4  C  1  Y   -0.117688  -0.040737  -0.905944   0.182423   0.001124
    5  C  1  Z   -0.181650  -0.063768   0.097762  -0.006923   0.065277
    6  C  1  S   -0.225567   0.066226  -0.355054  -0.217973   2.566776
    7  C  1  X   -1.610457  -0.568750  -0.116865  -0.429458  -0.771051
    8  C  1  Y    0.293511   0.159981   1.454568  -0.342603   0.031557
    9  C  1  Z    0.843989   0.113971  -0.082068   0.108926   0.171883
   10  C  1 XX   -0.019389   0.101147   0.038449  -0.003230  -0.047572
   11  C  1 YY    0.003186  -0.010714  -0.046137   0.022737   0.110422
   12  C  1 ZZ    0.016203  -0.090433   0.007688  -0.019508  -0.062850
   13  C  1 XY    0.017887   0.026961  -0.191742   0.039697  -0.045136
   14  C  1 XZ    0.063299   0.035089   0.023354   0.038124   0.052764
   15  C  1 YZ    0.021466   0.001814  -0.014790  -0.001161  -0.026857
   16  C  2  S   -0.026208  -0.011598   0.010226   0.030951  -0.010511
   17  C  2  S   -0.988579  -0.116499  -0.237389  -1.657217  -0.166808
   18  C  2  X    0.330978   0.660523  -0.024894  -0.303969  -0.060721
   19  C  2  Y   -0.009315   0.044071   0.021052   0.129768  -0.003734
   20  C  2  Z   -0.447714   0.617353   0.099193   0.293781  -0.072861
   21  C  2  S    2.573191   0.504357   0.482668   3.346601   0.241474
   22  C  2  X   -0.658715  -1.093611  -0.061474   0.414931  -0.074408
   23  C  2  Y   -0.153487  -0.135117  -0.146636  -0.186776  -0.026314
   24  C  2  Z    0.936299  -0.819431  -0.143848  -0.223125  -0.074465
   25  C  2 XX    0.001353  -0.196207   0.005807   0.018748   0.008566
   26  C  2 YY    0.072890   0.022245  -0.023980  -0.065971   0.041427
   27  C  2 ZZ   -0.074243   0.173962   0.018173   0.047223  -0.049993
   28  C  2 XY   -0.001987   0.016997   0.082915  -0.015260  -0.016631
   29  C  2 XZ   -0.111563  -0.043965   0.021151   0.112250   0.049098
   30  C  2 YZ   -0.014937   0.051077  -0.049475   0.036866  -0.031669
   31  O  3  S    0.032353  -0.019875   0.002847  -0.003202  -0.004409
   32  O  3  S   -0.180326   0.082205  -0.012245   0.002582   0.065903
   33  O  3  X    0.007083  -0.040229   0.025843   0.042408  -0.013895
   34  O  3  Y   -0.053383  -0.021996   0.053818  -0.003912   0.005106
   35  O  3  Z    0.016580   0.029286  -0.003413   0.049714  -0.090473
   36  O  3  S   -0.120717   0.072799   0.023191   0.085242  -0.391616
   37  O  3  X    0.244544   0.087882   0.003906   0.004710   0.061395
   38  O  3  Y   -0.001416  -0.029418  -0.124074   0.027586  -0.002800
   39  O  3  Z    0.101495  -0.212890   0.025700  -0.101352   0.155777
   40  O  3 XX    0.012882   0.002392  -0.009748  -0.003910  -0.006025
   41  O  3 YY   -0.010560  -0.011228   0.009960  -0.012125   0.032810
   42  O  3 ZZ   -0.002323   0.008836  -0.000212   0.016035  -0.026786
   43  O  3 XY   -0.000706  -0.000242   0.023200  -0.005067  -0.005558
   44  O  3 XZ   -0.046720  -0.017121  -0.002037  -0.012668  -0.068700
   45  O  3 YZ   -0.004161  -0.001184   0.070606  -0.010152  -0.001720
   46  H  4  S   -0.378260   0.050449   0.577795  -0.179705   0.686359
   47  H  4  S   -0.579658  -0.428697  -1.242862   0.156804  -1.402215
   48  H  5  S   -0.292266   0.117908  -0.692643   0.022590   0.554291
   49  H  5  S   -0.319919  -0.238798   1.510734  -0.398076  -1.146470
   50  H  6  S   -0.327308  -0.745890   0.128307   0.474855   0.183483
   51  H  6  S   -0.133444   1.406005  -0.113498  -1.376669  -0.138481
   52  H  7  S   -0.526258   0.536889   0.138455   0.561139  -0.239943
   53  H  7  S    0.268982  -1.309055  -0.325893  -1.344177   0.094974

                     31         32         33         34         35
                    1.3042     1.3866     1.4421     1.4501     1.6727
                     A          A          A          A          A   
    1  C  1  S   -0.037957   0.000766  -0.007299  -0.101905   0.002688
    2  C  1  S   -0.856389   0.031922  -0.159903  -1.642552   0.027447
    3  C  1  X   -0.015614  -0.021687   0.014318  -0.163455   0.042740
    4  C  1  Y    0.034392   0.135219  -0.011654  -0.007080  -0.050713
    5  C  1  Z    0.253270  -0.020265  -0.077644   0.093221   0.006784
    6  C  1  S    3.358045  -0.094070   0.215311   4.391103  -0.068742
    7  C  1  X    0.364298   0.210436  -0.326358   0.722259  -0.100683
    8  C  1  Y   -0.096556  -0.698976  -0.016435  -0.095565   0.492377
    9  C  1  Z   -0.477687   0.085702   0.539097  -1.112391   0.045874
   10  C  1 XX   -0.023920   0.002441   0.013685   0.076781  -0.086123
   11  C  1 YY   -0.134817   0.014929  -0.010862   0.000959   0.124013
   12  C  1 ZZ    0.158737  -0.017370  -0.002823  -0.077740  -0.037889
   13  C  1 XY    0.024995  -0.103408  -0.021703  -0.006906  -0.104559
   14  C  1 XZ    0.074762  -0.002312  -0.097089  -0.073298  -0.081041
   15  C  1 YZ    0.046168   0.093402  -0.018399   0.001832   0.579757
   16  C  2  S    0.021608   0.002574   0.003920   0.038306   0.001197
   17  C  2  S    0.342152   0.054535  -0.000375   0.602552  -0.011339
   18  C  2  X   -0.000287   0.011174   0.041238   0.019849   0.003455
   19  C  2  Y    0.026305   0.042417   0.024469   0.009079   0.074843
   20  C  2  Z    0.092259  -0.001189   0.144938  -0.042863   0.016255
   21  C  2  S   -1.560994  -0.186214   0.421413  -2.775324   0.079228
   22  C  2  X    0.759296  -0.107564  -0.452361   1.028567  -0.045750
   23  C  2  Y    0.019364   0.155378  -0.077905   0.055696  -0.118495
   24  C  2  Z   -0.537292  -0.059647  -0.606415  -0.785994   0.021154
   25  C  2 XX    0.023426  -0.001138   0.071555   0.026730   0.027641
   26  C  2 YY   -0.049611  -0.009083  -0.080809  -0.102155  -0.001060
   27  C  2 ZZ    0.026185   0.010220   0.009254   0.075425  -0.026580
   28  C  2 XY    0.030034   0.147700  -0.042984   0.025145   0.497690
   29  C  2 XZ    0.069921   0.014615  -0.012654   0.069433   0.020727
   30  C  2 YZ    0.027281  -0.093126  -0.054435   0.010389  -0.167515
   31  O  3  S    0.073350  -0.002268  -0.001606   0.014852  -0.001552
   32  O  3  S   -0.543757   0.027938   0.021192  -0.205034   0.046841
   33  O  3  X   -0.319545   0.178101  -0.798544   0.323532  -0.041874
   34  O  3  Y   -0.122057  -0.920153  -0.121260   0.095911   0.155751
   35  O  3  Z   -0.586743   0.071338   0.445166   0.441324  -0.000242
   36  O  3  S   -0.103034  -0.041058  -0.210763  -0.070335  -0.080839
   37  O  3  X    0.430618  -0.232571   1.071525  -0.449328   0.110310
   38  O  3  Y    0.182034   1.130259   0.160421  -0.098403  -0.435769
   39  O  3  Z    1.096839  -0.081608  -0.531777  -0.378687   0.037158
   40  O  3 XX    0.007320  -0.003677   0.050303   0.023763   0.022649
   41  O  3 YY    0.024487   0.005240   0.028806   0.085543  -0.052129
   42  O  3 ZZ   -0.031807  -0.001563  -0.079110  -0.109306   0.029480
   43  O  3 XY   -0.004168  -0.013123   0.009208  -0.014234  -0.123169
   44  O  3 XZ   -0.001722  -0.003974   0.069804  -0.037398   0.078411
   45  O  3 YZ   -0.008029   0.024197   0.007346  -0.023619  -0.310217
   46  H  4  S   -0.246942   0.082469  -0.020373  -0.454785  -0.054085
   47  H  4  S   -0.316367   0.251994  -0.117408  -0.440280  -0.142726
   48  H  5  S   -0.246763  -0.036365  -0.061164  -0.497314   0.122844
   49  H  5  S   -0.388018  -0.146273  -0.058983  -0.461553   0.123451
   50  H  6  S    0.016577   0.026275   0.177289   0.082864   0.019781
   51  H  6  S   -0.109563   0.122809   0.092280   0.005577   0.010547
   52  H  7  S    0.228392   0.011384  -0.135138   0.112562   0.037608
   53  H  7  S   -0.124840   0.001415  -0.404750   0.050155  -0.025055

                     36         37         38         39         40
                    1.8002     1.9368     2.0483     2.0995     2.2040
                     A          A          A          A          A   
    1  C  1  S   -0.005373  -0.030401  -0.080472  -0.003740   0.013335
    2  C  1  S   -0.119660  -0.495472  -0.703463   0.535612   0.185882
    3  C  1  X    0.089133   0.085690   0.046012   0.205652   0.041182
    4  C  1  Y    0.060970   0.012194   0.020745  -0.002649   0.031634
    5  C  1  Z    0.041361   0.117399  -0.016962  -0.208335  -0.042246
    6  C  1  S    0.282671   1.745532   3.503502  -1.144167  -0.676807
    7  C  1  X   -0.085709  -0.103888   0.348011  -0.626461  -0.205443
    8  C  1  Y   -0.329061   0.152609  -0.000407  -0.005845   0.628864
    9  C  1  Z   -0.022481  -0.235233   1.176901  -0.566170   0.069276
   10  C  1 XX   -0.397267  -0.434932  -0.056093  -0.351453  -0.138947
   11  C  1 YY    0.176202   0.156785  -0.072634   0.418498  -0.104043
   12  C  1 ZZ    0.221065   0.278147   0.128727  -0.067045   0.242990
   13  C  1 XY   -0.006560  -0.189998   0.043761  -0.098689   0.062567
   14  C  1 XZ   -0.196486  -0.272686   0.386107   0.193714   0.137031
   15  C  1 YZ   -0.152143  -0.054650   0.043903  -0.051753  -0.266860
   16  C  2  S    0.005779   0.017899   0.013061   0.002922  -0.027280
   17  C  2  S   -0.036563  -0.055350   0.361558   0.356953  -0.086767
   18  C  2  X    0.078187   0.085178  -0.010304  -0.172152   0.024013
   19  C  2  Y   -0.011851   0.005512  -0.005949   0.005019   0.014627
   20  C  2  Z    0.008830  -0.129066   0.038359   0.184718   0.065292
   21  C  2  S   -0.053145  -0.552879  -1.112126  -0.167072   0.709596
   22  C  2  X    0.142219   0.616749   0.001719   0.528735   0.156567
   23  C  2  Y    0.095932   0.030153   0.015604   0.032908  -0.324100
   24  C  2  Z    0.225350   0.537044  -0.651948   0.286034   0.105460
   25  C  2 XX    0.214079  -0.006282  -0.017079  -0.216163   0.339618
   26  C  2 YY    0.108341  -0.035901   0.165039   0.475770  -0.407267
   27  C  2 ZZ   -0.322420   0.042183  -0.147960  -0.259607   0.067649
   28  C  2 XY    0.398231  -0.311183   0.073093  -0.121473   0.412140
   29  C  2 XZ   -0.068531  -0.067512   0.234481   0.327486   0.344398
   30  C  2 YZ    0.594828  -0.456818   0.085614  -0.179114  -0.412044
   31  O  3  S    0.002050  -0.017334  -0.018481   0.019317   0.012672
   32  O  3  S    0.036832   0.553755   1.249257  -0.694836  -0.165754
   33  O  3  X    0.030973   0.076939  -0.125818  -0.007664   0.031769
   34  O  3  Y   -0.000356   0.009294  -0.011612   0.019573   0.093328
   35  O  3  Z    0.043870  -0.141041  -0.020477   0.162945   0.126743
   36  O  3  S   -0.095547  -0.931174  -2.918307   1.441933   0.216660
   37  O  3  X    0.053885   0.061253   0.441621  -0.041719  -0.010162
   38  O  3  Y    0.103594   0.000374   0.137693  -0.072429  -0.193844
   39  O  3  Z   -0.009910   0.468048   1.034415  -0.626973  -0.133203
   40  O  3 XX    0.049542   0.106355  -0.350384  -0.212866  -0.004330
   41  O  3 YY    0.058725  -0.022862   0.047782   0.332368  -0.060150
   42  O  3 ZZ   -0.108267  -0.083493   0.302602  -0.119502   0.064481
   43  O  3 XY    0.066537   0.016420  -0.048358  -0.057823   0.466813
   44  O  3 XZ    0.179846   0.366357  -0.016282   0.028209  -0.133401
   45  O  3 YZ    0.118651   0.039757   0.058309  -0.028037   0.092908
   46  H  4  S    0.090935  -0.181465  -0.325553  -0.143802  -0.075956
   47  H  4  S    0.050389  -0.359245  -0.235901   0.035021  -0.088253
   48  H  5  S   -0.046413  -0.052821  -0.350621  -0.095091   0.294831
   49  H  5  S   -0.249921  -0.200626  -0.342516   0.120819   0.206393
   50  H  6  S   -0.137378  -0.174260   0.044276  -0.103421  -0.453388
   51  H  6  S   -0.038170  -0.254299   0.297902  -0.170920  -0.089692
   52  H  7  S    0.189374   0.325245  -0.047849   0.246824  -0.100813
   53  H  7  S    0.082436   0.353379  -0.017958   0.171549  -0.064895

                     41         42         43         44         45
                    2.2252     2.2767     2.3150     2.3904     2.5596
                     A          A          A          A          A   
    1  C  1  S   -0.010097   0.004198   0.036191  -0.030805   0.003172
    2  C  1  S   -0.137631   0.009856   0.301779   0.097836   0.243107
    3  C  1  X   -0.022073  -0.063257   0.017719   0.142672  -0.076683
    4  C  1  Y   -0.007894   0.068044  -0.038922  -0.007508   0.000356
    5  C  1  Z    0.025349   0.040438  -0.006776  -0.190161   0.222674
    6  C  1  S    0.512494  -0.064292  -1.419782   0.689217  -0.219542
    7  C  1  X    0.159706  -0.183096  -0.374166   0.254388  -0.676148
    8  C  1  Y   -0.527610   0.694993  -0.228550  -0.045384  -0.086867
    9  C  1  Z    0.009577  -0.169971   0.199874  -0.029951   0.001210
   10  C  1 XX    0.033794   0.245702  -0.026588  -0.014681  -0.143766
   11  C  1 YY    0.118654   0.027759  -0.020442   0.240400   0.716554
   12  C  1 ZZ   -0.152448  -0.273461   0.047030  -0.225719  -0.572788
   13  C  1 XY    0.286178  -0.117113   0.068527   0.006484  -0.160886
   14  C  1 XZ   -0.115759  -0.091794  -0.009389   0.018138  -0.208203
   15  C  1 YZ    0.087064  -0.313050   0.083890  -0.016222  -0.119534
   16  C  2  S    0.016821   0.008261  -0.043869   0.000421  -0.024905
   17  C  2  S    0.034394  -0.110879  -0.359888   0.167646  -0.045692
   18  C  2  X   -0.013367  -0.053566   0.031849  -0.056079  -0.032487
   19  C  2  Y    0.009808   0.008966  -0.027102  -0.018325  -0.002043
   20  C  2  Z   -0.056141  -0.106378  -0.087419  -0.101348   0.073998
   21  C  2  S   -0.424572   0.078658   1.440202  -0.442573   0.653088
   22  C  2  X   -0.117875  -0.198750  -0.211519   0.154041   0.048576
   23  C  2  Y    0.131467  -0.248412   0.033281  -0.023727   0.017305
   24  C  2  Z   -0.082253   0.071201   0.378042  -0.622658   0.338096
   25  C  2 XX   -0.260851  -0.394388   0.226275  -0.497812   0.401675
   26  C  2 YY    0.224626   0.134952  -0.629763  -0.090516  -0.343371
   27  C  2 ZZ    0.036225   0.259437   0.403488   0.588328  -0.058305
   28  C  2 XY   -0.053801   0.507679  -0.149723   0.067448  -0.067103
   29  C  2 XZ   -0.199335  -0.258964   0.210496   0.547497   0.008505
   30  C  2 YZ    0.039429  -0.232971   0.215915   0.256543   0.025380
   31  O  3  S   -0.009552  -0.017894   0.000262  -0.011389  -0.030689
   32  O  3  S    0.149210   0.127068  -0.110948   0.161443   0.370269
   33  O  3  X   -0.017380  -0.066334   0.056064  -0.013377  -0.153359
   34  O  3  Y   -0.068519   0.087327  -0.033269  -0.013512  -0.040394
   35  O  3  Z   -0.095639  -0.198560  -0.003116  -0.133951  -0.316191
   36  O  3  S   -0.225857   0.038947   0.358129  -0.247931  -0.186201
   37  O  3  X    0.007785   0.058656  -0.077741  -0.002655   0.279450
   38  O  3  Y    0.156097  -0.227549   0.064415   0.024594   0.051191
   39  O  3  Z    0.122802   0.096282  -0.137419   0.164782   0.206494
   40  O  3 XX   -0.206715  -0.257531  -0.515383   0.474521  -0.045747
   41  O  3 YY    0.223250   0.412597   0.568807  -0.300313   0.026741
   42  O  3 ZZ   -0.016535  -0.155066  -0.053425  -0.174208   0.019006
   43  O  3 XY    0.737744  -0.109581  -0.158068   0.092378  -0.018061
   44  O  3 XZ    0.075601   0.109993   0.288413   0.244937  -0.497952
   45  O  3 YZ   -0.350262   0.307313  -0.151274   0.052602  -0.071977
   46  H  4  S    0.180648  -0.388332   0.263433  -0.124887  -0.340505
   47  H  4  S    0.123932  -0.201099   0.066522   0.058719  -0.042759
   48  H  5  S   -0.329582   0.205637   0.043677  -0.207491  -0.358926
   49  H  5  S   -0.226079   0.139353  -0.014755   0.035524  -0.029471
   50  H  6  S    0.305826   0.424765  -0.373263   0.170400  -0.334518
   51  H  6  S    0.060014  -0.065816  -0.097560   0.011608  -0.044338
   52  H  7  S    0.034791  -0.114546  -0.434823  -0.655336   0.038504
   53  H  7  S    0.028831   0.025612   0.054909   0.000793   0.022123

                     46         47         48         49         50
                    2.6667     2.7765     2.7887     3.0203     3.2765
                     A          A          A          A          A   
    1  C  1  S   -0.007698  -0.050518  -0.029210   0.035621   0.063994
    2  C  1  S   -0.024789  -0.003826   0.052862   0.112178  -0.335687
    3  C  1  X    0.036620   0.218047   0.164468  -0.114795  -0.223697
    4  C  1  Y   -0.121962   0.005500   0.055497   0.013050  -0.090820
    5  C  1  Z    0.034894   0.002360   0.012127   0.224479  -0.821264
    6  C  1  S    0.271782   1.377382   0.745942  -0.902912  -1.837408
    7  C  1  X    0.181077   0.780438   0.468116  -0.123991  -0.249857
    8  C  1  Y   -0.425578  -0.128986   0.329251   0.020526  -0.034770
    9  C  1  Z    0.027820  -0.378660  -0.317047   0.341492  -0.905959
   10  C  1 XX   -0.137045   0.590585   0.349160   0.163192   0.385094
   11  C  1 YY    0.171156  -0.465256  -0.166287   0.279217   0.445405
   12  C  1 ZZ   -0.034111  -0.125329  -0.182873  -0.442409  -0.830500
   13  C  1 XY    1.006554  -0.161420   0.204506   0.038680  -0.040570
   14  C  1 XZ   -0.121601  -0.253374  -0.289108   0.904195  -0.374597
   15  C  1 YZ   -0.177429  -0.434668   0.616110   0.013594  -0.143115
   16  C  2  S    0.007192   0.042488   0.025804  -0.042543  -0.001272
   17  C  2  S    0.028788   0.066197   0.013924   0.032180  -0.027744
   18  C  2  X    0.028621   0.194733   0.146593  -0.220964  -0.004769
   19  C  2  Y   -0.064309  -0.002787   0.011348  -0.007365   0.000913
   20  C  2  Z   -0.000707  -0.177796  -0.120719   0.175132   0.010723
   21  C  2  S   -0.236634  -1.262011  -0.742999   0.680566   0.221727
   22  C  2  X    0.038913   0.562067   0.412919  -0.322335   0.146199
   23  C  2  Y    0.079742   0.025418  -0.029220   0.008230  -0.004232
   24  C  2  Z   -0.071972  -0.377537  -0.186432   0.423496   0.179633
   25  C  2 XX    0.028332   0.232432   0.239165   0.500085   0.152315
   26  C  2 YY    0.032519   0.271768   0.133167  -0.277885  -0.002247
   27  C  2 ZZ   -0.060851  -0.504200  -0.372332  -0.222201  -0.150067
   28  C  2 XY    0.176852   0.039533  -0.127117   0.002472  -0.007362
   29  C  2 XZ    0.039936   0.515019   0.389828  -0.483214   0.053849
   30  C  2 YZ   -0.285456  -0.043439  -0.050386  -0.062950  -0.030576
   31  O  3  S   -0.002504  -0.008969  -0.005233   0.001185  -0.043099
   32  O  3  S    0.080356   0.276651   0.162767   0.094773  -0.821647
   33  O  3  X    0.003968   0.011433   0.007353   0.039966   0.005132
   34  O  3  Y   -0.067946  -0.058888   0.068324   0.002139   0.000623
   35  O  3  Z   -0.031231  -0.148415  -0.102163  -0.022161  -0.029323
   36  O  3  S   -0.161012  -0.487347  -0.259015  -0.178899   2.467289
   37  O  3  X   -0.023720  -0.139190  -0.076435  -0.194711  -0.444095
   38  O  3  Y    0.197004   0.205369  -0.283122  -0.006256  -0.160513
   39  O  3  Z    0.074286   0.351819   0.249477   0.153222  -1.402987
   40  O  3 XX    0.092141   0.148746   0.059717   0.357108  -0.451456
   41  O  3 YY   -0.057901   0.067172   0.248953   0.036180  -0.573903
   42  O  3 ZZ   -0.034239  -0.215919  -0.308670  -0.393288   1.025359
   43  O  3 XY   -0.358609  -0.090666   0.197943   0.076899   0.062682
   44  O  3 XZ    0.034474   0.217678   0.028706   0.496478   0.596356
   45  O  3 YZ   -0.050983  -0.533801   0.684791   0.003806   0.207424
   46  H  4  S    0.592421  -0.139816   0.086765  -0.110705  -0.029024
   47  H  4  S   -0.077385   0.175032  -0.090180   0.141943   0.144744
   48  H  5  S   -0.626024   0.104191  -0.004506  -0.067205  -0.019619
   49  H  5  S    0.095941  -0.071662   0.176454   0.113937   0.200876
   50  H  6  S   -0.011233  -0.232859  -0.251075  -0.141485  -0.122248
   51  H  6  S    0.036562   0.056783   0.026070   0.052519  -0.076277
   52  H  7  S    0.080233   0.204618   0.162649   0.202076   0.089646
   53  H  7  S   -0.014544   0.004820   0.006912   0.019030  -0.035785
 ...... END OF ROHF CALCULATION ......
 STEP CPU TIME =     0.32 TOTAL CPU TIME =        0.4 (    0.0 MIN)
 TOTAL WALL CLOCK TIME=        0.4 SECONDS, CPU UTILIZATION IS  95.45%

     ----------------------------------------------------------------
     PROPERTY VALUES FOR THE ROHF  SELF-CONSISTENT FIELD WAVEFUNCTION
     ----------------------------------------------------------------

          ---------------------------------------
          MULLIKEN AND LOWDIN POPULATION ANALYSES
          ---------------------------------------

          MULLIKEN SPHERICAL HARMONIC POPULATIONS
       ATOM           S       P       D      F      G      H      I    TOTAL
    1 C             1.60    1.38    0.04   0.00   0.00   0.00   0.00    3.02
    2 C             1.71    1.32    0.02   0.00   0.00   0.00   0.00    3.05
    3 O             1.97    2.43    0.01   0.00   0.00   0.00   0.00    4.41
    4 H             0.40    0.00    0.00   0.00   0.00   0.00   0.00    0.40
    5 H             0.38    0.00    0.00   0.00   0.00   0.00   0.00    0.38
    6 H             0.36    0.00    0.00   0.00   0.00   0.00   0.00    0.36
    7 H             0.38    0.00    0.00   0.00   0.00   0.00   0.00    0.38

          MULLIKEN SPHERICAL HARMONIC POPULATIONS
       ATOM           S       P       D      F      G      H      I    TOTAL
    1 C             1.60    1.38    0.04   0.00   0.00   0.00   0.00    3.02
    2 C             1.71    1.32    0.02   0.00   0.00   0.00   0.00    3.05
    3 O             1.97    2.43    0.01   0.00   0.00   0.00   0.00    4.41
    4 H             0.40    0.00    0.00   0.00   0.00   0.00   0.00    0.40
    5 H             0.38    0.00    0.00   0.00   0.00   0.00   0.00    0.38
    6 H             0.36    0.00    0.00   0.00   0.00   0.00   0.00    0.36
    7 H             0.38    0.00    0.00   0.00   0.00   0.00   0.00    0.38

     ATOMIC SPIN POPULATION (ALPHA MINUS BETA)
       ATOM         MULL.POP.                    LOW.POP.
    1 C             0.000000                     0.000000
    2 C             0.000000                     0.000000
    3 O             0.000000                     0.000000
    4 H             0.000000                     0.000000
    5 H             0.000000                     0.000000
    6 H             0.000000                     0.000000
    7 H             0.000000                     0.000000

               ----- POPULATIONS IN EACH AO -----
                             MULLIKEN      LOWDIN
              1  C  1  S      1.99758     1.97962
              2  C  1  S      0.66325     0.35066
              3  C  1  X      0.64745     0.57856
              4  C  1  Y      0.67299     0.59212
              5  C  1  Z      0.64927     0.58351
              6  C  1  S      0.53264     0.31021
              7  C  1  X      0.25721     0.39916
              8  C  1  Y      0.37115     0.47260
              9  C  1  Z      0.15887     0.31540
             10  C  1 XX      0.02323     0.14556
             11  C  1 YY      0.00520     0.15359
             12  C  1 ZZ      0.00864     0.16048
             13  C  1 XY      0.02805     0.01460
             14  C  1 XZ      0.01980     0.05398
             15  C  1 YZ      0.00000     0.03493
             16  C  2  S      1.99797     1.98309
             17  C  2  S      0.76596     0.41719
             18  C  2  X      0.82068     0.73732
             19  C  2  Y      0.15560     0.14638
             20  C  2  Z      0.80197     0.71222
             21  C  2  S      0.66261     0.35767
             22  C  2  X      0.36223     0.44045
             23  C  2  Y      0.17878     0.19329
             24  C  2  Z      0.31695     0.42047
             25  C  2 XX      0.01562     0.19992
             26  C  2 YY      0.00830     0.12366
             27  C  2 ZZ      0.00266     0.19223
             28  C  2 XY      0.00922     0.00384
             29  C  2 XZ      0.00222     0.01194
             30  C  2 YZ      0.00000     0.00352
             31  O  3  S      1.99796     1.97869
             32  O  3  S      0.89456     0.72741
             33  O  3  X      1.03822     1.01627
             34  O  3  Y      1.01716     1.00064
             35  O  3  Z      0.71445     0.67230
             36  O  3  S      1.05372     0.52440
             37  O  3  X      0.78767     0.81462
             38  O  3  Y      0.78527     0.81089
             39  O  3  Z      0.51515     0.59904
             40  O  3 XX      0.01144     0.18822
             41  O  3 YY      0.00024     0.18738
             42  O  3 ZZ      0.00036     0.19405
             43  O  3 XY      0.00485     0.00075
             44  O  3 XZ      0.00327     0.00776
             45  O  3 YZ      0.00000     0.00630
             46  H  4  S      0.51276     0.47654
             47  H  4  S      0.28839     0.34336
             48  H  5  S      0.49148     0.45195
             49  H  5  S      0.27209     0.32846
             50  H  6  S      0.51693     0.47018
             51  H  6  S      0.19549     0.30653
             52  H  7  S      0.52742     0.48285
             53  H  7  S      0.23503     0.32324

          ----- MULLIKEN ATOMIC OVERLAP POPULATIONS -----
          (OFF-DIAGONAL ELEMENTS NEED TO BE MULTIPLIED BY 2)

             1           2           3           4           5

    1    4.8012550
    2    0.2197109   5.3929229
    3    0.3389783  -0.0777516   8.6492051
    4    0.3583754  -0.0536422  -0.0479390   0.5679494
    5    0.3454856  -0.0308944  -0.0443423  -0.0296518   0.5182823
    6   -0.0180431   0.3549939   0.0032238   0.0031002   0.0012194
    7   -0.0104520   0.2954494   0.0029498   0.0029517   0.0034707

             6           7

    6    0.3888440
    7   -0.0209207   0.4889972

          TOTAL MULLIKEN AND LOWDIN ATOMIC POPULATIONS
       ATOM         MULL.POP.    CHARGE          LOW.POP.     CHARGE
    1 C             6.035310   -0.035310         6.144991   -0.144991
    2 C             6.100789   -0.100789         5.943177    0.056823
    3 O             8.824324   -0.824324         8.728724   -0.728724
    4 H             0.801144    0.198856         0.819895    0.180105
    5 H             0.763569    0.236431         0.780413    0.219587
    6 H             0.712418    0.287582         0.776710    0.223290
    7 H             0.762446    0.237554         0.806090    0.193910

          MULLIKEN SPHERICAL HARMONIC POPULATIONS
       ATOM           S       P       D      F      G      H      I    TOTAL
    1 C             3.19    2.76    0.08   0.00   0.00   0.00   0.00    6.04
    2 C             3.43    2.64    0.04   0.00   0.00   0.00   0.00    6.10
    3 O             3.95    4.86    0.02   0.00   0.00   0.00   0.00    8.82
    4 H             0.80    0.00    0.00   0.00   0.00   0.00   0.00    0.80
    5 H             0.76    0.00    0.00   0.00   0.00   0.00   0.00    0.76
    6 H             0.71    0.00    0.00   0.00   0.00   0.00   0.00    0.71
    7 H             0.76    0.00    0.00   0.00   0.00   0.00   0.00    0.76

          -------------------------------
          BOND ORDER AND VALENCE ANALYSIS     BOND ORDER THRESHOLD=0.050
          -------------------------------

                   BOND                       BOND                       BOND
  ATOM PAIR DIST  ORDER      ATOM PAIR DIST  ORDER      ATOM PAIR DIST  ORDER
    1   2  1.513  0.986        1   3  1.408  1.208        1   4  1.086  0.875
    1   5  1.089  0.832        2   3  2.480  0.212        2   5  2.145  0.097
    2   6  1.072  0.898        2   7  1.072  0.898

                       TOTAL       BONDED        FREE
      ATOM            VALENCE     VALENCE     VALENCE
    1 C                 3.881       3.881       0.000
    2 C                 3.139       3.139       0.000
    3 O                 1.425       1.425      -0.000
    4 H                 0.908       0.908       0.000
    5 H                 0.900       0.900       0.000
    6 H                 0.895       0.895       0.000
    7 H                 0.902       0.902       0.000

          -----------------------------------------
          ATOMIC SPIN DENSITY AT THE NUCLEUS (A.U.)
          -----------------------------------------
                            SPIN DENS    ALPHA DENS     BETA DENS
    1  C            6.0     0.0000000      59.07624      59.07624
    2  C            6.0     0.0000000      59.33475      59.33475
    3  O            8.0     0.0000000     145.70729     145.70729
    4  H            1.0     0.0000000       0.20659       0.20659
    5  H            1.0     0.0000000       0.19677       0.19677
    6  H            1.0     0.0000000       0.20780       0.20780
    7  H            1.0     0.0000000       0.21266       0.21266

          ---------------------
          ELECTROSTATIC MOMENTS
          ---------------------

 POINT   1           X           Y           Z (BOHR)    CHARGE
                 0.026933    0.131634    0.963097        0.00 (A.U.)
         DX          DY          DZ         /D/  (DEBYE)
     1.224467   -0.789586   -7.501210    7.641395
 ...... END OF PROPERTY EVALUATION ......
 STEP CPU TIME =     0.01 TOTAL CPU TIME =        0.4 (    0.0 MIN)
 TOTAL WALL CLOCK TIME=        0.4 SECONDS, CPU UTILIZATION IS  97.73%

     ---------------------------
     COUPLED CLUSTER CALCULATION
     ---------------------------
 CCTYP                        =CR-CCL  
 TOTAL NUMBER OF MOS          =    50
 NUMBER OF OCCUPIED MOS       =    12
 NUMBER OF FROZEN CORE MOS    =     3
 NUMBER OF FROZEN VIRTUAL MOS =     0
 MAXIMUM CC ITERATIONS        =  1000
 MAXIMUM DIIS ITERATIONS      =    -1
 CONVERGENCE CRITERION FOR CC =     7
 AMPLITUDE ACCURACY THRESHOLD = 0.0E+00

     --------------------------------------------
     PARTIAL TWO ELECTRON INTEGRAL TRANSFORMATION
     --------------------------------------------

 NUMBER OF CORE MOLECULAR ORBITALS     =    3
 NUMBER OF OCCUPIED MOLECULAR ORBITALS =   50
 TOTAL NUMBER OF MOLECULAR ORBITALS    =   50
 TOTAL NUMBER OF ATOMIC ORBITALS       =   53
 THRESHOLD FOR KEEPING TRANSFORMED 2E- INTEGRALS = 1.000E-09
 AO INTEGRALS WILL BE READ IN FROM DISK...
 EVALUATING THE FROZEN CORE ENERGY...
 ----- FROZEN CORE ENERGY =      -152.5564019693

 PLAN A: REQUIREMENTS FOR FULLY IN-MEMORY TRANSFORMATION:
 # OF WORDS AVAILABLE =            250000000
 # OF WORDS NEEDED    =              3638774

 CHOOSING IN MEMORY PARTIAL TRANSFORMATION...
 TOTAL NUMBER OF TRANSFORMED 2E- INTEGRALS KEPT =       636755
 ... END OF INTEGRAL TRANSFORMATION ...
 STEP CPU TIME =     0.28 TOTAL CPU TIME =        0.7 (    0.0 MIN)
 TOTAL WALL CLOCK TIME=        0.7 SECONDS, CPU UTILIZATION IS  98.61%

   --------------------------------------------------------------------
   OPEN-SHELL COUPLED-CLUSTER PROGRAM:  M. WLOCH, J.R. GOUR, P. PIECUCH
   --------------------------------------------------------------------

 ***************************************************************
 THE FOLLOWING PAPERS SHOULD BE CITED WHEN USING OPEN-SHELL CCSD
 AND/OR CR-CCL COUPLED-CLUSTER OPTIONS:
 P. PIECUCH AND M. WLOCH,
   J. CHEM. PHYS. 123, 224105/1-10 (2005).
 M. WLOCH, J.R. GOUR, AND P. PIECUCH,
   J. PHYS. CHEM. A, 111, 11359-11382 (2007).

 THE FOLLOWING PAPERS SHOULD BE CITED IF USING THE EA-EOMCC OR IP-EOMCC OPTIONS:
 J. R. GOUR, P. PIECUCH, AND M. WLOCH,
   J. CHEM. PHYS. 123, 134113/1-14 (2005).
 J. R. GOUR AND P. PIECUCH,
   J. CHEM. PHYS. 125, 234107/1-17 (2006).
 ***************************************************************

 ROHF REFERENCE STATE WILL BE USED, MULTIPLICITY=  1

              ------------------------------
              OPEN SHELL CC INPUT PARAMETERS
              ------------------------------
     CC SPIN MULTIPLICITY (MULT IN $CCINP)    =    1
     IMPLYING NO. OF OCCUP. ALPHA =    9, PLUS   3 FROZEN CORES
              NO. OF OCCUP.  BETA =    9, PLUS   3 FROZEN CORES
              NO. OF VIRT.  ALPHA =   38
              NO. OF VIRT.   BETA =   38
     MAX.NO. OF CCSD AND LAMBDA ITERS (MAXCC) = 1000
     CCSD AND LAMBDA CONVERGENCE (FROM ICONV) =   1.000E-07
     CCSD EQUATION RESTART OPTION (KREST)     =    0
     CCSD DIIS MICROITERATIONS (KMICRO)       =    6
     LAMDA EQUATION RESTART OPTION (LREST)    =    0
     LAMBDA DIIS MICROITERATIONS (LMICRO)     =    5
     MM(2,3) CODE SELECTION (IOPMET)          =    0

 MEMORY NEEDED BY FOCK PREPARATION   :        16789 WORDS
 MEMORY NEEDED BY INT. PASS 1        :       979239 WORDS
 MEMORY NEEDED BY INT. PASS 2        :      2005392 WORDS
 MEMORY NEEDED BY INT. PASS 3,...,  7:      1511544 WORDS
 PASS=  1, WILL PROCESS [OO|OO], [VO|OO], [VV|OO], AND [VO|VO] INTEGRALS.
           WROTE           6561 WORDS OF <OA OA||OA OA> INTS TO FILE  74
           WROTE           6561 WORDS OF <OB OB||OB OB> INTS TO FILE  75
           WROTE           6561 WORDS OF <OA OB||OA OB> INTS TO FILE  76
           WROTE          27702 WORDS OF <VA OA||OA OA> INTS TO FILE  77
           WROTE          27702 WORDS OF <VB OB||OB OB> INTS TO FILE  78
[...]
 ITERATION:   328    CONV:     0.000000710
 ITERATION:   329    CONV:     0.000000721
 ITERATION:   330    CONV:     0.000000736
      DOING DIIS EXTRAPOLATION (DIM.OF THE SPACE=  5)
 ITERATION:   331    CONV:     0.000000671
 ITERATION:   332    CONV:     0.000000667
 ITERATION:   333    CONV:     0.000000673
 ITERATION:   334    CONV:     0.000000681
 ITERATION:   335    CONV:     0.000000696
      DOING DIIS EXTRAPOLATION (DIM.OF THE SPACE=  5)
 ITERATION:   336    CONV:     0.000000655
 ITERATION:   337    CONV:     0.000000655
 ITERATION:   338    CONV:     0.000000659
 ITERATION:   339    CONV:     0.000000670
 ITERATION:   340    CONV:     0.000000684
      DOING DIIS EXTRAPOLATION (DIM.OF THE SPACE=  5)
 ITERATION:   341    CONV:     0.000000623
 ITERATION:   342    CONV:     0.000000620
 ITERATION:   343    CONV:     0.000000624
 ITERATION:   344    CONV:     0.000000632
 ITERATION:   345    CONV:     0.000000646
      DOING DIIS EXTRAPOLATION (DIM.OF THE SPACE=  5)
 ITERATION:   346    CONV:     0.000000608
 ITERATION:   347    CONV:     0.000000608
 ITERATION:   348    CONV:     0.000000611
 ITERATION:   349    CONV:     0.000000622
 ITERATION:   350    CONV:     0.000000636
      DOING DIIS EXTRAPOLATION (DIM.OF THE SPACE=  5)
 ITERATION:   351    CONV:     0.000000578
 ITERATION:   352    CONV:     0.000000575
 ITERATION:   353    CONV:     0.000000580
 ITERATION:   354    CONV:     0.000000587
 ITERATION:   355    CONV:     0.000000600
      DOING DIIS EXTRAPOLATION (DIM.OF THE SPACE=  5)
 ITERATION:   356    CONV:     0.000000564
 ITERATION:   357    CONV:     0.000000564
 ITERATION:   358    CONV:     0.000000568
 ITERATION:   359    CONV:     0.000000578
 ITERATION:   360    CONV:     0.000000591
      DOING DIIS EXTRAPOLATION (DIM.OF THE SPACE=  5)
 ITERATION:   361    CONV:     0.000000536
 ITERATION:   362    CONV:     0.000000534
 ITERATION:   363    CONV:     0.000000538
 ITERATION:   364    CONV:     0.000000545
 ITERATION:   365    CONV:     0.000000557
      DOING DIIS EXTRAPOLATION (DIM.OF THE SPACE=  5)
 ITERATION:   366    CONV:     0.000000523
 ITERATION:   367    CONV:     0.000000524
 ITERATION:   368    CONV:     0.000000527
 ITERATION:   369    CONV:     0.000000537
 ITERATION:   370    CONV:     0.000000550
      DOING DIIS EXTRAPOLATION (DIM.OF THE SPACE=  5)
 ITERATION:   371    CONV:     0.000000498
 ITERATION:   372    CONV:     0.000000496
 ITERATION:   373    CONV:     0.000000499
 ITERATION:   374    CONV:     0.000000506
 ITERATION:   375    CONV:     0.000000517
      DOING DIIS EXTRAPOLATION (DIM.OF THE SPACE=  5)
 ITERATION:   376    CONV:     0.000000485
 ITERATION:   377    CONV:     0.000000486
 ITERATION:   378    CONV:     0.000000489
 ITERATION:   379    CONV:     0.000000498
 ITERATION:   380    CONV:     0.000000512
      DOING DIIS EXTRAPOLATION (DIM.OF THE SPACE=  5)
 ITERATION:   381    CONV:     0.000000462
 ITERATION:   382    CONV:     0.000000460
 ITERATION:   383    CONV:     0.000000463
 ITERATION:   384    CONV:     0.000000469
 ITERATION:   385    CONV:     0.000000479
      DOING DIIS EXTRAPOLATION (DIM.OF THE SPACE=  5)
 ITERATION:   386    CONV:     0.000000450
 ITERATION:   387    CONV:     0.000000450
 ITERATION:   388    CONV:     0.000000454
 ITERATION:   389    CONV:     0.000000463
 ITERATION:   390    CONV:     0.000000476
      DOING DIIS EXTRAPOLATION (DIM.OF THE SPACE=  5)
 ITERATION:   391    CONV:     0.000000428
 ITERATION:   392    CONV:     0.000000426
 ITERATION:   393    CONV:     0.000000429
 ITERATION:   394    CONV:     0.000000435
 ITERATION:   395    CONV:     0.000000444
      DOING DIIS EXTRAPOLATION (DIM.OF THE SPACE=  5)
 ITERATION:   396    CONV:     0.000000416
 ITERATION:   397    CONV:     0.000000417
 ITERATION:   398    CONV:     0.000000420
 ITERATION:   399    CONV:     0.000000429
 ITERATION:   400    CONV:     0.000000442
      DOING DIIS EXTRAPOLATION (DIM.OF THE SPACE=  5)
 ITERATION:   401    CONV:     0.000000395
 ITERATION:   402    CONV:     0.000000394
 ITERATION:   403    CONV:     0.000000397
 ITERATION:   404    CONV:     0.000000402
 ITERATION:   405    CONV:     0.000000410
      DOING DIIS EXTRAPOLATION (DIM.OF THE SPACE=  5)
 ITERATION:   406    CONV:     0.000000384
 ITERATION:   407    CONV:     0.000000385
 ITERATION:   408    CONV:     0.000000388
 ITERATION:   409    CONV:     0.000000396
 ITERATION:   410    CONV:     0.000000409
      DOING DIIS EXTRAPOLATION (DIM.OF THE SPACE=  5)
 ITERATION:   411    CONV:     0.000000364
 ITERATION:   412    CONV:     0.000000362
 ITERATION:   413    CONV:     0.000000365
 ITERATION:   414    CONV:     0.000000369
 ITERATION:   415    CONV:     0.000000376
      DOING DIIS EXTRAPOLATION (DIM.OF THE SPACE=  5)
 ITERATION:   416    CONV:     0.000000352
 ITERATION:   417    CONV:     0.000000353
 ITERATION:   418    CONV:     0.000000356
 ITERATION:   419    CONV:     0.000000364
 ITERATION:   420    CONV:     0.000000375
      DOING DIIS EXTRAPOLATION (DIM.OF THE SPACE=  5)
 ITERATION:   421    CONV:     0.000000332
 ITERATION:   422    CONV:     0.000000330
 ITERATION:   423    CONV:     0.000000332
 ITERATION:   424    CONV:     0.000000336
 ITERATION:   425    CONV:     0.000000343
      DOING DIIS EXTRAPOLATION (DIM.OF THE SPACE=  5)
 ITERATION:   426    CONV:     0.000000320
 ITERATION:   427    CONV:     0.000000321
 ITERATION:   428    CONV:     0.000000323
 ITERATION:   429    CONV:     0.000000331
 ITERATION:   430    CONV:     0.000000340
      DOING DIIS EXTRAPOLATION (DIM.OF THE SPACE=  5)
 ITERATION:   431    CONV:     0.000000296
 ITERATION:   432    CONV:     0.000000300
 ITERATION:   433    CONV:     0.000000295
 ITERATION:   434    CONV:     0.000000306
 ITERATION:   435    CONV:     0.000000303
      DOING DIIS EXTRAPOLATION (DIM.OF THE SPACE=  5)
 ITERATION:   436    CONV:     0.000000293
 ITERATION:   437    CONV:     0.000000281
 ITERATION:   438    CONV:     0.000000294
 ITERATION:   439    CONV:     0.000000286
 ITERATION:   440    CONV:     0.000000305
      DOING DIIS EXTRAPOLATION (DIM.OF THE SPACE=  5)
 ITERATION:   441    CONV:     0.000000284
 ITERATION:   442    CONV:     0.000000270
 ITERATION:   443    CONV:     0.000000288
 ITERATION:   444    CONV:     0.000000276
 ITERATION:   445    CONV:     0.000000300
      DOING DIIS EXTRAPOLATION (DIM.OF THE SPACE=  5)
 ITERATION:   446    CONV:     0.000000276
 ITERATION:   447    CONV:     0.000000266
 ITERATION:   448    CONV:     0.000000277
 ITERATION:   449    CONV:     0.000000270
 ITERATION:   450    CONV:     0.000000287
      DOING DIIS EXTRAPOLATION (DIM.OF THE SPACE=  5)
 ITERATION:   451    CONV:     0.000000268
 ITERATION:   452    CONV:     0.000000253
 ITERATION:   453    CONV:     0.000000272
 ITERATION:   454    CONV:     0.000000259
 ITERATION:   455    CONV:     0.000000283
      DOING DIIS EXTRAPOLATION (DIM.OF THE SPACE=  5)
 ITERATION:   456    CONV:     0.000000259
 ITERATION:   457    CONV:     0.000000250
 ITERATION:   458    CONV:     0.000000260
 ITERATION:   459    CONV:     0.000000255
 ITERATION:   460    CONV:     0.000000270
      DOING DIIS EXTRAPOLATION (DIM.OF THE SPACE=  5)
 ITERATION:   461    CONV:     0.000000253
 ITERATION:   462    CONV:     0.000000237
 ITERATION:   463    CONV:     0.000000256
 ITERATION:   464    CONV:     0.000000242
 ITERATION:   465    CONV:     0.000000267
      DOING DIIS EXTRAPOLATION (DIM.OF THE SPACE=  5)
 ITERATION:   466    CONV:     0.000000242
 ITERATION:   467    CONV:     0.000000235
 ITERATION:   468    CONV:     0.000000244
 ITERATION:   469    CONV:     0.000000240
 ITERATION:   470    CONV:     0.000000252
      DOING DIIS EXTRAPOLATION (DIM.OF THE SPACE=  5)
 ITERATION:   471    CONV:     0.000000238
 ITERATION:   472    CONV:     0.000000220
 ITERATION:   473    CONV:     0.000000241
 ITERATION:   474    CONV:     0.000000226
 ITERATION:   475    CONV:     0.000000252
      DOING DIIS EXTRAPOLATION (DIM.OF THE SPACE=  5)
 ITERATION:   476    CONV:     0.000000226
 ITERATION:   477    CONV:     0.000000221
 ITERATION:   478    CONV:     0.000000227
 ITERATION:   479    CONV:     0.000000224
 ITERATION:   480    CONV:     0.000000235
      DOING DIIS EXTRAPOLATION (DIM.OF THE SPACE=  5)
 ITERATION:   481    CONV:     0.000000223
 ITERATION:   482    CONV:     0.000000204
 ITERATION:   483    CONV:     0.000000226
 ITERATION:   484    CONV:     0.000000209
 ITERATION:   485    CONV:     0.000000236
      DOING DIIS EXTRAPOLATION (DIM.OF THE SPACE=  5)
 ITERATION:   486    CONV:     0.000000210
 ITERATION:   487    CONV:     0.000000206
 ITERATION:   488    CONV:     0.000000211
 ITERATION:   489    CONV:     0.000000209
 ITERATION:   490    CONV:     0.000000218
      DOING DIIS EXTRAPOLATION (DIM.OF THE SPACE=  5)
 ITERATION:   491    CONV:     0.000000207
 ITERATION:   492    CONV:     0.000000189
 ITERATION:   493    CONV:     0.000000210
 ITERATION:   494    CONV:     0.000000193
 ITERATION:   495    CONV:     0.000000219
      DOING DIIS EXTRAPOLATION (DIM.OF THE SPACE=  5)
 ITERATION:   496    CONV:     0.000000194
 ITERATION:   497    CONV:     0.000000192
 ITERATION:   498    CONV:     0.000000194
 ITERATION:   499    CONV:     0.000000195
 ITERATION:   500    CONV:     0.000000200
      DOING DIIS EXTRAPOLATION (DIM.OF THE SPACE=  5)
 ITERATION:   501    CONV:     0.000000188
 ITERATION:   502    CONV:     0.000000178
 ITERATION:   503    CONV:     0.000000189
 ITERATION:   504    CONV:     0.000000182
 ITERATION:   505    CONV:     0.000000197
      DOING DIIS EXTRAPOLATION (DIM.OF THE SPACE=  5)
 ITERATION:   506    CONV:     0.000000177
 ITERATION:   507    CONV:     0.000000178
 ITERATION:   508    CONV:     0.000000178
 ITERATION:   509    CONV:     0.000000181
 ITERATION:   510    CONV:     0.000000183
      DOING DIIS EXTRAPOLATION (DIM.OF THE SPACE=  5)
 ITERATION:   511    CONV:     0.000000167
 ITERATION:   512    CONV:     0.000000173
 ITERATION:   513    CONV:     0.000000167
 ITERATION:   514    CONV:     0.000000177
 ITERATION:   515    CONV:     0.000000173
      DOING DIIS EXTRAPOLATION (DIM.OF THE SPACE=  5)
 ITERATION:   516    CONV:     0.000000165
 ITERATION:   517    CONV:     0.000000164
 ITERATION:   518    CONV:     0.000000166
 ITERATION:   519    CONV:     0.000000166
 ITERATION:   520    CONV:     0.000000171
      DOING DIIS EXTRAPOLATION (DIM.OF THE SPACE=  5)
 ITERATION:   521    CONV:     0.000000161
 ITERATION:   522    CONV:     0.000000155
 ITERATION:   523    CONV:     0.000000162
 ITERATION:   524    CONV:     0.000000158
 ITERATION:   525    CONV:     0.000000169
      DOING DIIS EXTRAPOLATION (DIM.OF THE SPACE=  5)
 ITERATION:   526    CONV:     0.000000153
 ITERATION:   527    CONV:     0.000000153
 ITERATION:   528    CONV:     0.000000153
 ITERATION:   529    CONV:     0.000000156
 ITERATION:   530    CONV:     0.000000158
      DOING DIIS EXTRAPOLATION (DIM.OF THE SPACE=  5)
 ITERATION:   531    CONV:     0.000000146
 ITERATION:   532    CONV:     0.000000148
 ITERATION:   533    CONV:     0.000000146
 ITERATION:   534    CONV:     0.000000152
 ITERATION:   535    CONV:     0.000000152
      DOING DIIS EXTRAPOLATION (DIM.OF THE SPACE=  5)
 ITERATION:   536    CONV:     0.000000143
 ITERATION:   537    CONV:     0.000000141
 ITERATION:   538    CONV:     0.000000143
 ITERATION:   539    CONV:     0.000000144
 ITERATION:   540    CONV:     0.000000148
      DOING DIIS EXTRAPOLATION (DIM.OF THE SPACE=  5)
 ITERATION:   541    CONV:     0.000000140
 ITERATION:   542    CONV:     0.000000133
 ITERATION:   543    CONV:     0.000000142
 ITERATION:   544    CONV:     0.000000136
 ITERATION:   545    CONV:     0.000000147
      DOING DIIS EXTRAPOLATION (DIM.OF THE SPACE=  5)
 ITERATION:   546    CONV:     0.000000132
 ITERATION:   547    CONV:     0.000000132
 ITERATION:   548    CONV:     0.000000132
 ITERATION:   549    CONV:     0.000000134
 ITERATION:   550    CONV:     0.000000136
      DOING DIIS EXTRAPOLATION (DIM.OF THE SPACE=  5)
 ITERATION:   551    CONV:     0.000000125
 ITERATION:   552    CONV:     0.000000129
 ITERATION:   553    CONV:     0.000000125
 ITERATION:   554    CONV:     0.000000133
 ITERATION:   555    CONV:     0.000000130
      DOING DIIS EXTRAPOLATION (DIM.OF THE SPACE=  5)
 ITERATION:   556    CONV:     0.000000123
 ITERATION:   557    CONV:     0.000000122
 ITERATION:   558    CONV:     0.000000123
 ITERATION:   559    CONV:     0.000000124
 ITERATION:   560    CONV:     0.000000127
      DOING DIIS EXTRAPOLATION (DIM.OF THE SPACE=  5)
 ITERATION:   561    CONV:     0.000000121
 ITERATION:   562    CONV:     0.000000116
 ITERATION:   563    CONV:     0.000000123
 ITERATION:   564    CONV:     0.000000119
 ITERATION:   565    CONV:     0.000000128
      DOING DIIS EXTRAPOLATION (DIM.OF THE SPACE=  5)
 ITERATION:   566    CONV:     0.000000115
 ITERATION:   567    CONV:     0.000000114
 ITERATION:   568    CONV:     0.000000115
 ITERATION:   569    CONV:     0.000000116
 ITERATION:   570    CONV:     0.000000118
      DOING DIIS EXTRAPOLATION (DIM.OF THE SPACE=  5)
 ITERATION:   571    CONV:     0.000000110
 ITERATION:   572    CONV:     0.000000110
 ITERATION:   573    CONV:     0.000000111
 ITERATION:   574    CONV:     0.000000113
 ITERATION:   575    CONV:     0.000000115
      DOING DIIS EXTRAPOLATION (DIM.OF THE SPACE=  5)
 ITERATION:   576    CONV:     0.000000106
 ITERATION:   577    CONV:     0.000000106
 ITERATION:   578    CONV:     0.000000106
 ITERATION:   579    CONV:     0.000000107
 ITERATION:   580    CONV:     0.000000109
      DOING DIIS EXTRAPOLATION (DIM.OF THE SPACE=  5)
 ITERATION:   581    CONV:     0.000000100
 ITERATION:   582    CONV:     0.000000100

 LAMBDA VECTOR ITERATIONS HAVE CONVERGED,
 THE LARGEST LA1 AND LA2 AMPLITUDES ARE
 LA1=  -0.0470866972 FOR IA -> AA =   8  18
 LA1=  -0.0267244935 FOR IA -> AA =   8  19
 LA1=  -0.0294865393 FOR IA -> AA =   8  20
 LA1=  -0.0388258702 FOR IA -> AA =   9  13
 LA1=  -0.0263385190 FOR IA -> AA =  10  15
 LA1=  -0.0339708586 FOR IA -> AA =  10  18
 LA1=   0.0694124697 FOR IA -> AA =  10  19
 LA1=   0.0267878631 FOR IA -> AA =  10  24
 LA1=  -0.0254826329 FOR IA -> AA =  10  31
 LA1=  -0.0404128965 FOR IA -> AA =  11  13
 LA1=  -0.0302604994 FOR IA -> AA =  11  14
 LA1=   0.0504886928 FOR IA -> AA =  11  18
 LA1=   0.0311194217 FOR IA -> AA =  11  20
 LA1=   0.1364469472 FOR IA -> AA =  12  13
 LA1=  -0.0470866847 FOR IB -> AB =   8  18
 LA1=  -0.0267244906 FOR IB -> AB =   8  19
 LA1=  -0.0294865376 FOR IB -> AB =   8  20
 LA1=  -0.0388258016 FOR IB -> AB =   9  13
 LA1=  -0.0263385179 FOR IB -> AB =  10  15
 LA1=  -0.0339708473 FOR IB -> AB =  10  18
 LA1=   0.0694124587 FOR IB -> AB =  10  19
 LA1=   0.0267878572 FOR IB -> AB =  10  24
 LA1=  -0.0254826202 FOR IB -> AB =  10  31
 LA1=  -0.0404128107 FOR IB -> AB =  11  13
 LA1=  -0.0302604859 FOR IB -> AB =  11  14
 LA1=   0.0504886708 FOR IB -> AB =  11  18
 LA1=   0.0311194098 FOR IB -> AB =  11  20
 LA1=   0.1364480549 FOR IB -> AB =  12  13
 LA2=  -0.0255097360 FOR IA,JB -> AA, BB =   7   7  14  14
 LA2=  -0.0308461319 FOR IA,JB -> AA, BB =   9   9  17  17
 LA2=  -0.0288959377 FOR IA,JB -> AA, BB =   9  12  13  13
 LA2=  -0.0332794665 FOR IA,JB -> AA, BB =  11  11  33  33
 LA2=  -0.0288958735 FOR IA,JB -> AA, BB =  12   9  13  13
 LA2=  -0.1410138170 FOR IA,JB -> AA, BB =  12  12  13  13
 LA2=   0.0252781779 FOR IA,JB -> AA, BB =  12  12  13  17
 LA2=  -0.0297661544 FOR IA,JB -> AA, BB =  12  12  13  32
 LA2=   0.0252782243 FOR IA,JB -> AA, BB =  12  12  17  13
 LA2=  -0.0297662214 FOR IA,JB -> AA, BB =  12  12  32  13
 ....... DONE WITH LAMBDA AMPLITUDE ITERATIONS .......
 STEP CPU TIME =   592.49 TOTAL CPU TIME =      754.7 (   12.6 MIN)
 TOTAL WALL CLOCK TIME=      755.9 SECONDS, CPU UTILIZATION IS  99.83%

        -----------------------------
        OPEN-SHELL CR-CC(2,3) PROGRAM
        -----------------------------
         AVAILABLE MEMORY :    249999906 WORDS
 MEMORY NEEDED BY MM(2,3) :      4544774 WORDS, CODE=HIGH MEMORY VERSION (1)
 CHOOSING THE -HIGH MEMORY VERSION- FOR OPEN SHELL MM(2,3)

 MAIN RESULTS: CR-CC(2,3) = CR-CC(2,3),D = CR-CCSD(T)_L CALCULATIONS

 GROUND STATE CR-CC(2,3),A CORRECTION -0.035492, TOTAL E=     -153.2296074439
 GROUND STATE CR-CC(2,3),B CORRECTION -0.030137, TOTAL E=     -153.2242515375
 GROUND STATE CR-CC(2,3),C CORRECTION -0.039884, TOTAL E=     -153.2339992075
 GROUND STATE CR-CC(2,3),D CORRECTION -0.038398, TOTAL E=     -153.2325133744

 CR-CC(2,3),A ENERGY IS IDENTICAL TO THE CCSD(2)_T ENERGY.
 CR-CC(2,3),D ENERGY IS IDENTICAL TO COMPLETE CR-CC(2,3) ENERGY (CR-CCSD(T)_L)

               SUMMARY OF CR-CC(2,3) OR CR-CCSD(T)_L CALCULATIONS
 CCSD                       E=     -153.1941149870   CORR. E=  -0.4989608698
 CR-CC(2,3),A OR CCSD(2)_T  E=     -153.2296074439   CORR. E=  -0.5344533266
 CR-CC(2,3) OR CR-CCSD(T)_L E=     -153.2325133744   CORR. E=  -0.5373592572

 THE MOST ACCURATE ENERGETICS IS PROVIDED BY CR-CC(2,3) = CR-CC(2,3),D

 ..... DONE WITH CC NON-ITERATIVE TRIPLES CORRECTIONS .....
 STEP CPU TIME =    16.73 TOTAL CPU TIME =      771.4 (   12.9 MIN)
 TOTAL WALL CLOCK TIME=      772.7 SECONDS, CPU UTILIZATION IS  99.84%
              4544868  WORDS OF DYNAMIC MEMORY USED
 EXECUTION OF GAMESS TERMINATED NORMALLY Wed Aug  9 21:06:34 2017
 DDI: 263640 bytes (0.3 MB / 0 MWords) used by master data server.

 ----------------------------------------
 CPU timing information for all processes
 ========================================
 0: 757.384 + 14.16 = 771.401
 ----------------------------------------
 ddikick.x: exited gracefully.
unset echo
----- accounting info -----
Files used on the master node compute-0-7.local were:
-rw-rw-r-- 1 sarom sarom 3.1K Aug  9 20:53 /scratch/cc-multiref.F05
-rw-rw-r-- 1 sarom sarom  12M Aug  9 20:53 /scratch/cc-multiref.F08
-rw-rw-r-- 1 sarom sarom 7.4M Aug  9 20:53 /scratch/cc-multiref.F09
-rw-rw-r-- 1 sarom sarom 1.8M Aug  9 21:06 /scratch/cc-multiref.F10
-rw-rw-r-- 1 sarom sarom 9.0M Aug  9 21:06 /scratch/cc-multiref.F70
-rw-rw-r-- 1 sarom sarom  32M Aug  9 21:06 /scratch/cc-multiref.F71
-rw-rw-r-- 1 sarom sarom 113K Aug  9 20:53 /scratch/cc-multiref.F72
-rw-rw-r-- 1 sarom sarom    0 Aug  9 20:53 /scratch/cc-multiref.F73
-rw-rw-r-- 1 sarom sarom  52K Aug  9 20:53 /scratch/cc-multiref.F74
-rw-rw-r-- 1 sarom sarom  52K Aug  9 20:53 /scratch/cc-multiref.F75
-rw-rw-r-- 1 sarom sarom  52K Aug  9 20:53 /scratch/cc-multiref.F76
-rw-rw-r-- 1 sarom sarom 217K Aug  9 20:53 /scratch/cc-multiref.F77
-rw-rw-r-- 1 sarom sarom 217K Aug  9 20:53 /scratch/cc-multiref.F78
-rw-rw-r-- 1 sarom sarom 217K Aug  9 20:53 /scratch/cc-multiref.F79
-rw-rw-r-- 1 sarom sarom 217K Aug  9 20:53 /scratch/cc-multiref.F80
-rw-rw-r-- 1 sarom sarom 914K Aug  9 20:53 /scratch/cc-multiref.F81
-rw-rw-r-- 1 sarom sarom 914K Aug  9 20:53 /scratch/cc-multiref.F82
-rw-rw-r-- 1 sarom sarom 914K Aug  9 20:53 /scratch/cc-multiref.F83
-rw-rw-r-- 1 sarom sarom 914K Aug  9 20:53 /scratch/cc-multiref.F84
-rw-rw-r-- 1 sarom sarom 914K Aug  9 20:53 /scratch/cc-multiref.F85
-rw-rw-r-- 1 sarom sarom 914K Aug  9 20:53 /scratch/cc-multiref.F86
-rw-rw-r-- 1 sarom sarom 914K Aug  9 20:53 /scratch/cc-multiref.F87
-rw-rw-r-- 1 sarom sarom 3.8M Aug  9 20:53 /scratch/cc-multiref.F88
-rw-rw-r-- 1 sarom sarom 3.8M Aug  9 20:53 /scratch/cc-multiref.F89
-rw-rw-r-- 1 sarom sarom 3.8M Aug  9 20:53 /scratch/cc-multiref.F90
-rw-rw-r-- 1 sarom sarom 3.8M Aug  9 20:53 /scratch/cc-multiref.F91
-rw-rw-r-- 1 sarom sarom  48M Aug  9 20:53 /scratch/cc-multiref.F92
-rw-rw-r-- 1 sarom sarom  16M Aug  9 20:56 /scratch/cc-multiref.F93
-rw-rw-r-- 1 sarom sarom  53M Aug  9 20:56 /scratch/cc-multiref.F94
-rw-rw-r-- 1 sarom sarom  48M Aug  9 20:56 /scratch/cc-multiref.F95
rm: No match.
ls: No match.
ls: No match.
ls: No match.
Wed Aug  9 21:06:37 CDT 2017
0.248u 0.194s 12:56.29 0.0%	0+0k 8+360io 0pf+0w
/opt/gridengine/default/spool/compute-0-7/active_jobs/35989.1/pe_hostfile compute-0-7.local
