-catch_rsh /opt/gridengine/default/spool/compute-0-7/active_jobs/23445.1/pe_hostfile
compute-0-7
The primary node assigned by SGE to this run is compute-0-7
Warning: no access to tty (Bad file descriptor).
Thus no job control in this shell.
Deleting shmid=2523136.
Deleting shmid=2555905.
Deleting shmid=2785282.
source /home/sarom/gamess.github.2017-05-31.14.06/install.info
setenv GMS_PATH /home/sarom/gamess.github.2017-05-31.14.06
setenv GMS_BUILD_DIR /home/sarom/gamess.github.2017-05-31.14.06
setenv GMS_TARGET linux64
setenv GMS_FORTRAN gfortran
setenv GMS_GFORTRAN_VERNO 4.4
setenv GMS_MATHLIB mkl-so
setenv GMS_MATHLIB_PATH /share/apps/intel/compilers_and_libraries_2017.1.132/linux/mkl/lib/intel64
setenv GMS_MKL_VERNO 12
setenv GMS_DDI_COMM sockets
setenv GMS_LIBCCHEM false
setenv GMS_EIGEN_PATH
setenv GMS_PHI false
setenv GMS_SHMTYPE sysv
setenv GMS_OPENMP false
unset echo
eom-ccsd-ro-c2n
tests/cc
----- GAMESS execution script 'rungms' -----
This job is running on host compute-0-7.local
under operating system Linux at Fri Jun 2 00:25:27 CDT 2017
Available scratch disk space (Kbyte units) at beginning of the job is
Filesystem           1K-blocks      Used Available Use% Mounted on
/dev/sda1             16126920   3867340  11440380  26% /
GAMESS temporary binary files will be written to /scratch
GAMESS supplementary output files will be written to /home/sarom/restart
Copying input file eom-ccsd-ro-c2n.inp to your run's scratch directory...
cp tests/cc/eom-ccsd-ro-c2n.inp /scratch/eom-ccsd-ro-c2n.F05
unset echo
The generated host list is
compute-0-7.local
/home/sarom/gamess.github.2017-05-31.14.06/ddikick.x /home/sarom/gamess.github.2017-05-31.14.06/gamess.00.x eom-ccsd-ro-c2n -ddi 1 1 compute-0-7.local -scr /scratch

 Distributed Data Interface kickoff program.
 Initiating 1 compute processes on 1 nodes to run the following command:
 /home/sarom/gamess.github.2017-05-31.14.06/gamess.00.x eom-ccsd-ro-c2n 

          ******************************************************
          *         GAMESS VERSION = 20 APR 2017 (R1)          *
          *             FROM IOWA STATE UNIVERSITY             *
          * M.W.SCHMIDT, K.K.BALDRIDGE, J.A.BOATZ, S.T.ELBERT, *
          *   M.S.GORDON, J.H.JENSEN, S.KOSEKI, N.MATSUNAGA,   *
          *          K.A.NGUYEN, S.J.SU, T.L.WINDUS,           *
          *       TOGETHER WITH M.DUPUIS, J.A.MONTGOMERY       *
          *         J.COMPUT.CHEM.  14, 1347-1363(1993)        *
          **************** 64 BIT LINUX VERSION ****************

  SINCE 1993, STUDENTS AND POSTDOCS WORKING AT IOWA STATE UNIVERSITY
  AND ALSO IN THEIR VARIOUS JOBS AFTER LEAVING ISU HAVE MADE IMPORTANT
  CONTRIBUTIONS TO THE CODE:
     IVANA ADAMOVIC, CHRISTINE AIKENS, YURI ALEXEEV, POOJA ARORA,
     ANDREY ASADCHEV, ROB BELL, PRADIPTA BANDYOPADHYAY, JONATHAN BENTZ,
     BRETT BODE, KURT BRORSEN, CALEB CARLIN, GALINA CHABAN, WEI CHEN,
     CHEOL HO CHOI, PAUL DAY, ALBERT DEFUSCO, NUWAN DESILVA, TIM DUDLEY,
     DMITRI FEDOROV, GRAHAM FLETCHER, MARK FREITAG, KURT GLAESEMANN,
     DAN KEMP, GRANT MERRILL, NORIYUKI MINEZAWA, JONATHAN MULLIN,
     TAKESHI NAGATA, SEAN NEDD, HEATHER NETZLOFF, BOSILJKA NJEGIC, RYAN OLSON,
     MIKE PAK, SPENCER PRUITT, LUKE ROSKOP, JIM SHOEMAKER, LYUDMILA SLIPCHENKO,
     TONY SMITH, SAROM SOK LEANG, JIE SONG, TETSUYA TAKETSUGU, SIMON WEBB,
     PENG XU, SOOHAENG YOO, FEDERICO ZAHARIEV

  ADDITIONAL CODE HAS BEEN PROVIDED BY COLLABORATORS IN OTHER GROUPS:
     IOWA STATE UNIVERSITY:
          JOE IVANIC, AARON WEST, LAIMUTIS BYTAUTAS, KLAUS RUEDENBERG
     UNIVERSITY OF TOKYO: KIMIHIKO HIRAO, TAKAHITO NAKAJIMA,
          TAKAO TSUNEDA, MUNEAKI KAMIYA, SUSUMU YANAGISAWA,
          KIYOSHI YAGI, MAHITO CHIBA, SEIKEN TOKURA, NAOAKI KAWAKAMI
     UNIVERSITY OF AARHUS: FRANK JENSEN
     UNIVERSITY OF IOWA: VISVALDAS KAIRYS, HUI LI
     NATIONAL INST. OF STANDARDS AND TECHNOLOGY: WALT STEVENS, DAVID GARMER
     UNIVERSITY OF PISA: BENEDETTA MENNUCCI, JACOPO TOMASI
     UNIVERSITY OF MEMPHIS: HENRY KURTZ, PRAKASHAN KORAMBATH
     UNIVERSITY OF ALBERTA: TOBY ZENG, MARIUSZ KLOBUKOWSKI
     UNIVERSITY OF NEW ENGLAND: MARK SPACKMAN
     MIE UNIVERSITY: HIROAKI UMEDA
     NAT. INST. OF ADVANCED INDUSTRIAL SCIENCE AND TECHNOLOGY: KAZUO KITAURA
     MICHIGAN STATE UNIVERSITY:
          KAROL KOWALSKI, MARTA WLOCH, JEFFREY GOUR, JESSE LUTZ,
          WEI LI, PIOTR PIECUCH
     UNIVERSITY OF SILESIA: MONIKA MUSIAL, STANISLAW KUCHARSKI
     FACULTES UNIVERSITAIRES NOTRE-DAME DE LA PAIX:
          OLIVIER QUINET, BENOIT CHAMPAGNE
     UNIVERSITY OF CALIFORNIA - SANTA BARBARA: BERNARD KIRTMAN
     INSTITUTE FOR MOLECULAR SCIENCE:
          KAZUYA ISHIMURA, MICHIO KATOUDA, AND SHIGERU NAGASE
     UNIVERSITY OF NOTRE DAME: ANNA POMOGAEVA, DAN CHIPMAN
     KYUSHU UNIVERSITY:
          HARUYUKI NAKANO,
          FENG LONG GU, JACEK KORCHOWIEC, MARCIN MAKOWSKI, AND YURIKO AOKI,
          HIROTOSHI MORI AND EISAKU MIYOSHI
     PENNSYLVANIA STATE UNIVERSITY:
          TZVETELIN IORDANOV, CHET SWALINA, JONATHAN SKONE,
          SHARON HAMMES-SCHIFFER
     WASEDA UNIVERSITY:
          MASATO KOBAYASHI, TOMOKO AKAMA, TSUGUKI TOUMA,
          TAKESHI YOSHIKAWA, YASUHIRO IKABATA, JUNJI SEINO,
          YUYA NAKAJIMA, HIROMI NAKAI
     NANJING UNIVERSITY: SHUHUA LI
     UNIVERSITY OF NEBRASKA:
          PEIFENG SU, DEJUN SI, NANDUN THELLAMUREGE, YALI WANG, HUI LI
     UNIVERSITY OF ZURICH: ROBERTO PEVERATI, KIM BALDRIDGE
     N. COPERNICUS UNIVERSITY AND JACKSON STATE UNIVERSITY:
          MARIA BARYSZ
     UNIVERSITY OF COPENHAGEN: Jimmy Kromann, CASPER STEINMANN
     TOKYO INSTITUTE OF TECHNOLOGY: HIROYA NAKATA
     NAGOYA UNIVERSITY: YOSHIO NISHIMOTO, STEPHAN IRLE
     MOSCOW STATE UNIVERSITY: VLADIMIR MIRONOV

 EXECUTION OF GAMESS BEGUN Fri Jun  2 00:25:27 2017

            ECHO OF THE FIRST FEW INPUT CARDS -
 INPUT CARD>!   collinear CCN...48 AOs, 45 MOs, 3 frozen cores in very old DZP basis        
 INPUT CARD>!   This calculation resembles Table IV in P.Piecuch, J.Gour, M.Wloch           
 INPUT CARD>!   IJQC 109, 3268-3304(2009) except that all states are calculated at          
 INPUT CARD>!   a single geometry, and triples corrections are not possible.                
 INPUT CARD>!                                                                               
 INPUT CARD>!   High spin reference is (sigma)1(pi)2 config, a 4-sigma-minus term,          
 INPUT CARD>!   which will have degenerate pi orbitals and thus degenerate states.          
 INPUT CARD>!   There is also a (sigma)2(pi)1 configuration lying nearby, whose ROHF        
 INPUT CARD>!   treatment leads to non-degenerate pi orbitals due to the inequivalent       
 INPUT CARD>!   occupancy, and thus non-degenerate states.  Inclusion of electron           
 INPUT CARD>!   correlation makes the latter configuration the ground state, as at          
 INPUT CARD>!   this particular geometry, optimized for the quartet,                        
 INPUT CARD>!     the broken symmetry doublet: SCF= -130.015505  CCSD= -130.398221 (2-B1)   
 INPUT CARD>!           the high spin quartet: SCF= -130.015484  CCSD= -130.369052 (4-A2)   
 INPUT CARD>!   Orbitals are read in so that my computer's choice in which the broken       
 INPUT CARD>!   symmetry calculation occupies  b1 rather than b2 is propagated to           
 INPUT CARD>!   any other machine this might eventually run on.                             
 INPUT CARD>!                                                                               
 INPUT CARD>!   Even more importantly, note that EOM-CCSD for non-zero total spins          
 INPUT CARD>!   generates states with spin nearly (but not exactly) Ms, Ms+1, Ms+2,         
 INPUT CARD>!   where the good quantum number Ms comes from $CONTRL's (MULT-1)/2.           
 INPUT CARD>!   The situation is better for singlet references, where the EOM run           
 INPUT CARD>!   not only has good S quantum numbers, but MULT in $EOMINP can select         
 INPUT CARD>!   the desired target state spin.                                              
 INPUT CARD>!                                                                               
 INPUT CARD>!   In particular, in this instance, using a doublet reference can generate     
 INPUT CARD>!   the valence quartet state, but not the other way around.                    
 INPUT CARD>!                                                                               
 INPUT CARD>!   Group theory tells us that the valence states are                           
 INPUT CARD>!     (sigma)1(pi)2  has  4-sigma-minus, 2-sigma-minus, 2-delta, 2-sigma-plus   
 INPUT CARD>!     (sigma)2(pi)1  has  2-pi                                                  
 INPUT CARD>!   Herzberg's tables for C-inf-v ===> C2v with z axis along molecule tells us  
 INPUT CARD>!     (sigma)1(pi)2  becomes 4-A2, 2-A2, 2-A1 and 2-A2, 2-A1.                   
 INPUT CARD>!     (sigma)2(pi)1  becomes 2-B1 and 2-B2                                      
 INPUT CARD>!   Counting these up for either a 2-B1 reference, or a 4-A2 reference,         
 INPUT CARD>!   not including the reference state, gives us the NSTATE inputs below.        
 INPUT CARD>!                                                                               
 INPUT CARD>!   doublet reference state (2-B1):                                             
 INPUT CARD>!                                                                               
 INPUT CARD>!                        SUMMARY OF CCSD RESULTS                                
 INPUT CARD>!    REFERENCE ENERGY:     -130.0155045483                                      
 INPUT CARD>!         CCSD ENERGY:     -130.3982219410                                      
 INPUT CARD>!                                                                               
 INPUT CARD>!    ---- SUMMARY OF OPEN-SHELL EOM-CCSD CALCULATIONS ----                      
 INPUT CARD>!            EXCITATION     TOTAL                                               
 INPUT CARD>! SYMMETRY   ENERGY (EV)    ENERGY (H)   REL DIAGNOSTIC                         
 INPUT CARD>!    A1         3.239     -130.27919408    1.051 (2-delta)                      
 INPUT CARD>!    A1         6.283     -130.16732632    1.693 (2-sigma-plus)                 
 INPUT CARD>!    A2         1.278     -130.35126890    1.096 (4-sigma-minus)                
 INPUT CARD>!    A2         3.366     -130.27453596    1.061 (2-delta)                      
   20000000 WORDS OF MEMORY AVAILABLE


     RUN TITLE
     ---------
 collinear CCN...Dunning's (9s5p)/[4s2p] DZP...ZAPT 4-sigma-minus geom.          

 THE POINT GROUP OF THE MOLECULE IS CNV     
 THE ORDER OF THE PRINCIPAL AXIS IS     2

 ATOM      ATOMIC                      COORDINATES (BOHR)
           CHARGE         X                   Y                   Z
 C           6.0     0.0000000000        0.0000000000        2.6194710621
 C           6.0     0.0000000000        0.0000000000        0.0258598684
 N           7.0     0.0000000000        0.0000000000       -2.2390398431

          INTERNUCLEAR DISTANCES (ANGS.)
          ------------------------------

                1 C          2 C          3 N     

   1 C       0.0000000    1.3724800 *  2.5710134 *
   2 C       1.3724800 *  0.0000000    1.1985334 *
   3 N       2.5710134 *  1.1985334 *  0.0000000  

  * ... LESS THAN  3.000


     ATOMIC BASIS SET
     ----------------
 THE CONTRACTED PRIMITIVE FUNCTIONS HAVE BEEN UNNORMALIZED
 THE CONTRACTED BASIS FUNCTIONS ARE NOW NORMALIZED TO UNITY

  SHELL TYPE  PRIMITIVE        EXPONENT          CONTRACTION COEFFICIENT(S)

 C         

      1   S       1          4232.6100000    0.002029000503
      1   S       2           634.8820000    0.015535003853
      1   S       3           146.0970000    0.075411018704
      1   S       4            42.4974000    0.257121063774
      1   S       5            14.1892000    0.596555147963
      1   S       6             1.9666000    0.242517060151

      2   S       7             5.1477000    1.000000000000

      3   S       8             0.4962000    1.000000000000

      4   S       9             0.1533000    1.000000000000

      5   P      10            18.1557000    0.018534002568
      5   P      11             3.9864000    0.115442015996
      5   P      12             1.1429000    0.386206053514
      5   P      13             0.3594000    0.640089088694

      6   P      14             0.1146000    1.000000000000

      7   D      15             0.7500000    1.000000000000

 C         

      8   S      16          4232.6100000    0.002029000503
      8   S      17           634.8820000    0.015535003853
      8   S      18           146.0970000    0.075411018704
      8   S      19            42.4974000    0.257121063774
      8   S      20            14.1892000    0.596555147963
      8   S      21             1.9666000    0.242517060151

      9   S      22             5.1477000    1.000000000000

     10   S      23             0.4962000    1.000000000000

     11   S      24             0.1533000    1.000000000000

     12   P      25            18.1557000    0.018534002568
     12   P      26             3.9864000    0.115442015996
     12   P      27             1.1429000    0.386206053514
     12   P      28             0.3594000    0.640089088694

     13   P      29             0.1146000    1.000000000000

     14   D      30             0.7500000    1.000000000000

 N         

     15   S      31          5909.4400000    0.002004000152
     15   S      32           887.4510000    0.015310001158
     15   S      33           204.7490000    0.074293005619
     15   S      34            59.8376000    0.253364019162
     15   S      35            19.9981000    0.600576045421
     15   S      36             2.6860000    0.245111018538

     16   S      37             7.1927000    1.000000000000

     17   S      38             0.7000000    1.000000000000

     18   S      39             0.2133000    1.000000000000

     19   P      40            26.7860000    0.018256992512
     19   P      41             5.9564000    0.116406952258
     19   P      42             1.7074000    0.390110840005
     19   P      43             0.5314000    0.637220738658

     20   P      44             0.1654000    1.000000000000

     21   D      45             0.8000000    1.000000000000

 TOTAL NUMBER OF BASIS SET SHELLS             =   21
 NUMBER OF CARTESIAN GAUSSIAN BASIS FUNCTIONS =   48
 NOTE: THIS RUN WILL RESTRICT THE MO VARIATION SPACE TO SPHERICAL HARMONICS.
 THE NUMBER OF ORBITALS KEPT IN THE VARIATIONAL SPACE WILL BE PRINTED LATER.
 NUMBER OF ELECTRONS                          =   19
 CHARGE OF MOLECULE                           =    0
 SPIN MULTIPLICITY                            =    2
 NUMBER OF OCCUPIED ORBITALS (ALPHA)          =   10
 NUMBER OF OCCUPIED ORBITALS (BETA )          =    9
 TOTAL NUMBER OF ATOMS                        =    3
 THE NUCLEAR REPULSION ENERGY IS       41.0687523228

 THIS MOLECULE IS RECOGNIZED AS BEING LINEAR,
 ORBITAL LZ DEGENERACY TOLERANCE ETOLLZ= 1.00E-06

     $CONTRL OPTIONS
     ---------------
 SCFTYP=ROHF         RUNTYP=ENERGY       EXETYP=RUN     
 MPLEVL=       0     CITYP =NONE         CCTYP =EOM-CCSD     VBTYP =NONE    
 DFTTYP=NONE         TDDFT =NONE    
 MULT  =       2     ICHARG=       0     NZVAR =       0     COORD =UNIQUE  
 PP    =NONE         RELWFN=NONE         LOCAL =NONE         NUMGRD=       F
 ISPHER=       1     NOSYM =       0     MAXIT =      30     UNITS =ANGS    
 PLTORB=       F     MOLPLT=       F     AIMPAC=       F     FRIEND=        
 NPRINT=       7     IREST =       0     GEOM  =INPUT   
 NORMF =       0     NORMP =       0     ITOL  =      20     ICUT  =       9
 INTTYP=BEST         GRDTYP=BEST         QMTTOL= 1.0E-06

     $SYSTEM OPTIONS
     ---------------
  REPLICATED MEMORY=    20000000 WORDS (ON EVERY NODE).
 DISTRIBUTED MEMDDI=           0 MILLION WORDS IN AGGREGATE,
 MEMDDI DISTRIBUTED OVER   1 PROCESSORS IS           0 WORDS/PROCESSOR.
 TOTAL MEMORY REQUESTED ON EACH PROCESSOR=    20000000 WORDS.
 TIMLIM=      525600.00 MINUTES, OR     365.0 DAYS.
 PARALL= F  BALTYP=  DLB     KDIAG=    0  COREFL= F
 MXSEQ2=     300 MXSEQ3=     150  mem10=         0

          ----------------
          PROPERTIES INPUT
          ----------------

     MOMENTS            FIELD           POTENTIAL          DENSITY
 IEMOM =       1   IEFLD =       0   IEPOT =       0   IEDEN =       0
 WHERE =COMASS     WHERE =NUCLEI     WHERE =NUCLEI     WHERE =NUCLEI  
 OUTPUT=BOTH       OUTPUT=BOTH       OUTPUT=BOTH       OUTPUT=BOTH    
 IEMINT=       0   IEFINT=       0                     IEDINT=       0
                                                       MORB  =       0
          EXTRAPOLATION IN EFFECT
          SOSCF IN EFFECT
 ORBITAL PRINTING OPTION: NPREO=     1    48     2     1

     -------------------------------
     INTEGRAL TRANSFORMATION OPTIONS
     -------------------------------
     NWORD  =            0
     CUTOFF = 1.0E-09     MPTRAN =       0
     DIRTRF =       F     AOINTS =DUP     

          ----------------------
          INTEGRAL INPUT OPTIONS
          ----------------------
 NOPK  =       1 NORDER=       0 SCHWRZ=       F

     -------------------------------------------
     EQUATION OF MOTION INPUT FOR EXCITED STATES
     -------------------------------------------
     OPTIONS FOR STATE SELECTION:
     GROUP =C2V       NSTATE= 2, 3, 0, 1, 0, 0, 0, 0    IROOT = 1, 0
     OPTIONS FOR THE EOM-CCSD:
     MEOM  =       0  MAXEOM=      50  MICEOM=      80  CVGEOM= 1.0E-04
     OPTIONS FOR EOM-CCSD WITH ROHF REFERENCES:
     JREST =       0  MULT =      -1
     OPTIONS FOR PROPERTIES:
     CCPRP =       F  CCPRPE =       F
     OPTIONS FOR INITIAL GUESSES:
     MINIT =       1  MACT =       0  NOACT =       3  NUACT =       4
     ACTIVE ORBITALS DEFAULTED TO HOMO/LUMO BOUNDARY

     ------------------------------------------
     THE POINT GROUP IS CNV, NAXIS= 2, ORDER= 4
     ------------------------------------------

 -- VARIATIONAL SPACE WILL BE RESTRICTED TO PURE SPHERICAL HARMONICS ONLY --
 AFTER EXCLUDING CONTAMINANT COMBINATIONS FROM THE CARTESIAN GAUSSIAN BASIS
 SET, THE NUMBER OF SPHERICAL HARMONICS KEPT IN THE VARIATION SPACE IS   45

     DIMENSIONS OF THE SYMMETRY SUBSPACES ARE
 A1  =   24     A2  =    3     B1  =    9     B2  =    9

 ..... DONE SETTING UP THE RUN .....
 STEP CPU TIME =     0.05 TOTAL CPU TIME =        0.0 (    0.0 MIN)
 TOTAL WALL CLOCK TIME=        0.1 SECONDS, CPU UTILIZATION IS  83.33%

          ********************
          1 ELECTRON INTEGRALS
          ********************
 ...... END OF ONE-ELECTRON INTEGRALS ......
 STEP CPU TIME =     0.00 TOTAL CPU TIME =        0.0 (    0.0 MIN)
 TOTAL WALL CLOCK TIME=        0.1 SECONDS, CPU UTILIZATION IS  83.33%

          -------------
          GUESS OPTIONS
          -------------
          GUESS =MOREAD            NORB  =      45          NORDER=       0
          MIX   =       F          PRTMO =       F          PUNMO =       F
          TOLZ  = 1.0E-08          TOLE  = 1.0E-05
          SYMDEN=       F          PURIFY=       F

 INITIAL GUESS ORBITALS GENERATED BY MOREAD   ROUTINE.

 STATISTICS FOR GENERATION OF SYMMETRY ORBITAL -Q- MATRIX
 NUMBER OF CARTESIAN ATOMIC ORBITALS=         48
 NUMBER OF SPHERICAL CONTAMINANTS DROPPED=     3
 NUMBER OF LINEARLY DEPENDENT MOS DROPPED=     0
 TOTAL NUMBER OF MOS IN VARIATION SPACE=      45

 SYMMETRIES FOR INITIAL GUESS ORBITALS FOLLOW.  ALPHA SET(S).
    10 ORBITALS ARE OCCUPIED (    3 CORE ORBITALS).
     4=A1       5=A1       6=A1       7=B2       8=B1       9=A1      10=B1  
    11=B2      12=B1      13=B2      14=A1      15=A1      16=B1      17=B2  
    18=A1      19=B1      20=B2  

 SYMMETRIES FOR INITIAL GUESS ORBITALS FOLLOW.   BETA SET(S).
     9 ORBITALS ARE OCCUPIED (    3 CORE ORBITALS).
     4=A1       5=A1       6=A1       7=B2       8=B1       9=A1      10=B1  
    11=B2      12=B1      13=B2      14=A1      15=A1      16=B1      17=B2  
    18=A1      19=B1  
 ...... END OF INITIAL ORBITAL SELECTION ......
 STEP CPU TIME =     0.00 TOTAL CPU TIME =        0.0 (    0.0 MIN)
 TOTAL WALL CLOCK TIME=        0.1 SECONDS, CPU UTILIZATION IS  71.43%

                    ----------------------
                    AO INTEGRAL TECHNOLOGY
                    ----------------------
     S,P,L SHELL ROTATED AXIS INTEGRALS, REPROGRAMMED BY
        KAZUYA ISHIMURA (IMS) AND JOSE SIERRA (SYNSTAR).
     S,P,D,L SHELL ROTATED AXIS INTEGRALS PROGRAMMED BY
        KAZUYA ISHIMURA (INSTITUTE FOR MOLECULAR SCIENCE).
     S,P,D,F,G SHELL TO TOTAL QUARTET ANGULAR MOMENTUM SUM 5,
        ERIC PROGRAM BY GRAHAM FLETCHER (ELORET AND NASA ADVANCED
        SUPERCOMPUTING DIVISION, AMES RESEARCH CENTER).
     S,P,D,F,G,L SHELL GENERAL RYS QUADRATURE PROGRAMMED BY
        MICHEL DUPUIS (PACIFIC NORTHWEST NATIONAL LABORATORY).

          --------------------
          2 ELECTRON INTEGRALS
          --------------------

 THE -PK- OPTION IS OFF, THE INTEGRALS ARE NOT IN SUPERMATRIX FORM.
 STORING   15000 INTEGRALS/RECORD ON DISK, USING 12 BYTES/INTEGRAL.
 TWO ELECTRON INTEGRAL EVALUATION REQUIRES   90627 WORDS OF MEMORY.
 II,JST,KST,LST =  1  1  1  1 NREC =         1 INTLOC =    1
 II,JST,KST,LST =  2  1  1  1 NREC =         1 INTLOC =    2
 II,JST,KST,LST =  3  1  1  1 NREC =         1 INTLOC =    7
 II,JST,KST,LST =  4  1  1  1 NREC =         1 INTLOC =   22
 II,JST,KST,LST =  5  1  1  1 NREC =         1 INTLOC =   56
 II,JST,KST,LST =  6  1  1  1 NREC =         1 INTLOC =  125
 II,JST,KST,LST =  7  1  1  1 NREC =         1 INTLOC =  329
 II,JST,KST,LST =  8  1  1  1 NREC =         1 INTLOC = 1589
 II,JST,KST,LST =  9  1  1  1 NREC =         1 INTLOC = 2434
 II,JST,KST,LST = 10  1  1  1 NREC =         1 INTLOC = 3464
 II,JST,KST,LST = 11  1  1  1 NREC =         1 INTLOC = 4737
 II,JST,KST,LST = 12  1  1  1 NREC =         1 INTLOC = 6279
 II,JST,KST,LST = 13  1  1  1 NREC =         1 INTLOC =10826
 II,JST,KST,LST = 14  1  1  1 NREC =         2 INTLOC = 2318
 II,JST,KST,LST = 15  1  1  1 NREC =         3 INTLOC = 8112
 II,JST,KST,LST = 16  1  1  1 NREC =         3 INTLOC =13300
 II,JST,KST,LST = 17  1  1  1 NREC =         4 INTLOC = 3570
 II,JST,KST,LST = 18  1  1  1 NREC =         4 INTLOC =10704
 II,JST,KST,LST = 19  1  1  1 NREC =         5 INTLOC = 3736
 II,JST,KST,LST = 20  1  1  1 NREC =         6 INTLOC =11138
 II,JST,KST,LST = 21  1  1  1 NREC =         8 INTLOC = 9288
 TOTAL NUMBER OF NONZERO TWO-ELECTRON INTEGRALS =              189349
         13 INTEGRAL RECORDS WERE STORED ON DISK FILE  8.
  ...... END OF TWO-ELECTRON INTEGRALS .....
 STEP CPU TIME =     0.07 TOTAL CPU TIME =        0.1 (    0.0 MIN)
 TOTAL WALL CLOCK TIME=        0.1 SECONDS, CPU UTILIZATION IS  85.71%

          ---------------------------
                 ROHF SCF CALCULATION
          ---------------------------

     NUCLEAR ENERGY =        41.0687523228
     MAXIT = 30     NPUNCH=  2     MULT=  2
     EXTRAP=T  DAMP=F  SHIFT=F  RSTRCT=F  DIIS=F  SOSCF=T
     DENSITY MATRIX CONV=  1.00E-06
     ROHF CANONICALIZATION PARAMETERS
             C-C     O-O     V-V
     ALPHA -0.5000  0.5000  1.5000
     BETA   1.5000  0.5000 -0.5000
     SOSCF WILL OPTIMIZE     359 ORBITAL ROTATION ANGLES. SOGTOL= 2.500E-01
     MEMORY REQUIRED FOR UHF/ROHF ITERS=     53566 WORDS.

 ITER EX      TOTAL ENERGY        E CHANGE  DENSITY CHANGE    ORB. GRAD 
   1  0     -130.0155045483  -130.0155045483   0.000000011   0.000000000
          ---------------START SECOND ORDER SCF---------------
   2  1     -130.0155045483    -0.0000000000   0.000000012   0.000000004

 ROHF HAS CONVERGED, NOW COMPUTING EXACT ALPHA,BETA FOCK MATRICES
 FOR USE DURING THE COUPLED CLUSTER CALCULATION THAT FOLLOWS.

          -----------------
          DENSITY CONVERGED
          -----------------
     TIME TO FORM FOCK OPERATORS=       0.0 SECONDS (       0.0 SEC/ITER)
     TIME TO SOLVE SCF EQUATIONS=       0.0 SECONDS (       0.0 SEC/ITER)

 FINAL ROHF ENERGY IS     -130.0155045483 AFTER   2 ITERATIONS

          --------------------
          SPIN SZ   =    0.500
          S-SQUARED =    0.750
          --------------------

 LZ VALUE ANALYSIS FOR THE MOS
 ----------------------------------------
 MO     1 (    1) HAS LZ(WEIGHT)= 0.00(100.0%) 
 MO     2 (    2) HAS LZ(WEIGHT)= 0.00(100.0%) 
 MO     3 (    3) HAS LZ(WEIGHT)= 0.00(100.0%) 
 MO     4 (    4) HAS LZ(WEIGHT)= 0.00(100.0%) 
 MO     5 (    5) HAS LZ(WEIGHT)= 0.00(100.0%) 
 MO     6 (    6) HAS LZ(WEIGHT)= 0.00(100.0%) 
 MO     7 (    7) HAS LZ(WEIGHT)= 0.00(100.0%) 
 MO     8 (    8) HAS LZ(WEIGHT)= 0.00(100.0%) 
 MO     9 (    9) HAS LZ(WEIGHT)= 0.00(100.0%) 
 MO    10 (   10) HAS LZ(WEIGHT)= 0.00(100.0%) 
 MO    11 (   11) HAS LZ(WEIGHT)= 0.00(100.0%) 
 MO    12 (   12) HAS LZ(WEIGHT)= 0.00(100.0%) 
 MO    13 (   13) HAS LZ(WEIGHT)= 0.00(100.0%) 
 MO    14 (   14) HAS LZ(WEIGHT)= 0.00(100.0%) 
 MO    15 (   15) HAS LZ(WEIGHT)= 0.00(100.0%) 
 MO    16 (   16) HAS LZ(WEIGHT)= 0.00(100.0%) 
 MO    17 (   17) HAS LZ(WEIGHT)= 0.00(100.0%) 
 MO    18 (   18) HAS LZ(WEIGHT)= 0.00(100.0%) 
 MO    19 (   19) HAS LZ(WEIGHT)= 0.00(100.0%) 
 MO    20 (   20) HAS LZ(WEIGHT)= 0.00(100.0%) 
 MO    21 (   21) HAS LZ(WEIGHT)= 0.00(100.0%) 
 MO    22 (   22) HAS LZ(WEIGHT)= 0.00(100.0%) 
 MO    23 (   23) HAS LZ(WEIGHT)= 0.00(100.0%) 
 MO    24 (   24) HAS LZ(WEIGHT)= 0.00(100.0%) 
 MO    25 (   25) HAS LZ(WEIGHT)= 0.00(100.0%) 
 MO    26 (   26) HAS LZ(WEIGHT)= 0.00(100.0%) 
 MO    27 (   27) HAS LZ(WEIGHT)= 0.00(100.0%) 
 MO    28 (   28) HAS LZ(WEIGHT)= 0.00(100.0%) 
 MO    29 (   29) HAS LZ(WEIGHT)= 0.00(100.0%) 
 MO    30 (   30) HAS LZ(WEIGHT)= 0.00(100.0%) 
 MO    31 (   31) HAS LZ(WEIGHT)= 0.00(100.0%) 
 MO    32 (   32) HAS LZ(WEIGHT)= 0.00(100.0%) 
 MO    33 (   33) HAS LZ(WEIGHT)= 0.00(100.0%) 
 MO    34 (   34) HAS LZ(WEIGHT)= 0.00(100.0%) 
 MO    35 (   35) HAS LZ(WEIGHT)= 0.00(100.0%) 
 MO    36 (   36) HAS LZ(WEIGHT)= 0.00(100.0%) 
 MO    37 (   37) HAS LZ(WEIGHT)= 0.00(100.0%) 
 MO    38 (   38) HAS LZ(WEIGHT)= 0.00(100.0%) 
 MO    39 (   39) HAS LZ(WEIGHT)= 0.00(100.0%) 
 MO    40 (   40) HAS LZ(WEIGHT)= 0.00(100.0%) 
 MO    41 (   41) HAS LZ(WEIGHT)= 0.00(100.0%) 
 MO    42 (   42) HAS LZ(WEIGHT)= 0.00(100.0%) 
 MO    43 (   43) HAS LZ(WEIGHT)= 0.00(100.0%) 
 MO    44 (   44) HAS LZ(WEIGHT)= 0.00(100.0%) 
 MO    45 (   45) HAS LZ(WEIGHT)= 0.00(100.0%) 

          ------------
          EIGENVECTORS
          ------------

                      1          2          3          4          5
                  -15.6711   -11.3557   -11.3351    -1.2535    -0.9520
                     A1         A1         A1         A1         A1  
    1  C  1  S    0.000004   0.601383  -0.016787  -0.015768  -0.094565
    2  C  1  S   -0.000034   0.437910  -0.012224  -0.021216  -0.127487
    3  C  1  S    0.000129   0.001254  -0.000104   0.068852   0.356193
    4  C  1  S   -0.000501   0.003516  -0.000006  -0.005850   0.221325
    5  C  1  X    0.000000  -0.000000  -0.000000  -0.000000  -0.000000
    6  C  1  Y    0.000000  -0.000000  -0.000000  -0.000000  -0.000000
    7  C  1  Z   -0.000163  -0.003313   0.000045  -0.060227  -0.257614
    8  C  1  X    0.000000  -0.000000  -0.000000  -0.000000  -0.000000
    9  C  1  Y    0.000000  -0.000000  -0.000000  -0.000000  -0.000000
   10  C  1  Z   -0.000097  -0.000591   0.000012   0.002332  -0.009840
   11  C  1 XX   -0.000090  -0.000297   0.000051  -0.003961  -0.015783
   12  C  1 YY   -0.000084  -0.000825   0.000059  -0.003975  -0.018329
   13  C  1 ZZ    0.000173   0.001122  -0.000110   0.007937   0.034112
   14  C  1 XY    0.000000  -0.000000  -0.000000  -0.000000  -0.000000
   15  C  1 XZ    0.000000  -0.000000  -0.000000  -0.000000  -0.000000
   16  C  1 YZ    0.000000  -0.000000  -0.000000  -0.000000  -0.000000
   17  C  2  S    0.000054   0.016610   0.600629  -0.092376  -0.064784
   18  C  2  S    0.000112   0.012174   0.437286  -0.121740  -0.087947
   19  C  2  S   -0.000571  -0.000043   0.004552   0.317839   0.252626
   20  C  2  S   -0.001548  -0.003773   0.000059   0.143791   0.077436
   21  C  2  X    0.000000  -0.000000  -0.000000  -0.000000  -0.000000
   22  C  2  Y    0.000000  -0.000000  -0.000000  -0.000000  -0.000000
   23  C  2  Z    0.000560  -0.000520   0.000094  -0.196606   0.373474
   24  C  2  X    0.000000  -0.000000  -0.000000  -0.000000  -0.000000
   25  C  2  Y    0.000000  -0.000000  -0.000000  -0.000000  -0.000000
   26  C  2  Z    0.001416  -0.002355  -0.000069   0.035759  -0.023527
   27  C  2 XX    0.000267   0.000384  -0.000622  -0.015857  -0.009478
   28  C  2 YY    0.000275   0.000385  -0.000434  -0.013454  -0.007373
   29  C  2 ZZ   -0.000543  -0.000769   0.001056   0.029311   0.016851
   30  C  2 XY    0.000000  -0.000000  -0.000000  -0.000000  -0.000000
   31  C  2 XZ    0.000000  -0.000000  -0.000000  -0.000000  -0.000000
   32  C  2 YZ    0.000000  -0.000000  -0.000000  -0.000000  -0.000000
   33  N  3  S    0.593844  -0.000017  -0.000392  -0.109942   0.045360
   34  N  3  S    0.445971  -0.000057  -0.000391  -0.147591   0.061595
   35  N  3  S    0.000913   0.000267   0.000289   0.413286  -0.176783
   36  N  3  S    0.003669  -0.000152   0.000143   0.264521  -0.113367
   37  N  3  X    0.000000  -0.000000  -0.000000  -0.000000  -0.000000
   38  N  3  Y    0.000000  -0.000000  -0.000000  -0.000000  -0.000000
   39  N  3  Z    0.002270   0.000304   0.000581   0.205009  -0.023279
   40  N  3  X    0.000000  -0.000000  -0.000000  -0.000000  -0.000000
   41  N  3  Y    0.000000  -0.000000  -0.000000  -0.000000  -0.000000
   42  N  3  Z    0.000302   0.000746   0.000015  -0.000542   0.041005
   43  N  3 XX   -0.000325  -0.000133  -0.000087  -0.012272   0.003138
   44  N  3 YY   -0.000606  -0.000124  -0.000095  -0.013891   0.004360
   45  N  3 ZZ    0.000931   0.000258   0.000183   0.026164  -0.007498
   46  N  3 XY    0.000000  -0.000000  -0.000000  -0.000000  -0.000000
   47  N  3 XZ    0.000000  -0.000000  -0.000000  -0.000000  -0.000000
   48  N  3 YZ    0.000000  -0.000000  -0.000000  -0.000000  -0.000000

                      6          7          8          9         10
                   -0.6249    -0.5203    -0.4932    -0.4735    -0.1984
                     A1         B2         B1         A1         B1  
    1  C  1  S    0.030744  -0.000000  -0.000000  -0.090275  -0.000000
    2  C  1  S    0.041456  -0.000000  -0.000000  -0.123327  -0.000000
    3  C  1  S   -0.108589  -0.000000  -0.000000   0.362935  -0.000000
    4  C  1  S   -0.208109  -0.000000  -0.000000   0.504936  -0.000000
    5  C  1  X   -0.000000  -0.000000   0.113949  -0.000000   0.724606
    6  C  1  Y   -0.000000   0.156644  -0.000000  -0.000000  -0.000000
    7  C  1  Z    0.000426  -0.000000  -0.000000   0.496588  -0.000000
    8  C  1  X   -0.000000  -0.000000  -0.007962  -0.000000   0.268087
    9  C  1  Y   -0.000000   0.014208  -0.000000  -0.000000  -0.000000
   10  C  1  Z    0.021094  -0.000000  -0.000000   0.120075  -0.000000
   11  C  1 XX   -0.000125  -0.000000  -0.000000   0.017453  -0.000000
   12  C  1 YY    0.000323  -0.000000  -0.000000   0.016249  -0.000000
   13  C  1 ZZ   -0.000198  -0.000000  -0.000000  -0.033702  -0.000000
   14  C  1 XY   -0.000000  -0.000000  -0.000000  -0.000000  -0.000000
   15  C  1 XZ   -0.000000  -0.000000  -0.017902  -0.000000  -0.038008
   16  C  1 YZ   -0.000000  -0.024050  -0.000000  -0.000000  -0.000000
   17  C  2  S   -0.048599  -0.000000  -0.000000   0.032753  -0.000000
   18  C  2  S   -0.065867  -0.000000  -0.000000   0.045644  -0.000000
   19  C  2  S    0.185887  -0.000000  -0.000000  -0.139533  -0.000000
   20  C  2  S    0.142345  -0.000000  -0.000000  -0.148775  -0.000000
   21  C  2  X   -0.000000  -0.000000   0.437119  -0.000000   0.096671
   22  C  2  Y   -0.000000   0.514317  -0.000000  -0.000000  -0.000000
   23  C  2  Z   -0.236357  -0.000000  -0.000000  -0.236580  -0.000000
   24  C  2  X   -0.000000  -0.000000   0.133422  -0.000000   0.023646
   25  C  2  Y   -0.000000   0.186951  -0.000000  -0.000000  -0.000000
   26  C  2  Z    0.091491  -0.000000  -0.000000   0.013076  -0.000000
   27  C  2 XX   -0.001110  -0.000000  -0.000000   0.000289  -0.000000
   28  C  2 YY    0.000800  -0.000000  -0.000000  -0.001533  -0.000000
   29  C  2 ZZ    0.000310  -0.000000  -0.000000   0.001243  -0.000000
   30  C  2 XY   -0.000000  -0.000000  -0.000000  -0.000000  -0.000000
   31  C  2 XZ   -0.000000  -0.000000  -0.026210  -0.000000   0.051187
   32  C  2 YZ   -0.000000  -0.016799  -0.000000  -0.000000  -0.000000
   33  N  3  S    0.072516  -0.000000  -0.000000  -0.000208  -0.000000
   34  N  3  S    0.099156  -0.000000  -0.000000  -0.000121  -0.000000
   35  N  3  S   -0.305720  -0.000000  -0.000000  -0.004735  -0.000000
   36  N  3  S   -0.379404  -0.000000  -0.000000  -0.002772  -0.000000
   37  N  3  X   -0.000000  -0.000000   0.533402  -0.000000  -0.271488
   38  N  3  Y   -0.000000   0.427505  -0.000000  -0.000000  -0.000000
   39  N  3  Z    0.567465  -0.000000  -0.000000   0.126958  -0.000000
   40  N  3  X   -0.000000  -0.000000   0.200512  -0.000000  -0.173509
   41  N  3  Y   -0.000000   0.144637  -0.000000  -0.000000  -0.000000
   42  N  3  Z    0.158039  -0.000000  -0.000000   0.033281  -0.000000
   43  N  3 XX   -0.016716  -0.000000  -0.000000  -0.003546  -0.000000
   44  N  3 YY   -0.016141  -0.000000  -0.000000  -0.003421  -0.000000
   45  N  3 ZZ    0.032856  -0.000000  -0.000000   0.006967  -0.000000
   46  N  3 XY   -0.000000  -0.000000  -0.000000  -0.000000  -0.000000
   47  N  3 XZ   -0.000000  -0.000000   0.041519  -0.000000  -0.008989
   48  N  3 YZ   -0.000000   0.041318  -0.000000  -0.000000  -0.000000

                     11         12         13         14         15
                   -0.0459     0.1595     0.2381     0.2919     0.3107
                     B2         B1         B2         A1         A1  
    1  C  1  S   -0.000000  -0.000000  -0.000000   0.005580   0.067528
    2  C  1  S   -0.000000  -0.000000  -0.000000  -0.000993   0.097199
    3  C  1  S   -0.000000  -0.000000  -0.000000   0.240939  -0.322056
    4  C  1  S   -0.000000  -0.000000  -0.000000  -2.718329  -1.478321
    5  C  1  X   -0.000000  -0.385108  -0.000000  -0.000000   0.000000
    6  C  1  Y    0.512582  -0.000000  -0.274729  -0.000000   0.000000
    7  C  1  Z   -0.000000  -0.000000  -0.000000  -0.300493   0.192124
    8  C  1  X   -0.000000  -0.504342  -0.000000  -0.000000   0.000000
    9  C  1  Y    0.400767  -0.000000  -0.833447  -0.000000   0.000000
   10  C  1  Z   -0.000000  -0.000000  -0.000000   1.430465   1.662826
   11  C  1 XX   -0.000000  -0.000000  -0.000000  -0.006221  -0.023577
   12  C  1 YY   -0.000000  -0.000000  -0.000000  -0.002135   0.005949
   13  C  1 ZZ   -0.000000  -0.000000  -0.000000   0.008356   0.017628
   14  C  1 XY   -0.000000  -0.000000  -0.000000  -0.000000   0.000000
   15  C  1 XZ   -0.000000  -0.039238  -0.000000  -0.000000   0.000000
   16  C  1 YZ   -0.028719  -0.000000  -0.031458  -0.000000   0.000000
   17  C  2  S   -0.000000  -0.000000  -0.000000  -0.010221  -0.043482
   18  C  2  S   -0.000000  -0.000000  -0.000000  -0.015625  -0.054810
   19  C  2  S   -0.000000  -0.000000  -0.000000   0.086254  -0.063080
   20  C  2  S   -0.000000  -0.000000  -0.000000   0.499953   3.658946
   21  C  2  X   -0.000000   0.552527  -0.000000  -0.000000   0.000000
   22  C  2  Y    0.096378  -0.000000   0.524713  -0.000000   0.000000
   23  C  2  Z   -0.000000  -0.000000  -0.000000   0.117544   0.117101
   24  C  2  X   -0.000000   0.980415  -0.000000  -0.000000   0.000000
   25  C  2  Y    0.070263  -0.000000   1.046374  -0.000000   0.000000
   26  C  2  Z   -0.000000  -0.000000  -0.000000   2.835526  -0.001962
   27  C  2 XX   -0.000000  -0.000000  -0.000000  -0.018592   0.009396
   28  C  2 YY   -0.000000  -0.000000  -0.000000  -0.020162   0.015445
   29  C  2 ZZ   -0.000000  -0.000000  -0.000000   0.038754  -0.024841
   30  C  2 XY   -0.000000  -0.000000  -0.000000  -0.000000   0.000000
   31  C  2 XZ   -0.000000   0.026239  -0.000000  -0.000000   0.000000
   32  C  2 YZ    0.050871  -0.000000   0.020250  -0.000000   0.000000
   33  N  3  S   -0.000000  -0.000000  -0.000000  -0.046431   0.041048
   34  N  3  S   -0.000000  -0.000000  -0.000000  -0.059180   0.055900
   35  N  3  S   -0.000000  -0.000000  -0.000000   0.056450  -0.132718
   36  N  3  S   -0.000000  -0.000000  -0.000000   2.084993  -1.220831
   37  N  3  X   -0.000000  -0.430209  -0.000000  -0.000000   0.000000
   38  N  3  Y   -0.370491  -0.000000  -0.387157  -0.000000   0.000000
   39  N  3  Z   -0.000000  -0.000000  -0.000000   0.004748  -0.171785
   40  N  3  X   -0.000000  -0.634061  -0.000000  -0.000000   0.000000
   41  N  3  Y   -0.303409  -0.000000  -0.708259  -0.000000   0.000000
   42  N  3  Z   -0.000000  -0.000000  -0.000000   0.385849  -0.760762
   43  N  3 XX   -0.000000  -0.000000  -0.000000  -0.006579   0.006702
   44  N  3 YY   -0.000000  -0.000000  -0.000000  -0.007316   0.008892
   45  N  3 ZZ   -0.000000  -0.000000  -0.000000   0.013895  -0.015594
   46  N  3 XY   -0.000000  -0.000000  -0.000000  -0.000000   0.000000
   47  N  3 XZ   -0.000000   0.020012  -0.000000  -0.000000   0.000000
   48  N  3 YZ   -0.010097  -0.000000   0.019517  -0.000000   0.000000

                     16         17         18         19         20
                    0.3832     0.4317     0.4544     0.5078     0.5418
                     B1         B2         A1         B1         B2  
    1  C  1  S    0.000000   0.000000   0.061798  -0.000000  -0.000000
    2  C  1  S    0.000000   0.000000   0.099168  -0.000000  -0.000000
    3  C  1  S    0.000000   0.000000  -0.635629  -0.000000  -0.000000
    4  C  1  S    0.000000   0.000000  -0.895399  -0.000000  -0.000000
    5  C  1  X   -0.725410   0.000000   0.000000   0.437943  -0.000000
    6  C  1  Y    0.000000  -0.610394   0.000000  -0.000000  -0.811017
    7  C  1  Z    0.000000   0.000000   0.420924  -0.000000  -0.000000
    8  C  1  X    1.054575   0.000000   0.000000  -1.147765  -0.000000
    9  C  1  Y    0.000000   0.346786   0.000000  -0.000000   1.342224
   10  C  1  Z    0.000000   0.000000  -0.384170  -0.000000  -0.000000
   11  C  1 XX    0.000000   0.000000   0.013210  -0.000000  -0.000000
   12  C  1 YY    0.000000   0.000000   0.009794  -0.000000  -0.000000
   13  C  1 ZZ    0.000000   0.000000  -0.023004  -0.000000  -0.000000
   14  C  1 XY    0.000000   0.000000   0.000000  -0.000000  -0.000000
   15  C  1 XZ    0.050817   0.000000   0.000000   0.008780  -0.000000
   16  C  1 YZ    0.000000   0.041685   0.000000  -0.000000   0.007334
   17  C  2  S    0.000000   0.000000   0.012278  -0.000000  -0.000000
   18  C  2  S    0.000000   0.000000   0.034088  -0.000000  -0.000000
   19  C  2  S    0.000000   0.000000  -0.497401  -0.000000  -0.000000
   20  C  2  S    0.000000   0.000000   0.295407  -0.000000  -0.000000
   21  C  2  X   -0.417986   0.000000   0.000000  -0.772346  -0.000000
   22  C  2  Y    0.000000  -0.618824   0.000000  -0.000000   0.588552
   23  C  2  Z    0.000000   0.000000  -0.142037  -0.000000  -0.000000
   24  C  2  X    0.167457   0.000000   0.000000   1.535901  -0.000000
   25  C  2  Y    0.000000   0.968067   0.000000  -0.000000  -1.215871
   26  C  2  Z    0.000000   0.000000   2.109201  -0.000000  -0.000000
   27  C  2 XX    0.000000   0.000000   0.051615  -0.000000  -0.000000
   28  C  2 YY    0.000000   0.000000   0.051990  -0.000000  -0.000000
   29  C  2 ZZ    0.000000   0.000000  -0.103604  -0.000000  -0.000000
   30  C  2 XY    0.000000   0.000000   0.000000  -0.000000  -0.000000
   31  C  2 XZ   -0.035330   0.000000   0.000000   0.031355  -0.000000
   32  C  2 YZ    0.000000  -0.024941   0.000000  -0.000000  -0.054599
   33  N  3  S    0.000000   0.000000   0.000642  -0.000000  -0.000000
   34  N  3  S    0.000000   0.000000   0.006085  -0.000000  -0.000000
   35  N  3  S    0.000000   0.000000  -0.180427  -0.000000  -0.000000
   36  N  3  S    0.000000   0.000000   1.435767  -0.000000  -0.000000
   37  N  3  X   -0.051862   0.000000   0.000000  -0.197323  -0.000000
   38  N  3  Y    0.000000  -0.145510   0.000000  -0.000000   0.146540
   39  N  3  Z    0.000000   0.000000  -0.337677  -0.000000  -0.000000
   40  N  3  X    0.070217   0.000000   0.000000  -0.029074  -0.000000
   41  N  3  Y    0.000000  -0.079380   0.000000  -0.000000  -0.010645
   42  N  3  Z    0.000000   0.000000   0.403824  -0.000000  -0.000000
   43  N  3 XX    0.000000   0.000000  -0.019671  -0.000000  -0.000000
   44  N  3 YY    0.000000   0.000000  -0.016135  -0.000000  -0.000000
   45  N  3 ZZ    0.000000   0.000000   0.035806  -0.000000  -0.000000
   46  N  3 XY    0.000000   0.000000   0.000000  -0.000000  -0.000000
   47  N  3 XZ   -0.021013   0.000000   0.000000  -0.052039  -0.000000
   48  N  3 YZ    0.000000  -0.034621   0.000000  -0.000000   0.042365

                     21         22         23         24         25
                    0.5924     0.6888     0.7796     0.8023     1.0927
                     A1         A1         B1         B2         A1  
    1  C  1  S    0.010849   0.033831  -0.000000  -0.000000  -0.126360
    2  C  1  S    0.021318   0.066260  -0.000000  -0.000000  -0.215964
    3  C  1  S   -0.177035  -0.651389  -0.000000  -0.000000   1.878935
    4  C  1  S   -0.684154   1.593055  -0.000000  -0.000000  -5.245711
    5  C  1  X   -0.000000   0.000000  -0.090347  -0.000000   0.000000
    6  C  1  Y   -0.000000   0.000000  -0.000000  -0.119817   0.000000
    7  C  1  Z   -0.183374  -0.760358  -0.000000  -0.000000   0.022687
    8  C  1  X   -0.000000   0.000000   0.632655  -0.000000   0.000000
    9  C  1  Y   -0.000000   0.000000  -0.000000   0.622276   0.000000
   10  C  1  Z    0.148186   0.174176  -0.000000  -0.000000   1.865393
   11  C  1 XX    0.048654   0.059243  -0.000000  -0.000000   0.091800
   12  C  1 YY    0.029671   0.039207  -0.000000  -0.000000   0.049676
   13  C  1 ZZ   -0.078325  -0.098449  -0.000000  -0.000000  -0.141476
   14  C  1 XY   -0.000000   0.000000  -0.000000  -0.000000   0.000000
   15  C  1 XZ   -0.000000   0.000000  -0.001650  -0.000000   0.000000
   16  C  1 YZ   -0.000000   0.000000  -0.000000  -0.003794   0.000000
   17  C  2  S    0.004670   0.118768  -0.000000  -0.000000   0.071091
   18  C  2  S    0.003197   0.189193  -0.000000  -0.000000   0.123315
   19  C  2  S    0.038970  -1.190270  -0.000000  -0.000000  -1.202212
   20  C  2  S    1.804490   0.105525  -0.000000  -0.000000   5.547369
   21  C  2  X   -0.000000   0.000000   0.339445  -0.000000   0.000000
   22  C  2  Y   -0.000000   0.000000  -0.000000   0.343221   0.000000
   23  C  2  Z   -0.613720  -0.095965  -0.000000  -0.000000  -0.467511
   24  C  2  X   -0.000000   0.000000  -1.456671  -0.000000   0.000000
   25  C  2  Y   -0.000000   0.000000  -0.000000  -1.395625   0.000000
   26  C  2  Z    0.908790  -1.014736  -0.000000  -0.000000   2.015929
   27  C  2 XX   -0.028755  -0.048998  -0.000000  -0.000000  -0.030088
   28  C  2 YY   -0.033222  -0.054723  -0.000000  -0.000000  -0.035825
   29  C  2 ZZ    0.061976   0.103721  -0.000000  -0.000000   0.065914
   30  C  2 XY   -0.000000   0.000000  -0.000000  -0.000000   0.000000
   31  C  2 XZ   -0.000000   0.000000   0.086848  -0.000000   0.000000
   32  C  2 YZ   -0.000000   0.000000  -0.000000   0.090782   0.000000
   33  N  3  S    0.021003  -0.008764  -0.000000  -0.000000   0.005942
   34  N  3  S    0.027885  -0.009867  -0.000000  -0.000000   0.008529
   35  N  3  S   -0.011243  -0.004070  -0.000000  -0.000000  -0.004739
   36  N  3  S   -0.682975  -0.391952  -0.000000  -0.000000  -0.657594
   37  N  3  X   -0.000000   0.000000  -0.900445  -0.000000   0.000000
   38  N  3  Y   -0.000000   0.000000  -0.000000  -0.939465   0.000000
   39  N  3  Z    0.390931   0.149844  -0.000000  -0.000000  -0.259230
   40  N  3  X   -0.000000   0.000000   1.678296  -0.000000   0.000000
   41  N  3  Y   -0.000000   0.000000  -0.000000   1.636920   0.000000
   42  N  3  Z   -1.762630   0.401413  -0.000000  -0.000000  -0.714286
   43  N  3 XX   -0.007072   0.038573  -0.000000  -0.000000  -0.004627
   44  N  3 YY   -0.003624   0.035107  -0.000000  -0.000000  -0.003592
   45  N  3 ZZ    0.010696  -0.073681  -0.000000  -0.000000   0.008220
   46  N  3 XY   -0.000000   0.000000  -0.000000  -0.000000   0.000000
   47  N  3 XZ   -0.000000   0.000000  -0.011470  -0.000000   0.000000
   48  N  3 YZ   -0.000000   0.000000  -0.000000  -0.010934   0.000000

                     26         27         28         29         30
                    1.2168     1.4932     1.5013     1.5429     1.5739
                     A1         A1         B1         B2         A2  
    1  C  1  S   -0.004640  -0.022674  -0.000000  -0.000000  -0.000000
    2  C  1  S   -0.003996  -0.042288  -0.000000  -0.000000  -0.000000
    3  C  1  S   -0.198538   0.385300  -0.000000  -0.000000  -0.000000
    4  C  1  S    2.906839  -1.628930  -0.000000  -0.000000  -0.000000
    5  C  1  X    0.000000   0.000000   0.207694  -0.000000  -0.000000
    6  C  1  Y    0.000000   0.000000  -0.000000  -0.214140  -0.000000
    7  C  1  Z   -0.754171  -0.052331  -0.000000  -0.000000  -0.000000
    8  C  1  X    0.000000   0.000000  -0.172114  -0.000000  -0.000000
    9  C  1  Y    0.000000   0.000000  -0.000000   0.157286  -0.000000
   10  C  1  Z   -0.645490   0.153041  -0.000000  -0.000000  -0.000000
   11  C  1 XX    0.068327   0.028942  -0.000000  -0.000000  -0.000000
   12  C  1 YY    0.028596  -0.001380  -0.000000  -0.000000  -0.000000
   13  C  1 ZZ   -0.096923  -0.027562  -0.000000  -0.000000  -0.000000
   14  C  1 XY    0.000000   0.000000  -0.000000  -0.000000   0.586585
   15  C  1 XZ    0.000000   0.000000   0.561877  -0.000000  -0.000000
   16  C  1 YZ    0.000000   0.000000  -0.000000  -0.538653  -0.000000
   17  C  2  S   -0.069628  -0.003301  -0.000000  -0.000000  -0.000000
   18  C  2  S   -0.112382  -0.003247  -0.000000  -0.000000  -0.000000
   19  C  2  S    0.881311  -0.077615  -0.000000  -0.000000  -0.000000
   20  C  2  S   -2.750470  -2.099792  -0.000000  -0.000000  -0.000000
   21  C  2  X    0.000000   0.000000   0.047733  -0.000000  -0.000000
   22  C  2  Y    0.000000   0.000000  -0.000000  -0.026013  -0.000000
   23  C  2  Z   -0.896290   0.240693  -0.000000  -0.000000  -0.000000
   24  C  2  X    0.000000   0.000000   0.169726  -0.000000  -0.000000
   25  C  2  Y    0.000000   0.000000  -0.000000  -0.148514  -0.000000
   26  C  2  Z   -1.813024   2.652318  -0.000000  -0.000000  -0.000000
   27  C  2 XX    0.087935   0.087527  -0.000000  -0.000000  -0.000000
   28  C  2 YY    0.082723   0.078962  -0.000000  -0.000000  -0.000000
   29  C  2 ZZ   -0.170659  -0.166488  -0.000000  -0.000000  -0.000000
   30  C  2 XY    0.000000   0.000000  -0.000000  -0.000000   0.667156
   31  C  2 XZ    0.000000   0.000000  -0.540745  -0.000000  -0.000000
   32  C  2 YZ    0.000000   0.000000  -0.000000   0.550632  -0.000000
   33  N  3  S    0.043218   0.141019  -0.000000  -0.000000  -0.000000
   34  N  3  S    0.061874   0.244576  -0.000000  -0.000000  -0.000000
   35  N  3  S   -0.267747  -2.207909  -0.000000  -0.000000  -0.000000
   36  N  3  S   -0.569429   5.224995  -0.000000  -0.000000  -0.000000
   37  N  3  X    0.000000   0.000000  -0.247734  -0.000000  -0.000000
   38  N  3  Y    0.000000   0.000000  -0.000000   0.249556  -0.000000
   39  N  3  Z   -0.773163   0.249736  -0.000000  -0.000000  -0.000000
   40  N  3  X    0.000000   0.000000  -0.055676  -0.000000  -0.000000
   41  N  3  Y    0.000000   0.000000  -0.000000   0.034401  -0.000000
   42  N  3  Z    0.667411   1.024833  -0.000000  -0.000000  -0.000000
   43  N  3 XX   -0.115084   0.031528  -0.000000  -0.000000  -0.000000
   44  N  3 YY   -0.107866   0.032436  -0.000000  -0.000000  -0.000000
   45  N  3 ZZ    0.222950  -0.063964  -0.000000  -0.000000  -0.000000
   46  N  3 XY    0.000000   0.000000  -0.000000  -0.000000   0.303959
   47  N  3 XZ    0.000000   0.000000   0.296190  -0.000000  -0.000000
   48  N  3 YZ    0.000000   0.000000  -0.000000  -0.312313  -0.000000

                     31         32         33         34         35
                    1.5743     1.8097     1.8100     2.1494     2.1687
                     A1         A2         A1         B1         A1  
    1  C  1  S    0.003360   0.000000   0.003157  -0.000000   0.000968
    2  C  1  S    0.005151   0.000000   0.004832  -0.000000   0.001008
    3  C  1  S   -0.030409   0.000000  -0.026396  -0.000000   0.001386
    4  C  1  S    0.028013   0.000000   0.012532  -0.000000  -0.019228
    5  C  1  X    0.000000   0.000000  -0.000000  -0.056764   0.000000
    6  C  1  Y    0.000000   0.000000  -0.000000  -0.000000   0.000000
    7  C  1  Z    0.028825   0.000000   0.030630  -0.000000   0.015865
    8  C  1  X    0.000000   0.000000  -0.000000  -0.262704   0.000000
    9  C  1  Y    0.000000   0.000000  -0.000000  -0.000000   0.000000
   10  C  1  Z    0.004643   0.000000   0.012852  -0.000000   0.024516
   11  C  1 XX    0.514061   0.000000   0.677633  -0.000000   0.270148
   12  C  1 YY   -0.497799   0.000000  -0.646130  -0.000000  -0.206972
   13  C  1 ZZ   -0.016262   0.000000  -0.031503  -0.000000  -0.063177
   14  C  1 XY    0.000000   0.764712  -0.000000  -0.000000   0.000000
   15  C  1 XZ    0.000000   0.000000  -0.000000   0.772478   0.000000
   16  C  1 YZ    0.000000   0.000000  -0.000000  -0.000000   0.000000
   17  C  2  S   -0.003000   0.000000  -0.002409  -0.000000  -0.002945
   18  C  2  S   -0.005336   0.000000  -0.004617  -0.000000  -0.006405
   19  C  2  S    0.036159   0.000000   0.035242  -0.000000   0.053867
   20  C  2  S    0.024168   0.000000   0.024731  -0.000000   0.038720
   21  C  2  X    0.000000   0.000000  -0.000000   0.417979   0.000000
   22  C  2  Y    0.000000   0.000000  -0.000000  -0.000000   0.000000
   23  C  2  Z    0.040740   0.000000   0.053569  -0.000000   0.035937
   24  C  2  X    0.000000   0.000000  -0.000000   0.335710   0.000000
   25  C  2  Y    0.000000   0.000000  -0.000000  -0.000000   0.000000
   26  C  2  Z   -0.050586   0.000000  -0.043774  -0.000000  -0.029377
   27  C  2 XX    0.579143   0.000000  -0.325616  -0.000000  -0.563619
   28  C  2 YY   -0.577248   0.000000   0.328019  -0.000000   0.579850
   29  C  2 ZZ   -0.001895   0.000000  -0.002402  -0.000000  -0.016231
   30  C  2 XY    0.000000  -0.378160  -0.000000  -0.000000   0.000000
   31  C  2 XZ    0.000000   0.000000  -0.000000   0.226555   0.000000
   32  C  2 YZ    0.000000   0.000000  -0.000000  -0.000000   0.000000
   33  N  3  S   -0.003211   0.000000  -0.003554  -0.000000  -0.002658
   34  N  3  S   -0.005462   0.000000  -0.006070  -0.000000  -0.004548
   35  N  3  S    0.047595   0.000000   0.048771  -0.000000   0.044215
   36  N  3  S   -0.080860   0.000000  -0.066374  -0.000000  -0.069129
   37  N  3  X    0.000000   0.000000  -0.000000   0.115881   0.000000
   38  N  3  Y    0.000000   0.000000  -0.000000  -0.000000   0.000000
   39  N  3  Z    0.010821   0.000000   0.017764  -0.000000   0.012157
   40  N  3  X    0.000000   0.000000  -0.000000  -0.332703   0.000000
   41  N  3  Y    0.000000   0.000000  -0.000000  -0.000000   0.000000
   42  N  3  Z   -0.019210   0.000000  -0.016622  -0.000000  -0.027857
   43  N  3 XX    0.267375   0.000000  -0.440778  -0.000000   0.714603
   44  N  3 YY   -0.260612   0.000000   0.449938  -0.000000  -0.692556
   45  N  3 ZZ   -0.006763   0.000000  -0.009159  -0.000000  -0.022047
   46  N  3 XY    0.000000  -0.515099  -0.000000  -0.000000   0.000000
   47  N  3 XZ    0.000000   0.000000  -0.000000  -0.698451   0.000000
   48  N  3 YZ    0.000000   0.000000  -0.000000  -0.000000   0.000000

                     36         37         38         39         40
                    2.1690     2.1708     2.2538     2.7729     2.9845
                     A2         B2         A1         A1         B1  
    1  C  1  S    0.000000  -0.000000  -0.005565   0.022923  -0.000000
    2  C  1  S    0.000000  -0.000000   0.000852   0.033453  -0.000000
    3  C  1  S    0.000000  -0.000000  -0.122307  -0.184541  -0.000000
    4  C  1  S    0.000000  -0.000000   0.376801  -0.584129  -0.000000
    5  C  1  X    0.000000  -0.000000   0.000000  -0.000000  -0.194936
    6  C  1  Y    0.000000  -0.055668   0.000000  -0.000000  -0.000000
    7  C  1  Z    0.000000  -0.000000  -0.181809   0.427149  -0.000000
    8  C  1  X    0.000000  -0.000000   0.000000  -0.000000   0.002812
    9  C  1  Y    0.000000  -0.255769   0.000000  -0.000000  -0.000000
   10  C  1  Z    0.000000  -0.000000  -0.377413   0.230171  -0.000000
   11  C  1 XX    0.000000  -0.000000  -0.428798   0.269282  -0.000000
   12  C  1 YY    0.000000  -0.000000  -0.528169   0.281166  -0.000000
   13  C  1 ZZ    0.000000  -0.000000   0.956968  -0.550449  -0.000000
   14  C  1 XY    0.278816  -0.000000   0.000000  -0.000000  -0.000000
   15  C  1 XZ    0.000000  -0.000000   0.000000  -0.000000   0.557507
   16  C  1 YZ    0.000000   0.782978   0.000000  -0.000000  -0.000000
   17  C  2  S    0.000000  -0.000000   0.037170   0.008382  -0.000000
   18  C  2  S    0.000000  -0.000000   0.086878   0.044814  -0.000000
   19  C  2  S    0.000000  -0.000000  -0.742047  -0.653209  -0.000000
   20  C  2  S    0.000000  -0.000000  -0.633499  -0.330577  -0.000000
   21  C  2  X    0.000000  -0.000000   0.000000  -0.000000  -0.209929
   22  C  2  Y    0.000000   0.417820   0.000000  -0.000000  -0.000000
   23  C  2  Z    0.000000  -0.000000  -0.494710   1.332056  -0.000000
   24  C  2  X    0.000000  -0.000000   0.000000  -0.000000  -0.080267
   25  C  2  Y    0.000000   0.331905   0.000000  -0.000000  -0.000000
   26  C  2  Z    0.000000  -0.000000   0.424355   0.325946  -0.000000
   27  C  2 XX    0.000000  -0.000000  -0.160933  -0.125929  -0.000000
   28  C  2 YY    0.000000  -0.000000  -0.087723  -0.127680  -0.000000
   29  C  2 ZZ    0.000000  -0.000000   0.248656   0.253608  -0.000000
   30  C  2 XY   -0.661638  -0.000000   0.000000  -0.000000  -0.000000
   31  C  2 XZ    0.000000  -0.000000   0.000000  -0.000000   1.147904
   32  C  2 YZ    0.000000   0.199228   0.000000  -0.000000  -0.000000
   33  N  3  S    0.000000  -0.000000   0.039181   0.007611  -0.000000
   34  N  3  S    0.000000  -0.000000   0.069731   0.022702  -0.000000
   35  N  3  S    0.000000  -0.000000  -0.655457  -0.437320  -0.000000
   36  N  3  S    0.000000  -0.000000   1.019406   1.704706  -0.000000
   37  N  3  X    0.000000  -0.000000   0.000000  -0.000000   0.271309
   38  N  3  Y    0.000000   0.107458   0.000000  -0.000000  -0.000000
   39  N  3  Z    0.000000  -0.000000  -0.188774   0.317795  -0.000000
   40  N  3  X    0.000000  -0.000000   0.000000  -0.000000   0.217120
   41  N  3  Y    0.000000  -0.330188   0.000000  -0.000000  -0.000000
   42  N  3  Z    0.000000  -0.000000   0.397459   0.858653  -0.000000
   43  N  3 XX    0.000000  -0.000000  -0.135271  -0.537233  -0.000000
   44  N  3 YY    0.000000  -0.000000  -0.208991  -0.540275  -0.000000
   45  N  3 ZZ    0.000000  -0.000000   0.344262   1.077508  -0.000000
   46  N  3 XY    0.813353  -0.000000   0.000000  -0.000000  -0.000000
   47  N  3 XZ    0.000000  -0.000000   0.000000  -0.000000   0.925290
   48  N  3 YZ    0.000000  -0.699144   0.000000  -0.000000  -0.000000

                     41         42         43         44         45
                    2.9906     3.4081    23.6312    24.2379    33.1600
                     B2         A1         A1         A1         A1  
    1  C  1  S   -0.000000   0.043383  -1.481779   0.954847  -0.007540
    2  C  1  S   -0.000000   0.076528   1.610444  -1.070427   0.011344
    3  C  1  S   -0.000000  -0.372217  -0.326803   0.345801   0.001732
    4  C  1  S   -0.000000  -1.458079   0.344854  -0.455497  -0.233164
    5  C  1  X   -0.000000  -0.000000  -0.000000   0.000000  -0.000000
    6  C  1  Y   -0.201214  -0.000000  -0.000000   0.000000  -0.000000
    7  C  1  Z   -0.000000   0.904331  -0.015816  -0.123028   0.044279
    8  C  1  X   -0.000000  -0.000000  -0.000000   0.000000  -0.000000
    9  C  1  Y    0.004964  -0.000000  -0.000000   0.000000  -0.000000
   10  C  1  Z   -0.000000   0.463417  -0.090124   0.143398   0.029155
   11  C  1 XX   -0.000000   0.346616  -0.010586  -0.056062   0.012861
   12  C  1 YY   -0.000000   0.348562  -0.010575  -0.056079   0.012866
   13  C  1 ZZ   -0.000000  -0.695178   0.021161   0.112140  -0.025727
   14  C  1 XY   -0.000000  -0.000000  -0.000000   0.000000  -0.000000
   15  C  1 XZ   -0.000000  -0.000000  -0.000000   0.000000  -0.000000
   16  C  1 YZ    0.567282  -0.000000  -0.000000   0.000000  -0.000000
   17  C  2  S   -0.000000  -0.096806  -0.953315  -1.483794   0.050225
   18  C  2  S   -0.000000  -0.157668   1.033765   1.659990  -0.075117
   19  C  2  S   -0.000000   1.066739  -0.192491  -0.542295   0.067429
   20  C  2  S   -0.000000   2.381270  -0.156668   0.335222  -0.142571
   21  C  2  X   -0.000000  -0.000000  -0.000000   0.000000  -0.000000
   22  C  2  Y   -0.204186  -0.000000  -0.000000   0.000000  -0.000000
   23  C  2  Z   -0.000000  -0.483483   0.073945   0.028968  -0.042049
   24  C  2  X   -0.000000  -0.000000  -0.000000   0.000000  -0.000000
   25  C  2  Y   -0.078595  -0.000000  -0.000000   0.000000  -0.000000
   26  C  2  Z   -0.000000   0.497965  -0.093853   0.249448   0.335065
   27  C  2 XX   -0.000000  -0.852165   0.002936   0.094532  -0.054035
   28  C  2 YY   -0.000000  -0.852601   0.002875   0.094516  -0.054053
   29  C  2 ZZ   -0.000000   1.704766  -0.005812  -0.189048   0.108088
   30  C  2 XY   -0.000000  -0.000000  -0.000000   0.000000  -0.000000
   31  C  2 XZ   -0.000000  -0.000000  -0.000000   0.000000  -0.000000
   32  C  2 YZ    1.147682  -0.000000  -0.000000   0.000000  -0.000000
   33  N  3  S   -0.000000   0.057329  -0.020231  -0.043924  -1.762117
   34  N  3  S   -0.000000   0.104595   0.012990   0.028985   1.935101
   35  N  3  S   -0.000000  -0.738446   0.023163   0.049243  -0.525628
   36  N  3  S   -0.000000  -1.039042   0.045076   0.224667   0.614359
   37  N  3  X   -0.000000  -0.000000  -0.000000   0.000000  -0.000000
   38  N  3  Y    0.274148  -0.000000  -0.000000   0.000000  -0.000000
   39  N  3  Z   -0.000000  -1.113826   0.050985   0.154607  -0.071333
   40  N  3  X   -0.000000  -0.000000  -0.000000   0.000000  -0.000000
   41  N  3  Y    0.212113  -0.000000  -0.000000   0.000000  -0.000000
   42  N  3  Z   -0.000000  -0.521447   0.061134   0.035196   0.111505
   43  N  3 XX   -0.000000   0.408146  -0.021812  -0.053660   0.017718
   44  N  3 YY   -0.000000   0.407754  -0.021794  -0.053652   0.017786
   45  N  3 ZZ   -0.000000  -0.815900   0.043607   0.107313  -0.035504
   46  N  3 XY   -0.000000  -0.000000  -0.000000   0.000000  -0.000000
   47  N  3 XZ   -0.000000  -0.000000  -0.000000   0.000000  -0.000000
   48  N  3 YZ    0.919546  -0.000000  -0.000000   0.000000  -0.000000
 ...... END OF ROHF CALCULATION ......
 STEP CPU TIME =     0.03 TOTAL CPU TIME =        0.1 (    0.0 MIN)
 TOTAL WALL CLOCK TIME=        0.2 SECONDS, CPU UTILIZATION IS  93.75%

     ----------------------------------------------------------------
     PROPERTY VALUES FOR THE ROHF  SELF-CONSISTENT FIELD WAVEFUNCTION
     ----------------------------------------------------------------

          -----------------
          ENERGY COMPONENTS
          -----------------

         WAVEFUNCTION NORMALIZATION =       1.0000000000

                ONE ELECTRON ENERGY =    -255.9314909832
                TWO ELECTRON ENERGY =      84.8472341121
           NUCLEAR REPULSION ENERGY =      41.0687523228
                                      ------------------
                       TOTAL ENERGY =    -130.0155045483

 ELECTRON-ELECTRON POTENTIAL ENERGY =      84.8472341121
  NUCLEUS-ELECTRON POTENTIAL ENERGY =    -385.6776816124
   NUCLEUS-NUCLEUS POTENTIAL ENERGY =      41.0687523228
                                      ------------------
             TOTAL POTENTIAL ENERGY =    -259.7616951775
               TOTAL KINETIC ENERGY =     129.7461906292
                 VIRIAL RATIO (V/T) =       2.0020756981

  ...... PI ENERGY ANALYSIS ......

 ENERGY ANALYSIS:
            FOCK ENERGY=    -86.2370227590
          BARE H ENERGY=   -255.9314909832
     ELECTRONIC ENERGY =   -171.0842568711
         KINETIC ENERGY=    129.7461906292
          N-N REPULSION=     41.0687523228
           TOTAL ENERGY=   -130.0155045483
        SIGMA PART(1+2)=   -149.4673332283
               (K,V1,2)=    123.1982091067   -338.4851037008     65.8195613658
           PI PART(1+2)=    -21.6169236428
               (K,V1,2)=      6.5479815225    -47.1925779116     19.0276727463
  SIGMA SKELETON, ERROR=   -108.3985809055      0.0000000000
             MIXED PART= 0.00000E+00 0.00000E+00 0.00000E+00 0.00000E+00
 ...... END OF PI ENERGY ANALYSIS ......

          ---------------------------------------
          MULLIKEN AND LOWDIN POPULATION ANALYSES
          ---------------------------------------

          MULLIKEN SPHERICAL HARMONIC POPULATIONS
       ATOM           S       P       D      F      G      H      I    TOTAL
    1 C             1.91    1.47    0.02   0.00   0.00   0.00   0.00    3.39
    2 C             1.52    1.45    0.03   0.00   0.00   0.00   0.00    3.00
    3 N             1.86    1.73    0.02   0.00   0.00   0.00   0.00    3.61

          MULLIKEN SPHERICAL HARMONIC POPULATIONS
       ATOM           S       P       D      F      G      H      I    TOTAL
    1 C             1.91    0.64    0.02   0.00   0.00   0.00   0.00    2.56
    2 C             1.52    1.42    0.02   0.00   0.00   0.00   0.00    2.95
    3 N             1.86    1.60    0.02   0.00   0.00   0.00   0.00    3.48

     ATOMIC SPIN POPULATION (ALPHA MINUS BETA)
       ATOM         MULL.POP.                    LOW.POP.
    1 C             0.829995                     0.797888
    2 C             0.044917                     0.073519
    3 N             0.125088                     0.128592

               ----- POPULATIONS IN EACH AO -----
                             MULLIKEN      LOWDIN
              1  C  1  S      1.17669     1.09650
              2  C  1  S      0.81657     0.86867
              3  C  1  S      0.89443     0.50925
              4  C  1  S      0.92774     0.51867
              5  C  1  X      0.70242     0.64247
              6  C  1  Y      0.09925     0.08481
              7  C  1  Z      0.99128     0.89636
              8  C  1  X      0.17270     0.22729
              9  C  1  Y      0.01199     0.06380
             10  C  1  Z      0.12726     0.29683
             11  C  1 XX      0.02218     0.19819
             12  C  1 YY      0.00001     0.19559
             13  C  1 ZZ      0.00000     0.23971
             14  C  1 XY      0.00704     0.00000
             15  C  1 XZ      0.00724     0.01052
             16  C  1 YZ      0.00000     0.01380
             17  C  2  S      1.17488     1.09193
             18  C  2  S      0.81893     0.86741
             19  C  2  S      0.75698     0.39894
             20  C  2  S      0.28586     0.25824
             21  C  2  X      0.65103     0.56739
             22  C  2  Y      0.82464     0.71833
             23  C  2  Z      0.94425     0.81136
             24  C  2  X      0.18500     0.24564
             25  C  2  Y      0.27205     0.29552
             26  C  2  Z     -0.01354     0.28232
             27  C  2 XX      0.01892     0.10535
             28  C  2 YY      0.00001     0.10836
             29  C  2 ZZ      0.00000     0.29768
             30  C  2 XY      0.02810     0.00000
             31  C  2 XZ      0.00446     0.05939
             32  C  2 YZ      0.00000     0.00871
             33  N  3  S      1.16078     1.08628
             34  N  3  S      0.83333     0.87841
             35  N  3  S      0.92392     0.59557
             36  N  3  S      0.79268     0.44811
             37  N  3  X      0.90762     0.82229
             38  N  3  Y      0.56065     0.49801
             39  N  3  Z      1.11685     1.00819
             40  N  3  X      0.33080     0.40560
             41  N  3  Y      0.20245     0.29136
             42  N  3  Z      0.21326     0.34557
             43  N  3 XX      0.01672     0.18444
             44  N  3 YY      0.00000     0.18259
             45  N  3 ZZ      0.00000     0.22945
             46  N  3 XY      0.01528     0.00000
             47  N  3 XZ      0.01726     0.01941
             48  N  3 YZ      0.00000     0.02567

          ----- MULLIKEN ATOMIC OVERLAP POPULATIONS -----
          (OFF-DIAGONAL ELEMENTS NEED TO BE MULTIPLIED BY 2)

             1           2           3

    1    5.6333501
    2    0.3458605   4.7083494
    3   -0.0223991   0.8973861   6.2166056

          TOTAL MULLIKEN AND LOWDIN ATOMIC POPULATIONS
       ATOM         MULL.POP.    CHARGE          LOW.POP.     CHARGE
    1 C             5.956811    0.043189         5.862454    0.137546
    2 C             5.951596    0.048404         6.116593   -0.116593
    3 N             7.091593   -0.091593         7.020953   -0.020953

          MULLIKEN SPHERICAL HARMONIC POPULATIONS
       ATOM           S       P       D      F      G      H      I    TOTAL
    1 C             3.82    2.10    0.04   0.00   0.00   0.00   0.00    5.96
    2 C             3.04    2.86    0.05   0.00   0.00   0.00   0.00    5.95
    3 N             3.71    3.33    0.05   0.00   0.00   0.00   0.00    7.09

          -------------------------------
          BOND ORDER AND VALENCE ANALYSIS     BOND ORDER THRESHOLD=0.050
          -------------------------------

                   BOND                       BOND                       BOND
  ATOM PAIR DIST  ORDER      ATOM PAIR DIST  ORDER      ATOM PAIR DIST  ORDER
    1   2  1.372  1.201        1   3  2.571  0.175        2   3  1.199  2.784

                       TOTAL       BONDED        FREE
      ATOM            VALENCE     VALENCE     VALENCE
    1 C                 2.065       1.376       0.689
    2 C                 3.986       3.984       0.002
    3 N                 2.974       2.959       0.016

          -----------------------------------------
          ATOMIC SPIN DENSITY AT THE NUCLEUS (A.U.)
          -----------------------------------------
                            SPIN DENS    ALPHA DENS     BETA DENS
    1  C            6.0     0.0000000      60.35873      60.35873
    2  C            6.0     0.0000000      59.95096      59.95096
    3  N            7.0     0.0000000      97.61761      97.61761

          ---------------------
          ELECTROSTATIC MOMENTS
          ---------------------

 POINT   1           X           Y           Z (BOHR)    CHARGE
                 0.000000    0.000000    0.010277       -0.00 (A.U.)
         DX          DY          DZ         /D/  (DEBYE)
     0.000000    0.000000    0.556398    0.556398
 ...... END OF PROPERTY EVALUATION ......
 STEP CPU TIME =     0.00 TOTAL CPU TIME =        0.1 (    0.0 MIN)
 TOTAL WALL CLOCK TIME=        0.2 SECONDS, CPU UTILIZATION IS  93.75%

     ---------------------------
     COUPLED CLUSTER CALCULATION
     ---------------------------
 CCTYP                        =EOM-CCSD
 TOTAL NUMBER OF MOS          =    45
 NUMBER OF OCCUPIED MOS       =    10
 NUMBER OF FROZEN CORE MOS    =     3
 NUMBER OF FROZEN VIRTUAL MOS =     0
 MAXIMUM CC ITERATIONS        =    50
 MAXIMUM DIIS ITERATIONS      =    -1
 CONVERGENCE CRITERION FOR CC =     7
 AMPLITUDE ACCURACY THRESHOLD = 0.0E+00

     --------------------------------------------
     PARTIAL TWO ELECTRON INTEGRAL TRANSFORMATION
     --------------------------------------------

 NUMBER OF CORE MOLECULAR ORBITALS     =    3
 NUMBER OF OCCUPIED MOLECULAR ORBITALS =   45
 TOTAL NUMBER OF MOLECULAR ORBITALS    =   45
 TOTAL NUMBER OF ATOMIC ORBITALS       =   48
 THRESHOLD FOR KEEPING TRANSFORMED 2E- INTEGRALS = 1.000E-09
 AO INTEGRALS WILL BE READ IN FROM DISK...
 EVALUATING THE FROZEN CORE ENERGY...
 ----- FROZEN CORE ENERGY =      -131.4023711869

 PLAN A: REQUIREMENTS FOR FULLY IN-MEMORY TRANSFORMATION:
 # OF WORDS AVAILABLE =             20000000
 # OF WORDS NEEDED    =              2442434

 CHOOSING IN MEMORY PARTIAL TRANSFORMATION...
 TOTAL NUMBER OF TRANSFORMED 2E- INTEGRALS KEPT =       110940
 ... END OF INTEGRAL TRANSFORMATION ...
 STEP CPU TIME =     0.10 TOTAL CPU TIME =        0.3 (    0.0 MIN)
 TOTAL WALL CLOCK TIME=        0.3 SECONDS, CPU UTILIZATION IS  92.59%

   --------------------------------------------------------------------
   OPEN-SHELL COUPLED-CLUSTER PROGRAM:  M. WLOCH, J.R. GOUR, P. PIECUCH
   --------------------------------------------------------------------

 ***************************************************************
 THE FOLLOWING PAPERS SHOULD BE CITED WHEN USING OPEN-SHELL CCSD
 AND/OR CR-CCL COUPLED-CLUSTER OPTIONS:
 P. PIECUCH AND M. WLOCH,
   J. CHEM. PHYS. 123, 224105/1-10 (2005).
 M. WLOCH, J.R. GOUR, AND P. PIECUCH,
   J. PHYS. CHEM. A, 111, 11359-11382 (2007).

 THE FOLLOWING PAPERS SHOULD BE CITED IF USING THE EA-EOMCC OR IP-EOMCC OPTIONS:
 J. R. GOUR, P. PIECUCH, AND M. WLOCH,
   J. CHEM. PHYS. 123, 134113/1-14 (2005).
 J. R. GOUR AND P. PIECUCH,
   J. CHEM. PHYS. 125, 234107/1-17 (2006).
 ***************************************************************

 ROHF REFERENCE STATE WILL BE USED, MULTIPLICITY=  2

              ------------------------------
              OPEN SHELL CC INPUT PARAMETERS
              ------------------------------
     CC SPIN MULTIPLICITY (MULT IN $CCINP)    =    2
     IMPLYING NO. OF OCCUP. ALPHA =    7, PLUS   3 FROZEN CORES
              NO. OF OCCUP.  BETA =    6, PLUS   3 FROZEN CORES
              NO. OF VIRT.  ALPHA =   35
              NO. OF VIRT.   BETA =   36
     MAX.NO. OF CCSD AND LAMBDA ITERS (MAXCC) =   50
     CCSD AND LAMBDA CONVERGENCE (FROM ICONV) =   1.000E-07
     CCSD EQUATION RESTART OPTION (KREST)     =    0
     CCSD DIIS MICROITERATIONS (KMICRO)       =    6
     LAMDA EQUATION RESTART OPTION (LREST)    =    0
     LAMBDA DIIS MICROITERATIONS (LMICRO)     =    5
     MM(2,3) CODE SELECTION (IOPMET)          =    0

 MEMORY NEEDED BY FOCK PREPARATION   :        13758 WORDS
 MEMORY NEEDED BY INT. PASS 1        :       448532 WORDS
 MEMORY NEEDED BY INT. PASS 2        :      1192181 WORDS
 MEMORY NEEDED BY INT. PASS 3,...,  8:       874661 WORDS
 PASS=  1, WILL PROCESS [OO|OO], [VO|OO], [VV|OO], AND [VO|VO] INTEGRALS.
           WROTE           2401 WORDS OF <OA OA||OA OA> INTS TO FILE  74
           WROTE           1296 WORDS OF <OB OB||OB OB> INTS TO FILE  75
           WROTE           1764 WORDS OF <OA OB||OA OB> INTS TO FILE  76
           WROTE          12005 WORDS OF <VA OA||OA OA> INTS TO FILE  77
           WROTE           7776 WORDS OF <VB OB||OB OB> INTS TO FILE  78
           WROTE           8820 WORDS OF <VA OB||OA OB> INTS TO FILE  79
           WROTE          10584 WORDS OF <OA VB||OA OB> INTS TO FILE  80
           WROTE          60025 WORDS OF (VA OA  VA OA) INTS TO FILE  81
           WROTE          46656 WORDS OF (VB OB  VB OB) INTS TO FILE  82
           WROTE          52920 WORDS OF (VA OB  VA OB) INTS TO FILE  83
           WROTE          60025 WORDS OF <VA OA||VA OA> INTS TO FILE  84
           WROTE          46656 WORDS OF <VB OB||VB OB> INTS TO FILE  85
           WROTE          44100 WORDS OF <VA OB||VA OB> INTS TO FILE  86
           WROTE          63504 WORDS OF <OA VB||OA VB> INTS TO FILE  87
 PASS=  2, WILL PROCESS [VV|VO] INTEGRALS.
           WROTE         300125 WORDS OF <VA VA||OA VA> INTS TO FILE  88
           WROTE         279936 WORDS OF <VB VB||OB VB> INTS TO FILE  89
           WROTE         317520 WORDS OF <VA VB||OA VB> INTS TO FILE  90
           WROTE         264600 WORDS OF <VA VB||VA OB> INTS TO FILE  91
 PASSES  3 TO  8 WILL PROCESS [VV|VV] INTEGRALS.
 PASS=  3, DOING MN-MX ALPHA VIRTUAL=   8-  14, MN-MX BETA VIRTUAL=   7-  12
 PASS=  4, DOING MN-MX ALPHA VIRTUAL=  15-  21, MN-MX BETA VIRTUAL=  13-  18
 PASS=  5, DOING MN-MX ALPHA VIRTUAL=  22-  28, MN-MX BETA VIRTUAL=  19-  24
 PASS=  6, DOING MN-MX ALPHA VIRTUAL=  29-  35, MN-MX BETA VIRTUAL=  25-  30
 PASS=  7, DOING MN-MX ALPHA VIRTUAL=  36-  42, MN-MX BETA VIRTUAL=  31-  36
 PASS=  8, DOING MN-MX ALPHA VIRTUAL=   0-   0, MN-MX BETA VIRTUAL=  37-  42
           WROTE        1500625 WORDS OF <VA VA||VA VA> INTS TO FILE  92
           WROTE        1679616 WORDS OF <VB VB||VB VB> INTS TO FILE  92
           WROTE        1587600 WORDS OF <VA VB||VA VB> INTS TO FILE  92
 ....... DONE WITH CC INTEGRAL PREPARATION .......
 STEP CPU TIME =     0.06 TOTAL CPU TIME =        0.3 (    0.0 MIN)
 TOTAL WALL CLOCK TIME=        0.3 SECONDS, CPU UTILIZATION IS  96.88%

        -----------------------
        OPEN-SHELL CCSD PROGRAM
        -----------------------
 MEMORY NEEDED BY CCSD    :      1616478 WORDS

      BEGINNING OPEN SHELL CCSD ITERATIONS
 ITERATION:   1  CCSD CORR E=  -0.3588429635  CONV:    0.119200878
 ITERATION:   2  CCSD CORR E=  -0.3767009360  CONV:    0.047578941
 ITERATION:   3  CCSD CORR E=  -0.3771259029  CONV:    0.033664436
 ITERATION:   4  CCSD CORR E=  -0.3802091953  CONV:    0.018688760
 ITERATION:   5  CCSD CORR E=  -0.3805731195  CONV:    0.015113341
 ITERATION:   6  CCSD CORR E=  -0.3815103179  CONV:    0.009441342
      DOING DIIS EXTRAPOLATION (DIM.OF THE SPACE=  6)
 ITERATION:   7  CCSD CORR E=  -0.3825881895  CONV:    0.002442566
 ITERATION:   8  CCSD CORR E=  -0.3826163314  CONV:    0.001608306
 ITERATION:   9  CCSD CORR E=  -0.3826401308  CONV:    0.001151461
 ITERATION:  10  CCSD CORR E=  -0.3826565786  CONV:    0.000883439
 ITERATION:  11  CCSD CORR E=  -0.3826672420  CONV:    0.000671743
 ITERATION:  12  CCSD CORR E=  -0.3826769079  CONV:    0.000520259
      DOING DIIS EXTRAPOLATION (DIM.OF THE SPACE=  6)
 ITERATION:  13  CCSD CORR E=  -0.3827091564  CONV:    0.000055035
 ITERATION:  14  CCSD CORR E=  -0.3827137297  CONV:    0.000026853
 ITERATION:  15  CCSD CORR E=  -0.3827148497  CONV:    0.000019081
 ITERATION:  16  CCSD CORR E=  -0.3827158908  CONV:    0.000012794
 ITERATION:  17  CCSD CORR E=  -0.3827162661  CONV:    0.000010002
 ITERATION:  18  CCSD CORR E=  -0.3827166503  CONV:    0.000007299
      DOING DIIS EXTRAPOLATION (DIM.OF THE SPACE=  6)
 ITERATION:  19  CCSD CORR E=  -0.3827173060  CONV:    0.000002111
 ITERATION:  20  CCSD CORR E=  -0.3827173273  CONV:    0.000001388
 ITERATION:  21  CCSD CORR E=  -0.3827173562  CONV:    0.000001034
 ITERATION:  22  CCSD CORR E=  -0.3827173600  CONV:    0.000000785
 ITERATION:  23  CCSD CORR E=  -0.3827173708  CONV:    0.000000600
 ITERATION:  24  CCSD CORR E=  -0.3827173745  CONV:    0.000000467
      DOING DIIS EXTRAPOLATION (DIM.OF THE SPACE=  6)
 ITERATION:  25  CCSD CORR E=  -0.3827173927  CONV:    0.000000069

     THE CCSD ITERATIONS HAVE CONVERGED
     CCSD CORRELATION ENERGY:  -0.3827173927

 THE LARGEST T1 AND T2 AMPLITUDES ARE
 T1=  -0.0501118853 FOR IA -> AA =   7  13
 T1=   0.0264653138 FOR IA -> AA =   7  17
 T1=  -0.0259855195 FOR IA -> AA =   7  24
 T1=   0.0474048059 FOR IA -> AA =  10  12
 T1=  -0.0324621867 FOR IB -> AB =   7  13
 T1=   0.1292067315 FOR IB -> AB =   8  10
 T1=   0.0791671469 FOR IB -> AB =   8  12
 T1=  -0.0284330354 FOR IB -> AB =   8  19
 T2=   0.0458469602 FOR IA,JA -> AA, BA =   7  10  11  12
 T2=   0.0372486192 FOR IB,JB -> AB, BB =   7   8  10  11
 T2=  -0.0250448375 FOR IB,JB -> AB, BB =   7   8  11  12
 T2=  -0.0286429877 FOR IA,JB -> AA, BB =   5   5  11  11
 T2=  -0.0854450980 FOR IA,JB -> AA, BB =   7   7  11  11
 T2=  -0.0495119563 FOR IA,JB -> AA, BB =   7   7  11  13
 T2=  -0.0475561349 FOR IA,JB -> AA, BB =   7   7  13  11
 T2=  -0.0555421824 FOR IA,JB -> AA, BB =   7   7  13  13
 T2=  -0.0529304146 FOR IA,JB -> AA, BB =   7   8  11  10
 T2=  -0.0403671157 FOR IA,JB -> AA, BB =   7   8  11  12
 T2=  -0.0259874202 FOR IA,JB -> AA, BB =   7   8  13  10
 T2=  -0.0395647640 FOR IA,JB -> AA, BB =   7   8  13  12
 T2=  -0.0292988676 FOR IA,JB -> AA, BB =   8   7  12  11
 T2=  -0.0397764016 FOR IA,JB -> AA, BB =   8   7  12  13
 T2=  -0.0383661715 FOR IA,JB -> AA, BB =   8   8  12  10
 T2=  -0.0721026658 FOR IA,JB -> AA, BB =   8   8  12  12
 T2=  -0.0262044780 FOR IA,JB -> AA, BB =   8   8  12  23
 T2=  -0.0270178693 FOR IA,JB -> AA, BB =   8   8  23  12
 T2=  -0.0851500812 FOR IA,JB -> AA, BB =   9   9  11  11
 T2=   0.0448899646 FOR IA,JB -> AA, BB =   9   9  11  13
 T2=   0.0334769795 FOR IA,JB -> AA, BB =   9   9  12  10
 T2=   0.0440826242 FOR IA,JB -> AA, BB =   9   9  13  11
 T2=  -0.0285276826 FOR IA,JB -> AA, BB =   9   9  13  13
 T2=  -0.0355719782 FOR IA,JB -> AA, BB =   9   9  22  22
 T2=   0.0524534993 FOR IA,JB -> AA, BB =  10   7  12  11
 T2=   0.0759059887 FOR IA,JB -> AA, BB =  10   8  12  10

                         SUMMARY OF CCSD RESULTS

     REFERENCE ENERGY:     -130.0155045483
          CCSD ENERGY:     -130.3982219410   CORR. E=  -0.3827173927


 ....... DONE WITH CCSD AMPLITUDE ITERATIONS .......
 STEP CPU TIME =    15.18 TOTAL CPU TIME =       15.5 (    0.3 MIN)
 TOTAL WALL CLOCK TIME=       15.6 SECONDS, CPU UTILIZATION IS  99.55%

        -------------------------------------
        OPEN-SHELL EQUATION-OF-MOTION PROGRAM
        -------------------------------------
 MEMORY NEEDED BY ONEHBAR :      1087298 WORDS
 MEMORY NEEDED BY TWOHBAR :      1837753 WORDS
 ....... DONE WITH MATRIX ELEMENTS OF HBAR .......
 STEP CPU TIME =     1.53 TOTAL CPU TIME =       17.0 (    0.3 MIN)
 TOTAL WALL CLOCK TIME=       17.1 SECONDS, CPU UTILIZATION IS  99.53%

        ------------------------------------
        EOMCC  EOMCCSd INITIAL START PROGRAM
        ------------------------------------
 MEMORY NEEDED BY OPEOMINIT:      2593922 WORDS

 THE EOMCC POINT GROUP IS C2V
 GROUND STATE SYMETRY IS  B1 
 SIZE OF  EOMCCSd PROBLEM:     151
    2 INITIAL VECTORS OF A1  SYMMETRY HAVE BEEN FOUND.
    ORDERING OF THE INITIAL EIGENVALUES WAS SUCCESSFUL
    INITIAL EIGENVALUES OF A1  SYMMETRY:
     E=         0.1947927627
     E=         0.2853507696
 SIZE OF  EOMCCSd PROBLEM:     146
    3 INITIAL VECTORS OF A2  SYMMETRY HAVE BEEN FOUND.
    ORDERING OF THE INITIAL EIGENVALUES WAS SUCCESSFUL
    INITIAL EIGENVALUES OF A2  SYMMETRY:
     E=         0.1014986564
     E=         0.2107569894
     E=         0.2515648480
 SIZE OF  EOMCCSd PROBLEM:     100
    1 INITIAL VECTORS OF B2  SYMMETRY HAVE BEEN FOUND.
    ORDERING OF THE INITIAL EIGENVALUES WAS SUCCESSFUL
    INITIAL EIGENVALUES OF B2  SYMMETRY:
     E=         0.0719030575
 ..... DONE WITH EOMCC INITIAL START CALCULATION        .....
 STEP CPU TIME =     0.10 TOTAL CPU TIME =       17.1 (    0.3 MIN)
 TOTAL WALL CLOCK TIME=       17.2 SECONDS, CPU UTILIZATION IS  99.53%

                  --------------------------
                  OPEN-SHELL EOMCCSD PROGRAM
                  --------------------------
 MEMORY NEEDED BY OPSOLSR:      1429458 WORDS

      BEGINNING OPEN-SHELL EOMCCSD ITERATIONS FOR ROOT NO.   1
 ITERATION:   1  EOMCCSD ENERGY=   0.1939496467  CONV:    0.181224595
 ITERATION:   2  EOMCCSD ENERGY=   0.1304721179  CONV:    0.063221089
 ITERATION:   3  EOMCCSD ENERGY=   0.1217044662  CONV:    0.033019421
 ITERATION:   4  EOMCCSD ENERGY=   0.1195323772  CONV:    0.019581294
 ITERATION:   5  EOMCCSD ENERGY=   0.1193101367  CONV:    0.010409347
 ITERATION:   6  EOMCCSD ENERGY=   0.1191740163  CONV:    0.005360055
 ITERATION:   7  EOMCCSD ENERGY=   0.1191707329  CONV:    0.002817051
 ITERATION:   8  EOMCCSD ENERGY=   0.1191147574  CONV:    0.001850155
 ITERATION:   9  EOMCCSD ENERGY=   0.1190583411  CONV:    0.000951217
 ITERATION:  10  EOMCCSD ENERGY=   0.1190289702  CONV:    0.000490326
 ITERATION:  11  EOMCCSD ENERGY=   0.1190240254  CONV:    0.000268746
 ITERATION:  12  EOMCCSD ENERGY=   0.1190267948  CONV:    0.000143528
 ITERATION:  13  EOMCCSD ENERGY=   0.1190278631  CONV:    0.000071612

  THE EOMCCSD ITERATIONS FOR ROOT NO.   1 HAVE CONVERGED
  EOMCCSD VERTICAL EXCITATION ENERGY:    0.1190278631

 THE LARGEST R1 AND R2 AMPLITUDES ARE
 R1=   -0.0737323507 FOR IA --> AA =   9  12
 R1=    0.0637403211 FOR IB --> AB =   5  10
 R1=   -0.0551399897 FOR IB --> AB =   6  10
 R1=   -0.9423848477 FOR IB --> AB =   9  10
 R1=   -0.0667545855 FOR IB --> AB =   9  12
 R2=   -0.0507152635 FOR IB,JB -> AB,BB =   7   9  11  12
 R2=    0.0507152635 FOR IB,JB -> AB,BB =   7   9  12  11
 R2=    0.0507152635 FOR IB,JB -> AB,BB =   9   7  11  12
 R2=   -0.0507152635 FOR IB,JB -> AB,BB =   9   7  12  11
 R2=   -0.0788335190 FOR IA,JB -> AA,BB =   7   9  11  10
 R2=   -0.0737315904 FOR IA,JB -> AA,BB =   7   9  11  12
 R2=    0.1329832117 FOR IA,JB -> AA,BB =  10   9  11  11
 R2=    0.0570308053 FOR IA,JB -> AA,BB =  10   9  12  12

        SUMMARY OF OPEN-SHELL EOMCCSD RESULTS FOR ROOT NO.   1
              THE SYMMETRY OF THE STATE IS A1 
              EOMCCSD ENERGY=     -130.2791940779
              VERTICAL EXCITATION ENERGY=   0.1190278631
              FOR THIS ROOT R0=   0.0000000000
              REL DIAGNOSTIC (R1*R1 + 2*R2*R2):   1.051

      BEGINNING OPEN-SHELL EOMCCSD ITERATIONS FOR ROOT NO.   2
 ITERATION:   1  EOMCCSD ENERGY=   0.2910124145  CONV:    0.156631370
 ITERATION:   2  EOMCCSD ENERGY=   0.2353784843  CONV:    0.049683393
 ITERATION:   3  EOMCCSD ENERGY=   0.2306750153  CONV:    0.024872178
 ITERATION:   4  EOMCCSD ENERGY=   0.2296259204  CONV:    0.019005195
 ITERATION:   5  EOMCCSD ENERGY=   0.2286446259  CONV:    0.034685458
 ITERATION:   6  EOMCCSD ENERGY=   0.2324503716  CONV:    0.069094887
 ITERATION:   7  EOMCCSD ENERGY=   0.2303847363  CONV:    0.015428040
 ITERATION:   8  EOMCCSD ENERGY=   0.2299521783  CONV:    0.008277608
 ITERATION:   9  EOMCCSD ENERGY=   0.2297576260  CONV:    0.005360633
 ITERATION:  10  EOMCCSD ENERGY=   0.2296294188  CONV:    0.003798771
 ITERATION:  11  EOMCCSD ENERGY=   0.2294543684  CONV:    0.003416333
 ITERATION:  12  EOMCCSD ENERGY=   0.2293127942  CONV:    0.004341327
 ITERATION:  13  EOMCCSD ENERGY=   0.2289526671  CONV:    0.007794704
 ITERATION:  14  EOMCCSD ENERGY=   0.2287350828  CONV:    0.010977175
 ITERATION:  15  EOMCCSD ENERGY=   0.2282806172  CONV:    0.013621895
 ITERATION:  16  EOMCCSD ENERGY=   0.2309506724  CONV:    0.009551900
 ITERATION:  17  EOMCCSD ENERGY=   0.2308180992  CONV:    0.004621888
 ITERATION:  18  EOMCCSD ENERGY=   0.2309514942  CONV:    0.002760105
 ITERATION:  19  EOMCCSD ENERGY=   0.2309419035  CONV:    0.001584796
 ITERATION:  20  EOMCCSD ENERGY=   0.2309470617  CONV:    0.000946345
 ITERATION:  21  EOMCCSD ENERGY=   0.2309334454  CONV:    0.000587205
 ITERATION:  22  EOMCCSD ENERGY=   0.2309115439  CONV:    0.000353629
 ITERATION:  23  EOMCCSD ENERGY=   0.2308977435  CONV:    0.000182367
 ITERATION:  24  EOMCCSD ENERGY=   0.2308956238  CONV:    0.000099576

  THE EOMCCSD ITERATIONS FOR ROOT NO.   2 HAVE CONVERGED
  EOMCCSD VERTICAL EXCITATION ENERGY:    0.2308956238

 THE LARGEST R1 AND R2 AMPLITUDES ARE
 R1=    0.0692786184 FOR IA --> AA =  10  15
 R1=    0.4317920565 FOR IB --> AB =   6  10
 R1=    0.1525820148 FOR IB --> AB =   6  12
 R1=   -0.1702858218 FOR IB --> AB =   9  10
 R2=   -0.0531252078 FOR IA,JB -> AA,BB =   7   6  11  10
 R2=   -0.0518587365 FOR IA,JB -> AA,BB =   7   9  11  10
 R2=    0.2419688775 FOR IA,JB -> AA,BB =   8   9  11  11
 R2=    0.0866877899 FOR IA,JB -> AA,BB =   8   9  11  13
 R2=   -0.0522580863 FOR IA,JB -> AA,BB =   8   9  13  13
 R2=   -0.0537335819 FOR IA,JB -> AA,BB =  10   6  11  11
 R2=    0.0878459762 FOR IA,JB -> AA,BB =  10   6  12  10
 R2=   -0.7440888445 FOR IA,JB -> AA,BB =  10   9  11  11
 R2=    0.0894163820 FOR IA,JB -> AA,BB =  10   9  11  13
 R2=   -0.0726793694 FOR IA,JB -> AA,BB =  10   9  11  17
 R2=    0.0886632830 FOR IA,JB -> AA,BB =  10   9  11  20
 R2=    0.1494221302 FOR IA,JB -> AA,BB =  10   9  13  11
 R2=   -0.0945474076 FOR IA,JB -> AA,BB =  10   9  17  11
 R2=    0.1111983365 FOR IA,JB -> AA,BB =  10   9  20  11

        SUMMARY OF OPEN-SHELL EOMCCSD RESULTS FOR ROOT NO.   2
              THE SYMMETRY OF THE STATE IS A1 
              EOMCCSD ENERGY=     -130.1673263172
              VERTICAL EXCITATION ENERGY=   0.2308956238
              FOR THIS ROOT R0=   0.0000000000
              REL DIAGNOSTIC (R1*R1 + 2*R2*R2):   1.693

      BEGINNING OPEN-SHELL EOMCCSD ITERATIONS FOR ROOT NO.   3
 ITERATION:   1  EOMCCSD ENERGY=   0.1013056610  CONV:    0.155793169
 ITERATION:   2  EOMCCSD ENERGY=   0.0551149562  CONV:    0.056558018
 ITERATION:   3  EOMCCSD ENERGY=   0.0487588409  CONV:    0.023259219
 ITERATION:   4  EOMCCSD ENERGY=   0.0473616609  CONV:    0.011145023
 ITERATION:   5  EOMCCSD ENERGY=   0.0470986492  CONV:    0.005963908
 ITERATION:   6  EOMCCSD ENERGY=   0.0470498595  CONV:    0.003635926
 ITERATION:   7  EOMCCSD ENERGY=   0.0470049289  CONV:    0.001807040
 ITERATION:   8  EOMCCSD ENERGY=   0.0469582728  CONV:    0.000989206
 ITERATION:   9  EOMCCSD ENERGY=   0.0469439567  CONV:    0.000528080
 ITERATION:  10  EOMCCSD ENERGY=   0.0469430116  CONV:    0.000291353
 ITERATION:  11  EOMCCSD ENERGY=   0.0469488088  CONV:    0.000168584
 ITERATION:  12  EOMCCSD ENERGY=   0.0469514845  CONV:    0.000104651
 ITERATION:  13  EOMCCSD ENERGY=   0.0469530438  CONV:    0.000068591

  THE EOMCCSD ITERATIONS FOR ROOT NO.   3 HAVE CONVERGED
  EOMCCSD VERTICAL EXCITATION ENERGY:    0.0469530438

 THE LARGEST R1 AND R2 AMPLITUDES ARE
 R1=    0.6212133611 FOR IA --> AA =   9  11
 R1=   -0.1082276414 FOR IA --> AA =   9  13
 R1=    0.0771437912 FOR IA --> AA =   9  17
 R1=   -0.0965340589 FOR IA --> AA =   9  20
 R1=   -0.6544190532 FOR IB --> AB =   9  11
 R1=    0.1048834522 FOR IB --> AB =   9  13
 R1=   -0.0768364213 FOR IB --> AB =   9  17
 R1=    0.0952729809 FOR IB --> AB =   9  20
 R2=   -0.0557714669 FOR IA,JB -> AA,BB =   7   9  11  13
 R2=    0.2689674408 FOR IA,JB -> AA,BB =  10   9  11  10
 R2=   -0.0502393248 FOR IA,JB -> AA,BB =  10   9  11  12
 R2=    0.0539748398 FOR IA,JB -> AA,BB =  10   9  12  11
 R2=   -0.0641657975 FOR IA,JB -> AA,BB =  10   9  13  10

        SUMMARY OF OPEN-SHELL EOMCCSD RESULTS FOR ROOT NO.   3
              THE SYMMETRY OF THE STATE IS A2 
              EOMCCSD ENERGY=     -130.3512688972
              VERTICAL EXCITATION ENERGY=   0.0469530438
              FOR THIS ROOT R0=   0.0000000000
              REL DIAGNOSTIC (R1*R1 + 2*R2*R2):   1.096

      BEGINNING OPEN-SHELL EOMCCSD ITERATIONS FOR ROOT NO.   4
 ITERATION:   1  EOMCCSD ENERGY=   0.2106971373  CONV:    0.191736639
 ITERATION:   2  EOMCCSD ENERGY=   0.1428282582  CONV:    0.075319932
 ITERATION:   3  EOMCCSD ENERGY=   0.1306274349  CONV:    0.040473015
 ITERATION:   4  EOMCCSD ENERGY=   0.1260825073  CONV:    0.025749316
 ITERATION:   5  EOMCCSD ENERGY=   0.1248553728  CONV:    0.017746435
 ITERATION:   6  EOMCCSD ENERGY=   0.1243452918  CONV:    0.014610590
 ITERATION:   7  EOMCCSD ENERGY=   0.1238511461  CONV:    0.015844309
 ITERATION:   8  EOMCCSD ENERGY=   0.1227757093  CONV:    0.026642651
 ITERATION:   9  EOMCCSD ENERGY=   0.1264882995  CONV:    0.065063511
 ITERATION:  10  EOMCCSD ENERGY=   0.1241997252  CONV:    0.013594951
 ITERATION:  11  EOMCCSD ENERGY=   0.1237513199  CONV:    0.006362878
 ITERATION:  12  EOMCCSD ENERGY=   0.1236700261  CONV:    0.002947873
 ITERATION:  13  EOMCCSD ENERGY=   0.1236533749  CONV:    0.001904850
 ITERATION:  14  EOMCCSD ENERGY=   0.1236716441  CONV:    0.001399879
 ITERATION:  15  EOMCCSD ENERGY=   0.1236880688  CONV:    0.000846102
 ITERATION:  16  EOMCCSD ENERGY=   0.1236897830  CONV:    0.000616727
 ITERATION:  17  EOMCCSD ENERGY=   0.1236871315  CONV:    0.000428135
 ITERATION:  18  EOMCCSD ENERGY=   0.1236916069  CONV:    0.000280164
 ITERATION:  19  EOMCCSD ENERGY=   0.1236870983  CONV:    0.000159664
 ITERATION:  20  EOMCCSD ENERGY=   0.1236859803  CONV:    0.000083210

  THE EOMCCSD ITERATIONS FOR ROOT NO.   4 HAVE CONVERGED
  EOMCCSD VERTICAL EXCITATION ENERGY:    0.1236859803

 THE LARGEST R1 AND R2 AMPLITUDES ARE
 R1=   -0.0998940759 FOR IA --> AA =   5  11
 R1=    0.1010386100 FOR IA --> AA =   6  11
 R1=    0.6463836180 FOR IA --> AA =   9  11
 R1=    0.0520772538 FOR IA --> AA =   9  17
 R1=   -0.0698433269 FOR IA --> AA =   9  20
 R1=   -0.0753782902 FOR IB --> AB =   5  11
 R1=    0.0733454160 FOR IB --> AB =   6  11
 R1=    0.6538089668 FOR IB --> AB =   9  11
 R1=   -0.0570771362 FOR IB --> AB =   9  20
 R2=    0.1170475532 FOR IA,JB -> AA,BB =   7   9  11  11
 R2=    0.0624702175 FOR IA,JB -> AA,BB =   7   9  11  13
 R2=    0.0886772078 FOR IA,JB -> AA,BB =   9   7  11  11
 R2=    0.1187721713 FOR IA,JB -> AA,BB =  10   9  11  10

        SUMMARY OF OPEN-SHELL EOMCCSD RESULTS FOR ROOT NO.   4
              THE SYMMETRY OF THE STATE IS A2 
              EOMCCSD ENERGY=     -130.2745359607
              VERTICAL EXCITATION ENERGY=   0.1236859803
              FOR THIS ROOT R0=   0.0000000000
              REL DIAGNOSTIC (R1*R1 + 2*R2*R2):   1.061

      BEGINNING OPEN-SHELL EOMCCSD ITERATIONS FOR ROOT NO.   5
 ITERATION:   1  EOMCCSD ENERGY=   0.2520610338  CONV:    0.162867586
 ITERATION:   2  EOMCCSD ENERGY=   0.1972897075  CONV:    0.089192623
 ITERATION:   3  EOMCCSD ENERGY=   0.1841266755  CONV:    0.059271170
 ITERATION:   4  EOMCCSD ENERGY=   0.1733472652  CONV:    0.070302407
 ITERATION:   5  EOMCCSD ENERGY=   0.2196333174  CONV:    0.129948527
 ITERATION:   6  EOMCCSD ENERGY=   0.1984339731  CONV:    0.053297855
 ITERATION:   7  EOMCCSD ENERGY=   0.1926041023  CONV:    0.059740062
 ITERATION:   8  EOMCCSD ENERGY=   0.2108635383  CONV:    0.129711175
 ITERATION:   9  EOMCCSD ENERGY=   0.1983575789  CONV:    0.034386958
 ITERATION:  10  EOMCCSD ENERGY=   0.1957339035  CONV:    0.024298105
 ITERATION:  11  EOMCCSD ENERGY=   0.1941377311  CONV:    0.019696920
 ITERATION:  12  EOMCCSD ENERGY=   0.1933657739  CONV:    0.023161315
 ITERATION:  13  EOMCCSD ENERGY=   0.1917082606  CONV:    0.036058944
 ITERATION:  14  EOMCCSD ENERGY=   0.2021484044  CONV:    0.040306531
 ITERATION:  15  EOMCCSD ENERGY=   0.1998762965  CONV:    0.024060497
 ITERATION:  16  EOMCCSD ENERGY=   0.1993618361  CONV:    0.015572726
 ITERATION:  17  EOMCCSD ENERGY=   0.1994199316  CONV:    0.014639898
 ITERATION:  18  EOMCCSD ENERGY=   0.1990514285  CONV:    0.011679997
 ITERATION:  19  EOMCCSD ENERGY=   0.1986471840  CONV:    0.009308131
 ITERATION:  20  EOMCCSD ENERGY=   0.1983861109  CONV:    0.006110737
 ITERATION:  21  EOMCCSD ENERGY=   0.1982368741  CONV:    0.003290638
 ITERATION:  22  EOMCCSD ENERGY=   0.1982159617  CONV:    0.001927287
 ITERATION:  23  EOMCCSD ENERGY=   0.1981898059  CONV:    0.001061489
 ITERATION:  24  EOMCCSD ENERGY=   0.1981929503  CONV:    0.000627252
 ITERATION:  25  EOMCCSD ENERGY=   0.1981849635  CONV:    0.000336411
 ITERATION:  26  EOMCCSD ENERGY=   0.1981810204  CONV:    0.000188192
 ITERATION:  27  EOMCCSD ENERGY=   0.1981808300  CONV:    0.000102017
 ITERATION:  28  EOMCCSD ENERGY=   0.1981793217  CONV:    0.000054627

  THE EOMCCSD ITERATIONS FOR ROOT NO.   5 HAVE CONVERGED
  EOMCCSD VERTICAL EXCITATION ENERGY:    0.1981793217

 THE LARGEST R1 AND R2 AMPLITUDES ARE
 R1=    0.0949138527 FOR IA --> AA =   5  11
 R1=    0.1123221425 FOR IA --> AA =   6  11
 R1=   -0.2504474767 FOR IA --> AA =   9  11
 R1=   -0.3939331270 FOR IB --> AB =   6  11
 R1=   -0.0809871982 FOR IB --> AB =   6  13
 R1=    0.0993214090 FOR IB --> AB =   9  11
 R1=   -0.0527426655 FOR IB --> AB =   9  13
 R2=   -0.1494481417 FOR IA,JB -> AA,BB =   8   9  11  10
 R2=   -0.1306847853 FOR IA,JB -> AA,BB =   8   9  11  12
 R2=   -0.0824022875 FOR IA,JB -> AA,BB =   9   8  11  10
 R2=    0.0566914115 FOR IA,JB -> AA,BB =  10   6  11  10
 R2=   -0.0637715982 FOR IA,JB -> AA,BB =  10   6  12  11
 R2=    0.0562838537 FOR IA,JB -> AA,BB =  10   6  13  10
 R2=    0.7582262295 FOR IA,JB -> AA,BB =  10   9  11  10
 R2=   -0.1736489667 FOR IA,JB -> AA,BB =  10   9  13  10
 R2=    0.0969661589 FOR IA,JB -> AA,BB =  10   9  17  10
 R2=   -0.1151174809 FOR IA,JB -> AA,BB =  10   9  20  10

        SUMMARY OF OPEN-SHELL EOMCCSD RESULTS FOR ROOT NO.   5
              THE SYMMETRY OF THE STATE IS A2 
              EOMCCSD ENERGY=     -130.2000426193
              VERTICAL EXCITATION ENERGY=   0.1981793217
              FOR THIS ROOT R0=   0.0000000000
              REL DIAGNOSTIC (R1*R1 + 2*R2*R2):   1.679

      BEGINNING OPEN-SHELL EOMCCSD ITERATIONS FOR ROOT NO.   6
 ITERATION:   1  EOMCCSD ENERGY=   0.0708609169  CONV:    0.188296861
 ITERATION:   2  EOMCCSD ENERGY=   0.0089237222  CONV:    0.058055024
 ITERATION:   3  EOMCCSD ENERGY=   0.0022531778  CONV:    0.022937179
 ITERATION:   4  EOMCCSD ENERGY=   0.0008383606  CONV:    0.009392412
 ITERATION:   5  EOMCCSD ENERGY=   0.0008189153  CONV:    0.004776426
 ITERATION:   6  EOMCCSD ENERGY=   0.0009931611  CONV:    0.002473518
 ITERATION:   7  EOMCCSD ENERGY=   0.0010280415  CONV:    0.001034617
 ITERATION:   8  EOMCCSD ENERGY=   0.0010408626  CONV:    0.000522829
 ITERATION:   9  EOMCCSD ENERGY=   0.0010421004  CONV:    0.000280509
 ITERATION:  10  EOMCCSD ENERGY=   0.0010451318  CONV:    0.000139152
 ITERATION:  11  EOMCCSD ENERGY=   0.0010500485  CONV:    0.000061789

  THE EOMCCSD ITERATIONS FOR ROOT NO.   6 HAVE CONVERGED
  EOMCCSD VERTICAL EXCITATION ENERGY:    0.0010500485

 THE LARGEST R1 AND R2 AMPLITUDES ARE
 R1=   -0.1527579144 FOR IA --> AA =   8  11
 R1=    0.9370734274 FOR IA --> AA =  10  11
 R1=    0.0947653066 FOR IA --> AA =  10  17
 R1=   -0.1222106716 FOR IA --> AA =  10  20
 R2=    0.0517848523 FOR IA,JB -> AA,BB =   8   7  11  11
 R2=    0.0702582599 FOR IA,JB -> AA,BB =   8   8  11  10
 R2=    0.0535348600 FOR IA,JB -> AA,BB =   8   8  11  12
 R2=    0.0956868456 FOR IA,JB -> AA,BB =   9   9  11  10
 R2=    0.0698929432 FOR IA,JB -> AA,BB =  10   7  13  11
 R2=    0.0529605121 FOR IA,JB -> AA,BB =  10   8  13  10

        SUMMARY OF OPEN-SHELL EOMCCSD RESULTS FOR ROOT NO.   6
              THE SYMMETRY OF THE STATE IS B2 
              EOMCCSD ENERGY=     -130.3971718925
              VERTICAL EXCITATION ENERGY=   0.0010500485
              FOR THIS ROOT R0=   0.0000000000
              REL DIAGNOSTIC (R1*R1 + 2*R2*R2):   1.032


             ---- SUMMARY OF OPEN-SHELL EOM-CCSD CALCULATIONS ----
               EXCITATION      EXCITATION      TOTAL
  SYMMETRY     ENERGY (H)      ENERGY (EV)     ENERGY (H)      ITERATIONS
     A1        0.11902786         3.239      -130.27919408     CONVERGED
     A1        0.23089562         6.283      -130.16732632     CONVERGED
     A2        0.04695304         1.278      -130.35126890     CONVERGED
     A2        0.12368598         3.366      -130.27453596     CONVERGED
     A2        0.19817932         5.393      -130.20004262     CONVERGED
     B2        0.00105005         0.029      -130.39717189     CONVERGED
 ..... DONE WITH OPEN-SHELL EOMCCSD AMPLITUDE ITERATIONS.....
 STEP CPU TIME =    47.05 TOTAL CPU TIME =       64.2 (    1.1 MIN)
 TOTAL WALL CLOCK TIME=       64.8 SECONDS, CPU UTILIZATION IS  98.97%
              2594006  WORDS OF DYNAMIC MEMORY USED
 EXECUTION OF GAMESS TERMINATED NORMALLY Fri Jun  2 00:26:32 2017
 DDI: 263640 bytes (0.3 MB / 0 MWords) used by master data server.

 ----------------------------------------
 CPU timing information for all processes
 ========================================
 0: 61.575 + 2.606 = 64.182
 ----------------------------------------
 ddikick.x: exited gracefully.
unset echo
----- accounting info -----
Files used on the master node compute-0-7.local were:
-rw-rw-r-- 1 sarom sarom     41746 Jun  2 00:25 /scratch/eom-ccsd-ro-c2n.F05
-rw-rw-r-- 1 sarom sarom   2340208 Jun  2 00:25 /scratch/eom-ccsd-ro-c2n.F08
-rw-rw-r-- 1 sarom sarom   1447360 Jun  2 00:25 /scratch/eom-ccsd-ro-c2n.F09
-rw-rw-r-- 1 sarom sarom   1963200 Jun  2 00:26 /scratch/eom-ccsd-ro-c2n.F10
-rw-rw-r-- 1 sarom sarom  20321280 Jun  2 00:26 /scratch/eom-ccsd-ro-c2n.F70
-rw-rw-r-- 1 sarom sarom  17781120 Jun  2 00:25 /scratch/eom-ccsd-ro-c2n.F71
-rw-rw-r-- 1 sarom sarom    103680 Jun  2 00:25 /scratch/eom-ccsd-ro-c2n.F72
-rw-rw-r-- 1 sarom sarom         0 Jun  2 00:25 /scratch/eom-ccsd-ro-c2n.F73
-rw-rw-r-- 1 sarom sarom     19208 Jun  2 00:25 /scratch/eom-ccsd-ro-c2n.F74
-rw-rw-r-- 1 sarom sarom     10368 Jun  2 00:25 /scratch/eom-ccsd-ro-c2n.F75
-rw-rw-r-- 1 sarom sarom     14112 Jun  2 00:25 /scratch/eom-ccsd-ro-c2n.F76
-rw-rw-r-- 1 sarom sarom     96040 Jun  2 00:25 /scratch/eom-ccsd-ro-c2n.F77
-rw-rw-r-- 1 sarom sarom     62208 Jun  2 00:25 /scratch/eom-ccsd-ro-c2n.F78
-rw-rw-r-- 1 sarom sarom     70560 Jun  2 00:25 /scratch/eom-ccsd-ro-c2n.F79
-rw-rw-r-- 1 sarom sarom     84672 Jun  2 00:25 /scratch/eom-ccsd-ro-c2n.F80
-rw-rw-r-- 1 sarom sarom    480200 Jun  2 00:25 /scratch/eom-ccsd-ro-c2n.F81
-rw-rw-r-- 1 sarom sarom    373248 Jun  2 00:25 /scratch/eom-ccsd-ro-c2n.F82
-rw-rw-r-- 1 sarom sarom    423360 Jun  2 00:25 /scratch/eom-ccsd-ro-c2n.F83
-rw-rw-r-- 1 sarom sarom    480200 Jun  2 00:25 /scratch/eom-ccsd-ro-c2n.F84
-rw-rw-r-- 1 sarom sarom    373248 Jun  2 00:25 /scratch/eom-ccsd-ro-c2n.F85
-rw-rw-r-- 1 sarom sarom    352800 Jun  2 00:25 /scratch/eom-ccsd-ro-c2n.F86
-rw-rw-r-- 1 sarom sarom    508032 Jun  2 00:25 /scratch/eom-ccsd-ro-c2n.F87
-rw-rw-r-- 1 sarom sarom   2401000 Jun  2 00:25 /scratch/eom-ccsd-ro-c2n.F88
-rw-rw-r-- 1 sarom sarom   2239488 Jun  2 00:25 /scratch/eom-ccsd-ro-c2n.F89
-rw-rw-r-- 1 sarom sarom   2540160 Jun  2 00:25 /scratch/eom-ccsd-ro-c2n.F90
-rw-rw-r-- 1 sarom sarom   2116800 Jun  2 00:25 /scratch/eom-ccsd-ro-c2n.F91
-rw-rw-r-- 1 sarom sarom  39937536 Jun  2 00:25 /scratch/eom-ccsd-ro-c2n.F92
-rw-rw-r-- 1 sarom sarom   8636544 Jun  2 00:25 /scratch/eom-ccsd-ro-c2n.F93
-rw-rw-r-- 1 sarom sarom  36578304 Jun  2 00:25 /scratch/eom-ccsd-ro-c2n.F94
-rw-rw-r-- 1 sarom sarom  39937536 Jun  2 00:25 /scratch/eom-ccsd-ro-c2n.F95
-rw-rw-r-- 1 sarom sarom 142248960 Jun  2 00:26 /scratch/eom-ccsd-ro-c2n.F96
-rw-rw-r-- 1 sarom sarom   9168768 Jun  2 00:25 /scratch/eom-ccsd-ro-c2n.F97
rm: cannot remove `/scratch/sarom': Is a directory
rm: cannot remove `/scratch/tmp': Is a directory
ls: No match.
ls: No match.
ls: No match.
Fri Jun  2 00:26:35 CDT 2017
0.261u 0.232s 1:08.42 0.7%	0+0k 88+464io 0pf+0w
Deleting shmid=2523136.
Deleting shmid=2555905.
Deleting shmid=2785282.
/opt/gridengine/default/spool/compute-0-7/active_jobs/23445.1/pe_hostfile compute-0-7.local
