-catch_rsh /opt/gridengine/default/spool/compute-0-1/active_jobs/35993.1/pe_hostfile
compute-0-1
The primary node assigned by SGE to this run is compute-0-1
Warning: no access to tty (Bad file descriptor).
Thus no job control in this shell.
source /home/sarom/dir.git.branch.saromleang-travis-ci/install.info
setenv GMS_PATH /home/sarom/dir.git.branch.saromleang-travis-ci
setenv GMS_BUILD_DIR /home/sarom/dir.git.branch.saromleang-travis-ci
setenv GMS_TARGET linux64
setenv GMS_FORTRAN gfortran
setenv GMS_GFORTRAN_VERNO 4.4
setenv GMS_MATHLIB mkl-so
setenv GMS_MATHLIB none
setenv GMS_MATHLIB_PATH /share/apps/intel/compilers_and_libraries_2017.1.132/linux/mkl/lib/intel64
setenv GMS_MKL_VERNO 12
setenv GMS_DDI_COMM sockets
setenv GMS_LIBCCHEM false
setenv GMS_EIGEN_PATH
setenv GMS_PHI false
setenv GMS_SHMTYPE sysv
setenv GMS_OPENMP false
unset echo
eom-creom-ozone
/home/sarom/dir.git.branch.saromleang-travis-ci/tests/cc
----- GAMESS execution script 'rungms' -----
This job is running on host compute-0-1.local
under operating system Linux at Wed Aug 9 20:56:11 CDT 2017
Available scratch disk space (Kbyte units) at beginning of the job is
Filesystem           1K-blocks      Used Available Use% Mounted on
/dev/sda1             16126920   3965560  11342160  26% /
GAMESS temporary binary files will be written to /scratch
GAMESS supplementary output files will be written to /home/sarom/restart
Copying input file eom-creom-ozone.inp to your run's scratch directory...
cp /home/sarom/dir.git.branch.saromleang-travis-ci/tests/cc/eom-creom-ozone.inp /scratch/eom-creom-ozone.F05
unset echo
The generated host list is
compute-0-1.local
/home/sarom/dir.git.branch.saromleang-travis-ci/ddikick.x /home/sarom/dir.git.branch.saromleang-travis-ci/gamess.00.x eom-creom-ozone -ddi 1 1 compute-0-1.local -scr /scratch

 Distributed Data Interface kickoff program.
 Initiating 1 compute processes on 1 nodes to run the following command:
 /home/sarom/dir.git.branch.saromleang-travis-ci/gamess.00.x eom-creom-ozone 

          ******************************************************
          *         GAMESS VERSION = 20 APR 2017 (R1)          *
          *             FROM IOWA STATE UNIVERSITY             *
          * M.W.SCHMIDT, K.K.BALDRIDGE, J.A.BOATZ, S.T.ELBERT, *
          *   M.S.GORDON, J.H.JENSEN, S.KOSEKI, N.MATSUNAGA,   *
          *          K.A.NGUYEN, S.J.SU, T.L.WINDUS,           *
          *       TOGETHER WITH M.DUPUIS, J.A.MONTGOMERY       *
          *         J.COMPUT.CHEM.  14, 1347-1363(1993)        *
          **************** 64 BIT LINUX VERSION ****************

  SINCE 1993, STUDENTS AND POSTDOCS WORKING AT IOWA STATE UNIVERSITY
  AND ALSO IN THEIR VARIOUS JOBS AFTER LEAVING ISU HAVE MADE IMPORTANT
  CONTRIBUTIONS TO THE CODE:
     IVANA ADAMOVIC, CHRISTINE AIKENS, YURI ALEXEEV, POOJA ARORA,
     ANDREY ASADCHEV, ROB BELL, PRADIPTA BANDYOPADHYAY, JONATHAN BENTZ,
     BRETT BODE, KURT BRORSEN, CALEB CARLIN, GALINA CHABAN, WEI CHEN,
     CHEOL HO CHOI, PAUL DAY, ALBERT DEFUSCO, NUWAN DESILVA, TIM DUDLEY,
     DMITRI FEDOROV, GRAHAM FLETCHER, MARK FREITAG, KURT GLAESEMANN,
     DAN KEMP, GRANT MERRILL, NORIYUKI MINEZAWA, JONATHAN MULLIN,
     TAKESHI NAGATA, SEAN NEDD, HEATHER NETZLOFF, BOSILJKA NJEGIC, RYAN OLSON,
     MIKE PAK, SPENCER PRUITT, LUKE ROSKOP, JIM SHOEMAKER, LYUDMILA SLIPCHENKO,
     TONY SMITH, SAROM SOK LEANG, JIE SONG, TETSUYA TAKETSUGU, SIMON WEBB,
     PENG XU, SOOHAENG YOO, FEDERICO ZAHARIEV

  ADDITIONAL CODE HAS BEEN PROVIDED BY COLLABORATORS IN OTHER GROUPS:
     IOWA STATE UNIVERSITY:
          JOE IVANIC, AARON WEST, LAIMUTIS BYTAUTAS, KLAUS RUEDENBERG
     UNIVERSITY OF TOKYO: KIMIHIKO HIRAO, TAKAHITO NAKAJIMA,
          TAKAO TSUNEDA, MUNEAKI KAMIYA, SUSUMU YANAGISAWA,
          KIYOSHI YAGI, MAHITO CHIBA, SEIKEN TOKURA, NAOAKI KAWAKAMI
     UNIVERSITY OF AARHUS: FRANK JENSEN
     UNIVERSITY OF IOWA: VISVALDAS KAIRYS, HUI LI
     NATIONAL INST. OF STANDARDS AND TECHNOLOGY: WALT STEVENS, DAVID GARMER
     UNIVERSITY OF PISA: BENEDETTA MENNUCCI, JACOPO TOMASI
     UNIVERSITY OF MEMPHIS: HENRY KURTZ, PRAKASHAN KORAMBATH
     UNIVERSITY OF ALBERTA: TOBY ZENG, MARIUSZ KLOBUKOWSKI
     UNIVERSITY OF NEW ENGLAND: MARK SPACKMAN
     MIE UNIVERSITY: HIROAKI UMEDA
     NAT. INST. OF ADVANCED INDUSTRIAL SCIENCE AND TECHNOLOGY: KAZUO KITAURA
     MICHIGAN STATE UNIVERSITY:
          KAROL KOWALSKI, MARTA WLOCH, JEFFREY GOUR, JESSE LUTZ,
          WEI LI, PIOTR PIECUCH
     UNIVERSITY OF SILESIA: MONIKA MUSIAL, STANISLAW KUCHARSKI
     FACULTES UNIVERSITAIRES NOTRE-DAME DE LA PAIX:
          OLIVIER QUINET, BENOIT CHAMPAGNE
     UNIVERSITY OF CALIFORNIA - SANTA BARBARA: BERNARD KIRTMAN
     INSTITUTE FOR MOLECULAR SCIENCE:
          KAZUYA ISHIMURA, MICHIO KATOUDA, AND SHIGERU NAGASE
     UNIVERSITY OF NOTRE DAME: ANNA POMOGAEVA, DAN CHIPMAN
     KYUSHU UNIVERSITY:
          HARUYUKI NAKANO,
          FENG LONG GU, JACEK KORCHOWIEC, MARCIN MAKOWSKI, AND YURIKO AOKI,
          HIROTOSHI MORI AND EISAKU MIYOSHI
     PENNSYLVANIA STATE UNIVERSITY:
          TZVETELIN IORDANOV, CHET SWALINA, JONATHAN SKONE,
          SHARON HAMMES-SCHIFFER
     WASEDA UNIVERSITY:
          MASATO KOBAYASHI, TOMOKO AKAMA, TSUGUKI TOUMA,
          TAKESHI YOSHIKAWA, YASUHIRO IKABATA, JUNJI SEINO,
          YUYA NAKAJIMA, HIROMI NAKAI
     NANJING UNIVERSITY: SHUHUA LI
     UNIVERSITY OF NEBRASKA:
          PEIFENG SU, DEJUN SI, NANDUN THELLAMUREGE, YALI WANG, HUI LI
     UNIVERSITY OF ZURICH: ROBERTO PEVERATI, KIM BALDRIDGE
     N. COPERNICUS UNIVERSITY AND JACKSON STATE UNIVERSITY:
          MARIA BARYSZ
     UNIVERSITY OF COPENHAGEN: Jimmy Kromann, CASPER STEINMANN
     TOKYO INSTITUTE OF TECHNOLOGY: HIROYA NAKATA
     NAGOYA UNIVERSITY: YOSHIO NISHIMOTO, STEPHAN IRLE
     MOSCOW STATE UNIVERSITY: VLADIMIR MIRONOV

 EXECUTION OF GAMESS BEGUN Wed Aug  9 20:56:11 2017

            ECHO OF THE FIRST FEW INPUT CARDS -
 INPUT CARD>!    ozone...test of EOM-CCSD(T) codes                                          
 INPUT CARD>!                                                                               
 INPUT CARD>!    ground state:                                                              
 INPUT CARD>!      FINAL energy is -224.3274304296 after 17 iterations                      
 INPUT CARD>!      E(MP2)= -224.9830241963, E(CCSD)= -224.9593772831, T1= 0.02904615        
 INPUT CARD>!             ---- SUMMARY OF EOM-CCSD CALCULATIONS ----                        
 INPUT CARD>!                  EXCITATION   EXCITATION      TOTAL                           
 INPUT CARD>!     SYMMETRY     ENERGY (H)   ENERGY (EV)     ENERGY (H)     ITERATIONS       
 INPUT CARD>!        A1        0.33318536      9.066      -224.62619192     CONVERGED       
 INPUT CARD>!        A1        0.33318677      9.066      -224.62619051     CONVERGED       
 INPUT CARD>!        A1        0.36080159      9.818      -224.59857569     CONVERGED       
 INPUT CARD>!    output from triples part is extracted into my table below:                 
 INPUT CARD>!    ground and excited states (#iters):                                        
 INPUT CARD>!            E(EOM-CCSD)              E(CI-SD)       E(CR-EOM) type III         
 INPUT CARD>!      A1        ---            -224.8786449668( 9)    -224.9826779911          
 INPUT CARD>!      A1   -224.62619192(25)   -224.2655962470(19)    -224.6861779975          
 INPUT CARD>!      A1   -224.62619051(17)   -224.2213700773(24)    -224.7980078649          
 INPUT CARD>!      A1   -224.59857569( 1)   -224.1298778721(32)            ?                
 INPUT CARD>!     and then it prints out that III exc. energies are 8.068 and 5.025 eV      
 INPUT CARD>!     The simplest checking about triples is to match those two eV values.      
 INPUT CARD>!                                                                               
 INPUT CARD>!    This run seems to be repeating the energy of the 1st root while            
 INPUT CARD>!    working on the 2nd root, but converging amplitudes that it later           
 INPUT CARD>!    applies to the 3rd root.  Somehow it is aware that it only found           
 INPUT CARD>!    two different answers in the EOM-CCSD, so the MM23 corrections             
 INPUT CARD>!    are made for only two excited states.                                      
 INPUT CARD>!    Unclear which states match which states, in MWS' opinion (2006)!           
 INPUT CARD>!    3 years later, MWS still thinks the same thing.                            
 INPUT CARD>!                                                                               
 INPUT CARD>!    This run takes 284 seconds on 2.66 GHz Cloverton (18 Jul 2016)             
 INPUT CARD>!    results more or less the same every since 2009                             
 INPUT CARD>!    it requires about 835 MBytes of disk space                                 
 INPUT CARD>!                                                                               
 INPUT CARD> $contrl scftyp=rhf cctyp=cr-eom units=bohr ispher=1 $END                       
 INPUT CARD> $system mwords=10 timlim=1000 $end                                             
 INPUT CARD> $guess  guess=huckel $end                                                      
 INPUT CARD> $ccinp  ncore=3 $end                                                           
 INPUT CARD> $eominp minit=1 mtrip=2 meom=0 noact=6 nuact=5 nstate(1)=3,0,0,0 $end          
 INPUT CARD> $data                                                                          
 INPUT CARD>Ozone POL1 (Sadlej) basis set                                                   
 INPUT CARD>Cnv  2                                                                          
 INPUT CARD>                                                                                
 INPUT CARD>Oxygen         8.         0.00000000     0.00000000   0.00000000                
 INPUT CARD> S   5                                                                          
 INPUT CARD>  1        10662.28500         0.7990000000E-03                                 
 INPUT CARD>  2        1599.709700         0.6153000000E-02                                 
 INPUT CARD>  3        364.7252600         0.3115700000E-01                                 
 INPUT CARD>  4        103.6517900         0.1155960000                                     
 INPUT CARD>  5        33.90580500         0.3015520000                                     
 INPUT CARD> S   2                                                                          
   10000000 WORDS OF MEMORY AVAILABLE


     RUN TITLE
     ---------
 Ozone POL1 (Sadlej) basis set                                                   

 THE POINT GROUP OF THE MOLECULE IS CNV     
 THE ORDER OF THE PRINCIPAL AXIS IS     2
 *** WARNING! ATOM   1 SHELL    1 TYPE S HAS NORMALIZATION   2.38554124
 *** WARNING! ATOM   1 SHELL    2 TYPE S HAS NORMALIZATION   1.50605011
 *** WARNING! ATOM   1 SHELL    6 TYPE P HAS NORMALIZATION   1.27453530
 *** WARNING! ATOM   1 SHELL    9 TYPE D HAS NORMALIZATION   1.39917917
 *** WARNING! ATOM   1 SHELL   10 TYPE D HAS NORMALIZATION   0.85789476
 *** WARNING! ATOM   2 SHELL   11 TYPE S HAS NORMALIZATION   2.38554124
 *** WARNING! ATOM   2 SHELL   12 TYPE S HAS NORMALIZATION   1.50605011
 *** WARNING! ATOM   2 SHELL   16 TYPE P HAS NORMALIZATION   1.27453530
 *** WARNING! ATOM   2 SHELL   19 TYPE D HAS NORMALIZATION   1.39917917
 *** WARNING! ATOM   2 SHELL   20 TYPE D HAS NORMALIZATION   0.85789476

 ATOM      ATOMIC                      COORDINATES (BOHR)
           CHARGE         X                   Y                   Z
 OXYGEN      8.0     0.0000000000        0.0000000000        0.0000000000
 OXYGEN      8.0    -0.0000000000       -2.0473224350       -1.2595211660
 OXYGEN      8.0     0.0000000000        2.0473224350       -1.2595211660

          INTERNUCLEAR DISTANCES (ANGS.)
          ------------------------------

                1 OXYG       2 OXYG       3 OXYG  

   1 OXYG    0.0000000    1.2719998 *  1.2719998 *
   2 OXYG    1.2719998 *  0.0000000    2.1667929 *
   3 OXYG    1.2719998 *  2.1667929 *  0.0000000  

  * ... LESS THAN  3.000


     ATOMIC BASIS SET
     ----------------
 THE CONTRACTED PRIMITIVE FUNCTIONS HAVE BEEN UNNORMALIZED
 THE CONTRACTED BASIS FUNCTIONS ARE NOW NORMALIZED TO UNITY

  SHELL TYPE  PRIMITIVE        EXPONENT          CONTRACTION COEFFICIENT(S)

 OXYGEN    

      1   S       1         10662.2850000    0.001906047450
      1   S       2          1599.7097000    0.014678235242
      1   S       3           364.7252600    0.074326308374
      1   S       4           103.6517900    0.275759025028
      1   S       5            33.9058050    0.719364731610

      2   S       6            12.2874690    0.669996511276
      2   S       7             4.7568050    0.366229216715

      3   S       8             1.0042710    1.000000000000

      4   S       9             0.3006860    1.000000000000

      5   S      10             0.0900300    1.000000000000

      6   P      11            34.8564630    0.019943928445
      6   P      12             7.8431310    0.125155543296
      6   P      13             2.3062490    0.392261181595
      6   P      14             0.7231640    0.627670401406

      7   P      15             0.2148820    1.000000000000

      8   P      16             0.0638500    1.000000000000

      9   D      17             2.3062000    0.283613618595
      9   D      18             0.7232000    0.810264659736

     10   D      19             0.2149000    0.673833442897
     10   D      20             0.0639000    0.458004278006

 OXYGEN    

     21   S      21         10662.2850000    0.001906047450
     21   S      22          1599.7097000    0.014678235242
     21   S      23           364.7252600    0.074326308374
     21   S      24           103.6517900    0.275759025028
     21   S      25            33.9058050    0.719364731610

     22   S      26            12.2874690    0.669996511276
     22   S      27             4.7568050    0.366229216715

     23   S      28             1.0042710    1.000000000000

     24   S      29             0.3006860    1.000000000000

     25   S      30             0.0900300    1.000000000000

     26   P      31            34.8564630    0.019943928445
     26   P      32             7.8431310    0.125155543296
     26   P      33             2.3062490    0.392261181595
     26   P      34             0.7231640    0.627670401406

     27   P      35             0.2148820    1.000000000000

     28   P      36             0.0638500    1.000000000000

     29   D      37             2.3062000    0.283613618595
     29   D      38             0.7232000    0.810264659736

     30   D      39             0.2149000    0.673833442897
     30   D      40             0.0639000    0.458004278006

 TOTAL NUMBER OF BASIS SET SHELLS             =   30
 NUMBER OF CARTESIAN GAUSSIAN BASIS FUNCTIONS =   78
 NOTE: THIS RUN WILL RESTRICT THE MO VARIATION SPACE TO SPHERICAL HARMONICS.
 THE NUMBER OF ORBITALS KEPT IN THE VARIATIONAL SPACE WILL BE PRINTED LATER.
 NUMBER OF ELECTRONS                          =   24
 CHARGE OF MOLECULE                           =    0
 SPIN MULTIPLICITY                            =    1
 NUMBER OF OCCUPIED ORBITALS (ALPHA)          =   12
 NUMBER OF OCCUPIED ORBITALS (BETA )          =   12
 TOTAL NUMBER OF ATOMS                        =    3
 THE NUCLEAR REPULSION ENERGY IS       68.8807220355

     $CONTRL OPTIONS
     ---------------
 SCFTYP=RHF          RUNTYP=ENERGY       EXETYP=RUN     
 MPLEVL=       0     CITYP =NONE         CCTYP =CR-EOM       VBTYP =NONE    
 DFTTYP=NONE         TDDFT =NONE    
 MULT  =       1     ICHARG=       0     NZVAR =       0     COORD =UNIQUE  
 PP    =NONE         RELWFN=NONE         LOCAL =NONE         NUMGRD=       F
 ISPHER=       1     NOSYM =       0     MAXIT =      30     UNITS =BOHR    
 PLTORB=       F     MOLPLT=       F     AIMPAC=       F     FRIEND=        
 NPRINT=       7     IREST =       0     GEOM  =INPUT   
 NORMF =       0     NORMP =       0     ITOL  =      20     ICUT  =       9
 INTTYP=BEST         GRDTYP=BEST         QMTTOL= 1.0E-06

     $SYSTEM OPTIONS
     ---------------
  REPLICATED MEMORY=    10000000 WORDS (ON EVERY NODE).
 DISTRIBUTED MEMDDI=           0 MILLION WORDS IN AGGREGATE,
 MEMDDI DISTRIBUTED OVER   1 PROCESSORS IS           0 WORDS/PROCESSOR.
 TOTAL MEMORY REQUESTED ON EACH PROCESSOR=    10000000 WORDS.
 TIMLIM=        1000.00 MINUTES, OR       0.7 DAYS.
 PARALL= F  BALTYP=  DLB     KDIAG=    0  COREFL= F
 MXSEQ2=     300 MXSEQ3=     150  mem10=         0

          ----------------
          PROPERTIES INPUT
          ----------------

     MOMENTS            FIELD           POTENTIAL          DENSITY
 IEMOM =       1   IEFLD =       0   IEPOT =       0   IEDEN =       0
 WHERE =COMASS     WHERE =NUCLEI     WHERE =NUCLEI     WHERE =NUCLEI  
 OUTPUT=BOTH       OUTPUT=BOTH       OUTPUT=BOTH       OUTPUT=BOTH    
 IEMINT=       0   IEFINT=       0                     IEDINT=       0
                                                       MORB  =       0
          EXTRAPOLATION IN EFFECT
          SOSCF IN EFFECT
 ORBITAL PRINTING OPTION: NPREO=     1    78     2     1

     -------------------------------
     INTEGRAL TRANSFORMATION OPTIONS
     -------------------------------
     NWORD  =            0
     CUTOFF = 1.0E-09     MPTRAN =       0
     DIRTRF =       F     AOINTS =DUP     

          ----------------------
          INTEGRAL INPUT OPTIONS
          ----------------------
 NOPK  =       1 NORDER=       0 SCHWRZ=       F

     -------------------------------------------
     EQUATION OF MOTION INPUT FOR EXCITED STATES
     -------------------------------------------
     OPTIONS FOR STATE SELECTION:
     GROUP =C2V       NSTATE= 3, 0, 0, 0, 0, 0, 0, 0    IROOT = 1, 0
     OPTIONS FOR THE EOM-CCSD:
     MEOM  =       0  MAXEOM=      50  MICEOM=      80  CVGEOM= 1.0E-04
     OPTIONS FOR THE TRIPLES CORRECTION:
     MTRIP =       2
     MCI   =       1  MAXCI =      50  MICCI =      80  CVGCI = 1.0E-04
     OPTIONS FOR PROPERTIES:
     CCPRP =       F  CCPRPE =       F
     OPTIONS FOR INITIAL GUESSES:
     MINIT =       1  MACT =       0  NOACT =       6  NUACT =       5
     ACTIVE ORBITALS DEFAULTED TO HOMO/LUMO BOUNDARY

     ------------------------------------------
     THE POINT GROUP IS CNV, NAXIS= 2, ORDER= 4
     ------------------------------------------

 -- VARIATIONAL SPACE WILL BE RESTRICTED TO PURE SPHERICAL HARMONICS ONLY --
 AFTER EXCLUDING CONTAMINANT COMBINATIONS FROM THE CARTESIAN GAUSSIAN BASIS
 SET, THE NUMBER OF SPHERICAL HARMONICS KEPT IN THE VARIATION SPACE IS   72

     DIMENSIONS OF THE SYMMETRY SUBSPACES ARE
 A1  =   29     A2  =    9     B1  =   12     B2  =   22

 ..... DONE SETTING UP THE RUN .....
 STEP CPU TIME =     0.02 TOTAL CPU TIME =        0.0 (    0.0 MIN)
 TOTAL WALL CLOCK TIME=        0.0 SECONDS, CPU UTILIZATION IS  66.67%

          ********************
          1 ELECTRON INTEGRALS
          ********************
 ...... END OF ONE-ELECTRON INTEGRALS ......
 STEP CPU TIME =     0.00 TOTAL CPU TIME =        0.0 (    0.0 MIN)
 TOTAL WALL CLOCK TIME=        0.0 SECONDS, CPU UTILIZATION IS  66.67%

          -------------
          GUESS OPTIONS
          -------------
          GUESS =HUCKEL            NORB  =       0          NORDER=       0
          MIX   =       F          PRTMO =       F          PUNMO =       F
          TOLZ  = 1.0E-08          TOLE  = 1.0E-05
          SYMDEN=       F          PURIFY=       F

 INITIAL GUESS ORBITALS GENERATED BY HUCKEL   ROUTINE.
 HUCKEL GUESS REQUIRES     47604 WORDS.

 STATISTICS FOR GENERATION OF SYMMETRY ORBITAL -Q- MATRIX
 NUMBER OF CARTESIAN ATOMIC ORBITALS=         78
 NUMBER OF SPHERICAL CONTAMINANTS DROPPED=     6
 NUMBER OF LINEARLY DEPENDENT MOS DROPPED=     0
 TOTAL NUMBER OF MOS IN VARIATION SPACE=      72

 SYMMETRIES FOR INITIAL GUESS ORBITALS FOLLOW.   BOTH SET(S).
    12 ORBITALS ARE OCCUPIED (    3 CORE ORBITALS).
     4=A1       5=B2       6=A1       7=B1       8=A1       9=B2      10=A2  
    11=B2      12=A1      13=B1      14=B2      15=A1      16=A1      17=A1  
    18=A1      19=A1      20=A1      21=A1      22=A1  
 ...... END OF INITIAL ORBITAL SELECTION ......
 STEP CPU TIME =     0.01 TOTAL CPU TIME =        0.0 (    0.0 MIN)
 TOTAL WALL CLOCK TIME=        0.0 SECONDS, CPU UTILIZATION IS  75.00%

                    ----------------------
                    AO INTEGRAL TECHNOLOGY
                    ----------------------
     S,P,L SHELL ROTATED AXIS INTEGRALS, REPROGRAMMED BY
        KAZUYA ISHIMURA (IMS) AND JOSE SIERRA (SYNSTAR).
     S,P,D,L SHELL ROTATED AXIS INTEGRALS PROGRAMMED BY
        KAZUYA ISHIMURA (INSTITUTE FOR MOLECULAR SCIENCE).
     S,P,D,F,G SHELL TO TOTAL QUARTET ANGULAR MOMENTUM SUM 5,
        ERIC PROGRAM BY GRAHAM FLETCHER (ELORET AND NASA ADVANCED
        SUPERCOMPUTING DIVISION, AMES RESEARCH CENTER).
     S,P,D,F,G,L SHELL GENERAL RYS QUADRATURE PROGRAMMED BY
        MICHEL DUPUIS (PACIFIC NORTHWEST NATIONAL LABORATORY).

          --------------------
          2 ELECTRON INTEGRALS
          --------------------

 THE -PK- OPTION IS OFF, THE INTEGRALS ARE NOT IN SUPERMATRIX FORM.
 STORING   15000 INTEGRALS/RECORD ON DISK, USING 12 BYTES/INTEGRAL.
 TWO ELECTRON INTEGRAL EVALUATION REQUIRES   90861 WORDS OF MEMORY.
 II,JST,KST,LST =  1  1  1  1 NREC =         1 INTLOC =    1
 II,JST,KST,LST =  2  1  1  1 NREC =         1 INTLOC =    2
 II,JST,KST,LST =  3  1  1  1 NREC =         1 INTLOC =    7
 II,JST,KST,LST =  4  1  1  1 NREC =         1 INTLOC =   22
 II,JST,KST,LST =  5  1  1  1 NREC =         1 INTLOC =   56
 II,JST,KST,LST =  6  1  1  1 NREC =         1 INTLOC =  121
 II,JST,KST,LST =  7  1  1  1 NREC =         1 INTLOC =  220
 II,JST,KST,LST =  8  1  1  1 NREC =         1 INTLOC =  496
 II,JST,KST,LST =  9  1  1  1 NREC =         1 INTLOC = 1057
 II,JST,KST,LST = 10  1  1  1 NREC =         1 INTLOC = 3607
 II,JST,KST,LST = 11  1  1  1 NREC =         1 INTLOC = 9538
 II,JST,KST,LST = 12  1  1  1 NREC =         1 INTLOC = 9538
 II,JST,KST,LST = 13  1  1  1 NREC =         1 INTLOC = 9538
 II,JST,KST,LST = 14  1  1  1 NREC =         1 INTLOC = 9538
 II,JST,KST,LST = 15  1  1  1 NREC =         1 INTLOC = 9538
 II,JST,KST,LST = 16  1  1  1 NREC =         1 INTLOC = 9538
 II,JST,KST,LST = 17  1  1  1 NREC =         1 INTLOC = 9538
 II,JST,KST,LST = 18  1  1  1 NREC =         1 INTLOC = 9538
 II,JST,KST,LST = 19  1  1  1 NREC =         1 INTLOC = 9538
 II,JST,KST,LST = 20  1  1  1 NREC =         1 INTLOC = 9538
 II,JST,KST,LST = 21  1  1  1 NREC =         1 INTLOC = 9538
 II,JST,KST,LST = 22  1  1  1 NREC =         1 INTLOC =14760
 II,JST,KST,LST = 23  1  1  1 NREC =         2 INTLOC = 6329
 II,JST,KST,LST = 24  1  1  1 NREC =         3 INTLOC =  199
 II,JST,KST,LST = 25  1  1  1 NREC =         3 INTLOC =11324
 II,JST,KST,LST = 26  1  1  1 NREC =         4 INTLOC = 9860
 II,JST,KST,LST = 27  1  1  1 NREC =         7 INTLOC =12851
 II,JST,KST,LST = 28  1  1  1 NREC =        12 INTLOC = 9841
 II,JST,KST,LST = 29  1  1  1 NREC =        19 INTLOC = 6008
 II,JST,KST,LST = 30  1  1  1 NREC =        40 INTLOC = 5907
 TOTAL NUMBER OF NONZERO TWO-ELECTRON INTEGRALS =             1106927
         74 INTEGRAL RECORDS WERE STORED ON DISK FILE  8.
  ...... END OF TWO-ELECTRON INTEGRALS .....
 STEP CPU TIME =     0.20 TOTAL CPU TIME =        0.2 (    0.0 MIN)
 TOTAL WALL CLOCK TIME=        0.2 SECONDS, CPU UTILIZATION IS  95.83%

          --------------------------
                 RHF SCF CALCULATION
          --------------------------

     NUCLEAR ENERGY =        68.8807220355
     MAXIT =   30     NPUNCH=    2
     EXTRAP=T  DAMP=F  SHIFT=F  RSTRCT=F  DIIS=F  DEM=F  SOSCF=T
     DENSITY MATRIX CONV=  1.00E-06
     SOSCF WILL OPTIMIZE     720 ORBITAL ROTATIONS, SOGTOL=   0.250
     MEMORY REQUIRED FOR RHF ITERS=     76560 WORDS.

 ITER EX DEM     TOTAL ENERGY        E CHANGE  DENSITY CHANGE     ORB. GRAD
   1  0  0     -223.4000329493  -223.4000329493   0.542215269   0.000000000
   2  1  0     -223.9757542020    -0.5757212527   0.661522959   0.258944800
   3  2  0     -223.9841779970    -0.0084237950   0.616728269   0.252020758
   4  3  0     -223.9737468160     0.0104311810   0.644222507   0.261211523
   5  0  0     -223.9437170730     0.0300297430   0.295147730   0.270209423
          ---------------START SECOND ORDER SCF---------------
   6  1  0     -224.3270501718    -0.3833330989   0.011222882   0.004337339
   7  2  0     -224.3273496974    -0.0002995255   0.006865133   0.003549364
   8  3  0     -224.3274176043    -0.0000679069   0.002558780   0.001077113
   9  4  0     -224.3274293196    -0.0000117153   0.000557426   0.000272780
  10  5  0     -224.3274302173    -0.0000008977   0.000362637   0.000115431
  11  6  0     -224.3274303922    -0.0000001749   0.000159275   0.000041033
  12  7  0     -224.3274304242    -0.0000000320   0.000070002   0.000015216
  13  8  0     -224.3274304289    -0.0000000047   0.000021364   0.000007512
  14  9  0     -224.3274304295    -0.0000000006   0.000005931   0.000001950
  15 10  0     -224.3274304295    -0.0000000001   0.000002276   0.000000804
  16 11  0     -224.3274304295    -0.0000000000   0.000000616   0.000000219
  17 12  0     -224.3274304295    -0.0000000000   0.000000156   0.000000052

 RHF HAS CONVERGED, NOW COMPUTING EXACT TOTAL FOCK MATRIX
 FOR USE DURING THE COUPLED CLUSTER CALCULATION THAT FOLLOWS.

          -----------------
          DENSITY CONVERGED
          -----------------
     TIME TO FORM FOCK OPERATORS=       0.2 SECONDS (       0.0 SEC/ITER)
     TIME TO SOLVE SCF EQUATIONS=       0.0 SECONDS (       0.0 SEC/ITER)

 FINAL RHF ENERGY IS     -224.3274304295 AFTER  17 ITERATIONS

          ------------
          EIGENVECTORS
          ------------

                      1          2          3          4          5
                  -20.9188   -20.7104   -20.7103    -1.7576    -1.4376
                     A1         B2         A1         A1         B2  
    1  O  1  S    0.419309   0.000000  -0.001072  -0.078082  -0.000000
    2  O  1  S    0.663714   0.000000  -0.001675  -0.199503  -0.000000
    3  O  1  S    0.014391   0.000000   0.000120   0.420706  -0.000000
    4  O  1  S   -0.006199   0.000000   0.001597   0.375674  -0.000000
    5  O  1  S   -0.005258   0.000000   0.007346  -0.014059  -0.000000
    6  O  1  X    0.000000   0.000000  -0.000000  -0.000000  -0.000000
    7  O  1  Y    0.000000  -0.000184  -0.000000  -0.000000  -0.318777
    8  O  1  Z   -0.001604   0.000000  -0.000063  -0.117683  -0.000000
    9  O  1  X    0.000000   0.000000  -0.000000  -0.000000  -0.000000
   10  O  1  Y    0.000000  -0.003368  -0.000000  -0.000000   0.021145
   11  O  1  Z    0.003504   0.000000  -0.000927  -0.029770  -0.000000
   12  O  1  X    0.000000   0.000000  -0.000000  -0.000000  -0.000000
   13  O  1  Y    0.000000   0.001147  -0.000000  -0.000000   0.011203
   14  O  1  Z    0.001077   0.000000  -0.000373   0.013046  -0.000000
   15  O  1 XX   -0.000177   0.000000   0.000354  -0.017494  -0.000000
   16  O  1 YY   -0.000008   0.000000  -0.000396   0.017192  -0.000000
   17  O  1 ZZ    0.000185   0.000000   0.000041   0.000302  -0.000000
   18  O  1 XY    0.000000   0.000000  -0.000000  -0.000000  -0.000000
   19  O  1 XZ    0.000000   0.000000  -0.000000  -0.000000  -0.000000
   20  O  1 YZ    0.000000  -0.000260  -0.000000  -0.000000   0.038557
   21  O  1 XX    0.000656   0.000000  -0.000724   0.011358  -0.000000
   22  O  1 YY    0.000172   0.000000   0.001411  -0.021757  -0.000000
   23  O  1 ZZ   -0.000828   0.000000  -0.000687   0.010399  -0.000000
   24  O  1 XY    0.000000   0.000000  -0.000000  -0.000000  -0.000000
   25  O  1 XZ    0.000000   0.000000  -0.000000  -0.000000  -0.000000
   26  O  1 YZ    0.000000   0.000352  -0.000000  -0.000000  -0.022382
   27  O  2  S    0.000710   0.296456   0.296450  -0.039871  -0.063945
   28  O  2  S    0.001163   0.469286   0.469350  -0.101782  -0.162850
   29  O  2  S   -0.000090   0.010397   0.010001   0.208910   0.337378
   30  O  2  S    0.001645  -0.004153  -0.003391   0.163760   0.350477
   31  O  2  S    0.002865  -0.002158  -0.003063  -0.008069   0.053943
   32  O  2  X    0.000000   0.000000  -0.000000  -0.000000  -0.000000
   33  O  2  Y    0.000121   0.001113   0.000931   0.101317   0.062060
   34  O  2  Z    0.000077   0.000563   0.000600   0.052960   0.060050
   35  O  2  X    0.000000   0.000000  -0.000000  -0.000000  -0.000000
   36  O  2  Y    0.001696  -0.002764  -0.001356  -0.005149   0.047986
   37  O  2  Z    0.000302  -0.001546  -0.001320   0.004346   0.030956
   38  O  2  X    0.000000   0.000000  -0.000000  -0.000000  -0.000000
   39  O  2  Y    0.000927  -0.000994   0.000022  -0.019973   0.004552
   40  O  2  Z   -0.000052  -0.000006  -0.000532  -0.004676  -0.003903
   41  O  2 XX    0.000152  -0.000050  -0.000106  -0.010653  -0.007094
   42  O  2 YY   -0.000138  -0.000007  -0.000044   0.014573   0.005374
   43  O  2 ZZ   -0.000014   0.000056   0.000150  -0.003920   0.001720
   44  O  2 XY    0.000000   0.000000  -0.000000  -0.000000  -0.000000
   45  O  2 XZ    0.000000   0.000000  -0.000000  -0.000000  -0.000000
   46  O  2 YZ   -0.000137  -0.000143  -0.000134   0.016282   0.011922
   47  O  2 XX   -0.000365   0.000690   0.000173   0.008686  -0.004869
   48  O  2 YY    0.000738  -0.000910   0.000115  -0.015437   0.008943
   49  O  2 ZZ   -0.000373   0.000220  -0.000287   0.006751  -0.004074
   50  O  2 XY    0.000000   0.000000  -0.000000  -0.000000  -0.000000
   51  O  2 XZ    0.000000   0.000000  -0.000000  -0.000000  -0.000000
   52  O  2 YZ    0.000157  -0.000799  -0.000341  -0.009772   0.008819
   53  O  3  S    0.000710  -0.296456   0.296450  -0.039871   0.063945
   54  O  3  S    0.001163  -0.469286   0.469350  -0.101782   0.162850
   55  O  3  S   -0.000090  -0.010397   0.010001   0.208910  -0.337378
   56  O  3  S    0.001645   0.004153  -0.003391   0.163760  -0.350477
   57  O  3  S    0.002865   0.002158  -0.003063  -0.008069  -0.053943
   58  O  3  X    0.000000   0.000000  -0.000000  -0.000000  -0.000000
   59  O  3  Y   -0.000121   0.001113  -0.000931  -0.101317   0.062060
   60  O  3  Z    0.000077  -0.000563   0.000600   0.052960  -0.060050
   61  O  3  X    0.000000   0.000000  -0.000000  -0.000000  -0.000000
   62  O  3  Y   -0.001696  -0.002764   0.001356   0.005149   0.047986
   63  O  3  Z    0.000302   0.001546  -0.001320   0.004346  -0.030956
   64  O  3  X    0.000000   0.000000  -0.000000  -0.000000  -0.000000
   65  O  3  Y   -0.000927  -0.000994  -0.000022   0.019973   0.004552
   66  O  3  Z   -0.000052   0.000006  -0.000532  -0.004676   0.003903
   67  O  3 XX    0.000152   0.000050  -0.000106  -0.010653   0.007094
   68  O  3 YY   -0.000138   0.000007  -0.000044   0.014573  -0.005374
   69  O  3 ZZ   -0.000014  -0.000056   0.000150  -0.003920  -0.001720
   70  O  3 XY    0.000000   0.000000  -0.000000  -0.000000  -0.000000
   71  O  3 XZ    0.000000   0.000000  -0.000000  -0.000000  -0.000000
   72  O  3 YZ    0.000137  -0.000143   0.000134  -0.016282   0.011922
   73  O  3 XX   -0.000365  -0.000690   0.000173   0.008686   0.004869
   74  O  3 YY    0.000738   0.000910   0.000115  -0.015437  -0.008943
   75  O  3 ZZ   -0.000373  -0.000220  -0.000287   0.006751   0.004074
   76  O  3 XY    0.000000   0.000000  -0.000000  -0.000000  -0.000000
   77  O  3 XZ    0.000000   0.000000  -0.000000  -0.000000  -0.000000
   78  O  3 YZ   -0.000157  -0.000799   0.000341   0.009772   0.008819

                      6          7          8          9         10
                   -1.0960    -0.8365    -0.8045    -0.7857    -0.5660
                     A1         A1         B2         B1         B2  
    1  O  1  S   -0.061871  -0.005168   0.000000  -0.000000   0.000000
    2  O  1  S   -0.159086  -0.013067   0.000000  -0.000000   0.000000
    3  O  1  S    0.355395   0.031687   0.000000  -0.000000   0.000000
    4  O  1  S    0.434830   0.021994   0.000000  -0.000000   0.000000
    5  O  1  S    0.151327  -0.074633   0.000000  -0.000000   0.000000
    6  O  1  X   -0.000000  -0.000000   0.000000   0.566944   0.000000
    7  O  1  Y   -0.000000  -0.000000   0.476058  -0.000000   0.105662
    8  O  1  Z    0.223794   0.557273   0.000000  -0.000000   0.000000
    9  O  1  X   -0.000000  -0.000000   0.000000   0.232434   0.000000
   10  O  1  Y   -0.000000  -0.000000   0.186201  -0.000000   0.019379
   11  O  1  Z    0.026942   0.232326   0.000000  -0.000000   0.000000
   12  O  1  X   -0.000000  -0.000000   0.000000   0.012187   0.000000
   13  O  1  Y   -0.000000  -0.000000   0.057538  -0.000000   0.030177
   14  O  1  Z    0.004425   0.062598   0.000000  -0.000000   0.000000
   15  O  1 XX    0.008198   0.013475   0.000000  -0.000000   0.000000
   16  O  1 YY   -0.002855   0.012939   0.000000  -0.000000   0.000000
   17  O  1 ZZ   -0.005343  -0.026414   0.000000  -0.000000   0.000000
   18  O  1 XY   -0.000000  -0.000000   0.000000  -0.000000   0.000000
   19  O  1 XZ   -0.000000  -0.000000   0.000000  -0.030948   0.000000
   20  O  1 YZ   -0.000000  -0.000000  -0.023031  -0.000000  -0.032810
   21  O  1 XX   -0.010786   0.006277   0.000000  -0.000000   0.000000
   22  O  1 YY    0.018373   0.038835   0.000000  -0.000000   0.000000
   23  O  1 ZZ   -0.007588  -0.045112   0.000000  -0.000000   0.000000
   24  O  1 XY   -0.000000  -0.000000   0.000000  -0.000000   0.000000
   25  O  1 XZ   -0.000000  -0.000000   0.000000  -0.023180   0.000000
   26  O  1 YZ   -0.000000  -0.000000  -0.033606  -0.000000   0.005833
   27  O  2  S    0.055398  -0.021701  -0.032538  -0.000000  -0.001267
   28  O  2  S    0.141931  -0.055578  -0.083624  -0.000000  -0.003283
   29  O  2  S   -0.305484   0.118875   0.182248  -0.000000   0.008919
   30  O  2  S   -0.357885   0.179971   0.278666  -0.000000   0.007694
   31  O  2  S   -0.088791   0.071803   0.131205  -0.000000  -0.022239
   32  O  2  X   -0.000000  -0.000000   0.000000   0.302266   0.000000
   33  O  2  Y    0.074032  -0.302049  -0.223425  -0.000000  -0.395269
   34  O  2  Z    0.099422   0.109214  -0.279803  -0.000000   0.399854
   35  O  2  X   -0.000000  -0.000000   0.000000   0.101521   0.000000
   36  O  2  Y   -0.012134  -0.060362  -0.045343  -0.000000  -0.195270
   37  O  2  Z   -0.000992   0.026125  -0.075010  -0.000000   0.185466
   38  O  2  X   -0.000000  -0.000000   0.000000  -0.007720   0.000000
   39  O  2  Y   -0.007253   0.030190   0.003208  -0.000000  -0.036685
   40  O  2  Z   -0.015073  -0.020851   0.004640  -0.000000   0.029472
   41  O  2 XX   -0.004344   0.008301   0.012271  -0.000000   0.003376
   42  O  2 YY    0.002624  -0.023210  -0.008264  -0.000000  -0.015697
   43  O  2 ZZ    0.001720   0.014909  -0.004007  -0.000000   0.012321
   44  O  2 XY   -0.000000  -0.000000   0.000000   0.024628   0.000000
   45  O  2 XZ   -0.000000  -0.000000   0.000000   0.015032   0.000000
   46  O  2 YZ    0.011503  -0.004997  -0.024249  -0.000000  -0.001303
   47  O  2 XX    0.008180  -0.001475   0.005731  -0.000000   0.006578
   48  O  2 YY   -0.003837   0.016990  -0.005377  -0.000000  -0.022570
   49  O  2 ZZ   -0.004344  -0.015515  -0.000354  -0.000000   0.015992
   50  O  2 XY   -0.000000  -0.000000   0.000000  -0.004564   0.000000
   51  O  2 XZ   -0.000000  -0.000000   0.000000   0.003760   0.000000
   52  O  2 YZ   -0.008667  -0.007558  -0.001948  -0.000000   0.001510
   53  O  3  S    0.055398  -0.021701   0.032538  -0.000000   0.001267
   54  O  3  S    0.141931  -0.055578   0.083624  -0.000000   0.003283
   55  O  3  S   -0.305484   0.118875  -0.182248  -0.000000  -0.008919
   56  O  3  S   -0.357885   0.179971  -0.278666  -0.000000  -0.007694
   57  O  3  S   -0.088791   0.071803  -0.131205  -0.000000   0.022239
   58  O  3  X   -0.000000  -0.000000   0.000000   0.302266   0.000000
   59  O  3  Y   -0.074032   0.302049  -0.223425  -0.000000  -0.395269
   60  O  3  Z    0.099422   0.109214   0.279803  -0.000000  -0.399854
   61  O  3  X   -0.000000  -0.000000   0.000000   0.101521   0.000000
   62  O  3  Y    0.012134   0.060362  -0.045343  -0.000000  -0.195270
   63  O  3  Z   -0.000992   0.026125   0.075010  -0.000000  -0.185466
   64  O  3  X   -0.000000  -0.000000   0.000000  -0.007720   0.000000
   65  O  3  Y    0.007253  -0.030190   0.003208  -0.000000  -0.036685
   66  O  3  Z   -0.015073  -0.020851  -0.004640  -0.000000  -0.029472
   67  O  3 XX   -0.004344   0.008301  -0.012271  -0.000000  -0.003376
   68  O  3 YY    0.002624  -0.023210   0.008264  -0.000000   0.015697
   69  O  3 ZZ    0.001720   0.014909   0.004007  -0.000000  -0.012321
   70  O  3 XY   -0.000000  -0.000000   0.000000  -0.024628   0.000000
   71  O  3 XZ   -0.000000  -0.000000   0.000000   0.015032   0.000000
   72  O  3 YZ   -0.011503   0.004997  -0.024249  -0.000000  -0.001303
   73  O  3 XX    0.008180  -0.001475  -0.005731  -0.000000  -0.006578
   74  O  3 YY   -0.003837   0.016990   0.005377  -0.000000   0.022570
   75  O  3 ZZ   -0.004344  -0.015515   0.000354  -0.000000  -0.015992
   76  O  3 XY   -0.000000  -0.000000   0.000000   0.004564   0.000000
   77  O  3 XZ   -0.000000  -0.000000   0.000000   0.003760   0.000000
   78  O  3 YZ    0.008667   0.007558  -0.001948  -0.000000   0.001510

                     11         12         13         14         15
                   -0.5551    -0.4901    -0.0495     0.1106     0.1132
                     A1         A2         B1         B2         A1  
    1  O  1  S    0.014833  -0.000000   0.000000   0.000000  -0.014940
    2  O  1  S    0.038083  -0.000000   0.000000   0.000000  -0.037505
    3  O  1  S   -0.085432  -0.000000   0.000000   0.000000   0.056471
    4  O  1  S   -0.151929  -0.000000   0.000000   0.000000   0.548996
    5  O  1  S   -0.149637  -0.000000   0.000000   0.000000   7.370711
    6  O  1  X    0.000000  -0.000000   0.546193   0.000000   0.000000
    7  O  1  Y    0.000000  -0.000000   0.000000   0.066139   0.000000
    8  O  1  Z   -0.373877  -0.000000   0.000000   0.000000   0.014240
    9  O  1  X    0.000000  -0.000000   0.380461   0.000000   0.000000
   10  O  1  Y    0.000000  -0.000000   0.000000   1.339378   0.000000
   11  O  1  Z   -0.144295  -0.000000   0.000000   0.000000  -0.570729
   12  O  1  X    0.000000  -0.000000   0.238809   0.000000   0.000000
   13  O  1  Y    0.000000  -0.000000   0.000000   2.270593   0.000000
   14  O  1  Z    0.018644  -0.000000   0.000000   0.000000  -1.867083
   15  O  1 XX   -0.015151  -0.000000   0.000000   0.000000   0.001921
   16  O  1 YY    0.035394  -0.000000   0.000000   0.000000   0.004304
   17  O  1 ZZ   -0.020243  -0.000000   0.000000   0.000000  -0.006225
   18  O  1 XY    0.000000  -0.046548   0.000000   0.000000   0.000000
   19  O  1 XZ    0.000000  -0.000000   0.006313   0.000000   0.000000
   20  O  1 YZ    0.000000  -0.000000   0.000000  -0.009369   0.000000
   21  O  1 XX   -0.000210  -0.000000   0.000000   0.000000  -0.305964
   22  O  1 YY    0.016617  -0.000000   0.000000   0.000000   0.363602
   23  O  1 ZZ   -0.016407  -0.000000   0.000000   0.000000  -0.057639
   24  O  1 XY    0.000000  -0.015092   0.000000   0.000000   0.000000
   25  O  1 XZ    0.000000  -0.000000  -0.006683   0.000000   0.000000
   26  O  1 YZ    0.000000  -0.000000   0.000000  -0.419339   0.000000
   27  O  2  S    0.000364  -0.000000   0.000000  -0.010258   0.003573
   28  O  2  S    0.000724  -0.000000   0.000000  -0.025672   0.007447
   29  O  2  S   -0.000456  -0.000000   0.000000   0.038144   0.013975
   30  O  2  S   -0.013408  -0.000000   0.000000   0.399397  -0.348548
   31  O  2  S    0.029475  -0.000000   0.000000   4.377920  -3.684819
   32  O  2  X    0.000000   0.522340  -0.416683   0.000000   0.000000
   33  O  2  Y   -0.089969  -0.000000   0.000000  -0.040103  -0.059613
   34  O  2  Z    0.494388  -0.000000   0.000000   0.040867   0.019357
   35  O  2  X    0.000000   0.275875  -0.290120   0.000000   0.000000
   36  O  2  Y   -0.047553  -0.000000   0.000000   0.646062  -0.539220
   37  O  2  Z    0.224913  -0.000000   0.000000   0.435432  -0.286638
   38  O  2  X    0.000000   0.040601  -0.190344   0.000000   0.000000
   39  O  2  Y    0.006890  -0.000000   0.000000   1.404025  -1.170211
   40  O  2  Z    0.013264  -0.000000   0.000000   0.736414  -0.634203
   41  O  2 XX   -0.004937  -0.000000   0.000000   0.000955   0.002960
   42  O  2 YY    0.002623  -0.000000   0.000000  -0.002614  -0.004028
   43  O  2 ZZ    0.002314  -0.000000   0.000000   0.001659   0.001068
   44  O  2 XY    0.000000   0.017647   0.007448   0.000000   0.000000
   45  O  2 XZ    0.000000   0.011306   0.006035   0.000000   0.000000
   46  O  2 YZ    0.012107  -0.000000   0.000000   0.004035   0.001065
   47  O  2 XX   -0.000815  -0.000000   0.000000  -0.190344   0.088716
   48  O  2 YY   -0.001325  -0.000000   0.000000   0.244623  -0.086903
   49  O  2 ZZ    0.002139  -0.000000   0.000000  -0.054279  -0.001813
   50  O  2 XY    0.000000   0.024510  -0.007994   0.000000   0.000000
   51  O  2 XZ    0.000000   0.010737  -0.007102   0.000000   0.000000
   52  O  2 YZ    0.004581  -0.000000   0.000000   0.247633  -0.133229
   53  O  3  S    0.000364  -0.000000   0.000000   0.010258   0.003573
   54  O  3  S    0.000724  -0.000000   0.000000   0.025672   0.007447
   55  O  3  S   -0.000456  -0.000000   0.000000  -0.038144   0.013975
   56  O  3  S   -0.013408  -0.000000   0.000000  -0.399397  -0.348548
   57  O  3  S    0.029475  -0.000000   0.000000  -4.377920  -3.684819
   58  O  3  X    0.000000  -0.522340  -0.416683   0.000000   0.000000
   59  O  3  Y    0.089969  -0.000000   0.000000  -0.040103   0.059613
   60  O  3  Z    0.494388  -0.000000   0.000000  -0.040867   0.019357
   61  O  3  X    0.000000  -0.275875  -0.290120   0.000000   0.000000
   62  O  3  Y    0.047553  -0.000000   0.000000   0.646062   0.539220
   63  O  3  Z    0.224913  -0.000000   0.000000  -0.435432  -0.286638
   64  O  3  X    0.000000  -0.040601  -0.190344   0.000000   0.000000
   65  O  3  Y   -0.006890  -0.000000   0.000000   1.404025   1.170211
   66  O  3  Z    0.013264  -0.000000   0.000000  -0.736414  -0.634203
   67  O  3 XX   -0.004937  -0.000000   0.000000  -0.000955   0.002960
   68  O  3 YY    0.002623  -0.000000   0.000000   0.002614  -0.004028
   69  O  3 ZZ    0.002314  -0.000000   0.000000  -0.001659   0.001068
   70  O  3 XY    0.000000   0.017647  -0.007448   0.000000   0.000000
   71  O  3 XZ    0.000000  -0.011306   0.006035   0.000000   0.000000
   72  O  3 YZ   -0.012107  -0.000000   0.000000   0.004035  -0.001065
   73  O  3 XX   -0.000815  -0.000000   0.000000   0.190344   0.088716
   74  O  3 YY   -0.001325  -0.000000   0.000000  -0.244623  -0.086903
   75  O  3 ZZ    0.002139  -0.000000   0.000000   0.054279  -0.001813
   76  O  3 XY    0.000000   0.024510   0.007994   0.000000   0.000000
   77  O  3 XZ    0.000000  -0.010737  -0.007102   0.000000   0.000000
   78  O  3 YZ   -0.004581  -0.000000   0.000000   0.247633   0.133229

                     16         17         18         19         20
                    0.1336     0.1606     0.1960     0.2041     0.2118
                     A1         B1         A1         B2         A2  
    1  O  1  S    0.002090  -0.000000   0.013219  -0.000000  -0.000000
    2  O  1  S    0.006182  -0.000000   0.036012  -0.000000  -0.000000
    3  O  1  S   -0.032432  -0.000000  -0.104895  -0.000000  -0.000000
    4  O  1  S    0.413784  -0.000000  -0.019959  -0.000000  -0.000000
    5  O  1  S    2.162066  -0.000000  -0.512992  -0.000000  -0.000000
    6  O  1  X    0.000000  -0.032656  -0.000000  -0.000000  -0.000000
    7  O  1  Y    0.000000  -0.000000  -0.000000   0.090416  -0.000000
    8  O  1  Z   -0.143538  -0.000000   0.068700  -0.000000  -0.000000
    9  O  1  X    0.000000  -0.097036  -0.000000  -0.000000  -0.000000
   10  O  1  Y    0.000000  -0.000000  -0.000000  -0.260728  -0.000000
   11  O  1  Z   -0.208875  -0.000000  -0.041294  -0.000000  -0.000000
   12  O  1  X    0.000000   0.452584  -0.000000  -0.000000  -0.000000
   13  O  1  Y    0.000000  -0.000000  -0.000000  -0.603251  -0.000000
   14  O  1  Z    1.699532  -0.000000   1.183008  -0.000000  -0.000000
   15  O  1 XX   -0.012538  -0.000000  -0.009546  -0.000000  -0.000000
   16  O  1 YY   -0.000332  -0.000000   0.012124  -0.000000  -0.000000
   17  O  1 ZZ    0.012870  -0.000000  -0.002578  -0.000000  -0.000000
   18  O  1 XY    0.000000  -0.000000  -0.000000  -0.000000  -0.000266
   19  O  1 XZ    0.000000   0.008434  -0.000000  -0.000000  -0.000000
   20  O  1 YZ    0.000000  -0.000000  -0.000000  -0.003235  -0.000000
   21  O  1 XX    0.229357  -0.000000  -0.002556  -0.000000  -0.000000
   22  O  1 YY   -0.042076  -0.000000   0.042650  -0.000000  -0.000000
   23  O  1 ZZ   -0.187281  -0.000000  -0.040095  -0.000000  -0.000000
   24  O  1 XY    0.000000  -0.000000  -0.000000  -0.000000   0.132362
   25  O  1 XZ    0.000000   0.014552  -0.000000  -0.000000  -0.000000
   26  O  1 YZ    0.000000  -0.000000  -0.000000   0.338857  -0.000000
   27  O  2  S    0.013954  -0.000000  -0.003686  -0.002921  -0.000000
   28  O  2  S    0.034961  -0.000000  -0.010018  -0.008710  -0.000000
   29  O  2  S   -0.062305  -0.000000   0.028547   0.036657  -0.000000
   30  O  2  S   -0.207412  -0.000000  -0.004447  -0.201912  -0.000000
   31  O  2  S   -0.103742  -0.000000   0.258291  -0.681333  -0.000000
   32  O  2  X    0.000000  -0.134460  -0.000000  -0.000000  -0.106915
   33  O  2  Y   -0.005740  -0.000000   0.037460   0.049250  -0.000000
   34  O  2  Z    0.028712  -0.000000   0.123686  -0.061576  -0.000000
   35  O  2  X    0.000000  -0.254528  -0.000000  -0.000000  -0.228647
   36  O  2  Y   -0.051670  -0.000000  -0.107849  -0.145471  -0.000000
   37  O  2  Z   -0.108307  -0.000000   0.206444  -0.275053  -0.000000
   38  O  2  X    0.000000   0.459714  -0.000000  -0.000000   1.408684
   39  O  2  Y   -0.864871  -0.000000   0.765987   0.056882  -0.000000
   40  O  2  Z   -1.123588  -0.000000  -0.841734   1.267885  -0.000000
   41  O  2 XX   -0.011482  -0.000000   0.001536   0.005254  -0.000000
   42  O  2 YY    0.010791  -0.000000  -0.012972   0.000398  -0.000000
   43  O  2 ZZ    0.000691  -0.000000   0.011436  -0.005652  -0.000000
   44  O  2 XY    0.000000  -0.003560  -0.000000  -0.000000  -0.011597
   45  O  2 XZ    0.000000  -0.003810  -0.000000  -0.000000  -0.004248
   46  O  2 YZ    0.006753  -0.000000  -0.002676  -0.016011  -0.000000
   47  O  2 XX    0.178697  -0.000000   0.047236  -0.006538  -0.000000
   48  O  2 YY   -0.144758  -0.000000  -0.035340  -0.072640  -0.000000
   49  O  2 ZZ   -0.033938  -0.000000  -0.011897   0.079178  -0.000000
   50  O  2 XY    0.000000  -0.029091  -0.000000  -0.000000   0.060750
   51  O  2 XZ    0.000000   0.014714  -0.000000  -0.000000   0.051291
   52  O  2 YZ   -0.281415  -0.000000  -0.028315   0.014826  -0.000000
   53  O  3  S    0.013954  -0.000000  -0.003686   0.002921  -0.000000
   54  O  3  S    0.034961  -0.000000  -0.010018   0.008710  -0.000000
   55  O  3  S   -0.062305  -0.000000   0.028547  -0.036657  -0.000000
   56  O  3  S   -0.207412  -0.000000  -0.004447   0.201912  -0.000000
   57  O  3  S   -0.103742  -0.000000   0.258291   0.681333  -0.000000
   58  O  3  X    0.000000  -0.134460  -0.000000  -0.000000   0.106915
   59  O  3  Y    0.005740  -0.000000  -0.037460   0.049250  -0.000000
   60  O  3  Z    0.028712  -0.000000   0.123686   0.061576  -0.000000
   61  O  3  X    0.000000  -0.254528  -0.000000  -0.000000   0.228647
   62  O  3  Y    0.051670  -0.000000   0.107849  -0.145471  -0.000000
   63  O  3  Z   -0.108307  -0.000000   0.206444   0.275053  -0.000000
   64  O  3  X    0.000000   0.459714  -0.000000  -0.000000  -1.408684
   65  O  3  Y    0.864871  -0.000000  -0.765987   0.056882  -0.000000
   66  O  3  Z   -1.123588  -0.000000  -0.841734  -1.267885  -0.000000
   67  O  3 XX   -0.011482  -0.000000   0.001536  -0.005254  -0.000000
   68  O  3 YY    0.010791  -0.000000  -0.012972  -0.000398  -0.000000
   69  O  3 ZZ    0.000691  -0.000000   0.011436   0.005652  -0.000000
   70  O  3 XY    0.000000   0.003560  -0.000000  -0.000000  -0.011597
   71  O  3 XZ    0.000000  -0.003810  -0.000000  -0.000000   0.004248
   72  O  3 YZ   -0.006753  -0.000000   0.002676  -0.016011  -0.000000
   73  O  3 XX    0.178697  -0.000000   0.047236   0.006538  -0.000000
   74  O  3 YY   -0.144758  -0.000000  -0.035340   0.072640  -0.000000
   75  O  3 ZZ   -0.033938  -0.000000  -0.011897  -0.079178  -0.000000
   76  O  3 XY    0.000000   0.029091  -0.000000  -0.000000   0.060750
   77  O  3 XZ    0.000000   0.014714  -0.000000  -0.000000  -0.051291
   78  O  3 YZ    0.281415  -0.000000   0.028315   0.014826  -0.000000

                     21         22         23         24         25
                    0.2210     0.2576     0.2638     0.3059     0.3630
                     B1         A1         B2         A1         B2  
    1  O  1  S    0.000000  -0.007013   0.000000   0.047116  -0.000000
    2  O  1  S    0.000000  -0.015755   0.000000   0.127200  -0.000000
    3  O  1  S    0.000000   0.004328   0.000000  -0.362300  -0.000000
    4  O  1  S    0.000000   0.320510   0.000000  -0.041415  -0.000000
    5  O  1  S    0.000000   1.516797   0.000000   7.674816  -0.000000
    6  O  1  X   -0.146814  -0.000000   0.000000  -0.000000  -0.000000
    7  O  1  Y    0.000000  -0.000000   0.003555  -0.000000  -0.474469
    8  O  1  Z    0.000000   0.024295   0.000000   0.356354  -0.000000
    9  O  1  X   -0.163308  -0.000000   0.000000  -0.000000  -0.000000
   10  O  1  Y    0.000000  -0.000000   0.416380  -0.000000   2.349033
   11  O  1  Z    0.000000  -0.105231   0.000000  -0.343349  -0.000000
   12  O  1  X    3.420895  -0.000000   0.000000  -0.000000  -0.000000
   13  O  1  Y    0.000000  -0.000000   5.919665  -0.000000   3.395047
   14  O  1  Z    0.000000   1.537295   0.000000  -1.260482  -0.000000
   15  O  1 XX    0.000000  -0.012218   0.000000  -0.037698  -0.000000
   16  O  1 YY    0.000000   0.003953   0.000000   0.047393  -0.000000
   17  O  1 ZZ    0.000000   0.008265   0.000000  -0.009695  -0.000000
   18  O  1 XY    0.000000  -0.000000   0.000000  -0.000000  -0.000000
   19  O  1 XZ    0.015494  -0.000000   0.000000  -0.000000  -0.000000
   20  O  1 YZ    0.000000  -0.000000   0.020777  -0.000000  -0.070706
   21  O  1 XX    0.000000  -0.289348   0.000000  -0.369105  -0.000000
   22  O  1 YY    0.000000   0.420086   0.000000   0.485537  -0.000000
   23  O  1 ZZ    0.000000  -0.130738   0.000000  -0.116432  -0.000000
   24  O  1 XY    0.000000  -0.000000   0.000000  -0.000000  -0.000000
   25  O  1 XZ   -0.144041  -0.000000   0.000000  -0.000000  -0.000000
   26  O  1 YZ    0.000000  -0.000000  -0.342076  -0.000000  -1.192437
   27  O  2  S    0.000000  -0.013775  -0.004303  -0.018242   0.025893
   28  O  2  S    0.000000  -0.033797  -0.010967  -0.050751   0.071535
   29  O  2  S    0.000000   0.053941   0.018089   0.160414  -0.227485
   30  O  2  S    0.000000   0.264570   0.259139  -0.139045   0.404094
   31  O  2  S    0.000000  -1.011870   3.092892  -3.635875   7.261902
   32  O  2  X    0.088002  -0.000000   0.000000  -0.000000  -0.000000
   33  O  2  Y    0.000000   0.016230   0.043747   0.375910  -0.165469
   34  O  2  Z    0.000000  -0.019798   0.013801   0.124256  -0.219305
   35  O  2  X    0.103407  -0.000000   0.000000  -0.000000  -0.000000
   36  O  2  Y    0.000000  -0.022946   0.312769  -0.157745   1.323777
   37  O  2  Z    0.000000  -0.189958   0.085636  -0.363348   0.578144
   38  O  2  X   -1.847455  -0.000000   0.000000  -0.000000  -0.000000
   39  O  2  Y    0.000000  -0.227341  -1.966049  -1.193982   1.052827
   40  O  2  Z    0.000000  -0.940286   1.884514  -0.365849   1.188966
   41  O  2 XX    0.000000  -0.000521  -0.007964   0.012306  -0.010768
   42  O  2 YY    0.000000  -0.001369   0.020227  -0.022857   0.001920
   43  O  2 ZZ    0.000000   0.001890  -0.012262   0.010551   0.008848
   44  O  2 XY    0.005826  -0.000000   0.000000  -0.000000  -0.000000
   45  O  2 XZ    0.007242  -0.000000   0.000000  -0.000000  -0.000000
   46  O  2 YZ    0.000000   0.005519   0.000972  -0.015543   0.026671
   47  O  2 XX    0.000000  -0.118275   0.067133   0.166399  -0.455971
   48  O  2 YY    0.000000   0.145354  -0.129913  -0.218572   0.495640
   49  O  2 ZZ    0.000000  -0.027079   0.062780   0.052173  -0.039669
   50  O  2 XY   -0.155405  -0.000000   0.000000  -0.000000  -0.000000
   51  O  2 XZ   -0.032236  -0.000000   0.000000  -0.000000  -0.000000
   52  O  2 YZ    0.000000  -0.068633   0.055054  -0.367493   0.625026
   53  O  3  S    0.000000  -0.013775   0.004303  -0.018242  -0.025893
   54  O  3  S    0.000000  -0.033797   0.010967  -0.050751  -0.071535
   55  O  3  S    0.000000   0.053941  -0.018089   0.160414   0.227485
   56  O  3  S    0.000000   0.264570  -0.259139  -0.139045  -0.404094
   57  O  3  S    0.000000  -1.011870  -3.092892  -3.635875  -7.261902
   58  O  3  X    0.088002  -0.000000   0.000000  -0.000000  -0.000000
   59  O  3  Y    0.000000  -0.016230   0.043747  -0.375910  -0.165469
   60  O  3  Z    0.000000  -0.019798  -0.013801   0.124256   0.219305
   61  O  3  X    0.103407  -0.000000   0.000000  -0.000000  -0.000000
   62  O  3  Y    0.000000   0.022946   0.312769   0.157745   1.323777
   63  O  3  Z    0.000000  -0.189958  -0.085636  -0.363348  -0.578144
   64  O  3  X   -1.847455  -0.000000   0.000000  -0.000000  -0.000000
   65  O  3  Y    0.000000   0.227341  -1.966049   1.193982   1.052827
   66  O  3  Z    0.000000  -0.940286  -1.884514  -0.365849  -1.188966
   67  O  3 XX    0.000000  -0.000521   0.007964   0.012306   0.010768
   68  O  3 YY    0.000000  -0.001369  -0.020227  -0.022857  -0.001920
   69  O  3 ZZ    0.000000   0.001890   0.012262   0.010551  -0.008848
   70  O  3 XY   -0.005826  -0.000000   0.000000  -0.000000  -0.000000
   71  O  3 XZ    0.007242  -0.000000   0.000000  -0.000000  -0.000000
   72  O  3 YZ    0.000000  -0.005519   0.000972   0.015543   0.026671
   73  O  3 XX    0.000000  -0.118275  -0.067133   0.166399   0.455971
   74  O  3 YY    0.000000   0.145354   0.129913  -0.218572  -0.495640
   75  O  3 ZZ    0.000000  -0.027079  -0.062780   0.052173   0.039669
   76  O  3 XY    0.155405  -0.000000   0.000000  -0.000000  -0.000000
   77  O  3 XZ   -0.032236  -0.000000   0.000000  -0.000000  -0.000000
   78  O  3 YZ    0.000000   0.068633   0.055054   0.367493   0.625026

                     26         27         28         29         30
                    0.4155     0.4454     0.4725     0.4861     0.5390
                     A1         B1         B2         A1         B2  
    1  O  1  S    0.009049   0.000000   0.000000  -0.008272  -0.000000
    2  O  1  S    0.023365   0.000000   0.000000  -0.017412  -0.000000
    3  O  1  S   -0.064343   0.000000   0.000000  -0.050914  -0.000000
    4  O  1  S   -0.150668   0.000000   0.000000   0.953041  -0.000000
    5  O  1  S   10.823812   0.000000   0.000000  12.535525  -0.000000
    6  O  1  X   -0.000000  -0.046719   0.000000   0.000000  -0.000000
    7  O  1  Y   -0.000000   0.000000   0.357567   0.000000   0.367058
    8  O  1  Z   -0.110671   0.000000   0.000000  -0.338980  -0.000000
    9  O  1  X   -0.000000  -0.374060   0.000000   0.000000  -0.000000
   10  O  1  Y   -0.000000   0.000000   2.573438   0.000000   3.666092
   11  O  1  Z   -0.752381   0.000000   0.000000  -1.657306  -0.000000
   12  O  1  X   -0.000000   1.118133   0.000000   0.000000  -0.000000
   13  O  1  Y   -0.000000   0.000000   2.979421   0.000000   1.063021
   14  O  1  Z   -0.298850   0.000000   0.000000  -2.643493  -0.000000
   15  O  1 XX    0.004089   0.000000   0.000000   0.019755  -0.000000
   16  O  1 YY   -0.015087   0.000000   0.000000  -0.036934  -0.000000
   17  O  1 ZZ    0.010998   0.000000   0.000000   0.017178  -0.000000
   18  O  1 XY   -0.000000   0.000000   0.000000   0.000000  -0.000000
   19  O  1 XZ   -0.000000  -0.005802   0.000000   0.000000  -0.000000
   20  O  1 YZ   -0.000000   0.000000   0.004236   0.000000   0.003752
   21  O  1 XX   -0.189583   0.000000   0.000000  -0.778600  -0.000000
   22  O  1 YY    0.603357   0.000000   0.000000   0.716344  -0.000000
   23  O  1 ZZ   -0.413774   0.000000   0.000000   0.062256  -0.000000
   24  O  1 XY   -0.000000   0.000000   0.000000   0.000000  -0.000000
   25  O  1 XZ   -0.000000  -0.069275   0.000000   0.000000  -0.000000
   26  O  1 YZ   -0.000000   0.000000  -0.584190   0.000000  -1.385048
   27  O  2  S   -0.008001   0.000000   0.005255   0.016193  -0.014797
   28  O  2  S   -0.021188   0.000000   0.013494   0.036819  -0.030557
   29  O  2  S    0.061561   0.000000  -0.046275   0.010254  -0.066034
   30  O  2  S   -0.097890   0.000000   0.162088  -1.214352   1.794393
   31  O  2  S   -5.288021   0.000000   7.305257  -6.088017   4.816201
   32  O  2  X   -0.000000  -0.037892   0.000000   0.000000  -0.000000
   33  O  2  Y   -0.050784   0.000000   0.248786  -0.224783   0.187774
   34  O  2  Z   -0.068030   0.000000   0.146796  -0.092881   0.125242
   35  O  2  X   -0.000000   0.053561   0.000000   0.000000  -0.000000
   36  O  2  Y   -0.593206   0.000000   1.466482  -1.393659   1.935243
   37  O  2  Z   -0.597372   0.000000   0.920064  -0.717032   1.149086
   38  O  2  X   -0.000000  -0.621185   0.000000   0.000000  -0.000000
   39  O  2  Y   -1.019821   0.000000   1.132442  -0.907576   0.928798
   40  O  2  Z   -1.220326   0.000000   0.893946  -0.140442  -0.009486
   41  O  2 XX    0.002270   0.000000   0.000939   0.021057   0.019666
   42  O  2 YY   -0.006494   0.000000   0.000209  -0.005223  -0.002598
   43  O  2 ZZ    0.004224   0.000000  -0.001148  -0.015834  -0.017068
   44  O  2 XY   -0.000000  -0.007936   0.000000   0.000000  -0.000000
   45  O  2 XZ   -0.000000   0.008283   0.000000   0.000000  -0.000000
   46  O  2 YZ   -0.009574   0.000000  -0.005765  -0.012697  -0.001453
   47  O  2 XX    0.297175   0.000000  -0.030964  -0.145862  -0.952211
   48  O  2 YY    0.050715   0.000000   0.279544  -0.127216   0.687142
   49  O  2 ZZ   -0.347890   0.000000  -0.248580   0.273077   0.265069
   50  O  2 XY   -0.000000   0.523053   0.000000   0.000000  -0.000000
   51  O  2 XZ   -0.000000  -0.374724   0.000000   0.000000  -0.000000
   52  O  2 YZ    0.016971   0.000000   0.370034  -0.425074   0.499873
   53  O  3  S   -0.008001   0.000000  -0.005255   0.016193   0.014797
   54  O  3  S   -0.021188   0.000000  -0.013494   0.036819   0.030557
   55  O  3  S    0.061561   0.000000   0.046275   0.010254   0.066034
   56  O  3  S   -0.097890   0.000000  -0.162088  -1.214352  -1.794393
   57  O  3  S   -5.288021   0.000000  -7.305257  -6.088017  -4.816201
   58  O  3  X   -0.000000  -0.037892   0.000000   0.000000  -0.000000
   59  O  3  Y    0.050784   0.000000   0.248786   0.224783   0.187774
   60  O  3  Z   -0.068030   0.000000  -0.146796  -0.092881  -0.125242
   61  O  3  X   -0.000000   0.053561   0.000000   0.000000  -0.000000
   62  O  3  Y    0.593206   0.000000   1.466482   1.393659   1.935243
   63  O  3  Z   -0.597372   0.000000  -0.920064  -0.717032  -1.149086
   64  O  3  X   -0.000000  -0.621185   0.000000   0.000000  -0.000000
   65  O  3  Y    1.019821   0.000000   1.132442   0.907576   0.928798
   66  O  3  Z   -1.220326   0.000000  -0.893946  -0.140442   0.009486
   67  O  3 XX    0.002270   0.000000  -0.000939   0.021057  -0.019666
   68  O  3 YY   -0.006494   0.000000  -0.000209  -0.005223   0.002598
   69  O  3 ZZ    0.004224   0.000000   0.001148  -0.015834   0.017068
   70  O  3 XY   -0.000000   0.007936   0.000000   0.000000  -0.000000
   71  O  3 XZ   -0.000000   0.008283   0.000000   0.000000  -0.000000
   72  O  3 YZ    0.009574   0.000000  -0.005765   0.012697  -0.001453
   73  O  3 XX    0.297175   0.000000   0.030964  -0.145862   0.952211
   74  O  3 YY    0.050715   0.000000  -0.279544  -0.127216  -0.687142
   75  O  3 ZZ   -0.347890   0.000000   0.248580   0.273077  -0.265069
   76  O  3 XY   -0.000000  -0.523053   0.000000   0.000000  -0.000000
   77  O  3 XZ   -0.000000  -0.374724   0.000000   0.000000  -0.000000
   78  O  3 YZ   -0.016971   0.000000   0.370034   0.425074   0.499873

                     31         32         33         34         35
                    0.5413     0.6068     0.6893     0.6952     0.7377
                     A2         A1         A1         B1         A1  
    1  O  1  S   -0.000000  -0.022051  -0.009670   0.000000   0.007760
    2  O  1  S   -0.000000  -0.047484  -0.019320   0.000000   0.016164
    3  O  1  S   -0.000000  -0.073833  -0.063884   0.000000   0.046465
    4  O  1  S   -0.000000   3.562928   1.543960   0.000000  -1.244990
    5  O  1  S   -0.000000   6.367228   4.754804   0.000000  -2.669258
    6  O  1  X   -0.000000   0.000000   0.000000  -0.005211  -0.000000
    7  O  1  Y   -0.000000   0.000000   0.000000   0.000000  -0.000000
    8  O  1  Z   -0.000000  -0.002929  -0.084309   0.000000   0.150926
    9  O  1  X   -0.000000   0.000000   0.000000   0.126120  -0.000000
   10  O  1  Y   -0.000000   0.000000   0.000000   0.000000  -0.000000
   11  O  1  Z   -0.000000  -0.973151  -0.857675   0.000000   2.486805
   12  O  1  X   -0.000000   0.000000   0.000000  -0.767559  -0.000000
   13  O  1  Y   -0.000000   0.000000   0.000000   0.000000  -0.000000
   14  O  1  Z   -0.000000   1.339440  -0.730907   0.000000   4.158924
   15  O  1 XX   -0.000000  -0.025087   0.014220   0.000000   0.013075
   16  O  1 YY   -0.000000   0.018471  -0.003350   0.000000  -0.037187
   17  O  1 ZZ   -0.000000   0.006616  -0.010870   0.000000   0.024112
   18  O  1 XY   -0.004227   0.000000   0.000000   0.000000  -0.000000
   19  O  1 XZ   -0.000000   0.000000   0.000000  -0.017642  -0.000000
   20  O  1 YZ   -0.000000   0.000000   0.000000   0.000000  -0.000000
   21  O  1 XX   -0.000000   0.728230  -1.680272   0.000000   0.477670
   22  O  1 YY   -0.000000  -0.237785   0.445432   0.000000   1.150676
   23  O  1 ZZ   -0.000000  -0.490445   1.234841   0.000000  -1.628345
   24  O  1 XY   -0.154167   0.000000   0.000000   0.000000  -0.000000
   25  O  1 XZ   -0.000000   0.000000   0.000000   1.678322  -0.000000
   26  O  1 YZ   -0.000000   0.000000   0.000000   0.000000  -0.000000
   27  O  2  S   -0.000000  -0.007733   0.004142   0.000000  -0.001138
   28  O  2  S   -0.000000  -0.021946   0.006689   0.000000   0.001394
   29  O  2  S   -0.000000   0.085438   0.056833   0.000000  -0.077854
   30  O  2  S   -0.000000   0.324299  -0.859238   0.000000   0.610067
   31  O  2  S   -0.000000  -3.623716  -2.325642   0.000000   1.344307
   32  O  2  X   -0.040624   0.000000   0.000000   0.041476  -0.000000
   33  O  2  Y   -0.000000  -0.157279  -0.043008   0.000000  -0.044831
   34  O  2  Z   -0.000000  -0.108286  -0.028142   0.000000   0.098791
   35  O  2  X   -0.039623   0.000000   0.000000   0.417481  -0.000000
   36  O  2  Y   -0.000000  -0.929894  -0.893519   0.000000   1.074814
   37  O  2  Z   -0.000000  -0.700220  -0.196909   0.000000  -0.402184
   38  O  2  X   -0.037097   0.000000   0.000000   0.297784  -0.000000
   39  O  2  Y   -0.000000  -1.677380  -0.441015   0.000000   1.368179
   40  O  2  Z   -0.000000  -1.382519  -0.204438   0.000000  -1.815659
   41  O  2 XX   -0.000000  -0.006210  -0.019453   0.000000  -0.003206
   42  O  2 YY   -0.000000   0.012224   0.002776   0.000000  -0.002426
   43  O  2 ZZ   -0.000000  -0.006013   0.016677   0.000000   0.005632
   44  O  2 XY    0.001027   0.000000   0.000000  -0.004628  -0.000000
   45  O  2 XZ   -0.018041   0.000000   0.000000   0.024908  -0.000000
   46  O  2 YZ   -0.000000   0.014382  -0.006079   0.000000  -0.007531
   47  O  2 XX   -0.000000   0.673069   0.961981   0.000000  -0.313677
   48  O  2 YY   -0.000000  -0.836105  -0.387862   0.000000   1.694923
   49  O  2 ZZ   -0.000000   0.163036  -0.574120   0.000000  -1.381246
   50  O  2 XY    0.053786   0.000000   0.000000   0.122972  -0.000000
   51  O  2 XZ    0.824296   0.000000   0.000000  -0.736500  -0.000000
   52  O  2 YZ   -0.000000  -1.331469  -0.199603   0.000000  -0.590204
   53  O  3  S   -0.000000  -0.007733   0.004142   0.000000  -0.001138
   54  O  3  S   -0.000000  -0.021946   0.006689   0.000000   0.001394
   55  O  3  S   -0.000000   0.085438   0.056833   0.000000  -0.077854
   56  O  3  S   -0.000000   0.324299  -0.859238   0.000000   0.610067
   57  O  3  S   -0.000000  -3.623716  -2.325642   0.000000   1.344307
   58  O  3  X    0.040624   0.000000   0.000000   0.041476  -0.000000
   59  O  3  Y   -0.000000   0.157279   0.043008   0.000000   0.044831
   60  O  3  Z   -0.000000  -0.108286  -0.028142   0.000000   0.098791
   61  O  3  X    0.039623   0.000000   0.000000   0.417481  -0.000000
   62  O  3  Y   -0.000000   0.929894   0.893519   0.000000  -1.074814
   63  O  3  Z   -0.000000  -0.700220  -0.196909   0.000000  -0.402184
   64  O  3  X    0.037097   0.000000   0.000000   0.297784  -0.000000
   65  O  3  Y   -0.000000   1.677380   0.441015   0.000000  -1.368179
   66  O  3  Z   -0.000000  -1.382519  -0.204438   0.000000  -1.815659
   67  O  3 XX   -0.000000  -0.006210  -0.019453   0.000000  -0.003206
   68  O  3 YY   -0.000000   0.012224   0.002776   0.000000  -0.002426
   69  O  3 ZZ   -0.000000  -0.006013   0.016677   0.000000   0.005632
   70  O  3 XY    0.001027   0.000000   0.000000   0.004628  -0.000000
   71  O  3 XZ    0.018041   0.000000   0.000000   0.024908  -0.000000
   72  O  3 YZ   -0.000000  -0.014382   0.006079   0.000000   0.007531
   73  O  3 XX   -0.000000   0.673069   0.961981   0.000000  -0.313677
   74  O  3 YY   -0.000000  -0.836105  -0.387862   0.000000   1.694923
   75  O  3 ZZ   -0.000000   0.163036  -0.574120   0.000000  -1.381246
   76  O  3 XY    0.053786   0.000000   0.000000  -0.122972  -0.000000
   77  O  3 XZ   -0.824296   0.000000   0.000000  -0.736500  -0.000000
   78  O  3 YZ   -0.000000   1.331469   0.199603   0.000000   0.590204

                     36         37         38         39         40
                    0.7428     0.7968     0.8095     0.8374     0.9118
                     B2         B2         A2         B1         B2  
    1  O  1  S   -0.000000  -0.000000   0.000000  -0.000000   0.000000
    2  O  1  S   -0.000000  -0.000000   0.000000  -0.000000   0.000000
    3  O  1  S   -0.000000  -0.000000   0.000000  -0.000000   0.000000
    4  O  1  S   -0.000000  -0.000000   0.000000  -0.000000   0.000000
    5  O  1  S   -0.000000  -0.000000   0.000000  -0.000000   0.000000
    6  O  1  X   -0.000000  -0.000000   0.000000   0.353326   0.000000
    7  O  1  Y    0.008949   0.263790   0.000000  -0.000000   0.140572
    8  O  1  Z   -0.000000  -0.000000   0.000000  -0.000000   0.000000
    9  O  1  X   -0.000000  -0.000000   0.000000   1.702502   0.000000
   10  O  1  Y    3.038548   2.413729   0.000000  -0.000000   1.635805
   11  O  1  Z   -0.000000  -0.000000   0.000000  -0.000000   0.000000
   12  O  1  X   -0.000000  -0.000000   0.000000   6.990658   0.000000
   13  O  1  Y   -2.527805   5.217448   0.000000  -0.000000   4.933778
   14  O  1  Z   -0.000000  -0.000000   0.000000  -0.000000   0.000000
   15  O  1 XX   -0.000000  -0.000000   0.000000  -0.000000   0.000000
   16  O  1 YY   -0.000000  -0.000000   0.000000  -0.000000   0.000000
   17  O  1 ZZ   -0.000000  -0.000000   0.000000  -0.000000   0.000000
   18  O  1 XY   -0.000000  -0.000000  -0.016729  -0.000000   0.000000
   19  O  1 XZ   -0.000000  -0.000000   0.000000  -0.000753   0.000000
   20  O  1 YZ    0.012519  -0.026968   0.000000  -0.000000  -0.010253
   21  O  1 XX   -0.000000  -0.000000   0.000000  -0.000000   0.000000
   22  O  1 YY   -0.000000  -0.000000   0.000000  -0.000000   0.000000
   23  O  1 ZZ   -0.000000  -0.000000   0.000000  -0.000000   0.000000
   24  O  1 XY   -0.000000  -0.000000  -0.139087  -0.000000   0.000000
   25  O  1 XZ   -0.000000  -0.000000   0.000000  -1.978769   0.000000
   26  O  1 YZ   -1.081510  -3.433135   0.000000  -0.000000   0.421473
   27  O  2  S   -0.011171  -0.006309   0.000000  -0.000000  -0.001942
   28  O  2  S   -0.021729  -0.008878   0.000000  -0.000000  -0.003686
   29  O  2  S   -0.073854  -0.113011   0.000000  -0.000000  -0.017787
   30  O  2  S    1.594775   2.340447   0.000000  -0.000000   0.288806
   31  O  2  S    2.400711   4.730914   0.000000  -0.000000   2.533573
   32  O  2  X   -0.000000  -0.000000   0.034947  -0.118967   0.000000
   33  O  2  Y    0.047124  -0.022519   0.000000  -0.000000  -0.087258
   34  O  2  Z    0.052353  -0.141212   0.000000  -0.000000   0.312456
   35  O  2  X   -0.000000  -0.000000  -0.125610  -0.785701   0.000000
   36  O  2  Y    1.587466   1.653445   0.000000  -0.000000   0.406669
   37  O  2  Z    0.828582   0.659541   0.000000  -0.000000   0.252521
   38  O  2  X   -0.000000  -0.000000   1.479941  -3.530469   0.000000
   39  O  2  Y    1.901884  -1.056945   0.000000  -0.000000  -1.707469
   40  O  2  Z   -0.028982  -0.213735   0.000000  -0.000000   3.515617
   41  O  2 XX   -0.007067  -0.002644   0.000000  -0.000000   0.005677
   42  O  2 YY    0.003587  -0.010243   0.000000  -0.000000   0.000685
   43  O  2 ZZ    0.003480   0.012887   0.000000  -0.000000  -0.006361
   44  O  2 XY   -0.000000  -0.000000  -0.015032   0.029327   0.000000
   45  O  2 XZ   -0.000000  -0.000000   0.009278   0.001538   0.000000
   46  O  2 YZ   -0.002414  -0.016536   0.000000  -0.000000  -0.015873
   47  O  2 XX   -0.263759   0.614702   0.000000  -0.000000   0.087066
   48  O  2 YY    1.171174  -0.093609   0.000000  -0.000000  -1.179955
   49  O  2 ZZ   -0.907415  -0.521093   0.000000  -0.000000   1.092889
   50  O  2 XY   -0.000000  -0.000000   1.435987  -1.658796   0.000000
   51  O  2 XZ   -0.000000  -0.000000  -0.116803  -0.943810   0.000000
   52  O  2 YZ    1.320744   0.206867   0.000000  -0.000000   1.406340
   53  O  3  S    0.011171   0.006309   0.000000  -0.000000   0.001942
   54  O  3  S    0.021729   0.008878   0.000000  -0.000000   0.003686
   55  O  3  S    0.073854   0.113011   0.000000  -0.000000   0.017787
   56  O  3  S   -1.594775  -2.340447   0.000000  -0.000000  -0.288806
   57  O  3  S   -2.400711  -4.730914   0.000000  -0.000000  -2.533573
   58  O  3  X   -0.000000  -0.000000  -0.034947  -0.118967   0.000000
   59  O  3  Y    0.047124  -0.022519   0.000000  -0.000000  -0.087258
   60  O  3  Z   -0.052353   0.141212   0.000000  -0.000000  -0.312456
   61  O  3  X   -0.000000  -0.000000   0.125610  -0.785701   0.000000
   62  O  3  Y    1.587466   1.653445   0.000000  -0.000000   0.406669
   63  O  3  Z   -0.828582  -0.659541   0.000000  -0.000000  -0.252521
   64  O  3  X   -0.000000  -0.000000  -1.479941  -3.530469   0.000000
   65  O  3  Y    1.901884  -1.056945   0.000000  -0.000000  -1.707469
   66  O  3  Z    0.028982   0.213735   0.000000  -0.000000  -3.515617
   67  O  3 XX    0.007067   0.002644   0.000000  -0.000000  -0.005677
   68  O  3 YY   -0.003587   0.010243   0.000000  -0.000000  -0.000685
   69  O  3 ZZ   -0.003480  -0.012887   0.000000  -0.000000   0.006361
   70  O  3 XY   -0.000000  -0.000000  -0.015032  -0.029327   0.000000
   71  O  3 XZ   -0.000000  -0.000000  -0.009278   0.001538   0.000000
   72  O  3 YZ   -0.002414  -0.016536   0.000000  -0.000000  -0.015873
   73  O  3 XX    0.263759  -0.614702   0.000000  -0.000000  -0.087066
   74  O  3 YY   -1.171174   0.093609   0.000000  -0.000000   1.179955
   75  O  3 ZZ    0.907415   0.521093   0.000000  -0.000000  -1.092889
   76  O  3 XY   -0.000000  -0.000000   1.435987   1.658796   0.000000
   77  O  3 XZ   -0.000000  -0.000000   0.116803  -0.943810   0.000000
   78  O  3 YZ    1.320744   0.206867   0.000000  -0.000000   1.406340

                     41         42         43         44         45
                    0.9414     0.9761     0.9834     1.0848     1.1876
                     A2         A1         B1         A1         A2  
    1  O  1  S   -0.000000  -0.004713   0.000000  -0.013979   0.000000
    2  O  1  S   -0.000000  -0.007091   0.000000  -0.033530   0.000000
    3  O  1  S   -0.000000  -0.083785   0.000000   0.026343   0.000000
    4  O  1  S   -0.000000   0.898277   0.000000   0.297617   0.000000
    5  O  1  S   -0.000000   5.671253   0.000000  10.320675   0.000000
    6  O  1  X   -0.000000   0.000000  -0.565886   0.000000   0.000000
    7  O  1  Y   -0.000000   0.000000   0.000000   0.000000   0.000000
    8  O  1  Z   -0.000000   0.131004   0.000000   0.404750   0.000000
    9  O  1  X   -0.000000   0.000000   1.053318   0.000000   0.000000
   10  O  1  Y   -0.000000   0.000000   0.000000   0.000000   0.000000
   11  O  1  Z   -0.000000  -0.367279   0.000000  -0.576281   0.000000
   12  O  1  X   -0.000000   0.000000   0.299805   0.000000   0.000000
   13  O  1  Y   -0.000000   0.000000   0.000000   0.000000   0.000000
   14  O  1  Z   -0.000000   3.049549   0.000000   3.652229   0.000000
   15  O  1 XX   -0.000000  -0.012188   0.000000   0.068308   0.000000
   16  O  1 YY   -0.000000  -0.014063   0.000000  -0.036500   0.000000
   17  O  1 ZZ   -0.000000   0.026251   0.000000  -0.031807   0.000000
   18  O  1 XY   -0.038831   0.000000   0.000000   0.000000   0.033814
   19  O  1 XZ   -0.000000   0.000000   0.043467   0.000000   0.000000
   20  O  1 YZ   -0.000000   0.000000   0.000000   0.000000   0.000000
   21  O  1 XX   -0.000000  -0.742713   0.000000  -1.677336   0.000000
   22  O  1 YY   -0.000000   2.891846   0.000000   4.814646   0.000000
   23  O  1 ZZ   -0.000000  -2.149133   0.000000  -3.137310   0.000000
   24  O  1 XY    3.835267   0.000000   0.000000   0.000000   3.421998
   25  O  1 XZ   -0.000000   0.000000  -0.264763   0.000000   0.000000
   26  O  1 YZ   -0.000000   0.000000   0.000000   0.000000   0.000000
   27  O  2  S   -0.000000   0.003958   0.000000   0.014952   0.000000
   28  O  2  S   -0.000000   0.006030   0.000000   0.040172   0.000000
   29  O  2  S   -0.000000   0.066910   0.000000  -0.082331   0.000000
   30  O  2  S   -0.000000  -1.291203   0.000000  -1.805289   0.000000
   31  O  2  S   -0.000000  -2.573412   0.000000  -4.538948   0.000000
   32  O  2  X    0.362832   0.000000  -0.529900   0.000000  -0.562930
   33  O  2  Y   -0.000000   0.373085   0.000000  -0.271395   0.000000
   34  O  2  Z   -0.000000  -0.380335   0.000000   0.199865   0.000000
   35  O  2  X    1.059045   0.000000   0.510963   0.000000   2.441155
   36  O  2  Y   -0.000000  -0.827742   0.000000   0.217536   0.000000
   37  O  2  Z   -0.000000  -0.836873   0.000000  -2.504033   0.000000
   38  O  2  X    3.265637   0.000000  -0.539550   0.000000   2.400462
   39  O  2  Y   -0.000000   1.157126   0.000000   0.834476   0.000000
   40  O  2  Z   -0.000000  -2.201841   0.000000  -2.626393   0.000000
   41  O  2 XX   -0.000000   0.016691   0.000000   0.023790   0.000000
   42  O  2 YY   -0.000000  -0.017611   0.000000  -0.035399   0.000000
   43  O  2 ZZ   -0.000000   0.000920   0.000000   0.011609   0.000000
   44  O  2 XY    0.003741   0.000000  -0.022259   0.000000  -0.026988
   45  O  2 XZ   -0.023477   0.000000  -0.018093   0.000000  -0.026696
   46  O  2 YZ   -0.000000  -0.010826   0.000000  -0.034845   0.000000
   47  O  2 XX   -0.000000   0.104671   0.000000   0.338016   0.000000
   48  O  2 YY   -0.000000   0.811466   0.000000   0.921342   0.000000
   49  O  2 ZZ   -0.000000  -0.916137   0.000000  -1.259357   0.000000
   50  O  2 XY    1.183697   0.000000  -0.257935   0.000000   1.398301
   51  O  2 XZ    1.384697   0.000000  -0.076315   0.000000   1.200888
   52  O  2 YZ   -0.000000  -0.454883   0.000000  -0.334326   0.000000
   53  O  3  S   -0.000000   0.003958   0.000000   0.014952   0.000000
   54  O  3  S   -0.000000   0.006030   0.000000   0.040172   0.000000
   55  O  3  S   -0.000000   0.066910   0.000000  -0.082331   0.000000
   56  O  3  S   -0.000000  -1.291203   0.000000  -1.805289   0.000000
   57  O  3  S   -0.000000  -2.573412   0.000000  -4.538948   0.000000
   58  O  3  X   -0.362832   0.000000  -0.529900   0.000000   0.562930
   59  O  3  Y   -0.000000  -0.373085   0.000000   0.271395   0.000000
   60  O  3  Z   -0.000000  -0.380335   0.000000   0.199865   0.000000
   61  O  3  X   -1.059045   0.000000   0.510963   0.000000  -2.441155
   62  O  3  Y   -0.000000   0.827742   0.000000  -0.217536   0.000000
   63  O  3  Z   -0.000000  -0.836873   0.000000  -2.504033   0.000000
   64  O  3  X   -3.265637   0.000000  -0.539550   0.000000  -2.400462
   65  O  3  Y   -0.000000  -1.157126   0.000000  -0.834476   0.000000
   66  O  3  Z   -0.000000  -2.201841   0.000000  -2.626393   0.000000
   67  O  3 XX   -0.000000   0.016691   0.000000   0.023790   0.000000
   68  O  3 YY   -0.000000  -0.017611   0.000000  -0.035399   0.000000
   69  O  3 ZZ   -0.000000   0.000920   0.000000   0.011609   0.000000
   70  O  3 XY    0.003741   0.000000   0.022259   0.000000  -0.026988
   71  O  3 XZ    0.023477   0.000000  -0.018093   0.000000   0.026696
   72  O  3 YZ   -0.000000   0.010826   0.000000   0.034845   0.000000
   73  O  3 XX   -0.000000   0.104671   0.000000   0.338016   0.000000
   74  O  3 YY   -0.000000   0.811466   0.000000   0.921342   0.000000
   75  O  3 ZZ   -0.000000  -0.916137   0.000000  -1.259357   0.000000
   76  O  3 XY    1.183697   0.000000   0.257935   0.000000   1.398301
   77  O  3 XZ   -1.384697   0.000000  -0.076315   0.000000  -1.200888
   78  O  3 YZ   -0.000000   0.454883   0.000000   0.334326   0.000000

                     46         47         48         49         50
                    1.2430     1.2507     1.2572     1.3320     1.3446
                     B2         B1         A1         B2         A1  
    1  O  1  S   -0.000000  -0.000000  -0.009553  -0.000000  -0.007657
    2  O  1  S   -0.000000  -0.000000  -0.020256  -0.000000  -0.032103
    3  O  1  S   -0.000000  -0.000000  -0.112137  -0.000000   0.298479
    4  O  1  S   -0.000000  -0.000000   3.760429  -0.000000  -1.563435
    5  O  1  S   -0.000000  -0.000000  13.587989  -0.000000  -4.484150
    6  O  1  X   -0.000000  -0.657519   0.000000  -0.000000  -0.000000
    7  O  1  Y   -0.490792  -0.000000   0.000000  -0.325738  -0.000000
    8  O  1  Z   -0.000000  -0.000000  -0.047362  -0.000000  -0.732700
    9  O  1  X   -0.000000   4.008100   0.000000  -0.000000  -0.000000
   10  O  1  Y    7.730203  -0.000000   0.000000   1.863992  -0.000000
   11  O  1  Z   -0.000000  -0.000000  -1.364115  -0.000000   5.753886
   12  O  1  X   -0.000000   4.651533   0.000000  -0.000000  -0.000000
   13  O  1  Y    4.650766  -0.000000   0.000000   0.473932  -0.000000
   14  O  1  Z   -0.000000  -0.000000  -0.321721  -0.000000   7.717661
   15  O  1 XX   -0.000000  -0.000000  -0.159130  -0.000000  -0.021291
   16  O  1 YY   -0.000000  -0.000000   0.183471  -0.000000   0.042775
   17  O  1 ZZ   -0.000000  -0.000000  -0.024341  -0.000000  -0.021484
   18  O  1 XY   -0.000000  -0.000000   0.000000  -0.000000  -0.000000
   19  O  1 XZ   -0.000000  -0.004244   0.000000  -0.000000  -0.000000
   20  O  1 YZ   -0.098897  -0.000000   0.000000   0.017717  -0.000000
   21  O  1 XX   -0.000000  -0.000000  -0.079489  -0.000000  -0.254799
   22  O  1 YY   -0.000000  -0.000000   0.866667  -0.000000   5.039556
   23  O  1 ZZ   -0.000000  -0.000000  -0.787178  -0.000000  -4.784757
   24  O  1 XY   -0.000000  -0.000000   0.000000  -0.000000  -0.000000
   25  O  1 XZ   -0.000000  -2.041466   0.000000  -0.000000  -0.000000
   26  O  1 YZ   -1.059520  -0.000000   0.000000  -3.035692  -0.000000
   27  O  2  S   -0.013987  -0.000000  -0.002429  -0.004088  -0.007412
   28  O  2  S   -0.030994  -0.000000  -0.016882  -0.009824  -0.020684
   29  O  2  S   -0.062090  -0.000000   0.219478  -0.013511   0.038256
[...]
 MEMORY USAGE BY      DENR3:    526353 NEEDED,   9999931 AVAILABLE
 MEMORY USAGE BY     DENCI3:    522603 NEEDED,   9999931 AVAILABLE
 MEMORY USAGE BY      EXTIB:    875340 NEEDED,   9999931 AVAILABLE
 MEMORY USAGE BY   DAVIDSON:   3375691 NEEDED,   9999931 AVAILABLE

       RESULTS  OF  THE  EOM-CCSD   ITERATIONS

 SOLVING FOR ROOT NUMBER    1 ...
         TOT        EXCITATION ENERGY          AMPLITUDE
    ITR  ITR      HARTREE         EV          CONVERGENCE
     1    1    0.435912930   11.861799226    0.462095028
     2    2    0.370240274   10.074754586    0.355233239
     3    3    0.344066874    9.362539848    0.057865178
     4    4    0.342729803    9.326156287    0.031331923
     5    5    0.341418696    9.290479238    0.019938408
     6    6    0.340879391    9.275804006    0.025449370
     7    7    0.340029743    9.252683892    0.029776536
     8    8    0.338154385    9.201652790    0.031174670
     9    9    0.336669481    9.161246475    0.021152086
    10   10    0.335724230    9.135524881    0.029403155
    11   11    0.335247138    9.122542518    0.019952450
    12   12    0.333879818    9.085335852    0.023248752
    13   13    0.333589691    9.077441086    0.014902685
    14   14    0.333272079    9.068798410    0.007916301
    15   15    0.333177329    9.066220145    0.003636134
    16   16    0.333199292    9.066817793    0.003719179
    17   17    0.333178437    9.066250275    0.001822917
    18   18    0.333185595    9.066445054    0.001601161
    19   19    0.333185289    9.066436735    0.000916444
    20   20    0.333181526    9.066334343    0.000780987
    21   21    0.333180607    9.066309342    0.000543735
    22   22    0.333181507    9.066333814    0.000370986
    23   23    0.333183275    9.066381924    0.000284619
    24   24    0.333184398    9.066412508    0.000144484
    25   25    0.333185359    9.066438654    0.000086312
 SYMMETRY OF THE STATE: A1 
 THE LARGEST R1 AND R2 AMPLITUDES FOR THIS ROOT ARE
 R1=  -0.3674144085 FOR   I -> A   =    9   13
 R1=   0.0631919763 FOR   I -> A   =   10   14
 R1=  -0.2141212062 FOR   I -> A   =   11   15
 R1=  -0.1372255679 FOR   I -> A   =   11   16
 R1=  -0.1509762182 FOR   I -> A   =   11   18
 R1=  -0.3690820445 FOR   I -> A   =   11   24
 R1=  -0.0542631656 FOR   I -> A   =    8   25
 R1=   0.0594913247 FOR   I -> A   =   10   25
 R1=  -0.1126572800 FOR   I -> A   =   11   29
 R2=   0.0929331601 FOR I,J -> A,B =    9    9   13   13
 R2=  -0.3686359262 FOR I,J -> A,B =   12   12   13   13
 GROUND STATE'S WEIGHT R0 =   -0.1589091439
 REL DIAGNOSTIC (R1*R1 + 2*R2*R2):    1.208
 THE TOTAL ENERGY OF ROOT   1 IS E(EOM-CCSD) =     -224.6261919238

 SOLVING FOR ROOT NUMBER    2 ...
         TOT        EXCITATION ENERGY          AMPLITUDE
    ITR  ITR      HARTREE         EV          CONVERGENCE
     1   26    0.362220886    9.856535850    0.025028998
     2   27    0.361665757    9.841430016    0.021914829
     3   28    0.361174236    9.828055055    0.013926228
     4   29    0.360984860    9.822901878    0.012894701
     5   30    0.360854230    9.819347241    0.007571928
     6   31    0.360810862    9.818167142    0.005334988
     7   32    0.360811974    9.818197401    0.002544377
     8   33    0.360804844    9.818003374    0.001417812
     9   34    0.360803828    9.817975728    0.000774171
    10   35    0.360801938    9.817924301    0.000399058
    11   36    0.360798872    9.817840875    0.000422791
    12   37    0.360753829    9.816615178    0.002671849
    13   38    0.360808487    9.818102520    0.000302907
    14   39    0.360806968    9.818061189    0.000171446
    15   40    0.360811183    9.818175886    0.000164556
    16   41    0.360772614    9.817126369    0.000632073
    17   42    0.360801077    9.817900877    0.000071711
 SYMMETRY OF THE STATE: A1 
 THE LARGEST R1 AND R2 AMPLITUDES FOR THIS ROOT ARE
 R1=   0.1309148541 FOR   I -> A   =    9   13
 R1=  -0.0925334906 FOR   I -> A   =   11   15
 R1=  -0.0625744859 FOR   I -> A   =   11   24
 R2=  -0.0661586438 FOR I,J -> A,B =   11    7   13   13
 R2=   0.1237274754 FOR I,J -> A,B =   10    8   13   13
 R2=   0.1237274754 FOR I,J -> A,B =    8   10   13   13
 R2=  -0.5144910394 FOR I,J -> A,B =   10   10   13   13
 R2=   0.0643498258 FOR I,J -> A,B =   10   10   17   13
 R2=   0.0643496761 FOR I,J -> A,B =   10   10   13   17
 R2=  -0.0661932193 FOR I,J -> A,B =    7   11   13   13
 R2=   0.7309321476 FOR I,J -> A,B =   11   11   13   13
 R2=  -0.0728006837 FOR I,J -> A,B =   11   11   17   13
 R2=  -0.0728006837 FOR I,J -> A,B =   11   11   13   17
 R2=   0.1587237867 FOR I,J -> A,B =   12   12   13   13
 GROUND STATE'S WEIGHT R0 =    0.0413608151
 REL DIAGNOSTIC (R1*R1 + 2*R2*R2):    1.925
 THE TOTAL ENERGY OF ROOT   2 IS E(EOM-CCSD) =     -224.5985762060

 SOLVING FOR ROOT NUMBER    3 ...
         TOT        EXCITATION ENERGY          AMPLITUDE
    ITR  ITR      HARTREE         EV          CONVERGENCE
     1   43    0.333186774    9.066477150    0.000041445
 SYMMETRY OF THE STATE: A1 
 THE LARGEST R1 AND R2 AMPLITUDES FOR THIS ROOT ARE
 R1=   0.3674111618 FOR   I -> A   =    9   13
 R1=  -0.0633468251 FOR   I -> A   =   10   14
 R1=   0.2141181185 FOR   I -> A   =   11   15
 R1=   0.1371385148 FOR   I -> A   =   11   16
 R1=   0.1509751656 FOR   I -> A   =   11   18
 R1=   0.3690703822 FOR   I -> A   =   11   24
 R1=   0.0542833938 FOR   I -> A   =    8   25
 R1=  -0.0596185476 FOR   I -> A   =   10   25
 R1=   0.1126515750 FOR   I -> A   =   11   29
 R2=  -0.0929348672 FOR I,J -> A,B =    9    9   13   13
 R2=   0.3686337029 FOR I,J -> A,B =   12   12   13   13
 GROUND STATE'S WEIGHT R0 =    0.1588681991
 REL DIAGNOSTIC (R1*R1 + 2*R2*R2):    1.208
 THE TOTAL ENERGY OF ROOT   3 IS E(EOM-CCSD) =     -224.6261905090


               ---- SUMMARY OF EOM-CCSD CALCULATIONS ----

                 EXCITATION      EXCITATION      TOTAL
    SYMMETRY     ENERGY (H)      ENERGY (EV)     ENERGY (H)          ITERATIONS
       A1        0.33318536         9.066      -224.62619192          CONVERGED
       A1        0.33318677         9.066      -224.62619051          CONVERGED
       A1        0.36080108         9.818      -224.59857621          CONVERGED
  
 ..... DONE WITH EOM-CCSD .....
 STEP CPU TIME =    77.91 TOTAL CPU TIME =      135.3 (    2.3 MIN)
 TOTAL WALL CLOCK TIME=      135.8 SECONDS, CPU UTILIZATION IS  99.69%

 EOM-CCSD HAS FINISHED, NOW ENTERING THE MMCC23 PROGRAM
 TO COMPUTE CR-EOMCCSD(T) AND/OR CR-CC(2,3) TRIPLES CORRECTIONS

 -----------------------------------     ------------------------------
 MMCC(2,3) METHOD OF MOMENTS PROGRAM     K.KOWALSKI, M.WLOCH, P.PIECUCH
 -----------------------------------     ------------------------------

 INITIAL VECTORS FOR CISD ARE GENERATED BY THE CISd METHOD
 ACTIVE ORBITALS FOR DOUBLES ARE OCC=   6 VIRT=   5
 MEMORY FOR INITIAL GUESS CI IS   7256762 WORDS
 THE EOM-CCSD POINT GROUP IS C2V
 SIZE OF THE INITIAL GUESS HAMILTONIAN WITHIN A1  SYMMETRY IS   294
 INITIAL GUESS HAS FOUND  4 CI STARTING VECTORS OF A1  SYMMETRY
 ORDERING OF THE INITIAL EIGENVALUES WAS SUCCESSFUL
 INITIAL EIGENVALUES OF A1  SYMMETRY:
            -0.0709874702
             0.1086728104
             0.2051879358
             0.2564870988
 CPU TIME FOR INITIAL GUESS OF CI STATES IS       0.3

 CHOOSING ONE ROOT AT A TIME CISD SOLVER (MCI=1) ...
     DIMENSION OF CISD ITERATIVE SPACE:  80
                 CONVERGENCE THRESHOLD:  1.00E-04
      NUMBER OF CISD ROOTS TO BE FOUND:   4
 CISD METHOD 1 MEMORY NEEDED IS   3708667 WORDS


 ITER MICRO  MAX CI CHANGE    CISD CORRELATION ENERGY
   1    1     1.4188646    -0.0744427060
   1    2     0.3075450    -0.4975147139
   1    3     0.1037678    -0.5457263447
   1    4     0.0374153    -0.5506236499
   1    5     0.0134208    -0.5511443458
   1    6     0.0038225    -0.5512092777
   1    7     0.0009921    -0.5512142058
   1    8     0.0002541    -0.5512145145
   1    9     0.0000734    -0.5512145373
 CISD CONVERGED, THE CISD ENERGY FOR STATE  1 =     -224.8786449668

 ITER MICRO  MAX CI CHANGE    CISD CORRELATION ENERGY
   1    1     0.2866675     0.1086715436
   1    2     0.0874843     0.0668705608
   1    3     0.9672795     0.0525666346
   1    4     0.2150508     0.0701235240
   1    5     0.0321730     0.0626406336
   1    6     0.0148325     0.0620963139
   1    7     0.0094415     0.0619529783
   1    8     0.0062166     0.0618939827
   1    9     0.0051626     0.0618613969
   1   10     0.0030435     0.0618442513
   1   11     0.0017330     0.0618389648
   1   12     0.0012433     0.0618366179
   1   13     0.0007408     0.0618356155
   1   14     0.0006218     0.0618351555
   1   15     0.0006757     0.0618346911
   1   16     0.0004428     0.0618343575
   1   17     0.0002497     0.0618342362
   1   18     0.0001469     0.0618341973
   1   19     0.0000966     0.0618341825
 CISD CONVERGED, THE CISD ENERGY FOR STATE  2 =     -224.2655962470

 ITER MICRO  MAX CI CHANGE    CISD CORRELATION ENERGY
   1    1     0.6077268     0.2053924187
   1    2     0.2041074     0.0941408016
   1    3     0.4496527     0.1505991499
   1    4     0.0979230     0.1138424433
   1    5     0.0493984     0.1080738458
   1    6     0.0225852     0.1066427419
   1    7     0.0135125     0.1063078875
   1    8     0.0098831     0.1061665838
   1    9     0.0088504     0.1060708561
   1   10     0.0084826     0.1059890740
   1   11     0.0082120     0.1059145650
   1   12     0.0135357     0.1057994975
   1   13     0.1182585     0.1036814790
   1   14     0.0135191     0.1061686176
   1   15     0.0053432     0.1060806044
   1   16     0.0025035     0.1060652544
   1   17     0.0012401     0.1060618485
   1   18     0.0006572     0.1060609584
   1   19     0.0004219     0.1060606689
   1   20     0.0003320     0.1060605153
   1   21     0.0002420     0.1060604248
   1   22     0.0001529     0.1060603831
   1   23     0.0001149     0.1060603647
   1   24     0.0000981     0.1060603523
 CISD CONVERGED, THE CISD ENERGY FOR STATE  3 =     -224.2213700773

 ITER MICRO  MAX CI CHANGE    CISD CORRELATION ENERGY
   1    1     0.3162936     0.2565712143
   1    2     0.1094339     0.2035492055
   1    3     0.1091579     0.2035492331
   1    4     0.1268298     0.2034801878
   1    5     0.0468960     0.1970882321
   1    6     0.0353323     0.1955374085
   1    7     0.1303242     0.1906753288
   1    8     0.0518936     0.1989972027
   1    9     0.0205360     0.1978427546
   1   10     0.0156003     0.1975122119
   1   11     0.0201666     0.1971926928
   1   12     0.0458952     0.1962540136
   1   13     0.0445756     0.1983655485
   1   14     0.0148530     0.1976332099
   1   15     0.0108908     0.1974737280
   1   16     0.0155770     0.1973050633
   1   17     0.0308749     0.1968052139
   1   18     0.0710986     0.1996636282
   1   19     0.0204104     0.1981174901
   1   20     0.0137670     0.1978352561
   1   21     0.0104253     0.1976820954
   1   22     0.0069181     0.1976012527
   1   23     0.0038477     0.1975708437
   1   24     0.0024605     0.1975602428
   1   25     0.0015284     0.1975559410
   1   26     0.0010461     0.1975541674
   1   27     0.0007490     0.1975533043
   1   28     0.0005029     0.1975528658
   1   29     0.0003429     0.1975526719
   1   30     0.0002037     0.1975525906
   1   31     0.0001079     0.1975525651
   1   32     0.0000616     0.1975525575
 CISD CONVERGED, THE CISD ENERGY FOR STATE  4 =     -224.1298778721
 CPU TIME TO GENERATE CISD STATES IS     323.5

 EOM-CCSD EXCITATION ENERGIES BEFORE ORDERING
       ENERGY     R0 AMPLITUDE   SYMMETRY
     0.333185     -0.158909        A1 
     0.360801      0.041361        A1 
     0.333187      0.158868        A1 
 EOM-CCSD EXCITATION ENERGIES AFTER SORTING, AND ELIMINATING ANY DEGENERACIES
     0.333185     -0.158909        A1 
     0.360801      0.041361        A1 
   EOM-CCSD STATE      -->   CISD STATE    MAPPINGS ARE
   SORTED    ORIG              ORIG
    1 A1       2    ------>      3
    2 A1       3    ------>      2

 OVERLAP MATRIX <CISD|EOMCCSD> BETWEEN STATES.
 CISD STATES ARE ROWS, GROUND STATE CCSD IS COLUMN 1
 REORDERED EOM-CCSD STATES ARE COLUMNS 2-  3

             1           2           3

    1    0.9927086  -0.0908274   0.0221757
    2    0.0017460   0.0101942  -0.9196396
    3    0.0818485   0.7081224  -0.3032222
    4    0.0044529   0.0198356   0.0480712

 A TOTAL OF  3 STATES WILL BE TRIPLES CORRECTED

 BEGINNING TRIPLES CORRECTION FOR STATE  0
 MEMORY REQUIRED FOR   XINTQUA=     4732020
 MEMORY REQUIRED FOR  XINTRIPL=     4688820
 MEMORY REQUIRED FOR   XINTRIH=     2875500
 MEMORY REQUIRED FOR    DEN12N=      876421 MTRIP= 2
 MEMORY REQUIRED FOR   XT3WT2N=     8162313 MTRIP= 2

 GROUND STATE CCSD TOTAL ENERGY=                               -224.9593772831
 GROUND STATE CR-CCSD(T)IA  CORRECTION -0.021724, TOTAL E=     -224.9811015106
 GROUND STATE CR-CCSD(T)IB  CORRECTION -0.019534, TOTAL E=     -224.9789112009
 GROUND STATE CR-CCSD(T)IC  CORRECTION -0.026272, TOTAL E=     -224.9856491273
 GROUND STATE CR-CCSD(T)ID  CORRECTION -0.025902, TOTAL E=     -224.9852791675
 GROUND STATE CR-CCSD(T)IIA CORRECTION -0.024680, TOTAL E=     -224.9840572544
 GROUND STATE CR-CCSD(T)IIB CORRECTION -0.022481, TOTAL E=     -224.9818580463
 GROUND STATE CR-CCSD(T)IIC CORRECTION -0.029246, TOTAL E=     -224.9886232729
 GROUND STATE CR-CCSD(T)IID CORRECTION -0.028875, TOTAL E=     -224.9882517940
 GROUND STATE CR-CCSD(T)III CORRECTION -0.023301, TOTAL E=     -224.9826779911
 CPU TIME FOR TRIPLES CORRECTION FOR THIS STATE=      43.5

 BEGINNING TRIPLES CORRECTION FOR STATE  1
 MEMORY REQUIRED FOR   XINTQUA=     4732020
 MEMORY REQUIRED FOR  XINTRIPL=     4688820
 MEMORY REQUIRED FOR   XINTRIH=     2875500
 MEMORY REQUIRED FOR    DEN12N=      876421 MTRIP= 2
 MEMORY REQUIRED FOR   XT3WT2N=     8162313 MTRIP= 2

 SYMMETRY OF THE EXCITED STATE: A1 
 TOTAL EOM-CCSD ENERGY              -224.6261919238 HARTREE
 CR-EOMCCSD(T)IA  TOTAL ENERGY      -224.6492389669 HARTREE
 CR-EOMCCSD(T)IB  TOTAL ENERGY      -224.6459392362 HARTREE
 CR-EOMCCSD(T)IC  TOTAL ENERGY      -224.6557679244 HARTREE
 CR-EOMCCSD(T)ID  TOTAL ENERGY      -224.6549763794 HARTREE
 CR-EOMCCSD(T)IIA TOTAL ENERGY      -224.6589626859 HARTREE
 CR-EOMCCSD(T)IIB TOTAL ENERGY      -224.6552098814 HARTREE
 CR-EOMCCSD(T)IIC TOTAL ENERGY      -224.6663902964 HARTREE
 CR-EOMCCSD(T)IID TOTAL ENERGY      -224.6654881832 HARTREE
 CR-EOMCCSD(T)III TOTAL ENERGY      -224.6861779975 HARTREE
 CPU TIME FOR TRIPLES CORRECTION FOR THIS STATE=      39.5

 BEGINNING TRIPLES CORRECTION FOR STATE  2
 MEMORY REQUIRED FOR   XINTQUA=     4732020
 MEMORY REQUIRED FOR  XINTRIPL=     4688820
 MEMORY REQUIRED FOR   XINTRIH=     2875500
 MEMORY REQUIRED FOR    DEN12N=      876421 MTRIP= 2
 MEMORY REQUIRED FOR   XT3WT2N=     8162313 MTRIP= 2

 SYMMETRY OF THE EXCITED STATE: A1 
 TOTAL EOM-CCSD ENERGY              -224.5985762060 HARTREE
 CR-EOMCCSD(T)IA  TOTAL ENERGY      -224.7400891810 HARTREE
 CR-EOMCCSD(T)IB  TOTAL ENERGY      -224.7249133644 HARTREE
 CR-EOMCCSD(T)IC  TOTAL ENERGY      -224.7817117761 HARTREE
 CR-EOMCCSD(T)ID  TOTAL ENERGY      -224.7810359792 HARTREE
 CR-EOMCCSD(T)IIA TOTAL ENERGY      -224.7418580331 HARTREE
 CR-EOMCCSD(T)IIB TOTAL ENERGY      -224.7263234489 HARTREE
 CR-EOMCCSD(T)IIC TOTAL ENERGY      -224.7844656238 HARTREE
 CR-EOMCCSD(T)IID TOTAL ENERGY      -224.7837738911 HARTREE
 CR-EOMCCSD(T)III TOTAL ENERGY      -224.7980081106 HARTREE
 CPU TIME FOR TRIPLES CORRECTION FOR THIS STATE=      39.5

       SUMMARY OF CR-EOMCCSD(T) RESULTS FOR ALL STATES
       EXCITATION ENERGIES IN EV, 1 H = 27.211396 EV

 STATE    EOMCCSD   ID/IA     IID/IA    ID/IB     IID/IB    III      (T)/R
   A1     9.066     8.874     8.588     8.815     8.529     8.068     8.168
   A1     9.818     5.444     5.370     5.384     5.310     5.025     5.912

        EXCITATION ENERGIES (IN EV; 1 H = 27.2113957 EV)
               DELTA-CR-EOMCCSD(T) METHODS

   STATE  EOMCCSD DEL(IA) DEL(IB)  DEL(IC)  DEL(ID)  DEL(IIA) DEL(IIB) DEL(III)
                                                     DEL(IIC) DEL(IID)
   A1     9.066    8.439    8.529    8.262    8.283    8.175    8.277    7.434
                                                       7.973    7.997
   A1     9.818    5.967    6.380    4.835    4.853    5.919    6.342    4.391
                                                       4.760    4.778

       IF DEGENERATE STATES OF DIFFERENT SYMMETRIES
       ARE CALCULATED IN A SINGLE EOM-CCSD RUN, ONLY ONE
       OF THESE TWO STATES WILL BE LISTED HERE; IN ORDER
       TO SEE THE CR-EOMCCSD(T) ENERGIES OF ALL DEGENERATE
       STATES, YOU MUST RUN CALCULATIONS FOR DIFFERENT
       SYMMETRIES SEPARATELY.

 .... DONE WITH MMCC(2,3) TRIPLES CORRECTIONS ....
 STEP CPU TIME =   446.36 TOTAL CPU TIME =      581.7 (    9.7 MIN)
 TOTAL WALL CLOCK TIME=      582.2 SECONDS, CPU UTILIZATION IS  99.91%
              9966069  WORDS OF DYNAMIC MEMORY USED
 EXECUTION OF GAMESS TERMINATED NORMALLY Wed Aug  9 21:05:54 2017
 DDI: 263640 bytes (0.3 MB / 0 MWords) used by master data server.

 ----------------------------------------
 CPU timing information for all processes
 ========================================
 0: 574.156 + 7.543 = 581.700
 ----------------------------------------
 ddikick.x: exited gracefully.
unset echo
----- accounting info -----
Files used on the master node compute-0-1.local were:
-rw-rw-r-- 1 sarom sarom  4.2K Aug  9 20:56 /scratch/eom-creom-ozone.F05
-rw-rw-r-- 1 sarom sarom   13M Aug  9 20:56 /scratch/eom-creom-ozone.F08
-rw-rw-r-- 1 sarom sarom  8.8M Aug  9 20:56 /scratch/eom-creom-ozone.F09
-rw-rw-r-- 1 sarom sarom  1.6M Aug  9 21:05 /scratch/eom-creom-ozone.F10
-rw-rw-r-- 1 sarom sarom  1.5M Aug  9 21:05 /scratch/eom-creom-ozone.F70
-rw-rw-r-- 1 sarom sarom   23M Aug  9 20:57 /scratch/eom-creom-ozone.F71
-rw-rw-r-- 1 sarom sarom  277M Aug  9 20:56 /scratch/eom-creom-ozone.F72
-rw-rw-r-- 1 sarom sarom   30K Aug  9 21:05 /scratch/eom-creom-ozone.F73
-rw-rw-r-- 1 sarom sarom   32M Aug  9 21:05 /scratch/eom-creom-ozone.F74
-rw-rw-r-- 1 sarom sarom     0 Aug  9 20:56 /scratch/eom-creom-ozone.F75
-rw-rw-r-- 1 sarom sarom  1.7M Aug  9 21:05 /scratch/eom-creom-ozone.F76
-rw-rw-r-- 1 sarom sarom   75M Aug  9 21:05 /scratch/eom-creom-ozone.F77
-rw-rw-r-- 1 sarom sarom  6.7M Aug  9 20:57 /scratch/eom-creom-ozone.F80
-rw-rw-r-- 1 sarom sarom  182K Aug  9 20:58 /scratch/eom-creom-ozone.F81
-rw-rw-r-- 1 sarom sarom   96M Aug  9 20:58 /scratch/eom-creom-ozone.F82
-rw-rw-r-- 1 sarom sarom  182K Aug  9 20:58 /scratch/eom-creom-ozone.F83
-rw-rw-r-- 1 sarom sarom   96M Aug  9 20:58 /scratch/eom-creom-ozone.F84
-rw-rw-r-- 1 sarom sarom  154K Aug  9 20:57 /scratch/eom-creom-ozone.F85
-rw-rw-r-- 1 sarom sarom   99M Aug  9 20:57 /scratch/eom-creom-ozone.F86
-rw-rw-r-- 1 sarom sarom   12M Aug  9 20:58 /scratch/eom-creom-ozone.F87
-rw-rw-r-- 1 sarom sarom     0 Aug  9 20:57 /scratch/eom-creom-ozone.F88
-rw-rw-r-- 1 sarom sarom  2.3M Aug  9 20:57 /scratch/eom-creom-ozone.F89
-rw-rw-r-- 1 sarom sarom  450K Aug  9 20:58 /scratch/eom-creom-ozone.F90
-rw-rw-r-- 1 sarom sarom 1013K Aug  9 21:04 /scratch/eom-creom-ozone.F91
-rw-rw-r-- 1 sarom sarom  9.0M Aug  9 21:03 /scratch/eom-creom-ozone.F92
-rw-rw-r-- 1 sarom sarom     0 Aug  9 20:58 /scratch/eom-creom-ozone.F93
-rw-rw-r-- 1 sarom sarom   72M Aug  9 21:03 /scratch/eom-creom-ozone.F94
-rw-rw-r-- 1 sarom sarom     0 Aug  9 20:57 /scratch/eom-creom-ozone.F95
-rw-rw-r-- 1 sarom sarom     0 Aug  9 20:57 /scratch/eom-creom-ozone.F96
-rw-rw-r-- 1 sarom sarom     0 Aug  9 20:57 /scratch/eom-creom-ozone.F97
-rw-rw-r-- 1 sarom sarom     0 Aug  9 20:57 /scratch/eom-creom-ozone.F98
-rw-rw-r-- 1 sarom sarom     0 Aug  9 20:57 /scratch/eom-creom-ozone.F99
rm: No match.
ls: No match.
ls: No match.
ls: No match.
Wed Aug  9 21:05:57 CDT 2017
0.248u 0.265s 9:45.91 0.0%	0+0k 16+376io 0pf+0w
/opt/gridengine/default/spool/compute-0-1/active_jobs/35993.1/pe_hostfile compute-0-1.local
