-catch_rsh /opt/gridengine/default/spool/compute-0-8/active_jobs/23515.1/pe_hostfile
compute-0-8
The primary node assigned by SGE to this run is compute-0-8
Warning: no access to tty (Bad file descriptor).
Thus no job control in this shell.
Deleting shmid=2785280.
Deleting shmid=2818049.
source /home/sarom/gamess.github.2017-05-31.14.06/install.info
setenv GMS_PATH /home/sarom/gamess.github.2017-05-31.14.06
setenv GMS_BUILD_DIR /home/sarom/gamess.github.2017-05-31.14.06
setenv GMS_TARGET linux64
setenv GMS_FORTRAN gfortran
setenv GMS_GFORTRAN_VERNO 4.4
setenv GMS_MATHLIB mkl-so
setenv GMS_MATHLIB_PATH /share/apps/intel/compilers_and_libraries_2017.1.132/linux/mkl/lib/intel64
setenv GMS_MKL_VERNO 12
setenv GMS_DDI_COMM sockets
setenv GMS_LIBCCHEM false
setenv GMS_EIGEN_PATH
setenv GMS_PHI false
setenv GMS_SHMTYPE sysv
setenv GMS_OPENMP false
unset echo
ecp-rn2f3
tests/ecp
----- GAMESS execution script 'rungms' -----
This job is running on host compute-0-8.local
under operating system Linux at Fri Jun 2 00:58:57 CDT 2017
Available scratch disk space (Kbyte units) at beginning of the job is
Filesystem           1K-blocks      Used Available Use% Mounted on
/dev/sda1             16126920   3867344  11440376  26% /
GAMESS temporary binary files will be written to /scratch
GAMESS supplementary output files will be written to /home/sarom/restart
Copying input file ecp-rn2f3.inp to your run's scratch directory...
cp tests/ecp/ecp-rn2f3.inp /scratch/ecp-rn2f3.F05
unset echo
The generated host list is
compute-0-8.local
/home/sarom/gamess.github.2017-05-31.14.06/ddikick.x /home/sarom/gamess.github.2017-05-31.14.06/gamess.00.x ecp-rn2f3 -ddi 1 1 compute-0-8.local -scr /scratch

 Distributed Data Interface kickoff program.
 Initiating 1 compute processes on 1 nodes to run the following command:
 /home/sarom/gamess.github.2017-05-31.14.06/gamess.00.x ecp-rn2f3 

          ******************************************************
          *         GAMESS VERSION = 20 APR 2017 (R1)          *
          *             FROM IOWA STATE UNIVERSITY             *
          * M.W.SCHMIDT, K.K.BALDRIDGE, J.A.BOATZ, S.T.ELBERT, *
          *   M.S.GORDON, J.H.JENSEN, S.KOSEKI, N.MATSUNAGA,   *
          *          K.A.NGUYEN, S.J.SU, T.L.WINDUS,           *
          *       TOGETHER WITH M.DUPUIS, J.A.MONTGOMERY       *
          *         J.COMPUT.CHEM.  14, 1347-1363(1993)        *
          **************** 64 BIT LINUX VERSION ****************

  SINCE 1993, STUDENTS AND POSTDOCS WORKING AT IOWA STATE UNIVERSITY
  AND ALSO IN THEIR VARIOUS JOBS AFTER LEAVING ISU HAVE MADE IMPORTANT
  CONTRIBUTIONS TO THE CODE:
     IVANA ADAMOVIC, CHRISTINE AIKENS, YURI ALEXEEV, POOJA ARORA,
     ANDREY ASADCHEV, ROB BELL, PRADIPTA BANDYOPADHYAY, JONATHAN BENTZ,
     BRETT BODE, KURT BRORSEN, CALEB CARLIN, GALINA CHABAN, WEI CHEN,
     CHEOL HO CHOI, PAUL DAY, ALBERT DEFUSCO, NUWAN DESILVA, TIM DUDLEY,
     DMITRI FEDOROV, GRAHAM FLETCHER, MARK FREITAG, KURT GLAESEMANN,
     DAN KEMP, GRANT MERRILL, NORIYUKI MINEZAWA, JONATHAN MULLIN,
     TAKESHI NAGATA, SEAN NEDD, HEATHER NETZLOFF, BOSILJKA NJEGIC, RYAN OLSON,
     MIKE PAK, SPENCER PRUITT, LUKE ROSKOP, JIM SHOEMAKER, LYUDMILA SLIPCHENKO,
     TONY SMITH, SAROM SOK LEANG, JIE SONG, TETSUYA TAKETSUGU, SIMON WEBB,
     PENG XU, SOOHAENG YOO, FEDERICO ZAHARIEV

  ADDITIONAL CODE HAS BEEN PROVIDED BY COLLABORATORS IN OTHER GROUPS:
     IOWA STATE UNIVERSITY:
          JOE IVANIC, AARON WEST, LAIMUTIS BYTAUTAS, KLAUS RUEDENBERG
     UNIVERSITY OF TOKYO: KIMIHIKO HIRAO, TAKAHITO NAKAJIMA,
          TAKAO TSUNEDA, MUNEAKI KAMIYA, SUSUMU YANAGISAWA,
          KIYOSHI YAGI, MAHITO CHIBA, SEIKEN TOKURA, NAOAKI KAWAKAMI
     UNIVERSITY OF AARHUS: FRANK JENSEN
     UNIVERSITY OF IOWA: VISVALDAS KAIRYS, HUI LI
     NATIONAL INST. OF STANDARDS AND TECHNOLOGY: WALT STEVENS, DAVID GARMER
     UNIVERSITY OF PISA: BENEDETTA MENNUCCI, JACOPO TOMASI
     UNIVERSITY OF MEMPHIS: HENRY KURTZ, PRAKASHAN KORAMBATH
     UNIVERSITY OF ALBERTA: TOBY ZENG, MARIUSZ KLOBUKOWSKI
     UNIVERSITY OF NEW ENGLAND: MARK SPACKMAN
     MIE UNIVERSITY: HIROAKI UMEDA
     NAT. INST. OF ADVANCED INDUSTRIAL SCIENCE AND TECHNOLOGY: KAZUO KITAURA
     MICHIGAN STATE UNIVERSITY:
          KAROL KOWALSKI, MARTA WLOCH, JEFFREY GOUR, JESSE LUTZ,
          WEI LI, PIOTR PIECUCH
     UNIVERSITY OF SILESIA: MONIKA MUSIAL, STANISLAW KUCHARSKI
     FACULTES UNIVERSITAIRES NOTRE-DAME DE LA PAIX:
          OLIVIER QUINET, BENOIT CHAMPAGNE
     UNIVERSITY OF CALIFORNIA - SANTA BARBARA: BERNARD KIRTMAN
     INSTITUTE FOR MOLECULAR SCIENCE:
          KAZUYA ISHIMURA, MICHIO KATOUDA, AND SHIGERU NAGASE
     UNIVERSITY OF NOTRE DAME: ANNA POMOGAEVA, DAN CHIPMAN
     KYUSHU UNIVERSITY:
          HARUYUKI NAKANO,
          FENG LONG GU, JACEK KORCHOWIEC, MARCIN MAKOWSKI, AND YURIKO AOKI,
          HIROTOSHI MORI AND EISAKU MIYOSHI
     PENNSYLVANIA STATE UNIVERSITY:
          TZVETELIN IORDANOV, CHET SWALINA, JONATHAN SKONE,
          SHARON HAMMES-SCHIFFER
     WASEDA UNIVERSITY:
          MASATO KOBAYASHI, TOMOKO AKAMA, TSUGUKI TOUMA,
          TAKESHI YOSHIKAWA, YASUHIRO IKABATA, JUNJI SEINO,
          YUYA NAKAJIMA, HIROMI NAKAI
     NANJING UNIVERSITY: SHUHUA LI
     UNIVERSITY OF NEBRASKA:
          PEIFENG SU, DEJUN SI, NANDUN THELLAMUREGE, YALI WANG, HUI LI
     UNIVERSITY OF ZURICH: ROBERTO PEVERATI, KIM BALDRIDGE
     N. COPERNICUS UNIVERSITY AND JACKSON STATE UNIVERSITY:
          MARIA BARYSZ
     UNIVERSITY OF COPENHAGEN: Jimmy Kromann, CASPER STEINMANN
     TOKYO INSTITUTE OF TECHNOLOGY: HIROYA NAKATA
     NAGOYA UNIVERSITY: YOSHIO NISHIMOTO, STEPHAN IRLE
     MOSCOW STATE UNIVERSITY: VLADIMIR MIRONOV

 EXECUTION OF GAMESS BEGUN Fri Jun  2 00:58:57 2017

            ECHO OF THE FIRST FEW INPUT CARDS -
 INPUT CARD>!   collinear F-Rn-F-Rn-F...from Jerry in 2008                                  
 INPUT CARD>!   uses LMAX=4 potential on Rn, and there are f AOs in the F-atom basis        
 INPUT CARD>!                                                                               
 INPUT CARD>!   FINAL E= -327.2889308246, 13 iters, RMS grad= 0.000001228                   
 INPUT CARD>!                                                                               
 INPUT CARD>!   This run takes 12 seconds on 2.66 GHz Cloverton ( 6 Apr 2015)               
 INPUT CARD>!                                                                               
 INPUT CARD>!   this was part of the last ECP integral bug fix, in 2008:                    
 INPUT CARD>! pre-4/08: E= -327.2889303141    Vnn= 118.0537388580, RM.=0.000000361          
 INPUT CARD>!   GAMESS: E= -327.2889308246    Vnn= 118.0537388580, R.S=0.000000639          
 INPUT CARD>!   NWchem: E= -327.288929846863, Vnn= 118.053738858681                         
 INPUT CARD>!   there is a matching NWchem input file for this run.                         
 INPUT CARD>!                                                                               
 INPUT CARD> $CONTRL scftyp=rhf RUNTYP=gradient icut=11 pp=read ispher=1 icharg=+1 $end     
 INPUT CARD> $system mwords=1 $end                                                          
 INPUT CARD> $guess  guess=huckel $end                                                      
 INPUT CARD> $scf    diis=.true. conv=2.5e-07 $end                                          
 INPUT CARD>--- $statpt nstep=80 opttol=0.00001 $end                                        
 INPUT CARD> $ecp                                                                           
 INPUT CARD>f-ecp  none                                                                     
 INPUT CARD>rn-ecp sbkjc                                                                    
 INPUT CARD>rn-ecp                                                                          
 INPUT CARD>f-ecp  none                                                                     
 INPUT CARD>f-ecp  none                                                                     
 INPUT CARD> $end                                                                           
 INPUT CARD> $DATA                                                                          
 INPUT CARD>RHF/aug-cc-pvtz-pp(Rn):acct(F) [F-Rn-F-Rn-F]+, D-inf-h                          
 INPUT CARD>Dnh 4                                                                           
 INPUT CARD>                                                                                
 INPUT CARD>F           9.0   0.0000000000   0.0000000000   0.0000000000                    
 INPUT CARD>  acct                                                                          
 INPUT CARD>                                                                                
 INPUT CARD>Rn         86.0   0.0000000000   0.0000000000   2.2522258404                    
 INPUT CARD>  sbkjc                                                                         
 INPUT CARD>                                                                                
 INPUT CARD>F           9.0   0.0000000000   0.0000000000   4.1909308114                    
 INPUT CARD>  acct                                                                          
 INPUT CARD>                                                                                
 INPUT CARD> $END                                                                           
    1000000 WORDS OF MEMORY AVAILABLE


     RUN TITLE
     ---------
 RHF/aug-cc-pvtz-pp(Rn):acct(F) [F-Rn-F-Rn-F]+, D-inf-h                          

 THE POINT GROUP OF THE MOLECULE IS DNH     
 THE ORDER OF THE PRINCIPAL AXIS IS     4

 ATOM      ATOMIC                      COORDINATES (BOHR)
           CHARGE         X                   Y                   Z
 F           9.0     0.0000000000        0.0000000000        0.0000000000
 RN         86.0     0.0000000000        0.0000000000       -4.2560897008
 RN         86.0     0.0000000000        0.0000000000        4.2560897008
 F           9.0     0.0000000000        0.0000000000       -7.9197108670
 F           9.0     0.0000000000        0.0000000000        7.9197108670

          INTERNUCLEAR DISTANCES (ANGS.)
          ------------------------------

                1 F          2 RN         3 RN         4 F          5 F     

   1 F       0.0000000    2.2522258 *  2.2522258 *  4.1909308    4.1909308  
   2 RN      2.2522258 *  0.0000000    4.5044517    1.9387050 *  6.4431567  
   3 RN      2.2522258 *  4.5044517    0.0000000    6.4431567    1.9387050 *
   4 F       4.1909308    1.9387050 *  6.4431567    0.0000000    8.3818616  
   5 F       4.1909308    6.4431567    1.9387050 *  8.3818616    0.0000000  

  * ... LESS THAN  3.000


     ATOMIC BASIS SET
     ----------------
 THE CONTRACTED PRIMITIVE FUNCTIONS HAVE BEEN UNNORMALIZED
 THE CONTRACTED BASIS FUNCTIONS ARE NOW NORMALIZED TO UNITY

  SHELL TYPE  PRIMITIVE        EXPONENT          CONTRACTION COEFFICIENT(S)

 F         

      1   S       1         19500.0000000    0.000519371600
      1   S       2          2923.0000000    0.004018727387
      1   S       3           664.5000000    0.020692911859
      1   S       4           187.5000000    0.080937968612
      1   S       5            60.6200000    0.236062075041
      1   S       6            21.4200000    0.443434759512
      1   S       7             7.9500000    0.358503673552
      1   S       8             0.8815000   -0.008084577247

      2   S       9         19500.0000000   -0.000199591153
      2   S      10          2923.0000000   -0.001555787449
      2   S      11           664.5000000   -0.008046764688
      2   S      12           187.5000000   -0.032558946542
      2   S      13            60.6200000   -0.101765899400
      2   S      14            21.4200000   -0.238844079709
      2   S      15             7.9500000   -0.301573702586
      2   S      16             0.8815000    1.032147264620

      3   S      17             2.2570000    1.000000000000

      4   S      18             0.3041000    1.000000000000

      5   P      19            43.8800000    0.041904620686
      5   P      20             9.9260000    0.262697841725
      5   P      21             2.9300000    0.797759373475

      6   P      22             0.9132000    1.000000000000

      7   P      23             0.2672000    1.000000000000

      8   D      24             3.1070000    1.000000000000

      9   D      25             0.8550000    1.000000000000

     10   F      26             1.9170000    1.000000000000

     11   S      27             0.0915800    1.000000000000

     12   P      28             0.0736100    1.000000000000

     13   D      29             0.2920000    1.000000000000

     14   F      30             0.7240000    1.000000000000

 RN        

     17   L      31             2.4890000    0.082820060152    0.004727000932
     17   L      32             1.0130000   -0.803200583362   -0.231180045600
     17   L      33             0.4072000    0.983073714003    0.541354106781
     17   L      34             0.1646000    0.553051401679    0.647745127766

     18   L      35             0.0650000    1.000000000000    1.000000000000

 F         

     33   S      36         19500.0000000    0.000519371600
     33   S      37          2923.0000000    0.004018727387
     33   S      38           664.5000000    0.020692911859
     33   S      39           187.5000000    0.080937968612
     33   S      40            60.6200000    0.236062075041
     33   S      41            21.4200000    0.443434759512
     33   S      42             7.9500000    0.358503673552
     33   S      43             0.8815000   -0.008084577247

     34   S      44         19500.0000000   -0.000199591153
     34   S      45          2923.0000000   -0.001555787449
     34   S      46           664.5000000   -0.008046764688
     34   S      47           187.5000000   -0.032558946542
     34   S      48            60.6200000   -0.101765899400
     34   S      49            21.4200000   -0.238844079709
     34   S      50             7.9500000   -0.301573702586
     34   S      51             0.8815000    1.032147264620

     35   S      52             2.2570000    1.000000000000

     36   S      53             0.3041000    1.000000000000

     37   P      54            43.8800000    0.041904620686
     37   P      55             9.9260000    0.262697841725
     37   P      56             2.9300000    0.797759373475

     38   P      57             0.9132000    1.000000000000

     39   P      58             0.2672000    1.000000000000

     40   D      59             3.1070000    1.000000000000

     41   D      60             0.8550000    1.000000000000

     42   F      61             1.9170000    1.000000000000

     43   S      62             0.0915800    1.000000000000

     44   P      63             0.0736100    1.000000000000

     45   D      64             0.2920000    1.000000000000

     46   F      65             0.7240000    1.000000000000

 TOTAL NUMBER OF BASIS SET SHELLS             =   46
 NUMBER OF CARTESIAN GAUSSIAN BASIS FUNCTIONS =  181
 NOTE: THIS RUN WILL RESTRICT THE MO VARIATION SPACE TO SPHERICAL HARMONICS.
 THE NUMBER OF ORBITALS KEPT IN THE VARIATIONAL SPACE WILL BE PRINTED LATER.
 NUMBER OF ELECTRONS                          =  198
 CHARGE OF MOLECULE                           =    1
 SPIN MULTIPLICITY                            =    1
 NUMBER OF OCCUPIED ORBITALS (ALPHA)          =   99
 NUMBER OF OCCUPIED ORBITALS (BETA )          =   99
 TOTAL NUMBER OF ATOMS                        =    5
 THE NUCLEAR REPULSION ENERGY IS     1807.8261195568
 NOTE THIS RUN IS USING CORE POTENTIALS, AND THE NUMBER OF ELECTRONS,
 OCCUPIED ORBITALS, AND NUCLEAR REPULSION ENERGY WILL BE ADJUSTED BELOW
 AFTER REMOVAL OF THE CORE CHARGES.

 THIS MOLECULE IS RECOGNIZED AS BEING LINEAR,
 ORBITAL LZ DEGENERACY TOLERANCE ETOLLZ= 1.00E-06

     $CONTRL OPTIONS
     ---------------
 SCFTYP=RHF          RUNTYP=GRADIENT     EXETYP=RUN     
 MPLEVL=       0     CITYP =NONE         CCTYP =NONE         VBTYP =NONE    
 DFTTYP=NONE         TDDFT =NONE    
 MULT  =       1     ICHARG=       1     NZVAR =       0     COORD =UNIQUE  
 PP    =READ         RELWFN=NONE         LOCAL =NONE         NUMGRD=       F
 ISPHER=       1     NOSYM =       0     MAXIT =      30     UNITS =ANGS    
 PLTORB=       F     MOLPLT=       F     AIMPAC=       F     FRIEND=        
 NPRINT=       7     IREST =       0     GEOM  =INPUT   
 NORMF =       0     NORMP =       0     ITOL  =      20     ICUT  =      11
 INTTYP=BEST         GRDTYP=BEST         QMTTOL= 1.0E-06

     $SYSTEM OPTIONS
     ---------------
  REPLICATED MEMORY=     1000000 WORDS (ON EVERY NODE).
 DISTRIBUTED MEMDDI=           0 MILLION WORDS IN AGGREGATE,
 MEMDDI DISTRIBUTED OVER   1 PROCESSORS IS           0 WORDS/PROCESSOR.
 TOTAL MEMORY REQUESTED ON EACH PROCESSOR=     1000000 WORDS.
 TIMLIM=      525600.00 MINUTES, OR     365.0 DAYS.
 PARALL= F  BALTYP=  DLB     KDIAG=    0  COREFL= F
 MXSEQ2=     300 MXSEQ3=     150  mem10=         0

          --------------
          ECP POTENTIALS
          --------------

 PARAMETERS FOR "RN-ECP  " ON ATOM    2 WITH ZCORE  78 AND LMAX  4 ARE
 FOR L= 4      COEFF    N           ZETA
    1       -9.36991    1        1.37920
 FOR L= 0      COEFF    N           ZETA
    1        5.25644    0        0.47169
    2      -39.27598    2        1.01268
    3       62.19287    2        1.26952
 FOR L= 1      COEFF    N           ZETA
    1        7.38631    0        3.32534
    2      -45.67830    2        0.99950
    3       71.81385    2        1.11620
 FOR L= 2      COEFF    N           ZETA
    1        4.90484    0        0.92214
    2       12.61598    2        0.92221
 FOR L= 3      COEFF    N           ZETA
    1        2.96924    0        1.61735
    2       -0.17844    2        0.32150

 PARAMETERS FOR "RN-ECP  " ON ATOM    3 ARE THE SAME AS ATOM   2

 THE ECP RUN REMOVES  156 CORE ELECTRONS, AND THE SAME NUMBER OF PROTONS.
 NUMBER OF ELECTRONS KEPT IN THE CALCULATION IS =   42
 NUMBER OF OCCUPIED ORBITALS (ALPHA) KEPT IS    =   21
 NUMBER OF OCCUPIED ORBITALS (BETA ) KEPT IS    =   21
 THE ADJUSTED NUCLEAR REPULSION ENERGY=      118.0537388580
          ECP ANGULAR INTS.........     0.02 SECONDS

          ----------------
          PROPERTIES INPUT
          ----------------

     MOMENTS            FIELD           POTENTIAL          DENSITY
 IEMOM =       1   IEFLD =       0   IEPOT =       0   IEDEN =       0
 WHERE =COMASS     WHERE =NUCLEI     WHERE =NUCLEI     WHERE =NUCLEI  
 OUTPUT=BOTH       OUTPUT=BOTH       OUTPUT=BOTH       OUTPUT=BOTH    
 IEMINT=       0   IEFINT=       0                     IEDINT=       0
                                                       MORB  =       0
          EXTRAPOLATION IN EFFECT
          DIIS IN EFFECT
 ORBITAL PRINTING OPTION: NPREO=     1   181     2     1

     -------------------------------
     INTEGRAL TRANSFORMATION OPTIONS
     -------------------------------
     NWORD  =            0
     CUTOFF = 1.0E-09     MPTRAN =       0
     DIRTRF =       F     AOINTS =DUP     

          ----------------------
          INTEGRAL INPUT OPTIONS
          ----------------------
 NOPK  =       1 NORDER=       0 SCHWRZ=       F

     ------------------------------------------
     THE POINT GROUP IS DNH, NAXIS= 4, ORDER=16
     ------------------------------------------

 -- VARIATIONAL SPACE WILL BE RESTRICTED TO PURE SPHERICAL HARMONICS ONLY --
 AFTER EXCLUDING CONTAMINANT COMBINATIONS FROM THE CARTESIAN GAUSSIAN BASIS
 SET, THE NUMBER OF SPHERICAL HARMONICS KEPT IN THE VARIATION SPACE IS  154

     DIMENSIONS OF THE SYMMETRY SUBSPACES ARE
 A1G =   26     A1U =    0     B1G =    8     B1U =    7     A2G =    0
 A2U =   24     B2G =    8     B2U =    7     EG  =   16     EU  =   21

 ..... DONE SETTING UP THE RUN .....
 STEP CPU TIME =     0.04 TOTAL CPU TIME =        0.0 (    0.0 MIN)
 TOTAL WALL CLOCK TIME=        0.0 SECONDS, CPU UTILIZATION IS  80.00%

                    --------------------------------
                    SINGLE POINT ENERGY AND GRADIENT
                    --------------------------------

          ********************
          1 ELECTRON INTEGRALS
          ********************
 TIME TO DO ORDINARY INTEGRALS=      0.00
 TIME TO DO      ECP INTEGRALS=      0.16
 ...... END OF ONE-ELECTRON INTEGRALS ......
 STEP CPU TIME =     0.16 TOTAL CPU TIME =        0.2 (    0.0 MIN)
 TOTAL WALL CLOCK TIME=        0.2 SECONDS, CPU UTILIZATION IS  95.24%

          -------------
          GUESS OPTIONS
          -------------
          GUESS =HUCKEL            NORB  =       0          NORDER=       0
          MIX   =       F          PRTMO =       F          PUNMO =       F
          TOLZ  = 1.0E-08          TOLE  = 1.0E-05
          SYMDEN=       F          PURIFY=       F

 INITIAL GUESS ORBITALS GENERATED BY HUCKEL   ROUTINE.
 HUCKEL GUESS REQUIRES    295142 WORDS.

 STATISTICS FOR GENERATION OF SYMMETRY ORBITAL -Q- MATRIX
 NUMBER OF CARTESIAN ATOMIC ORBITALS=        181
 NUMBER OF SPHERICAL CONTAMINANTS DROPPED=    27
 NUMBER OF LINEARLY DEPENDENT MOS DROPPED=     0
 TOTAL NUMBER OF MOS IN VARIATION SPACE=     154

 SYMMETRIES FOR INITIAL GUESS ORBITALS FOLLOW.   BOTH SET(S).
    21 ORBITALS ARE OCCUPIED (    3 CORE ORBITALS).
     4=A1G      5=A2U      6=A1G      7=A2U      8=A1G      9=A2U     10=EU  
    11=EU      12=EG      13=EG      14=EU      15=EU      16=A1G     17=A2U 
    18=EG      19=EG      20=EU      21=EU      22=A1G     23=A2U     24=A1G 
    25=A1G     26=A1G     27=A1G     28=A1G     29=A1G     30=A1G     31=A1G 
 ...... END OF INITIAL ORBITAL SELECTION ......
 STEP CPU TIME =     0.05 TOTAL CPU TIME =        0.3 (    0.0 MIN)
 TOTAL WALL CLOCK TIME=        0.3 SECONDS, CPU UTILIZATION IS  96.15%

                    ----------------------
                    AO INTEGRAL TECHNOLOGY
                    ----------------------
     S,P,L SHELL ROTATED AXIS INTEGRALS, REPROGRAMMED BY
        KAZUYA ISHIMURA (IMS) AND JOSE SIERRA (SYNSTAR).
     S,P,D,L SHELL ROTATED AXIS INTEGRALS PROGRAMMED BY
        KAZUYA ISHIMURA (INSTITUTE FOR MOLECULAR SCIENCE).
     S,P,D,F,G SHELL TO TOTAL QUARTET ANGULAR MOMENTUM SUM 5,
        ERIC PROGRAM BY GRAHAM FLETCHER (ELORET AND NASA ADVANCED
        SUPERCOMPUTING DIVISION, AMES RESEARCH CENTER).
     S,P,D,F,G,L SHELL GENERAL RYS QUADRATURE PROGRAMMED BY
        MICHEL DUPUIS (PACIFIC NORTHWEST NATIONAL LABORATORY).

          --------------------
          2 ELECTRON INTEGRALS
          --------------------

 THE -PK- OPTION IS OFF, THE INTEGRALS ARE NOT IN SUPERMATRIX FORM.
 STORING   15000 INTEGRALS/RECORD ON DISK, USING 12 BYTES/INTEGRAL.
 TWO ELECTRON INTEGRAL EVALUATION REQUIRES  100181 WORDS OF MEMORY.
 II,JST,KST,LST =  1  1  1  1 NREC =         1 INTLOC =    1
 II,JST,KST,LST =  2  1  1  1 NREC =         1 INTLOC =    2
 II,JST,KST,LST =  3  1  1  1 NREC =         1 INTLOC =    7
 II,JST,KST,LST =  4  1  1  1 NREC =         1 INTLOC =   22
 II,JST,KST,LST =  5  1  1  1 NREC =         1 INTLOC =   56
 II,JST,KST,LST =  6  1  1  1 NREC =         1 INTLOC =  125
 II,JST,KST,LST =  7  1  1  1 NREC =         1 INTLOC =  329
 II,JST,KST,LST =  8  1  1  1 NREC =         1 INTLOC =  776
 II,JST,KST,LST =  9  1  1  1 NREC =         1 INTLOC = 2864
 II,JST,KST,LST = 10  1  1  1 NREC =         1 INTLOC = 7967
 II,JST,KST,LST = 11  1  1  1 NREC =         2 INTLOC =12194
 II,JST,KST,LST = 12  1  1  1 NREC =         3 INTLOC =  731
 II,JST,KST,LST = 13  1  1  1 NREC =         3 INTLOC =11855
 II,JST,KST,LST = 14  1  1  1 NREC =         5 INTLOC =12962
 II,JST,KST,LST = 15  1  1  1 NREC =        11 INTLOC = 7589
 II,JST,KST,LST = 16  1  1  1 NREC =        11 INTLOC = 7589
 II,JST,KST,LST = 17  1  1  1 NREC =        11 INTLOC = 7589
 II,JST,KST,LST = 18  1  1  1 NREC =        19 INTLOC = 2048
 II,JST,KST,LST = 19  1  1  1 NREC =        30 INTLOC = 2899
 II,JST,KST,LST = 20  1  1  1 NREC =        30 INTLOC = 2899
 II,JST,KST,LST = 21  1  1  1 NREC =        30 INTLOC = 2899
 II,JST,KST,LST = 22  1  1  1 NREC =        30 INTLOC = 2899
 II,JST,KST,LST = 23  1  1  1 NREC =        30 INTLOC = 2899
 II,JST,KST,LST = 24  1  1  1 NREC =        30 INTLOC = 2899
 II,JST,KST,LST = 25  1  1  1 NREC =        30 INTLOC = 2899
 II,JST,KST,LST = 26  1  1  1 NREC =        30 INTLOC = 2899
 II,JST,KST,LST = 27  1  1  1 NREC =        30 INTLOC = 2899
 II,JST,KST,LST = 28  1  1  1 NREC =        30 INTLOC = 2899
 II,JST,KST,LST = 29  1  1  1 NREC =        30 INTLOC = 2899
 II,JST,KST,LST = 30  1  1  1 NREC =        30 INTLOC = 2899
 II,JST,KST,LST = 31  1  1  1 NREC =        30 INTLOC = 2899
 II,JST,KST,LST = 32  1  1  1 NREC =        30 INTLOC = 2899
 II,JST,KST,LST = 33  1  1  1 NREC =        30 INTLOC = 2899
 II,JST,KST,LST = 34  1  1  1 NREC =        31 INTLOC = 5624
 II,JST,KST,LST = 35  1  1  1 NREC =        32 INTLOC =14553
 II,JST,KST,LST = 36  1  1  1 NREC =        34 INTLOC = 6479
 II,JST,KST,LST = 37  1  1  1 NREC =        38 INTLOC = 4351
 II,JST,KST,LST = 38  1  1  1 NREC =        42 INTLOC = 8912
 II,JST,KST,LST = 39  1  1  1 NREC =        48 INTLOC =10420
 II,JST,KST,LST = 40  1  1  1 NREC =        62 INTLOC = 9881
 II,JST,KST,LST = 41  1  1  1 NREC =        78 INTLOC = 5545
 II,JST,KST,LST = 42  1  1  1 NREC =       102 INTLOC = 1967
 II,JST,KST,LST = 43  1  1  1 NREC =       149 INTLOC =11849
 II,JST,KST,LST = 44  1  1  1 NREC =       162 INTLOC =12779
 II,JST,KST,LST = 45  1  1  1 NREC =       205 INTLOC = 2738
 II,JST,KST,LST = 46  1  1  1 NREC =       285 INTLOC = 3511
 TOTAL NUMBER OF NONZERO TWO-ELECTRON INTEGRALS =             6117233
        408 INTEGRAL RECORDS WERE STORED ON DISK FILE  8.
  ...... END OF TWO-ELECTRON INTEGRALS .....
 STEP CPU TIME =     1.53 TOTAL CPU TIME =        1.8 (    0.0 MIN)
 TOTAL WALL CLOCK TIME=        1.8 SECONDS, CPU UTILIZATION IS  99.44%

          --------------------------
                 RHF SCF CALCULATION
          --------------------------

     NUCLEAR ENERGY =       118.0537388580
     MAXIT =   30     NPUNCH=    2
     EXTRAP=T  DAMP=F  SHIFT=F  RSTRCT=F  DIIS=T  DEM=F  SOSCF=F
     DENSITY MATRIX CONV=  2.50E-07
     MEMORY REQUIRED FOR RHF ITERS=    262526 WORDS.

 ITER EX DEM     TOTAL ENERGY        E CHANGE  DENSITY CHANGE    DIIS ERROR
   1  0  0     -326.3742608079  -326.3742608079   0.506282768   1.020680741
          * * *   INITIATING DIIS PROCEDURE   * * *
   2  1  0     -327.1924503252    -0.8181895173   0.131157795   0.135783631
   3  2  0     -327.2498940559    -0.0574437307   0.046743633   0.105940771
   4  3  0     -327.2885191725    -0.0386251166   0.005996740   0.008922071
   5  4  0     -327.2888975353    -0.0003783627   0.001920927   0.002465954
   6  5  0     -327.2889241397    -0.0000266044   0.000430540   0.001018616
   7  6  0     -327.2889300863    -0.0000059466   0.000389015   0.000280066
   8  7  0     -327.2889307461    -0.0000006598   0.000112841   0.000084970
   9  8  0     -327.2889308227    -0.0000000766   0.000019542   0.000012280
  10  9  0     -327.2889308245    -0.0000000018   0.000004471   0.000001847
  11 10  0     -327.2889308246    -0.0000000001   0.000001455   0.000000586
  12 11  0     -327.2889308246    -0.0000000000   0.000000379   0.000000133
  13 12  0     -327.2889308246    -0.0000000000   0.000000019   0.000000027

          -----------------
          DENSITY CONVERGED
          -----------------
     TIME TO FORM FOCK OPERATORS=       0.9 SECONDS (       0.1 SEC/ITER)
     TIME TO SOLVE SCF EQUATIONS=       0.3 SECONDS (       0.0 SEC/ITER)

 FINAL RHF ENERGY IS     -327.2889308246 AFTER  13 ITERATIONS

 LZ VALUE ANALYSIS FOR THE MOS
 ----------------------------------------
 MO     1 (    1) HAS LZ(WEIGHT)= 0.00(100.0%) 
 MO     2 (    1) HAS LZ(WEIGHT)= 0.00(100.0%) 
 MO     3 (    2) HAS LZ(WEIGHT)= 0.00(100.0%) 
 MO     4 (    3) HAS LZ(WEIGHT)= 0.00(100.0%) 
 MO     5 (    4) HAS LZ(WEIGHT)= 0.00(100.0%) 
 MO     6 (    5) HAS LZ(WEIGHT)= 0.00(100.0%) 
 MO     7 (    6) HAS LZ(WEIGHT)= 0.00(100.0%) 
 MO     8 (    7) HAS LZ(WEIGHT)= 0.00(100.0%) 
 MO     9 (    8) HAS LZ(WEIGHT)= 0.00(100.0%) 
 MO    10 (    9) HAS LZ(WEIGHT)=-1.00( 50.0%)  1.00( 50.0%) 
 MO    11 (    9) HAS LZ(WEIGHT)=-1.00( 50.0%)  1.00( 50.0%) 
 MO    12 (   10) HAS LZ(WEIGHT)=-1.00( 50.0%)  1.00( 50.0%) 
 MO    13 (   10) HAS LZ(WEIGHT)=-1.00( 50.0%)  1.00( 50.0%) 
 MO    14 (   11) HAS LZ(WEIGHT)= 0.00(100.0%) 
 MO    15 (   12) HAS LZ(WEIGHT)=-1.00( 50.0%)  1.00( 50.0%) 
 MO    16 (   12) HAS LZ(WEIGHT)=-1.00( 50.0%)  1.00( 50.0%) 
 MO    17 (   13) HAS LZ(WEIGHT)= 0.00(100.0%) 
 MO    18 (   14) HAS LZ(WEIGHT)=-1.00( 50.0%)  1.00( 50.0%) 
 MO    19 (   14) HAS LZ(WEIGHT)=-1.00( 50.0%)  1.00( 50.0%) 
 MO    20 (   15) HAS LZ(WEIGHT)=-1.00( 50.0%)  1.00( 50.0%) 
 MO    21 (   15) HAS LZ(WEIGHT)=-1.00( 50.0%)  1.00( 50.0%) 
 MO    22 (   16) HAS LZ(WEIGHT)= 0.00(100.0%) 
 MO    23 (   17) HAS LZ(WEIGHT)= 0.00(100.0%) 
 MO    24 (   18) HAS LZ(WEIGHT)= 0.00(100.0%) 
 MO    25 (   19) HAS LZ(WEIGHT)=-1.00( 50.0%)  1.00( 50.0%) 
 MO    26 (   19) HAS LZ(WEIGHT)=-1.00( 50.0%)  1.00( 50.0%) 
 MO    27 (   20) HAS LZ(WEIGHT)= 0.00(100.0%) 
 MO    28 (   21) HAS LZ(WEIGHT)=-1.00( 50.0%)  1.00( 50.0%) 
 MO    29 (   21) HAS LZ(WEIGHT)=-1.00( 50.0%)  1.00( 50.0%) 
 MO    30 (   22) HAS LZ(WEIGHT)=-1.00( 50.0%)  1.00( 50.0%) 
 MO    31 (   22) HAS LZ(WEIGHT)=-1.00( 50.0%)  1.00( 50.0%) 
 MO    32 (   23) HAS LZ(WEIGHT)= 0.00(100.0%) 
 MO    33 (   24) HAS LZ(WEIGHT)=-1.00( 50.0%)  1.00( 50.0%) 
 MO    34 (   24) HAS LZ(WEIGHT)=-1.00( 50.0%)  1.00( 50.0%) 
 MO    35 (   25) HAS LZ(WEIGHT)= 0.00(100.0%) 
 MO    36 (   26) HAS LZ(WEIGHT)=-1.00( 50.0%)  1.00( 50.0%) 
 MO    37 (   26) HAS LZ(WEIGHT)=-1.00( 50.0%)  1.00( 50.0%) 
 MO    38 (   27) HAS LZ(WEIGHT)= 0.00(100.0%) 
 MO    39 (   28) HAS LZ(WEIGHT)= 0.00(100.0%) 
 MO    40 (   29) HAS LZ(WEIGHT)= 0.00(100.0%) 
 MO    41 (   30) HAS LZ(WEIGHT)= 0.00(100.0%) 
 MO    42 (   31) HAS LZ(WEIGHT)= 0.00(100.0%) 
 MO    43 (   32) HAS LZ(WEIGHT)= 0.00(100.0%) 
 MO    44 (   33) HAS LZ(WEIGHT)=-1.00( 50.0%)  1.00( 50.0%) 
 MO    45 (   33) HAS LZ(WEIGHT)=-1.00( 50.0%)  1.00( 50.0%) 
 MO    46 (   34) HAS LZ(WEIGHT)=-2.00( 50.0%)  2.00( 50.0%) 
 MO    47 (   34) HAS LZ(WEIGHT)=-2.00( 50.0%)  2.00( 50.0%) 
 MO    48 (   35) HAS LZ(WEIGHT)=-1.00( 50.0%)  1.00( 50.0%) 
 MO    49 (   35) HAS LZ(WEIGHT)=-1.00( 50.0%)  1.00( 50.0%) 
 MO    50 (   36) HAS LZ(WEIGHT)=-2.00( 50.0%)  2.00( 50.0%) 
 MO    51 (   36) HAS LZ(WEIGHT)=-2.00( 50.0%)  2.00( 50.0%) 
 MO    52 (   36) HAS LZ(WEIGHT)=-2.00( 50.0%)  2.00( 50.0%) 
 MO    53 (   36) HAS LZ(WEIGHT)=-2.00( 50.0%)  2.00( 50.0%) 
 MO    54 (   37) HAS LZ(WEIGHT)=-1.00( 50.0%)  1.00( 50.0%) 
 MO    55 (   37) HAS LZ(WEIGHT)=-1.00( 50.0%)  1.00( 50.0%) 
 MO    56 (   38) HAS LZ(WEIGHT)= 0.00(100.0%) 
 MO    57 (   39) HAS LZ(WEIGHT)=-1.00( 50.0%)  1.00( 50.0%) 
 MO    58 (   39) HAS LZ(WEIGHT)=-1.00( 50.0%)  1.00( 50.0%) 
 MO    59 (   40) HAS LZ(WEIGHT)=-1.00( 50.0%)  1.00( 50.0%) 
 MO    60 (   40) HAS LZ(WEIGHT)=-1.00( 50.0%)  1.00( 50.0%) 
 MO    61 (   41) HAS LZ(WEIGHT)=-1.00( 50.0%)  1.00( 50.0%) 
 MO    62 (   41) HAS LZ(WEIGHT)=-1.00( 50.0%)  1.00( 50.0%) 
 MO    63 (   42) HAS LZ(WEIGHT)= 0.00(100.0%) 
 MO    64 (   43) HAS LZ(WEIGHT)= 0.00(100.0%) 
 MO    65 (   44) HAS LZ(WEIGHT)= 0.00(100.0%) 
 MO    66 (   45) HAS LZ(WEIGHT)= 0.00(100.0%) 
 MO    67 (   46) HAS LZ(WEIGHT)= 0.00(100.0%) 
 MO    68 (   47) HAS LZ(WEIGHT)= 0.00(100.0%) 
 MO    69 (   48) HAS LZ(WEIGHT)= 0.00(100.0%) 
 MO    70 (   49) HAS LZ(WEIGHT)= 0.00(100.0%) 
 MO    71 (   50) HAS LZ(WEIGHT)= 0.00(100.0%) 
 MO    72 (   51) HAS LZ(WEIGHT)= 0.00(100.0%) 
 MO    73 (   52) HAS LZ(WEIGHT)=-1.00( 50.0%)  1.00( 50.0%) 
 MO    74 (   52) HAS LZ(WEIGHT)=-1.00( 50.0%)  1.00( 50.0%) 
 MO    75 (   53) HAS LZ(WEIGHT)=-1.00( 50.0%)  1.00( 50.0%) 
 MO    76 (   53) HAS LZ(WEIGHT)=-1.00( 50.0%)  1.00( 50.0%) 
 MO    77 (   54) HAS LZ(WEIGHT)=-1.00( 50.0%)  1.00( 50.0%) 
 MO    78 (   54) HAS LZ(WEIGHT)=-1.00( 50.0%)  1.00( 50.0%) 
 MO    79 (   55) HAS LZ(WEIGHT)=-1.00( 50.0%)  1.00( 50.0%) 
 MO    80 (   55) HAS LZ(WEIGHT)=-1.00( 50.0%)  1.00( 50.0%) 
 MO    81 (   56) HAS LZ(WEIGHT)=-2.00( 50.0%)  2.00( 50.0%) 
 MO    82 (   56) HAS LZ(WEIGHT)=-2.00( 50.0%)  2.00( 50.0%) 
 MO    83 (   57) HAS LZ(WEIGHT)=-2.00( 50.0%)  2.00( 50.0%) 
 MO    84 (   57) HAS LZ(WEIGHT)=-2.00( 50.0%)  2.00( 50.0%) 
 MO    85 (   58) HAS LZ(WEIGHT)=-2.00( 50.0%)  2.00( 50.0%) 
 MO    86 (   58) HAS LZ(WEIGHT)=-2.00( 50.0%)  2.00( 50.0%) 
 MO    87 (   59) HAS LZ(WEIGHT)=-2.00( 50.0%)  2.00( 50.0%) 
 MO    88 (   59) HAS LZ(WEIGHT)=-2.00( 50.0%)  2.00( 50.0%) 
 MO    89 (   60) HAS LZ(WEIGHT)=-2.00( 50.0%)  2.00( 50.0%) 
 MO    90 (   60) HAS LZ(WEIGHT)=-2.00( 50.0%)  2.00( 50.0%) 
 MO    91 (   61) HAS LZ(WEIGHT)=-2.00( 50.0%)  2.00( 50.0%) 
 MO    92 (   61) HAS LZ(WEIGHT)=-2.00( 50.0%)  2.00( 50.0%) 
 MO    93 (   62) HAS LZ(WEIGHT)=-3.00( 50.0%)  3.00( 50.0%) 
 MO    94 (   62) HAS LZ(WEIGHT)=-3.00( 50.0%)  3.00( 50.0%) 
 MO    95 (   63) HAS LZ(WEIGHT)=-3.00( 49.5%)  3.00( 49.6%) 
 MO    96 (   63) HAS LZ(WEIGHT)=-3.00( 49.5%)  3.00( 49.6%) 
 MO    97 (   63) HAS LZ(WEIGHT)=-3.00( 49.5%)  3.00( 49.6%) 
 MO    98 (   63) HAS LZ(WEIGHT)=-3.00( 49.5%)  3.00( 49.6%) 
 MO    99 (   64) HAS LZ(WEIGHT)=-1.00( 50.0%)  1.00( 50.0%) 
 MO   100 (   64) HAS LZ(WEIGHT)=-1.00( 50.0%)  1.00( 50.0%) 
 MO   101 (   65) HAS LZ(WEIGHT)=-1.00( 50.0%)  1.00( 50.0%) 
 MO   102 (   65) HAS LZ(WEIGHT)=-1.00( 50.0%)  1.00( 50.0%) 
 MO   103 (   66) HAS LZ(WEIGHT)= 0.00(100.0%) 
 MO   104 (   67) HAS LZ(WEIGHT)= 0.00(100.0%) 
 MO   105 (   68) HAS LZ(WEIGHT)= 0.00(100.0%) 
 MO   106 (   69) HAS LZ(WEIGHT)= 0.00(100.0%) 
 MO   107 (   70) HAS LZ(WEIGHT)=-1.00( 50.0%)  1.00( 50.0%) 
 MO   108 (   70) HAS LZ(WEIGHT)=-1.00( 50.0%)  1.00( 50.0%) 
 MO   109 (   71) HAS LZ(WEIGHT)=-1.00( 50.0%)  1.00( 50.0%) 
 MO   110 (   71) HAS LZ(WEIGHT)=-1.00( 50.0%)  1.00( 50.0%) 
 MO   111 (   72) HAS LZ(WEIGHT)=-1.00( 50.0%)  1.00( 50.0%) 
 MO   112 (   72) HAS LZ(WEIGHT)=-1.00( 50.0%)  1.00( 50.0%) 
 MO   113 (   73) HAS LZ(WEIGHT)= 0.00(100.0%) 
 MO   114 (   74) HAS LZ(WEIGHT)= 0.00(100.0%) 
 MO   115 (   75) HAS LZ(WEIGHT)= 0.00(100.0%) 
 MO   116 (   76) HAS LZ(WEIGHT)=-1.00( 50.0%)  1.00( 50.0%) 
 MO   117 (   76) HAS LZ(WEIGHT)=-1.00( 50.0%)  1.00( 50.0%) 
 MO   118 (   77) HAS LZ(WEIGHT)=-1.00( 50.0%)  1.00( 50.0%) 
 MO   119 (   77) HAS LZ(WEIGHT)=-1.00( 50.0%)  1.00( 50.0%) 
 MO   120 (   78) HAS LZ(WEIGHT)=-2.00( 50.0%)  2.00( 50.0%) 
 MO   121 (   78) HAS LZ(WEIGHT)=-2.00( 50.0%)  2.00( 50.0%) 
 MO   122 (   78) HAS LZ(WEIGHT)=-2.00( 50.0%)  2.00( 50.0%) 
 MO   123 (   78) HAS LZ(WEIGHT)=-2.00( 50.0%)  2.00( 50.0%) 
 MO   124 (   79) HAS LZ(WEIGHT)=-1.00( 50.0%)  1.00( 50.0%) 
 MO   125 (   79) HAS LZ(WEIGHT)=-1.00( 50.0%)  1.00( 50.0%) 
 MO   126 (   80) HAS LZ(WEIGHT)= 0.00(100.0%) 
 MO   127 (   81) HAS LZ(WEIGHT)=-2.00( 50.0%)  2.00( 50.0%) 
 MO   128 (   81) HAS LZ(WEIGHT)=-2.00( 50.0%)  2.00( 50.0%) 
 MO   129 (   82) HAS LZ(WEIGHT)= 0.00(100.0%) 
 MO   130 (   83) HAS LZ(WEIGHT)=-3.00( 50.0%)  3.00( 50.0%) 
 MO   131 (   83) HAS LZ(WEIGHT)=-3.00( 50.0%)  3.00( 50.0%) 
 MO   132 (   84) HAS LZ(WEIGHT)=-3.00( 49.6%)  3.00( 49.9%) 
 MO   133 (   84) HAS LZ(WEIGHT)=-3.00( 49.6%)  3.00( 49.9%) 
 MO   134 (   84) HAS LZ(WEIGHT)=-3.00( 49.6%)  3.00( 49.9%) 
 MO   135 (   84) HAS LZ(WEIGHT)=-3.00( 49.6%)  3.00( 49.9%) 
 MO   136 (   85) HAS LZ(WEIGHT)= 0.00(100.0%) 
 MO   137 (   86) HAS LZ(WEIGHT)=-1.00( 50.0%)  1.00( 50.0%) 
 MO   138 (   86) HAS LZ(WEIGHT)=-1.00( 50.0%)  1.00( 50.0%) 
 MO   139 (   87) HAS LZ(WEIGHT)=-2.00( 50.0%)  2.00( 50.0%) 
 MO   140 (   87) HAS LZ(WEIGHT)=-2.00( 50.0%)  2.00( 50.0%) 
 MO   141 (   88) HAS LZ(WEIGHT)=-2.00( 50.0%)  2.00( 50.0%) 
 MO   142 (   88) HAS LZ(WEIGHT)=-2.00( 50.0%)  2.00( 50.0%) 
 MO   143 (   89) HAS LZ(WEIGHT)=-2.00( 50.0%)  2.00( 50.0%) 
 MO   144 (   89) HAS LZ(WEIGHT)=-2.00( 50.0%)  2.00( 50.0%) 
 MO   145 (   90) HAS LZ(WEIGHT)=-1.00( 50.0%)  1.00( 50.0%) 
 MO   146 (   90) HAS LZ(WEIGHT)=-1.00( 50.0%)  1.00( 50.0%) 
 MO   147 (   91) HAS LZ(WEIGHT)=-1.00( 50.0%)  1.00( 50.0%) 
 MO   148 (   91) HAS LZ(WEIGHT)=-1.00( 50.0%)  1.00( 50.0%) 
 MO   149 (   92) HAS LZ(WEIGHT)= 0.00(100.0%) 
 MO   150 (   93) HAS LZ(WEIGHT)= 0.00(100.0%) 
 MO   151 (   94) HAS LZ(WEIGHT)= 0.00(100.0%) 
 MO   152 (   95) HAS LZ(WEIGHT)= 0.00(100.0%) 
 MO   153 (   96) HAS LZ(WEIGHT)= 0.00(100.0%) 
 MO   154 (   97) HAS LZ(WEIGHT)= 0.00(100.0%) 

          ------------
          EIGENVECTORS
          ------------

                      1          2          3          4          5
                  -26.4811   -26.4811   -26.4561    -1.7639    -1.7637
                     A2U        A1G        A1G        A1G        A2U 
    1  F  1  S    0.000000  -0.000099   0.975450  -0.000231   0.000000
    2  F  1  S    0.000000   0.000109  -0.001020   0.055350   0.000000
    3  F  1  S    0.000000  -0.000036   0.043658   0.015343   0.000000
    4  F  1  S    0.000000  -0.000150   0.004494   0.037142   0.000000
    5  F  1  X    0.000000  -0.000000  -0.000000  -0.000000   0.000000
    6  F  1  Y    0.000000  -0.000000  -0.000000  -0.000000   0.000000
    7  F  1  Z    0.000019  -0.000000  -0.000000  -0.000000  -0.000580
    8  F  1  X    0.000000  -0.000000  -0.000000  -0.000000   0.000000
    9  F  1  Y    0.000000  -0.000000  -0.000000  -0.000000   0.000000
   10  F  1  Z   -0.000082  -0.000000  -0.000000  -0.000000  -0.003534
   11  F  1  X    0.000000  -0.000000  -0.000000  -0.000000   0.000000
   12  F  1  Y    0.000000  -0.000000  -0.000000  -0.000000   0.000000
   13  F  1  Z    0.000209  -0.000000  -0.000000  -0.000000   0.005997
   14  F  1 XX    0.000000   0.000009   0.000020   0.000108   0.000000
   15  F  1 YY    0.000000   0.000009   0.000020   0.000108   0.000000
   16  F  1 ZZ    0.000000  -0.000019  -0.000040  -0.000216   0.000000
   17  F  1 XY    0.000000  -0.000000  -0.000000  -0.000000   0.000000
   18  F  1 XZ    0.000000  -0.000000  -0.000000  -0.000000   0.000000
   19  F  1 YZ    0.000000  -0.000000  -0.000000  -0.000000   0.000000
   20  F  1 XX    0.000000  -0.000038   0.000009  -0.001257   0.000000
   21  F  1 YY    0.000000  -0.000038   0.000009  -0.001257   0.000000
   22  F  1 ZZ    0.000000   0.000075  -0.000018   0.002514   0.000000
   23  F  1 XY    0.000000  -0.000000  -0.000000  -0.000000   0.000000
   24  F  1 XZ    0.000000  -0.000000  -0.000000  -0.000000   0.000000
   25  F  1 YZ    0.000000  -0.000000  -0.000000  -0.000000   0.000000
   26  F  1 XXX   0.000000  -0.000000  -0.000000  -0.000000   0.000000
   27  F  1 YYY   0.000000  -0.000000  -0.000000  -0.000000   0.000000
   28  F  1 ZZZ  -0.000013  -0.000000  -0.000000  -0.000000  -0.000400
   29  F  1 XXY   0.000000  -0.000000  -0.000000  -0.000000   0.000000
   30  F  1 XXZ   0.000009  -0.000000  -0.000000  -0.000000   0.000269
   31  F  1 YYX   0.000000  -0.000000  -0.000000  -0.000000   0.000000
   32  F  1 YYZ   0.000009  -0.000000  -0.000000  -0.000000   0.000269
   33  F  1 ZZX   0.000000  -0.000000  -0.000000  -0.000000   0.000000
   34  F  1 ZZY   0.000000  -0.000000  -0.000000  -0.000000   0.000000
   35  F  1 XYZ   0.000000  -0.000000  -0.000000  -0.000000   0.000000
   36  F  1  S    0.000000   0.000445  -0.002995   0.006667   0.000000
   37  F  1  X    0.000000  -0.000000  -0.000000  -0.000000   0.000000
   38  F  1  Y    0.000000  -0.000000  -0.000000  -0.000000   0.000000
   39  F  1  Z   -0.001357  -0.000000  -0.000000  -0.000000  -0.075288
   40  F  1 XX    0.000000   0.000097  -0.000006   0.001117   0.000000
   41  F  1 YY    0.000000   0.000097  -0.000006   0.001117   0.000000
   42  F  1 ZZ    0.000000  -0.000193   0.000013  -0.002234   0.000000
   43  F  1 XY    0.000000  -0.000000  -0.000000  -0.000000   0.000000
   44  F  1 XZ    0.000000  -0.000000  -0.000000  -0.000000   0.000000
   45  F  1 YZ    0.000000  -0.000000  -0.000000  -0.000000   0.000000
   46  F  1 XXX   0.000000  -0.000000  -0.000000  -0.000000   0.000000
   47  F  1 YYY   0.000000  -0.000000  -0.000000  -0.000000   0.000000
   48  F  1 ZZZ   0.000030  -0.000000  -0.000000  -0.000000   0.001009
   49  F  1 XXY   0.000000  -0.000000  -0.000000  -0.000000   0.000000
   50  F  1 XXZ  -0.000020  -0.000000  -0.000000  -0.000000  -0.000677
   51  F  1 YYX   0.000000  -0.000000  -0.000000  -0.000000   0.000000
   52  F  1 YYZ  -0.000020  -0.000000  -0.000000  -0.000000  -0.000677
   53  F  1 ZZX   0.000000  -0.000000  -0.000000  -0.000000   0.000000
   54  F  1 ZZY   0.000000  -0.000000  -0.000000  -0.000000   0.000000
   55  F  1 XYZ   0.000000  -0.000000  -0.000000  -0.000000   0.000000
   56  RN 2  S   -0.000111  -0.000141  -0.000047   0.117570   0.112084
   57  RN 2  X    0.000000  -0.000000  -0.000000  -0.000000   0.000000
   58  RN 2  Y    0.000000  -0.000000  -0.000000  -0.000000   0.000000
   59  RN 2  Z    0.000241   0.000308  -0.000152  -0.030079  -0.037050
   60  RN 2  S    0.000219   0.000872   0.000368  -0.009693  -0.048957
   61  RN 2  X    0.000000  -0.000000  -0.000000  -0.000000   0.000000
   62  RN 2  Y    0.000000  -0.000000  -0.000000  -0.000000   0.000000
   63  RN 2  Z   -0.001740  -0.000820   0.001055   0.003166  -0.037671
   64  RN 3  S    0.000111  -0.000141  -0.000047   0.117570  -0.112084
   65  RN 3  X    0.000000  -0.000000  -0.000000  -0.000000   0.000000
   66  RN 3  Y    0.000000  -0.000000  -0.000000  -0.000000   0.000000
   67  RN 3  Z    0.000241  -0.000308   0.000152   0.030079  -0.037050
   68  RN 3  S   -0.000219   0.000872   0.000368  -0.009693   0.048957
   69  RN 3  X    0.000000  -0.000000  -0.000000  -0.000000   0.000000
   70  RN 3  Y    0.000000  -0.000000  -0.000000  -0.000000   0.000000
   71  RN 3  Z   -0.001740   0.000820  -0.001055  -0.003166  -0.037671
   72  F  4  S    0.689775   0.689797   0.000170  -0.005653  -0.005930
   73  F  4  S   -0.000760  -0.000723   0.000092   0.375839   0.378021
   74  F  4  S    0.030791   0.030783  -0.000017   0.108512   0.109277
   75  F  4  S    0.003230   0.003124  -0.000181   0.266850   0.271138
   76  F  4  X    0.000000  -0.000000  -0.000000  -0.000000   0.000000
   77  F  4  Y    0.000000  -0.000000  -0.000000  -0.000000   0.000000
   78  F  4  Z    0.000678   0.000684  -0.000000   0.016634   0.016603
   79  F  4  X    0.000000  -0.000000  -0.000000  -0.000000   0.000000
   80  F  4  Y    0.000000  -0.000000  -0.000000  -0.000000   0.000000
   81  F  4  Z   -0.000337  -0.000360   0.000012   0.029019   0.029757
   82  F  4  X    0.000000  -0.000000  -0.000000  -0.000000   0.000000
   83  F  4  Y    0.000000  -0.000000  -0.000000  -0.000000   0.000000
   84  F  4  Z    0.000324   0.000387  -0.000024   0.038458   0.036346
   85  F  4 XX    0.000029   0.000030   0.000003   0.000114   0.000110
   86  F  4 YY    0.000029   0.000030   0.000003   0.000114   0.000110
   87  F  4 ZZ   -0.000058  -0.000059  -0.000006  -0.000229  -0.000220
   88  F  4 XY    0.000000  -0.000000  -0.000000  -0.000000   0.000000
   89  F  4 XZ    0.000000  -0.000000  -0.000000  -0.000000   0.000000
   90  F  4 YZ    0.000000  -0.000000  -0.000000  -0.000000   0.000000
   91  F  4 XX    0.000031   0.000029  -0.000014  -0.004817  -0.004828
   92  F  4 YY    0.000031   0.000029  -0.000014  -0.004817  -0.004828
   93  F  4 ZZ   -0.000061  -0.000057   0.000028   0.009633   0.009657
   94  F  4 XY    0.000000  -0.000000  -0.000000  -0.000000   0.000000
   95  F  4 XZ    0.000000  -0.000000  -0.000000  -0.000000   0.000000
   96  F  4 YZ    0.000000  -0.000000  -0.000000  -0.000000   0.000000
   97  F  4 XXX   0.000000  -0.000000  -0.000000  -0.000000   0.000000
   98  F  4 YYY   0.000000  -0.000000  -0.000000  -0.000000   0.000000
   99  F  4 ZZZ  -0.000009  -0.000011   0.000006  -0.000803  -0.000758
  100  F  4 XXY   0.000000  -0.000000  -0.000000  -0.000000   0.000000
  101  F  4 XXZ   0.000006   0.000008  -0.000004   0.000538   0.000508
  102  F  4 YYX   0.000000  -0.000000  -0.000000  -0.000000   0.000000
  103  F  4 YYZ   0.000006   0.000008  -0.000004   0.000538   0.000508
  104  F  4 ZZX   0.000000  -0.000000  -0.000000  -0.000000   0.000000
  105  F  4 ZZY   0.000000  -0.000000  -0.000000  -0.000000   0.000000
  106  F  4 XYZ   0.000000  -0.000000  -0.000000  -0.000000   0.000000
  107  F  4  S   -0.002364  -0.001800   0.000648   0.002073  -0.018516
  108  F  4  X    0.000000  -0.000000  -0.000000  -0.000000   0.000000
  109  F  4  Y    0.000000  -0.000000  -0.000000  -0.000000   0.000000
  110  F  4  Z   -0.000643  -0.000546   0.000089  -0.009350  -0.012573
  111  F  4 XX   -0.000046  -0.000048   0.000039  -0.004624  -0.004486
  112  F  4 YY   -0.000046  -0.000048   0.000039  -0.004624  -0.004486
  113  F  4 ZZ    0.000093   0.000097  -0.000078   0.009248   0.008972
  114  F  4 XY    0.000000  -0.000000  -0.000000  -0.000000   0.000000
  115  F  4 XZ    0.000000  -0.000000  -0.000000  -0.000000   0.000000
  116  F  4 YZ    0.000000  -0.000000  -0.000000  -0.000000   0.000000
  117  F  4 XXX   0.000000  -0.000000  -0.000000  -0.000000   0.000000
  118  F  4 YYY   0.000000  -0.000000  -0.000000  -0.000000   0.000000
  119  F  4 ZZZ   0.000044   0.000050  -0.000016   0.007249   0.007119
  120  F  4 XXY   0.000000  -0.000000  -0.000000  -0.000000   0.000000
  121  F  4 XXZ  -0.000030  -0.000034   0.000011  -0.004863  -0.004776
  122  F  4 YYX   0.000000  -0.000000  -0.000000  -0.000000   0.000000
  123  F  4 YYZ  -0.000030  -0.000034   0.000011  -0.004863  -0.004776
  124  F  4 ZZX   0.000000  -0.000000  -0.000000  -0.000000   0.000000
  125  F  4 ZZY   0.000000  -0.000000  -0.000000  -0.000000   0.000000
  126  F  4 XYZ   0.000000  -0.000000  -0.000000  -0.000000   0.000000
  127  F  5  S   -0.689775   0.689797   0.000170  -0.005653   0.005930
  128  F  5  S    0.000760  -0.000723   0.000092   0.375839  -0.378021
  129  F  5  S   -0.030791   0.030783  -0.000017   0.108512  -0.109277
  130  F  5  S   -0.003230   0.003124  -0.000181   0.266850  -0.271138
  131  F  5  X    0.000000  -0.000000  -0.000000  -0.000000   0.000000
  132  F  5  Y    0.000000  -0.000000  -0.000000  -0.000000   0.000000
  133  F  5  Z    0.000678  -0.000684   0.000000  -0.016634   0.016603
  134  F  5  X    0.000000  -0.000000  -0.000000  -0.000000   0.000000
  135  F  5  Y    0.000000  -0.000000  -0.000000  -0.000000   0.000000
  136  F  5  Z   -0.000337   0.000360  -0.000012  -0.029019   0.029757
  137  F  5  X    0.000000  -0.000000  -0.000000  -0.000000   0.000000
  138  F  5  Y    0.000000  -0.000000  -0.000000  -0.000000   0.000000
  139  F  5  Z    0.000324  -0.000387   0.000024  -0.038458   0.036346
  140  F  5 XX   -0.000029   0.000030   0.000003   0.000114  -0.000110
  141  F  5 YY   -0.000029   0.000030   0.000003   0.000114  -0.000110
  142  F  5 ZZ    0.000058  -0.000059  -0.000006  -0.000229   0.000220
  143  F  5 XY    0.000000  -0.000000  -0.000000  -0.000000   0.000000
  144  F  5 XZ    0.000000  -0.000000  -0.000000  -0.000000   0.000000
  145  F  5 YZ    0.000000  -0.000000  -0.000000  -0.000000   0.000000
  146  F  5 XX   -0.000031   0.000029  -0.000014  -0.004817   0.004828
  147  F  5 YY   -0.000031   0.000029  -0.000014  -0.004817   0.004828
  148  F  5 ZZ    0.000061  -0.000057   0.000028   0.009633  -0.009657
  149  F  5 XY    0.000000  -0.000000  -0.000000  -0.000000   0.000000
  150  F  5 XZ    0.000000  -0.000000  -0.000000  -0.000000   0.000000
  151  F  5 YZ    0.000000  -0.000000  -0.000000  -0.000000   0.000000
  152  F  5 XXX   0.000000  -0.000000  -0.000000  -0.000000   0.000000
  153  F  5 YYY   0.000000  -0.000000  -0.000000  -0.000000   0.000000
  154  F  5 ZZZ  -0.000009   0.000011  -0.000006   0.000803  -0.000758
  155  F  5 XXY   0.000000  -0.000000  -0.000000  -0.000000   0.000000
  156  F  5 XXZ   0.000006  -0.000008   0.000004  -0.000538   0.000508
  157  F  5 YYX   0.000000  -0.000000  -0.000000  -0.000000   0.000000
  158  F  5 YYZ   0.000006  -0.000008   0.000004  -0.000538   0.000508
  159  F  5 ZZX   0.000000  -0.000000  -0.000000  -0.000000   0.000000
  160  F  5 ZZY   0.000000  -0.000000  -0.000000  -0.000000   0.000000
  161  F  5 XYZ   0.000000  -0.000000  -0.000000  -0.000000   0.000000
  162  F  5  S    0.002364  -0.001800   0.000648   0.002073   0.018516
  163  F  5  X    0.000000  -0.000000  -0.000000  -0.000000   0.000000
  164  F  5  Y    0.000000  -0.000000  -0.000000  -0.000000   0.000000
  165  F  5  Z   -0.000643   0.000546  -0.000089   0.009350  -0.012573
  166  F  5 XX    0.000046  -0.000048   0.000039  -0.004624   0.004486
  167  F  5 YY    0.000046  -0.000048   0.000039  -0.004624   0.004486
  168  F  5 ZZ   -0.000093   0.000097  -0.000078   0.009248  -0.008972
  169  F  5 XY    0.000000  -0.000000  -0.000000  -0.000000   0.000000
  170  F  5 XZ    0.000000  -0.000000  -0.000000  -0.000000   0.000000
  171  F  5 YZ    0.000000  -0.000000  -0.000000  -0.000000   0.000000
  172  F  5 XXX   0.000000  -0.000000  -0.000000  -0.000000   0.000000
  173  F  5 YYY   0.000000  -0.000000  -0.000000  -0.000000   0.000000
  174  F  5 ZZZ   0.000044  -0.000050   0.000016  -0.007249   0.007119
  175  F  5 XXY   0.000000  -0.000000  -0.000000  -0.000000   0.000000
  176  F  5 XXZ  -0.000030   0.000034  -0.000011   0.004863  -0.004776
  177  F  5 YYX   0.000000  -0.000000  -0.000000  -0.000000   0.000000
  178  F  5 YYZ  -0.000030   0.000034  -0.000011   0.004863  -0.004776
  179  F  5 ZZX   0.000000  -0.000000  -0.000000  -0.000000   0.000000
  180  F  5 ZZY   0.000000  -0.000000  -0.000000  -0.000000   0.000000
  181  F  5 XYZ   0.000000  -0.000000  -0.000000  -0.000000   0.000000

                      6          7          8          9         10
                   -1.7412    -1.3412    -1.3208    -0.9273    -0.8555
                     A1G        A2U        A1G        A2U        EU  
    1  F  1  S   -0.008986  -0.000000   0.001528   0.000000   0.000000
    2  F  1  S    0.540133  -0.000000  -0.088036   0.000000   0.000000
    3  F  1  S    0.155762  -0.000000  -0.027340   0.000000   0.000000
    4  F  1  S    0.384950  -0.000000  -0.069402   0.000000   0.000000
    5  F  1  X   -0.000000  -0.000000  -0.000000   0.000000   0.142612
    6  F  1  Y   -0.000000  -0.000000  -0.000000   0.000000   0.000000
    7  F  1  Z   -0.000000  -0.049338  -0.000000   0.234701   0.000000
    8  F  1  X   -0.000000  -0.000000  -0.000000   0.000000   0.175382
    9  F  1  Y   -0.000000  -0.000000  -0.000000   0.000000   0.000000
   10  F  1  Z   -0.000000  -0.066576  -0.000000   0.280205   0.000000
   11  F  1  X   -0.000000  -0.000000  -0.000000   0.000000   0.140396
   12  F  1  Y   -0.000000  -0.000000  -0.000000   0.000000   0.000000
   13  F  1  Z   -0.000000  -0.033023  -0.000000   0.292159   0.000000
   14  F  1 XX   -0.000201  -0.000000  -0.000124   0.000000   0.000000
   15  F  1 YY   -0.000201  -0.000000  -0.000124   0.000000   0.000000
   16  F  1 ZZ    0.000401  -0.000000   0.000248   0.000000   0.000000
   17  F  1 XY   -0.000000  -0.000000  -0.000000   0.000000   0.000000
   18  F  1 XZ   -0.000000  -0.000000  -0.000000   0.000000   0.000000
   19  F  1 YZ   -0.000000  -0.000000  -0.000000   0.000000   0.000000
   20  F  1 XX   -0.002873  -0.000000  -0.003059   0.000000   0.000000
   21  F  1 YY   -0.002873  -0.000000  -0.003059   0.000000   0.000000
   22  F  1 ZZ    0.005747  -0.000000   0.006118   0.000000   0.000000
   23  F  1 XY   -0.000000  -0.000000  -0.000000   0.000000   0.000000
   24  F  1 XZ   -0.000000  -0.000000  -0.000000   0.000000   0.000000
   25  F  1 YZ   -0.000000  -0.000000  -0.000000   0.000000   0.000000
   26  F  1 XXX  -0.000000  -0.000000  -0.000000   0.000000   0.000297
   27  F  1 YYY  -0.000000  -0.000000  -0.000000   0.000000   0.000000
   28  F  1 ZZZ  -0.000000  -0.000714  -0.000000  -0.002146   0.000000
   29  F  1 XXY  -0.000000  -0.000000  -0.000000   0.000000   0.000000
   30  F  1 XXZ  -0.000000   0.000479  -0.000000   0.001440   0.000000
   31  F  1 YYX  -0.000000  -0.000000  -0.000000   0.000000   0.000133
   32  F  1 YYZ  -0.000000   0.000479  -0.000000   0.001440   0.000000
   33  F  1 ZZX  -0.000000  -0.000000  -0.000000   0.000000  -0.000531
   34  F  1 ZZY  -0.000000  -0.000000  -0.000000   0.000000   0.000000
   35  F  1 XYZ  -0.000000  -0.000000  -0.000000   0.000000   0.000000
   36  F  1  S    0.044704  -0.000000  -0.093748   0.000000   0.000000
   37  F  1  X   -0.000000  -0.000000  -0.000000   0.000000   0.019683
   38  F  1  Y   -0.000000  -0.000000  -0.000000   0.000000   0.000000
   39  F  1  Z   -0.000000   0.098833  -0.000000  -0.262135   0.000000
   40  F  1 XX   -0.012228  -0.000000   0.009608   0.000000   0.000000
   41  F  1 YY   -0.012228  -0.000000   0.009608   0.000000   0.000000
   42  F  1 ZZ    0.024457  -0.000000  -0.019217   0.000000   0.000000
   43  F  1 XY   -0.000000  -0.000000  -0.000000   0.000000   0.000000
   44  F  1 XZ   -0.000000  -0.000000  -0.000000   0.000000   0.000000
   45  F  1 YZ   -0.000000  -0.000000  -0.000000   0.000000   0.000000
   46  F  1 XXX  -0.000000  -0.000000  -0.000000   0.000000  -0.003417
   47  F  1 YYY  -0.000000  -0.000000  -0.000000   0.000000   0.000000
   48  F  1 ZZZ  -0.000000  -0.001167  -0.000000   0.016651   0.000000
   49  F  1 XXY  -0.000000  -0.000000  -0.000000   0.000000   0.000000
   50  F  1 XXZ  -0.000000   0.000783  -0.000000  -0.011170   0.000000
   51  F  1 YYX  -0.000000  -0.000000  -0.000000   0.000000  -0.001528
   52  F  1 YYZ  -0.000000   0.000783  -0.000000  -0.011170   0.000000
   53  F  1 ZZX  -0.000000  -0.000000  -0.000000   0.000000   0.006113
   54  F  1 ZZY  -0.000000  -0.000000  -0.000000   0.000000   0.000000
   55  F  1 XYZ  -0.000000  -0.000000  -0.000000   0.000000   0.000000
   56  RN 2  S    0.053268   0.657137   0.671196   0.040814   0.000000
   57  RN 2  X   -0.000000  -0.000000  -0.000000   0.000000   0.202834
   58  RN 2  Y   -0.000000  -0.000000  -0.000000   0.000000   0.000000
   59  RN 2  Z    0.021772   0.027865   0.012180  -0.271373   0.000000
   60  RN 2  S   -0.010433   0.080160   0.040616  -0.153678   0.000000
   61  RN 2  X   -0.000000  -0.000000  -0.000000   0.000000  -0.009299
   62  RN 2  Y   -0.000000  -0.000000  -0.000000   0.000000   0.000000
   63  RN 2  Z   -0.011982   0.051738   0.027099  -0.109337   0.000000
   64  RN 3  S    0.053268  -0.657137   0.671196  -0.040814   0.000000
   65  RN 3  X   -0.000000  -0.000000  -0.000000   0.000000   0.202834
   66  RN 3  Y   -0.000000  -0.000000  -0.000000   0.000000   0.000000
   67  RN 3  Z   -0.021772   0.027865  -0.012180  -0.271373   0.000000
   68  RN 3  S   -0.010433  -0.080160   0.040616   0.153678   0.000000
   69  RN 3  X   -0.000000  -0.000000  -0.000000   0.000000  -0.009299
   70  RN 3  Y   -0.000000  -0.000000  -0.000000   0.000000   0.000000
   71  RN 3  Z    0.011982   0.051738  -0.027099  -0.109337   0.000000
   72  F  4  S    0.001059   0.001081   0.000672  -0.005686   0.000000
   73  F  4  S   -0.045214  -0.100368  -0.105071  -0.075312   0.000000
   74  F  4  S   -0.013350  -0.031268  -0.032588  -0.022807   0.000000
   75  F  4  S   -0.033457  -0.090846  -0.094120  -0.041602   0.000000
   76  F  4  X   -0.000000  -0.000000  -0.000000   0.000000   0.225129
   77  F  4  Y   -0.000000  -0.000000  -0.000000   0.000000   0.000000
   78  F  4  Z   -0.001363   0.038265   0.043173   0.131338   0.000000
   79  F  4  X   -0.000000  -0.000000  -0.000000   0.000000   0.276873
   80  F  4  Y   -0.000000  -0.000000  -0.000000   0.000000   0.000000
   81  F  4  Z   -0.001907   0.048038   0.053876   0.167012   0.000000
   82  F  4  X   -0.000000  -0.000000  -0.000000   0.000000   0.212750
   83  F  4  Y   -0.000000  -0.000000  -0.000000   0.000000   0.000000
   84  F  4  Z   -0.006405   0.016914   0.021374   0.122437   0.000000
   85  F  4 XX   -0.000042  -0.000799  -0.000874  -0.000857   0.000000
   86  F  4 YY   -0.000042  -0.000799  -0.000874  -0.000857   0.000000
   87  F  4 ZZ    0.000083   0.001598   0.001747   0.001714   0.000000
   88  F  4 XY   -0.000000  -0.000000  -0.000000   0.000000   0.000000
   89  F  4 XZ   -0.000000  -0.000000  -0.000000   0.000000   0.002128
   90  F  4 YZ   -0.000000  -0.000000  -0.000000   0.000000   0.000000
   91  F  4 XX    0.000466  -0.001233  -0.001351  -0.006243   0.000000
   92  F  4 YY    0.000466  -0.001233  -0.001351  -0.006243   0.000000
   93  F  4 ZZ   -0.000932   0.002466   0.002703   0.012487   0.000000
   94  F  4 XY   -0.000000  -0.000000  -0.000000   0.000000   0.000000
   95  F  4 XZ   -0.000000  -0.000000  -0.000000   0.000000   0.008769
   96  F  4 YZ   -0.000000  -0.000000  -0.000000   0.000000   0.000000
   97  F  4 XXX  -0.000000  -0.000000  -0.000000   0.000000   0.000393
   98  F  4 YYY  -0.000000  -0.000000  -0.000000   0.000000   0.000000
   99  F  4 ZZZ   0.000390   0.000448   0.000305  -0.000645   0.000000
  100  F  4 XXY  -0.000000  -0.000000  -0.000000   0.000000   0.000000
  101  F  4 XXZ  -0.000262  -0.000300  -0.000205   0.000433   0.000000
  102  F  4 YYX  -0.000000  -0.000000  -0.000000   0.000000   0.000176
  103  F  4 YYZ  -0.000262  -0.000300  -0.000205   0.000433   0.000000
  104  F  4 ZZX  -0.000000  -0.000000  -0.000000   0.000000  -0.000704
  105  F  4 ZZY  -0.000000  -0.000000  -0.000000   0.000000   0.000000
  106  F  4 XYZ  -0.000000  -0.000000  -0.000000   0.000000   0.000000
  107  F  4  S   -0.004421   0.009010   0.002286  -0.058713   0.000000
  108  F  4  X   -0.000000  -0.000000  -0.000000   0.000000   0.015902
  109  F  4  Y   -0.000000  -0.000000  -0.000000   0.000000   0.000000
  110  F  4  Z    0.001194   0.001922   0.001750  -0.013356   0.000000
  111  F  4 XX    0.001369  -0.001395  -0.002415  -0.008308   0.000000
  112  F  4 YY    0.001369  -0.001395  -0.002415  -0.008308   0.000000
  113  F  4 ZZ   -0.002738   0.002789   0.004830   0.016616   0.000000
  114  F  4 XY   -0.000000  -0.000000  -0.000000   0.000000   0.000000
  115  F  4 XZ   -0.000000  -0.000000  -0.000000   0.000000   0.026833
  116  F  4 YZ   -0.000000  -0.000000  -0.000000   0.000000   0.000000
  117  F  4 XXX  -0.000000  -0.000000  -0.000000   0.000000  -0.006256
  118  F  4 YYY  -0.000000  -0.000000  -0.000000   0.000000   0.000000
  119  F  4 ZZZ  -0.001797   0.000503   0.001284   0.009333   0.000000
  120  F  4 XXY  -0.000000  -0.000000  -0.000000   0.000000   0.000000
  121  F  4 XXZ   0.001206  -0.000337  -0.000861  -0.006261   0.000000
  122  F  4 YYX  -0.000000  -0.000000  -0.000000   0.000000  -0.002798
  123  F  4 YYZ   0.001206  -0.000337  -0.000861  -0.006261   0.000000
  124  F  4 ZZX  -0.000000  -0.000000  -0.000000   0.000000   0.011190
  125  F  4 ZZY  -0.000000  -0.000000  -0.000000   0.000000   0.000000
  126  F  4 XYZ  -0.000000  -0.000000  -0.000000   0.000000   0.000000
  127  F  5  S    0.001059  -0.001081   0.000672   0.005686   0.000000
  128  F  5  S   -0.045214   0.100368  -0.105071   0.075312   0.000000
  129  F  5  S   -0.013350   0.031268  -0.032588   0.022807   0.000000
  130  F  5  S   -0.033457   0.090846  -0.094120   0.041602   0.000000
  131  F  5  X   -0.000000  -0.000000  -0.000000   0.000000   0.225129
  132  F  5  Y   -0.000000  -0.000000  -0.000000   0.000000   0.000000
  133  F  5  Z    0.001363   0.038265  -0.043173   0.131338   0.000000
  134  F  5  X   -0.000000  -0.000000  -0.000000   0.000000   0.276873
  135  F  5  Y   -0.000000  -0.000000  -0.000000   0.000000   0.000000
  136  F  5  Z    0.001907   0.048038  -0.053876   0.167012   0.000000
  137  F  5  X   -0.000000  -0.000000  -0.000000   0.000000   0.212750
  138  F  5  Y   -0.000000  -0.000000  -0.000000   0.000000   0.000000
  139  F  5  Z    0.006405   0.016914  -0.021374   0.122437   0.000000
  140  F  5 XX   -0.000042   0.000799  -0.000874   0.000857   0.000000
  141  F  5 YY   -0.000042   0.000799  -0.000874   0.000857   0.000000
  142  F  5 ZZ    0.000083  -0.001598   0.001747  -0.001714   0.000000
  143  F  5 XY   -0.000000  -0.000000  -0.000000   0.000000   0.000000
  144  F  5 XZ   -0.000000  -0.000000  -0.000000   0.000000  -0.002128
  145  F  5 YZ   -0.000000  -0.000000  -0.000000   0.000000   0.000000
  146  F  5 XX    0.000466   0.001233  -0.001351   0.006243   0.000000
  147  F  5 YY    0.000466   0.001233  -0.001351   0.006243   0.000000
  148  F  5 ZZ   -0.000932  -0.002466   0.002703  -0.012487   0.000000
  149  F  5 XY   -0.000000  -0.000000  -0.000000   0.000000   0.000000
  150  F  5 XZ   -0.000000  -0.000000  -0.000000   0.000000  -0.008769
  151  F  5 YZ   -0.000000  -0.000000  -0.000000   0.000000   0.000000
  152  F  5 XXX  -0.000000  -0.000000  -0.000000   0.000000   0.000393
  153  F  5 YYY  -0.000000  -0.000000  -0.000000   0.000000   0.000000
  154  F  5 ZZZ  -0.000390   0.000448  -0.000305  -0.000645   0.000000
  155  F  5 XXY  -0.000000  -0.000000  -0.000000   0.000000   0.000000
  156  F  5 XXZ   0.000262  -0.000300   0.000205   0.000433   0.000000
  157  F  5 YYX  -0.000000  -0.000000  -0.000000   0.000000   0.000176
  158  F  5 YYZ   0.000262  -0.000300   0.000205   0.000433   0.000000
  159  F  5 ZZX  -0.000000  -0.000000  -0.000000   0.000000  -0.000704
  160  F  5 ZZY  -0.000000  -0.000000  -0.000000   0.000000   0.000000
  161  F  5 XYZ  -0.000000  -0.000000  -0.000000   0.000000   0.000000
  162  F  5  S   -0.004421  -0.009010   0.002286   0.058713   0.000000
  163  F  5  X   -0.000000  -0.000000  -0.000000   0.000000   0.015902
  164  F  5  Y   -0.000000  -0.000000  -0.000000   0.000000   0.000000
  165  F  5  Z   -0.001194   0.001922  -0.001750  -0.013356   0.000000
  166  F  5 XX    0.001369   0.001395  -0.002415   0.008308   0.000000
  167  F  5 YY    0.001369   0.001395  -0.002415   0.008308   0.000000
  168  F  5 ZZ   -0.002738  -0.002789   0.004830  -0.016616   0.000000
  169  F  5 XY   -0.000000  -0.000000  -0.000000   0.000000   0.000000
  170  F  5 XZ   -0.000000  -0.000000  -0.000000   0.000000  -0.026833
  171  F  5 YZ   -0.000000  -0.000000  -0.000000   0.000000   0.000000
  172  F  5 XXX  -0.000000  -0.000000  -0.000000   0.000000  -0.006256
  173  F  5 YYY  -0.000000  -0.000000  -0.000000   0.000000   0.000000
  174  F  5 ZZZ   0.001797   0.000503  -0.001284   0.009333   0.000000
  175  F  5 XXY  -0.000000  -0.000000  -0.000000   0.000000   0.000000
  176  F  5 XXZ  -0.001206  -0.000337   0.000861  -0.006261   0.000000
  177  F  5 YYX  -0.000000  -0.000000  -0.000000   0.000000  -0.002798
  178  F  5 YYZ  -0.001206  -0.000337   0.000861  -0.006261   0.000000
  179  F  5 ZZX  -0.000000  -0.000000  -0.000000   0.000000   0.011190
  180  F  5 ZZY  -0.000000  -0.000000  -0.000000   0.000000   0.000000
  181  F  5 XYZ  -0.000000  -0.000000  -0.000000   0.000000   0.000000

                     11         12         13         14         15
                   -0.8555    -0.8516    -0.8516    -0.8337    -0.8309
                     EU         EG         EG         A1G        EU  
    1  F  1  S    0.000000  -0.000000   0.000000   0.000090   0.000000
    2  F  1  S    0.000000  -0.000000   0.000000  -0.059643   0.000000
    3  F  1  S    0.000000  -0.000000   0.000000  -0.018908   0.000000
    4  F  1  S    0.000000  -0.000000   0.000000  -0.060232   0.000000
    5  F  1  X    0.000000  -0.000000   0.000000  -0.000000   0.330968
    6  F  1  Y    0.142612  -0.000000   0.000000  -0.000000   0.000000
    7  F  1  Z    0.000000  -0.000000   0.000000  -0.000000   0.000000
    8  F  1  X    0.000000  -0.000000   0.000000  -0.000000   0.405228
    9  F  1  Y    0.175382  -0.000000   0.000000  -0.000000   0.000000
   10  F  1  Z    0.000000  -0.000000   0.000000  -0.000000   0.000000
   11  F  1  X    0.000000  -0.000000   0.000000  -0.000000   0.335254
   12  F  1  Y    0.140396  -0.000000   0.000000  -0.000000   0.000000
   13  F  1  Z    0.000000  -0.000000   0.000000  -0.000000   0.000000
   14  F  1 XX    0.000000  -0.000000   0.000000  -0.000431   0.000000
   15  F  1 YY    0.000000  -0.000000   0.000000  -0.000431   0.000000
   16  F  1 ZZ    0.000000  -0.000000   0.000000   0.000863   0.000000
   17  F  1 XY    0.000000  -0.000000   0.000000  -0.000000   0.000000
   18  F  1 XZ    0.000000  -0.000000  -0.000096  -0.000000   0.000000
   19  F  1 YZ    0.000000  -0.000096   0.000000  -0.000000   0.000000
   20  F  1 XX    0.000000  -0.000000   0.000000  -0.002773   0.000000
   21  F  1 YY    0.000000  -0.000000   0.000000  -0.002773   0.000000
   22  F  1 ZZ    0.000000  -0.000000   0.000000   0.005547   0.000000
   23  F  1 XY    0.000000  -0.000000   0.000000  -0.000000   0.000000
   24  F  1 XZ    0.000000  -0.000000  -0.001453  -0.000000   0.000000
   25  F  1 YZ    0.000000  -0.001453   0.000000  -0.000000   0.000000
   26  F  1 XXX   0.000000  -0.000000   0.000000  -0.000000   0.000960
   27  F  1 YYY   0.000297  -0.000000   0.000000  -0.000000   0.000000
   28  F  1 ZZZ   0.000000  -0.000000   0.000000  -0.000000   0.000000
   29  F  1 XXY   0.000133  -0.000000   0.000000  -0.000000   0.000000
   30  F  1 XXZ   0.000000  -0.000000   0.000000  -0.000000   0.000000
   31  F  1 YYX   0.000000  -0.000000   0.000000  -0.000000   0.000429
   32  F  1 YYZ   0.000000  -0.000000   0.000000  -0.000000   0.000000
   33  F  1 ZZX   0.000000  -0.000000   0.000000  -0.000000  -0.001717
   34  F  1 ZZY  -0.000531  -0.000000   0.000000  -0.000000   0.000000
   35  F  1 XYZ   0.000000  -0.000000   0.000000  -0.000000   0.000000
   36  F  1  S    0.000000  -0.000000   0.000000  -0.116806   0.000000
   37  F  1  X    0.000000  -0.000000   0.000000  -0.000000   0.042004
   38  F  1  Y    0.019683  -0.000000   0.000000  -0.000000   0.000000
   39  F  1  Z    0.000000  -0.000000   0.000000  -0.000000   0.000000
   40  F  1 XX    0.000000  -0.000000   0.000000   0.007376   0.000000
   41  F  1 YY    0.000000  -0.000000   0.000000   0.007376   0.000000
   42  F  1 ZZ    0.000000  -0.000000   0.000000  -0.014752   0.000000
   43  F  1 XY    0.000000  -0.000000   0.000000  -0.000000   0.000000
   44  F  1 XZ    0.000000  -0.000000   0.002210  -0.000000   0.000000
   45  F  1 YZ    0.000000   0.002210   0.000000  -0.000000   0.000000
   46  F  1 XXX   0.000000  -0.000000   0.000000  -0.000000  -0.008289
   47  F  1 YYY  -0.003417  -0.000000   0.000000  -0.000000   0.000000
   48  F  1 ZZZ   0.000000  -0.000000   0.000000  -0.000000   0.000000
   49  F  1 XXY  -0.001528  -0.000000   0.000000  -0.000000   0.000000
   50  F  1 XXZ   0.000000  -0.000000   0.000000  -0.000000   0.000000
   51  F  1 YYX   0.000000  -0.000000   0.000000  -0.000000  -0.003707
   52  F  1 YYZ   0.000000  -0.000000   0.000000  -0.000000   0.000000
   53  F  1 ZZX   0.000000  -0.000000   0.000000  -0.000000   0.014827
   54  F  1 ZZY   0.006113  -0.000000   0.000000  -0.000000   0.000000
   55  F  1 XYZ   0.000000  -0.000000   0.000000  -0.000000   0.000000
   56  RN 2  S    0.000000  -0.000000   0.000000   0.174275   0.000000
   57  RN 2  X    0.000000  -0.000000   0.174847  -0.000000   0.049752
   58  RN 2  Y    0.202834   0.174847   0.000000  -0.000000   0.000000
   59  RN 2  Z    0.000000  -0.000000   0.000000   0.281574   0.000000
   60  RN 2  S    0.000000  -0.000000   0.000000   0.114109   0.000000
   61  RN 2  X    0.000000  -0.000000  -0.007247  -0.000000  -0.003225
   62  RN 2  Y   -0.009299  -0.007247   0.000000  -0.000000   0.000000
   63  RN 2  Z    0.000000  -0.000000   0.000000   0.002753   0.000000
   64  RN 3  S    0.000000  -0.000000   0.000000   0.174275   0.000000
   65  RN 3  X    0.000000  -0.000000  -0.174847  -0.000000   0.049752
   66  RN 3  Y    0.202834  -0.174847   0.000000  -0.000000   0.000000
   67  RN 3  Z    0.000000  -0.000000   0.000000  -0.281574   0.000000
   68  RN 3  S    0.000000  -0.000000   0.000000   0.114109   0.000000
   69  RN 3  X    0.000000  -0.000000   0.007247  -0.000000  -0.003225
   70  RN 3  Y   -0.009299   0.007247   0.000000  -0.000000   0.000000
   71  RN 3  Z    0.000000  -0.000000   0.000000  -0.002753   0.000000
   72  F  4  S    0.000000  -0.000000   0.000000   0.010499   0.000000
   73  F  4  S    0.000000  -0.000000   0.000000   0.080136   0.000000
   74  F  4  S    0.000000  -0.000000   0.000000   0.023339   0.000000
   75  F  4  S    0.000000  -0.000000   0.000000   0.016844   0.000000
   76  F  4  X    0.000000  -0.000000   0.253147  -0.000000  -0.119888
   77  F  4  Y    0.225129   0.253147   0.000000  -0.000000   0.000000
   78  F  4  Z    0.000000  -0.000000   0.000000  -0.214101   0.000000
   79  F  4  X    0.000000  -0.000000   0.310994  -0.000000  -0.146385
   80  F  4  Y    0.276873   0.310994   0.000000  -0.000000   0.000000
   81  F  4  Z    0.000000  -0.000000   0.000000  -0.267832   0.000000
   82  F  4  X    0.000000  -0.000000   0.240757  -0.000000  -0.118036
   83  F  4  Y    0.212750   0.240757   0.000000  -0.000000   0.000000
   84  F  4  Z    0.000000  -0.000000   0.000000  -0.239666   0.000000
   85  F  4 XX    0.000000  -0.000000   0.000000   0.000901   0.000000
   86  F  4 YY    0.000000  -0.000000   0.000000   0.000901   0.000000
   87  F  4 ZZ    0.000000  -0.000000   0.000000  -0.001803   0.000000
   88  F  4 XY    0.000000  -0.000000   0.000000  -0.000000   0.000000
   89  F  4 XZ    0.000000  -0.000000   0.002397  -0.000000  -0.001139
   90  F  4 YZ    0.002128   0.002397   0.000000  -0.000000   0.000000
   91  F  4 XX    0.000000  -0.000000   0.000000   0.009889   0.000000
   92  F  4 YY    0.000000  -0.000000   0.000000   0.009889   0.000000
   93  F  4 ZZ    0.000000  -0.000000   0.000000  -0.019777   0.000000
   94  F  4 XY    0.000000  -0.000000   0.000000  -0.000000   0.000000
   95  F  4 XZ    0.000000  -0.000000   0.009208  -0.000000  -0.002759
   96  F  4 YZ    0.008769   0.009208   0.000000  -0.000000   0.000000
   97  F  4 XXX   0.000000  -0.000000   0.000485  -0.000000  -0.000340
   98  F  4 YYY   0.000393   0.000485   0.000000  -0.000000   0.000000
   99  F  4 ZZZ   0.000000  -0.000000   0.000000   0.001236   0.000000
  100  F  4 XXY   0.000176   0.000217   0.000000  -0.000000   0.000000
  101  F  4 XXZ   0.000000  -0.000000   0.000000  -0.000829   0.000000
  102  F  4 YYX   0.000000  -0.000000   0.000217  -0.000000  -0.000152
  103  F  4 YYZ   0.000000  -0.000000   0.000000  -0.000829   0.000000
  104  F  4 ZZX   0.000000  -0.000000  -0.000867  -0.000000   0.000609
  105  F  4 ZZY  -0.000704  -0.000867   0.000000  -0.000000   0.000000
  106  F  4 XYZ   0.000000  -0.000000   0.000000  -0.000000   0.000000
  107  F  4  S    0.000000  -0.000000   0.000000  -0.018476   0.000000
  108  F  4  X    0.000000  -0.000000   0.018333  -0.000000  -0.009530
  109  F  4  Y    0.015902   0.018333   0.000000  -0.000000   0.000000
  110  F  4  Z    0.000000  -0.000000   0.000000  -0.000284   0.000000
  111  F  4 XX    0.000000  -0.000000   0.000000   0.015345   0.000000
  112  F  4 YY    0.000000  -0.000000   0.000000   0.015345   0.000000
  113  F  4 ZZ    0.000000  -0.000000   0.000000  -0.030690   0.000000
  114  F  4 XY    0.000000  -0.000000   0.000000  -0.000000   0.000000
  115  F  4 XZ    0.000000  -0.000000   0.031623  -0.000000  -0.018509
  116  F  4 YZ    0.026833   0.031623   0.000000  -0.000000   0.000000
  117  F  4 XXX   0.000000  -0.000000  -0.007095  -0.000000   0.003527
  118  F  4 YYY  -0.006256  -0.007095   0.000000  -0.000000   0.000000
  119  F  4 ZZZ   0.000000  -0.000000   0.000000  -0.015554   0.000000
  120  F  4 XXY  -0.002798  -0.003173   0.000000  -0.000000   0.000000
  121  F  4 XXZ   0.000000  -0.000000   0.000000   0.010434   0.000000
  122  F  4 YYX   0.000000  -0.000000  -0.003173  -0.000000   0.001577
  123  F  4 YYZ   0.000000  -0.000000   0.000000   0.010434   0.000000
  124  F  4 ZZX   0.000000  -0.000000   0.012691  -0.000000  -0.006309
  125  F  4 ZZY   0.011190   0.012691   0.000000  -0.000000   0.000000
  126  F  4 XYZ   0.000000  -0.000000   0.000000  -0.000000   0.000000
  127  F  5  S    0.000000  -0.000000   0.000000   0.010499   0.000000
  128  F  5  S    0.000000  -0.000000   0.000000   0.080136   0.000000
  129  F  5  S    0.000000  -0.000000   0.000000   0.023339   0.000000
  130  F  5  S    0.000000  -0.000000   0.000000   0.016844   0.000000
  131  F  5  X    0.000000  -0.000000  -0.253147  -0.000000  -0.119888
  132  F  5  Y    0.225129  -0.253147   0.000000  -0.000000   0.000000
  133  F  5  Z    0.000000  -0.000000   0.000000   0.214101   0.000000
  134  F  5  X    0.000000  -0.000000  -0.310994  -0.000000  -0.146385
  135  F  5  Y    0.276873  -0.310994   0.000000  -0.000000   0.000000
  136  F  5  Z    0.000000  -0.000000   0.000000   0.267832   0.000000
  137  F  5  X    0.000000  -0.000000  -0.240757  -0.000000  -0.118036
  138  F  5  Y    0.212750  -0.240757   0.000000  -0.000000   0.000000
  139  F  5  Z    0.000000  -0.000000   0.000000   0.239666   0.000000
  140  F  5 XX    0.000000  -0.000000   0.000000   0.000901   0.000000
  141  F  5 YY    0.000000  -0.000000   0.000000   0.000901   0.000000
  142  F  5 ZZ    0.000000  -0.000000   0.000000  -0.001803   0.000000
  143  F  5 XY    0.000000  -0.000000   0.000000  -0.000000   0.000000
  144  F  5 XZ    0.000000  -0.000000   0.002397  -0.000000   0.001139
  145  F  5 YZ   -0.002128   0.002397   0.000000  -0.000000   0.000000
  146  F  5 XX    0.000000  -0.000000   0.000000   0.009889   0.000000
  147  F  5 YY    0.000000  -0.000000   0.000000   0.009889   0.000000
  148  F  5 ZZ    0.000000  -0.000000   0.000000  -0.019777   0.000000
  149  F  5 XY    0.000000  -0.000000   0.000000  -0.000000   0.000000
  150  F  5 XZ    0.000000  -0.000000   0.009208  -0.000000   0.002759
  151  F  5 YZ   -0.008769   0.009208   0.000000  -0.000000   0.000000
  152  F  5 XXX   0.000000  -0.000000  -0.000485  -0.000000  -0.000340
  153  F  5 YYY   0.000393  -0.000485   0.000000  -0.000000   0.000000
  154  F  5 ZZZ   0.000000  -0.000000   0.000000  -0.001236   0.000000
  155  F  5 XXY   0.000176  -0.000217   0.000000  -0.000000   0.000000
  156  F  5 XXZ   0.000000  -0.000000   0.000000   0.000829   0.000000
  157  F  5 YYX   0.000000  -0.000000  -0.000217  -0.000000  -0.000152
  158  F  5 YYZ   0.000000  -0.000000   0.000000   0.000829   0.000000
  159  F  5 ZZX   0.000000  -0.000000   0.000867  -0.000000   0.000609
  160  F  5 ZZY  -0.000704   0.000867   0.000000  -0.000000   0.000000
  161  F  5 XYZ   0.000000  -0.000000   0.000000  -0.000000   0.000000
  162  F  5  S    0.000000  -0.000000   0.000000  -0.018476   0.000000
  163  F  5  X    0.000000  -0.000000  -0.018333  -0.000000  -0.009530
  164  F  5  Y    0.015902  -0.018333   0.000000  -0.000000   0.000000
  165  F  5  Z    0.000000  -0.000000   0.000000   0.000284   0.000000
  166  F  5 XX    0.000000  -0.000000   0.000000   0.015345   0.000000
  167  F  5 YY    0.000000  -0.000000   0.000000   0.015345   0.000000
  168  F  5 ZZ    0.000000  -0.000000   0.000000  -0.030690   0.000000
  169  F  5 XY    0.000000  -0.000000   0.000000  -0.000000   0.000000
  170  F  5 XZ    0.000000  -0.000000   0.031623  -0.000000   0.018509
  171  F  5 YZ   -0.026833   0.031623   0.000000  -0.000000   0.000000
  172  F  5 XXX   0.000000  -0.000000   0.007095  -0.000000   0.003527
  173  F  5 YYY  -0.006256   0.007095   0.000000  -0.000000   0.000000
  174  F  5 ZZZ   0.000000  -0.000000   0.000000   0.015554   0.000000
  175  F  5 XXY  -0.002798   0.003173   0.000000  -0.000000   0.000000
  176  F  5 XXZ   0.000000  -0.000000   0.000000  -0.010434   0.000000
  177  F  5 YYX   0.000000  -0.000000   0.003173  -0.000000   0.001577
  178  F  5 YYZ   0.000000  -0.000000   0.000000  -0.010434   0.000000
  179  F  5 ZZX   0.000000  -0.000000  -0.012691  -0.000000  -0.006309
  180  F  5 ZZY   0.011190  -0.012691   0.000000  -0.000000   0.000000
  181  F  5 XYZ   0.000000  -0.000000   0.000000  -0.000000   0.000000

                     16         17         18         19         20
                   -0.8309    -0.7475    -0.6664    -0.6664    -0.6551
                     EU         A2U        EG         EG         EU  
    1  F  1  S    0.000000  -0.000000   0.000000  -0.000000  -0.000000
    2  F  1  S    0.000000  -0.000000   0.000000  -0.000000  -0.000000
    3  F  1  S    0.000000  -0.000000   0.000000  -0.000000  -0.000000
    4  F  1  S    0.000000  -0.000000   0.000000  -0.000000  -0.000000
    5  F  1  X    0.000000  -0.000000   0.000000  -0.000000  -0.102352
    6  F  1  Y    0.330968  -0.000000   0.000000  -0.000000  -0.000000
    7  F  1  Z    0.000000   0.244021   0.000000  -0.000000  -0.000000
    8  F  1  X    0.000000  -0.000000   0.000000  -0.000000  -0.123426
    9  F  1  Y    0.405228  -0.000000   0.000000  -0.000000  -0.000000
   10  F  1  Z    0.000000   0.285424   0.000000  -0.000000  -0.000000
   11  F  1  X    0.000000  -0.000000   0.000000  -0.000000  -0.120225
   12  F  1  Y    0.335254  -0.000000   0.000000  -0.000000  -0.000000
   13  F  1  Z    0.000000   0.349524   0.000000  -0.000000  -0.000000
   14  F  1 XX    0.000000  -0.000000   0.000000  -0.000000  -0.000000
   15  F  1 YY    0.000000  -0.000000   0.000000  -0.000000  -0.000000
   16  F  1 ZZ    0.000000  -0.000000   0.000000  -0.000000  -0.000000
   17  F  1 XY    0.000000  -0.000000   0.000000  -0.000000  -0.000000
   18  F  1 XZ    0.000000  -0.000000   0.000000  -0.001022  -0.000000
   19  F  1 YZ    0.000000  -0.000000  -0.001022  -0.000000  -0.000000
   20  F  1 XX    0.000000  -0.000000   0.000000  -0.000000  -0.000000
   21  F  1 YY    0.000000  -0.000000   0.000000  -0.000000  -0.000000
   22  F  1 ZZ    0.000000  -0.000000   0.000000  -0.000000  -0.000000
   23  F  1 XY    0.000000  -0.000000   0.000000  -0.000000  -0.000000
   24  F  1 XZ    0.000000  -0.000000   0.000000  -0.003448  -0.000000
   25  F  1 YZ    0.000000  -0.000000  -0.003448  -0.000000  -0.000000
   26  F  1 XXX   0.000000  -0.000000   0.000000  -0.000000  -0.000496
   27  F  1 YYY   0.000960  -0.000000   0.000000  -0.000000  -0.000000
   28  F  1 ZZZ   0.000000  -0.003111   0.000000  -0.000000  -0.000000
   29  F  1 XXY   0.000429  -0.000000   0.000000  -0.000000  -0.000000
   30  F  1 XXZ   0.000000   0.002087   0.000000  -0.000000  -0.000000
   31  F  1 YYX   0.000000  -0.000000   0.000000  -0.000000  -0.000222
   32  F  1 YYZ   0.000000   0.002087   0.000000  -0.000000  -0.000000
   33  F  1 ZZX   0.000000  -0.000000   0.000000  -0.000000   0.000887
   34  F  1 ZZY  -0.001717  -0.000000   0.000000  -0.000000  -0.000000
   35  F  1 XYZ   0.000000  -0.000000   0.000000  -0.000000  -0.000000
   36  F  1  S    0.000000  -0.000000   0.000000  -0.000000  -0.000000
   37  F  1  X    0.000000  -0.000000   0.000000  -0.000000  -0.012942
   38  F  1  Y    0.042004  -0.000000   0.000000  -0.000000  -0.000000
   39  F  1  Z    0.000000   0.132382   0.000000  -0.000000  -0.000000
   40  F  1 XX    0.000000  -0.000000   0.000000  -0.000000  -0.000000
   41  F  1 YY    0.000000  -0.000000   0.000000  -0.000000  -0.000000
   42  F  1 ZZ    0.000000  -0.000000   0.000000  -0.000000  -0.000000
   43  F  1 XY    0.000000  -0.000000   0.000000  -0.000000  -0.000000
   44  F  1 XZ    0.000000  -0.000000   0.000000  -0.002375  -0.000000
   45  F  1 YZ    0.000000  -0.000000  -0.002375  -0.000000  -0.000000
   46  F  1 XXX   0.000000  -0.000000   0.000000  -0.000000   0.002199
   47  F  1 YYY  -0.008289  -0.000000   0.000000  -0.000000  -0.000000
   48  F  1 ZZZ   0.000000   0.018587   0.000000  -0.000000  -0.000000
   49  F  1 XXY  -0.003707  -0.000000   0.000000  -0.000000  -0.000000
   50  F  1 XXZ   0.000000  -0.012469   0.000000  -0.000000  -0.000000
   51  F  1 YYX   0.000000  -0.000000   0.000000  -0.000000   0.000983
   52  F  1 YYZ   0.000000  -0.012469   0.000000  -0.000000  -0.000000
   53  F  1 ZZX   0.000000  -0.000000   0.000000  -0.000000  -0.003934
   54  F  1 ZZY   0.014827  -0.000000   0.000000  -0.000000  -0.000000
   55  F  1 XYZ   0.000000  -0.000000   0.000000  -0.000000  -0.000000
[...]
  161  F  5 XYZ  -0.000000   0.000000  -0.000000  -0.000000
  162  F  5  S   -0.675203   0.785110  -2.416451  -1.785307
  163  F  5  X   -0.000000   0.000000  -0.000000  -0.000000
  164  F  5  Y   -0.000000   0.000000  -0.000000  -0.000000
  165  F  5  Z    0.214170  -0.290602   0.616265   0.440051
  166  F  5 XX    0.120213  -0.021865   0.001783  -0.022738
  167  F  5 YY    0.120213  -0.021865   0.001783  -0.022738
  168  F  5 ZZ   -0.240426   0.043731  -0.003566   0.045477
  169  F  5 XY   -0.000000   0.000000  -0.000000  -0.000000
  170  F  5 XZ   -0.000000   0.000000  -0.000000  -0.000000
  171  F  5 YZ   -0.000000   0.000000  -0.000000  -0.000000
  172  F  5 XXX  -0.000000   0.000000  -0.000000  -0.000000
  173  F  5 YYY  -0.000000   0.000000  -0.000000  -0.000000
  174  F  5 ZZZ   0.110875   0.013742  -0.021584  -0.032085
  175  F  5 XXY  -0.000000   0.000000  -0.000000  -0.000000
  176  F  5 XXZ  -0.074377  -0.009218   0.014479   0.021523
  177  F  5 YYX  -0.000000   0.000000  -0.000000  -0.000000
  178  F  5 YYZ  -0.074377  -0.009218   0.014479   0.021523
  179  F  5 ZZX  -0.000000   0.000000  -0.000000  -0.000000
  180  F  5 ZZY  -0.000000   0.000000  -0.000000  -0.000000
  181  F  5 XYZ  -0.000000   0.000000  -0.000000  -0.000000
 ...... END OF RHF CALCULATION ......
 STEP CPU TIME =     1.28 TOTAL CPU TIME =        3.1 (    0.1 MIN)
 TOTAL WALL CLOCK TIME=        3.1 SECONDS, CPU UTILIZATION IS  99.03%

     ----------------------------------------------------------------
     PROPERTY VALUES FOR THE RHF   SELF-CONSISTENT FIELD WAVEFUNCTION
     ----------------------------------------------------------------

          -----------------
          ENERGY COMPONENTS
          -----------------

         WAVEFUNCTION NORMALIZATION =       1.0000000000

                ONE ELECTRON ENERGY =    -695.5318802158
                TWO ELECTRON ENERGY =     250.1892105332
           NUCLEAR REPULSION ENERGY =     118.0537388580
                                      ------------------
                       TOTAL ENERGY =    -327.2889308246

 ELECTRON-ELECTRON POTENTIAL ENERGY =     250.1892105332
  NUCLEUS-ELECTRON POTENTIAL ENERGY =   -1001.3572709043
   NUCLEUS-NUCLEUS POTENTIAL ENERGY =     118.0537388580
                                      ------------------
             TOTAL POTENTIAL ENERGY =    -633.1143215131
               TOTAL KINETIC ENERGY =     305.8253906885
                 VIRIAL RATIO (V/T) =       2.0701823354

          ---------------------------------------
          MULLIKEN AND LOWDIN POPULATION ANALYSES
          ---------------------------------------

     ATOMIC MULLIKEN POPULATION IN EACH MOLECULAR ORBITAL

                      1          2          3          4          5

                  2.000000   2.000000   2.000000   2.000000   2.000000

    1             0.000010   0.000000   1.999831   0.021043   0.022130
    2             0.000100   0.000064   0.000084   0.056522   0.059965
    3             0.000100   0.000064   0.000084   0.056522   0.059965
    4             0.999895   0.999936   0.000001   0.932956   0.928970
    5             0.999895   0.999936   0.000001   0.932956   0.928970

                      6          7          8          9         10

                  2.000000   2.000000   2.000000   2.000000   2.000000

    1             1.956996  -0.084553  -0.031217   0.816955   0.312253
    2             0.007839   0.960572   0.923068   0.288053   0.116549
    3             0.007839   0.960572   0.923068   0.288053   0.116549
    4             0.013663   0.081705   0.092541   0.303470   0.727325
    5             0.013663   0.081705   0.092541   0.303470   0.727325

                     11         12         13         14         15

                  2.000000   2.000000   2.000000   2.000000   2.000000

    1             0.312253  -0.000259  -0.000259  -0.045367   1.592513
    2             0.116549   0.086277   0.086277   0.278203   0.006222
    3             0.116549   0.086277   0.086277   0.278203   0.006222
    4             0.727325   0.913853   0.913853   0.744480   0.197522
    5             0.727325   0.913853   0.913853   0.744480   0.197522

                     16         17         18         19         20

                  2.000000   2.000000   2.000000   2.000000   2.000000

    1             1.592513   0.790552   0.001805   0.001805   0.097443
    2             0.006222   0.121716   0.921006   0.921006   0.883094
    3             0.006222   0.121716   0.921006   0.921006   0.883094
    4             0.197522   0.483008   0.078091   0.078091   0.068185
    5             0.197522   0.483008   0.078091   0.078091   0.068185

                     21

                  2.000000

    1             0.097443
    2             0.883094
    3             0.883094
    4             0.068185
    5             0.068185

               ----- POPULATIONS IN EACH AO -----
                             MULLIKEN      LOWDIN
              1  F  1  S      1.95004     1.57466
              2  F  1  S      1.04213     0.61028
              3  F  1  S      0.25818     0.41164
              4  F  1  S      0.70546     0.30039
              5  F  1  X      0.54268     0.49689
              6  F  1  Y      0.54268     0.49689
              7  F  1  Z      0.46062     0.41846
              8  F  1  X      0.85361     0.37789
              9  F  1  Y      0.85361     0.37789
             10  F  1  Z      0.73079     0.33937
             11  F  1  X      0.57276     0.30261
             12  F  1  Y      0.57276     0.30261
             13  F  1  Z      0.65520     0.35008
             14  F  1 XX      0.00003     0.15353
             15  F  1 YY      0.00000     0.15353
             16  F  1 ZZ      0.00000     0.15592
             17  F  1 XY      0.00002     0.00000
             18  F  1 XZ      0.00002     0.00002
             19  F  1 YZ      0.00000     0.00002
             20  F  1 XX      0.00188     0.14991
             21  F  1 YY      0.00000     0.14991
             22  F  1 ZZ      0.00000     0.16602
             23  F  1 XY      0.00046     0.00000
             24  F  1 XZ      0.00046     0.00014
             25  F  1 YZ      0.00000     0.00014
             26  F  1 XXX     0.00000     0.23450
             27  F  1 YYY     0.00000     0.23450
             28  F  1 ZZZ    -0.00002     0.21219
             29  F  1 XXY    -0.00006     0.10237
             30  F  1 XXZ    -0.00002     0.08836
             31  F  1 YYX     0.00000     0.10237
             32  F  1 YYZ     0.00000     0.08836
             33  F  1 ZZX     0.00000     0.10561
             34  F  1 ZZY     0.00000     0.10561
             35  F  1 XYZ     0.00000     0.00000
             36  F  1  S     -0.03998     0.10252
             37  F  1  X      0.03288     0.09818
             38  F  1  Y      0.03288     0.09818
             39  F  1  Z     -0.30235     0.24717
             40  F  1 XX     -0.01646     0.02407
             41  F  1 YY      0.00000     0.02407
             42  F  1 ZZ      0.00000     0.13459
             43  F  1 XY      0.00107     0.00000
             44  F  1 XZ      0.00107     0.04145
             45  F  1 YZ      0.00000     0.04145
             46  F  1 XXX     0.00000     0.17243
             47  F  1 YYY     0.00000     0.17243
             48  F  1 ZZZ     0.00029     0.21876
             49  F  1 XXY     0.00090     0.07431
             50  F  1 XXZ     0.00029     0.07327
             51  F  1 YYX     0.00000     0.07431
             52  F  1 YYZ     0.00000     0.07327
             53  F  1 ZZX     0.00000     0.08647
             54  F  1 ZZY     0.00000     0.08647
             55  F  1 XYZ     0.00000     0.00000
             56  RN 2  S      1.96098     1.28806
             57  RN 2  X      1.92228     1.59697
             58  RN 2  Y      1.92228     1.59697
             59  RN 2  Z      0.51320     0.35276
             60  RN 2  S      0.16561     0.27034
             61  RN 2  X      0.09087     0.27722
             62  RN 2  Y      0.09087     0.27722
             63  RN 2  Z      0.05640     0.05947
             64  RN 3  S      1.96098     1.28806
             65  RN 3  X      1.92228     1.59697
             66  RN 3  Y      1.92228     1.59697
             67  RN 3  Z      0.51320     0.35276
             68  RN 3  S      0.16561     0.27034
             69  RN 3  X      0.09087     0.27722
             70  RN 3  Y      0.09087     0.27722
             71  RN 3  Z      0.05640     0.05947
             72  F  4  S      1.95000     1.57526
             73  F  4  S      1.06567     0.61613
             74  F  4  S      0.26545     0.41664
             75  F  4  S      0.71281     0.29783
             76  F  4  X      0.56061     0.51419
             77  F  4  Y      0.56061     0.51419
             78  F  4  Z      0.39975     0.36392
             79  F  4  X      0.87328     0.38514
             80  F  4  Y      0.87328     0.38514
             81  F  4  Z      0.68105     0.30359
             82  F  4  X      0.54123     0.28576
             83  F  4  Y      0.54123     0.28576
             84  F  4  Z      0.51478     0.33290
             85  F  4 XX      0.00020     0.15777
             86  F  4 YY      0.00000     0.15777
             87  F  4 ZZ      0.00000     0.15892
             88  F  4 XY      0.00012     0.00000
             89  F  4 XZ      0.00012     0.00013
             90  F  4 YZ      0.00000     0.00013
             91  F  4 XX      0.00602     0.15007
             92  F  4 YY      0.00000     0.15007
             93  F  4 ZZ      0.00000     0.16745
             94  F  4 XY      0.00191     0.00000
             95  F  4 XZ      0.00191     0.00193
             96  F  4 YZ      0.00000     0.00193
             97  F  4 XXX     0.00000     0.23933
             98  F  4 YYY     0.00000     0.23933
             99  F  4 ZZZ    -0.00000     0.18988
            100  F  4 XXY    -0.00005     0.10452
            101  F  4 XXZ    -0.00000     0.07786
            102  F  4 YYX     0.00000     0.10452
            103  F  4 YYZ     0.00000     0.07786
            104  F  4 ZZX     0.00000     0.10889
            105  F  4 ZZY     0.00000     0.10889
            106  F  4 XYZ     0.00000     0.00000
            107  F  4  S     -0.02294     0.09197
            108  F  4  X      0.00981     0.06823
            109  F  4  Y      0.00981     0.06823
            110  F  4  Z     -0.00337     0.14356
            111  F  4 XX      0.00940     0.02273
            112  F  4 YY      0.00000     0.02273
            113  F  4 ZZ      0.00000     0.11511
            114  F  4 XY     -0.00235     0.00000
            115  F  4 XZ     -0.00235     0.04651
            116  F  4 YZ      0.00000     0.04651
            117  F  4 XXX     0.00000     0.16668
            118  F  4 YYY     0.00000     0.16668
            119  F  4 ZZZ     0.00037     0.20377
            120  F  4 XXY     0.00185     0.07168
            121  F  4 XXZ     0.00037     0.06271
            122  F  4 YYX     0.00000     0.07168
            123  F  4 YYZ     0.00000     0.06271
            124  F  4 ZZX     0.00000     0.08640
            125  F  4 ZZY     0.00000     0.08640
            126  F  4 XYZ     0.00000     0.00000
            127  F  5  S      1.95000     1.57526
            128  F  5  S      1.06567     0.61613
            129  F  5  S      0.26545     0.41664
            130  F  5  S      0.71281     0.29783
            131  F  5  X      0.56061     0.51419
            132  F  5  Y      0.56061     0.51419
            133  F  5  Z      0.39975     0.36392
            134  F  5  X      0.87328     0.38514
            135  F  5  Y      0.87328     0.38514
            136  F  5  Z      0.68105     0.30359
            137  F  5  X      0.54123     0.28576
            138  F  5  Y      0.54123     0.28576
            139  F  5  Z      0.51478     0.33290
            140  F  5 XX      0.00020     0.15777
            141  F  5 YY      0.00000     0.15777
            142  F  5 ZZ      0.00000     0.15892
            143  F  5 XY      0.00012     0.00000
            144  F  5 XZ      0.00012     0.00013
            145  F  5 YZ      0.00000     0.00013
            146  F  5 XX      0.00602     0.15007
            147  F  5 YY      0.00000     0.15007
            148  F  5 ZZ      0.00000     0.16745
            149  F  5 XY      0.00191     0.00000
            150  F  5 XZ      0.00191     0.00193
            151  F  5 YZ      0.00000     0.00193
            152  F  5 XXX     0.00000     0.23933
            153  F  5 YYY     0.00000     0.23933
            154  F  5 ZZZ    -0.00000     0.18988
            155  F  5 XXY    -0.00005     0.10452
            156  F  5 XXZ    -0.00000     0.07786
            157  F  5 YYX     0.00000     0.10452
            158  F  5 YYZ     0.00000     0.07786
            159  F  5 ZZX     0.00000     0.10889
            160  F  5 ZZY     0.00000     0.10889
            161  F  5 XYZ     0.00000     0.00000
            162  F  5  S     -0.02294     0.09197
            163  F  5  X      0.00981     0.06823
            164  F  5  Y      0.00981     0.06823
            165  F  5  Z     -0.00337     0.14356
            166  F  5 XX      0.00940     0.02273
            167  F  5 YY      0.00000     0.02273
            168  F  5 ZZ      0.00000     0.11511
            169  F  5 XY     -0.00235     0.00000
            170  F  5 XZ     -0.00235     0.04651
            171  F  5 YZ      0.00000     0.04651
            172  F  5 XXX     0.00000     0.16668
            173  F  5 YYY     0.00000     0.16668
            174  F  5 ZZZ     0.00037     0.20377
            175  F  5 XXY     0.00185     0.07168
            176  F  5 XXZ     0.00037     0.06271
            177  F  5 YYX     0.00000     0.07168
            178  F  5 YYZ     0.00000     0.06271
            179  F  5 ZZX     0.00000     0.08640
            180  F  5 ZZY     0.00000     0.08640
            181  F  5 XYZ     0.00000     0.00000

          ----- MULLIKEN ATOMIC OVERLAP POPULATIONS -----
          (OFF-DIAGONAL ELEMENTS NEED TO BE MULTIPLIED BY 2)

             1           2           3           4           5

    1   10.2304178
    2   -0.4097740   7.3475232
    3   -0.4097740  -0.0873863   7.3475232
    4    0.0215090  -0.1279476   0.0000648   9.6569526
    5    0.0215090   0.0000648  -0.1279476  -0.0000029   9.6569526

          TOTAL MULLIKEN AND LOWDIN ATOMIC POPULATIONS
       ATOM         MULL.POP.    CHARGE          LOW.POP.     CHARGE
    1 F             9.453888   -0.453888        10.406054   -1.406054
    2 RN            6.722480    1.277520         5.719002    2.280998
    3 RN            6.722480    1.277520         5.719002    2.280998
    4 F             9.550576   -0.550576        10.077970   -1.077970
    5 F             9.550576   -0.550576        10.077970   -1.077970

          MULLIKEN SPHERICAL HARMONIC POPULATIONS
       ATOM           S       P       D      F      G      H      I    TOTAL
    1 F             3.92    5.55   -0.01   0.00   0.00   0.00   0.00    9.45
    2 RN            2.13    4.60    0.00   0.00   0.00   0.00   0.00    6.72
    3 RN            2.13    4.60    0.00   0.00   0.00   0.00   0.00    6.72
    4 F             3.97    5.56    0.01   0.00   0.00   0.00   0.00    9.55
    5 F             3.97    5.56    0.01   0.00   0.00   0.00   0.00    9.55

          -------------------------------
          BOND ORDER AND VALENCE ANALYSIS     BOND ORDER THRESHOLD=0.050
          -------------------------------

                   BOND                       BOND                       BOND
  ATOM PAIR DIST  ORDER      ATOM PAIR DIST  ORDER      ATOM PAIR DIST  ORDER
    1   2  2.252 -0.214        1   3  2.252 -0.214        1   4  4.191 -0.069
    1   5  4.191 -0.069        2   4  1.939  0.544        3   5  1.939  0.544

                       TOTAL       BONDED        FREE
      ATOM            VALENCE     VALENCE     VALENCE
    1 F                -0.566      -0.566      -0.000
    2 RN                0.306       0.306       0.000
    3 RN                0.306       0.306       0.000
    4 F                 0.464       0.464      -0.000
    5 F                 0.464       0.464      -0.000

          ---------------------
          ELECTROSTATIC MOMENTS
          ---------------------

 POINT   1           X           Y           Z (BOHR)    CHARGE
                 0.000000    0.000000    0.000000        1.00 (A.U.)
         DX          DY          DZ         /D/  (DEBYE)
     0.000000    0.000000    0.000000    0.000000
 ...... END OF PROPERTY EVALUATION ......
 STEP CPU TIME =     0.06 TOTAL CPU TIME =        3.1 (    0.1 MIN)
 TOTAL WALL CLOCK TIME=        3.1 SECONDS, CPU UTILIZATION IS  99.36%

 BEGINNING ONE ELECTRON GRADIENT...
 TIME TO DO ORDINARY GRADIENT INTEGRALS=      0.03
 TIME TO DO      ECP GRADIENT INTEGRALS=      0.80
 ..... END OF 1-ELECTRON GRADIENT ......
 STEP CPU TIME =     0.83 TOTAL CPU TIME =        4.0 (    0.1 MIN)
 TOTAL WALL CLOCK TIME=        4.0 SECONDS, CPU UTILIZATION IS  99.25%

          ----------------------
          GRADIENT OF THE ENERGY
          ----------------------

 THE MINIMUM MEMORY REQUIRED FOR THIS RUN IS     353295 WORDS.
 USING     997565 WORDS FOR 2E- DERIVATIVE INTEGRAL CONTRIBUTIONS.
 THE COARSE/FINE SCHWARZ SCREENINGS SKIPPED            0/         301 BLOCKS.
 THE NUMBER OF GRADIENT INTEGRAL BLOCKS COMPUTED WAS    203523
 ...... END OF 2-ELECTRON GRADIENT ......
 STEP CPU TIME =     2.56 TOTAL CPU TIME =        6.5 (    0.1 MIN)
 TOTAL WALL CLOCK TIME=        6.5 SECONDS, CPU UTILIZATION IS  99.39%

                         ----------------------
                         GRADIENT OF THE ENERGY
                         ----------------------

 UNITS ARE HARTREE/BOHR    E'X               E'Y               E'Z 
    1 F                0.000000000       0.000000000       0.000000000
    2 RN               0.000000000       0.000000000       0.000000663
    3 RN               0.000000000       0.000000000      -0.000000663
    4 F                0.000000000       0.000000000      -0.000001620
    5 F                0.000000000       0.000000000       0.000001620

                   MAXIMUM GRADIENT =    0.000001620
                       RMS GRADIENT =    0.000000639
  $VIB   
          IVIB=   0 IATOM=   0 ICOORD=   0 E=     -327.2889308246
  0.000000000E+00 0.000000000E+00 0.000000000E+00 0.000000000E+00 0.000000000E+00
  6.634947957E-07 0.000000000E+00 0.000000000E+00-6.634947957E-07 0.000000000E+00
  0.000000000E+00-1.619882270E-06 0.000000000E+00 0.000000000E+00 1.619882270E-06
  0.000000000E+00 0.000000000E+00 6.140513449E-13

..... END OF SINGLE POINT GRADIENT .....
 STEP CPU TIME =     0.00 TOTAL CPU TIME =        6.5 (    0.1 MIN)
 TOTAL WALL CLOCK TIME=        6.5 SECONDS, CPU UTILIZATION IS  99.39%
               997565  WORDS OF DYNAMIC MEMORY USED
 EXECUTION OF GAMESS TERMINATED NORMALLY Fri Jun  2 00:59:04 2017
 DDI: 263640 bytes (0.3 MB / 0 MWords) used by master data server.

 ----------------------------------------
 CPU timing information for all processes
 ========================================
 0: 6.358 + 0.166 = 6.525
 ----------------------------------------
 ddikick.x: exited gracefully.
unset echo
----- accounting info -----
Files used on the master node compute-0-8.local were:
-rw-rw-r-- 1 sarom sarom     1130 Jun  2 00:58 /scratch/ecp-rn2f3.F05
-rw-rw-r-- 1 sarom sarom 73446528 Jun  2 00:58 /scratch/ecp-rn2f3.F08
-rw-rw-r-- 1 sarom sarom  8081840 Jun  2 00:59 /scratch/ecp-rn2f3.F10
rm: cannot remove `/scratch/sarom': Is a directory
rm: cannot remove `/scratch/tmp': Is a directory
ls: No match.
ls: No match.
ls: No match.
Fri Jun  2 00:59:07 CDT 2017
0.259u 0.234s 0:10.11 4.7%	0+0k 8+368io 0pf+0w
Deleting shmid=2785280.
Deleting shmid=2818049.
/opt/gridengine/default/spool/compute-0-8/active_jobs/23515.1/pe_hostfile compute-0-8.local
