----- GAMESS execution script 'rungms' -----
This job is running on host compute-3-0
under operating system Linux at Mon Nov 28 18:29:55 CST 2016
Available scratch disk space (Kbyte units) at beginning of the job is
Filesystem            1K-blocks       Used  Available Use% Mounted on
bolt.local:/export/home/sarom
                     9590469632 1552119808 7551181824  18% /home/sarom
Copying input file ecp-luclhoh.inp to your run's scratch directory...
cp ecp-luclhoh.inp .//ecp-luclhoh.F05
unset echo
/home/sarom/gamessGH/ddikick.x /home/sarom/gamessGH/gamess.00.x ecp-luclhoh -ddi 1 1 localhost -scr ./

 Distributed Data Interface kickoff program.
 Initiating 1 compute processes on 1 nodes to run the following command:
 /home/sarom/gamessGH/gamess.00.x ecp-luclhoh 

          ******************************************************
          *         GAMESS VERSION = 18 AUG 2016 (R1)          *
          *             FROM IOWA STATE UNIVERSITY             *
          * M.W.SCHMIDT, K.K.BALDRIDGE, J.A.BOATZ, S.T.ELBERT, *
          *   M.S.GORDON, J.H.JENSEN, S.KOSEKI, N.MATSUNAGA,   *
          *          K.A.NGUYEN, S.J.SU, T.L.WINDUS,           *
          *       TOGETHER WITH M.DUPUIS, J.A.MONTGOMERY       *
          *         J.COMPUT.CHEM.  14, 1347-1363(1993)        *
          **************** 64 BIT LINUX VERSION ****************

  SINCE 1993, STUDENTS AND POSTDOCS WORKING AT IOWA STATE UNIVERSITY
  AND ALSO IN THEIR VARIOUS JOBS AFTER LEAVING ISU HAVE MADE IMPORTANT
  CONTRIBUTIONS TO THE CODE:
     IVANA ADAMOVIC, CHRISTINE AIKENS, YURI ALEXEEV, POOJA ARORA,
     ANDREY ASADCHEV, ROB BELL, PRADIPTA BANDYOPADHYAY, JONATHAN BENTZ,
     BRETT BODE, KURT BRORSEN, CALEB CARLIN, GALINA CHABAN, WEI CHEN,
     CHEOL HO CHOI, PAUL DAY, ALBERT DEFUSCO, NUWAN DESILVA, TIM DUDLEY,
     DMITRI FEDOROV, GRAHAM FLETCHER, MARK FREITAG, KURT GLAESEMANN,
     DAN KEMP, GRANT MERRILL, NORIYUKI MINEZAWA, JONATHAN MULLIN,
     TAKESHI NAGATA, SEAN NEDD, HEATHER NETZLOFF, BOSILJKA NJEGIC, RYAN OLSON,
     MIKE PAK, SPENCER PRUITT, LUKE ROSKOP, JIM SHOEMAKER, LYUDMILA SLIPCHENKO,
     TONY SMITH, SAROM SOK LEANG, JIE SONG, TETSUYA TAKETSUGU, SIMON WEBB,
     PENG XU, SOOHAENG YOO, FEDERICO ZAHARIEV

  ADDITIONAL CODE HAS BEEN PROVIDED BY COLLABORATORS IN OTHER GROUPS:
     IOWA STATE UNIVERSITY:
          JOE IVANIC, AARON WEST, LAIMUTIS BYTAUTAS, KLAUS RUEDENBERG
     UNIVERSITY OF TOKYO: KIMIHIKO HIRAO, TAKAHITO NAKAJIMA,
          TAKAO TSUNEDA, MUNEAKI KAMIYA, SUSUMU YANAGISAWA,
          KIYOSHI YAGI, MAHITO CHIBA, SEIKEN TOKURA, NAOAKI KAWAKAMI
     UNIVERSITY OF AARHUS: FRANK JENSEN
     UNIVERSITY OF IOWA: VISVALDAS KAIRYS, HUI LI
     NATIONAL INST. OF STANDARDS AND TECHNOLOGY: WALT STEVENS, DAVID GARMER
     UNIVERSITY OF PISA: BENEDETTA MENNUCCI, JACOPO TOMASI
     UNIVERSITY OF MEMPHIS: HENRY KURTZ, PRAKASHAN KORAMBATH
     UNIVERSITY OF ALBERTA: TOBY ZENG, MARIUSZ KLOBUKOWSKI
     UNIVERSITY OF NEW ENGLAND: MARK SPACKMAN
     MIE UNIVERSITY: HIROAKI UMEDA
     NAT. INST. OF ADVANCED INDUSTRIAL SCIENCE AND TECHNOLOGY: KAZUO KITAURA
     MICHIGAN STATE UNIVERSITY:
          KAROL KOWALSKI, MARTA WLOCH, JEFFREY GOUR, JESSE LUTZ,
          WEI LI, PIOTR PIECUCH
     UNIVERSITY OF SILESIA: MONIKA MUSIAL, STANISLAW KUCHARSKI
     FACULTES UNIVERSITAIRES NOTRE-DAME DE LA PAIX:
          OLIVIER QUINET, BENOIT CHAMPAGNE
     UNIVERSITY OF CALIFORNIA - SANTA BARBARA: BERNARD KIRTMAN
     INSTITUTE FOR MOLECULAR SCIENCE:
          KAZUYA ISHIMURA, MICHIO KATOUDA, AND SHIGERU NAGASE
     UNIVERSITY OF NOTRE DAME: ANNA POMOGAEVA, DAN CHIPMAN
     KYUSHU UNIVERSITY:
          HARUYUKI NAKANO,
          FENG LONG GU, JACEK KORCHOWIEC, MARCIN MAKOWSKI, AND YURIKO AOKI,
          HIROTOSHI MORI AND EISAKU MIYOSHI
     PENNSYLVANIA STATE UNIVERSITY:
          TZVETELIN IORDANOV, CHET SWALINA, JONATHAN SKONE,
          SHARON HAMMES-SCHIFFER
     WASEDA UNIVERSITY:
          MASATO KOBAYASHI, TOMOKO AKAMA, TSUGUKI TOUMA,
          TAKESHI YOSHIKAWA, YASUHIRO IKABATA, JUNJI SEINO,
          YUYA NAKAJIMA, HIROMI NAKAI
     NANJING UNIVERSITY: SHUHUA LI
     UNIVERSITY OF NEBRASKA:
          PEIFENG SU, DEJUN SI, NANDUN THELLAMUREGE, YALI WANG, HUI LI
     UNIVERSITY OF ZURICH: ROBERTO PEVERATI, KIM BALDRIDGE
     N. COPERNICUS UNIVERSITY AND JACKSON STATE UNIVERSITY:
          MARIA BARYSZ
     UNIVERSITY OF COPENHAGEN: Jimmy Kromann, CASPER STEINMANN
     TOKYO INSTITUTE OF TECHNOLOGY: HIROYA NAKATA
     NAGOYA UNIVERSITY: YOSHIO NISHIMOTO, STEPHAN IRLE
     MOSCOW STATE UNIVERSITY: VLADIMIR MIRONOV

 EXECUTION OF GAMESS BEGUN Mon Nov 28 18:29:55 2016

            ECHO OF THE FIRST FEW INPUT CARDS -
 INPUT CARD>!  This run tests f ECP integrals and f potential in C1 geometries              
 INPUT CARD>!  SCF convergence requires damping                                             
 INPUT CARD>!                                                                               
 INPUT CARD>!  FINAL E= -303.7370457644 in 23 iters, RMS= 0.026393713                       
 INPUT CARD>!                                                                               
 INPUT CARD>!  This run takes 3 seconds on a 2.66 GHz Cloverton ( 6 Apr 2015)               
 INPUT CARD>!  results have been changing little since 2005                                 
 INPUT CARD>!                                                                               
 INPUT CARD>!  5/2013: starts at -293.1712209177, rises 81 Hatree on iter #2,               
 INPUT CARD>!  and kicks in the SOSCF converger at iter 13 (E= -303.729),                   
 INPUT CARD>!  going reasonably from that.  Huckel guess isn't so hot!                      
 INPUT CARD>!                                                                               
 INPUT CARD> $contrl scftyp=rhf runtyp=gradient pp=sbkjc coord=zmt nzvar=9 $end             
 INPUT CARD> $system mwords=1 timlim=10 $end                                                
 INPUT CARD> $guess  guess=huckel $end                                                      
 INPUT CARD> $basis  gbasis=sbkjc $end                                                      
 INPUT CARD> $scf    damp=.true. $end                                                       
 INPUT CARD> $zmat   izmat(1)=1,1,2,  1,1,3,  1,3,4,  1,1,5,                                
 INPUT CARD>           2,2,1,3,  2,5,1,3,  2,1,3,4,                                         
 INPUT CARD>           3,4,3,1,2,  3,4,3,1,5 $end                                           
 INPUT CARD> $statpt opttol=1d-5 nstep=50 $end                                              
 INPUT CARD> $data                                                                          
 INPUT CARD>LuClH(OH)...arbitrary C1 geometry...minimum is nearly collinear LuOH.           
 INPUT CARD>C1                                                                              
 INPUT CARD>Lu                                                                              
 INPUT CARD>Cl  1  rLuCl                                                                    
 INPUT CARD>O   1  rLuO   2 aOLuCl                                                          
 INPUT CARD>H   3  rOH    1 aHOLu   2 w                                                     
 INPUT CARD>H   1  rLuH   2 aHLuCl  3 aHLuO +1                                              
 INPUT CARD>                                                                                
 INPUT CARD>rLuCl=2.6                                                                       
 INPUT CARD>rLuO=2.2                                                                        
 INPUT CARD>rOH=1.0                                                                         
 INPUT CARD>rLuH=1.8                                                                        
 INPUT CARD>aOLuCl=108.0                                                                    
 INPUT CARD>aHOLu=109.0                                                                     
 INPUT CARD>aHLuCl=106.0                                                                    
 INPUT CARD>aHLuO=105.0                                                                     
 INPUT CARD>w=90.0                                                                          
 INPUT CARD> $end                                                                           
    1000000 WORDS OF MEMORY AVAILABLE

     BASIS OPTIONS
     -------------
     GBASIS=SBKJC        IGAUSS=       0      POLAR=NONE    
     NDFUNC=       0     NFFUNC=       0     DIFFSP=       F
     NPFUNC=       0      DIFFS=       F     BASNAM=        


     RUN TITLE
     ---------
 LuClH(OH)...arbitrary C1 geometry...minimum is nearly collinear LuOH.           

 THE POINT GROUP OF THE MOLECULE IS C1      
 THE ORDER OF THE PRINCIPAL AXIS IS     0

 YOUR FULLY SUBSTITUTED Z-MATRIX IS
 LU  
 CL     1   2.6000000
 O      1   2.2000000  2  108.0000
 H      3   1.0000000  1  109.0000  2   90.0000  0
 H      1   1.8000000  2  106.0000  3  105.0000  1

 THE MOMENTS OF INERTIA ARE (AMU-ANGSTROM**2)
 IXX=    65.727   IYY=   229.300   IZZ=   288.447

 ATOM      ATOMIC                      COORDINATES (BOHR)
           CHARGE         X                   Y                   Z
 LU         71.0    -0.5687955511       -0.4328738524       -0.0292958707
 CL         17.0     4.2139919185        0.6906934326        0.0248825634
 O           8.0    -2.7245643772        3.1156800473        0.1813631981
 H           1.0    -3.0476738168        3.7442250341       -1.5712336746
 H           1.0    -1.1928843608       -2.0182100405        2.9147609712

          INTERNUCLEAR DISTANCES (ANGS.)
          ------------------------------

                1 LU         2 CL         3 O          4 H          5 H     

   1 LU      0.0000000    2.6000000 *  2.2000000 *  2.6967573 *  1.8000000 *
   2 CL      2.6000000 *  0.0000000    3.8903926    4.2533288    3.5468247  
   3 O       2.2000000 *  3.8903926    0.0000000    1.0000000 *  3.1827420  
   4 H       2.6967573 *  4.2533288    1.0000000 *  0.0000000    3.9871337  
   5 H       1.8000000 *  3.5468247    3.1827420    3.9871337    0.0000000  

  * ... LESS THAN  3.000


     ATOMIC BASIS SET
     ----------------
 THE CONTRACTED PRIMITIVE FUNCTIONS HAVE BEEN UNNORMALIZED
 THE CONTRACTED BASIS FUNCTIONS ARE NOW NORMALIZED TO UNITY

  SHELL TYPE  PRIMITIVE        EXPONENT          CONTRACTION COEFFICIENT(S)

 LU        

      1   L       1             9.4690000   -0.111900395937   -0.046391501067
      1   L       2             5.5680000    0.632141377047    0.217913005013
      1   L       3             3.1820000   -1.495171145711   -1.163416126765

      2   L       4             1.1350000    1.000000000000    1.000000000000

      3   L       5             0.4320000    1.000000000000    1.000000000000

      4   L       6             0.0916100    1.000000000000    1.000000000000

      5   D       7             1.1010000    0.274424595943
      5   D       8             0.4639000    0.782309588434

      6   D       9             0.1564000    1.000000000000

      7   F      10           117.8000000    0.016464299582
      7   F      11            43.4000000    0.104524897346
      7   F      12            19.1300000    0.257722493456
      7   F      13             8.7970000    0.405423389706
      7   F      14             4.1530000    0.447628688635

      8   F      15             1.8170000    0.725625114722
      8   F      16             0.6617000    0.387011607852

 CL        

      9   L      17             2.2250000   -0.430425863814   -0.168589777667
      9   L      18             1.1730000    0.149916894013    0.400634800118
      9   L      19             0.3851000    1.101709707677    0.780577091029

     10   L      20             0.1301000    1.000000000000    1.000000000000

 O         

     11   L      21             8.5190000   -0.190916380557    0.136122017317
     11   L      22             2.0730000    0.108716454491    0.432456693338
     11   L      23             0.6471000    0.975181086171    0.594759351217

     12   L      24             0.2000000    1.000000000000    1.000000000000

 H         

     13   S      25            13.0077340    0.033494604338
     13   S      26             1.9620794    0.234726953484
     13   S      27             0.4445290    0.813757326146

     14   S      28             0.1219492    1.000000000000

 H         

     15   S      29            13.0077340    0.033494604338
     15   S      30             1.9620794    0.234726953484
     15   S      31             0.4445290    0.813757326146

     16   S      32             0.1219492    1.000000000000

 TOTAL NUMBER OF BASIS SET SHELLS             =   16
 NUMBER OF CARTESIAN GAUSSIAN BASIS FUNCTIONS =   68
 NUMBER OF ELECTRONS                          =   98
 CHARGE OF MOLECULE                           =    0
 SPIN MULTIPLICITY                            =    1
 NUMBER OF OCCUPIED ORBITALS (ALPHA)          =   49
 NUMBER OF OCCUPIED ORBITALS (BETA )          =   49
 TOTAL NUMBER OF ATOMS                        =    5
 THE NUCLEAR REPULSION ENERGY IS      445.9361392907
 NOTE THIS RUN IS USING CORE POTENTIALS, AND THE NUMBER OF ELECTRONS,
 OCCUPIED ORBITALS, AND NUCLEAR REPULSION ENERGY WILL BE ADJUSTED BELOW
 AFTER REMOVAL OF THE CORE CHARGES.

     $CONTRL OPTIONS
     ---------------
 SCFTYP=RHF          RUNTYP=GRADIENT     EXETYP=RUN     
 MPLEVL=       0     CITYP =NONE         CCTYP =NONE         VBTYP =NONE    
 DFTTYP=NONE         TDDFT =NONE    
 MULT  =       1     ICHARG=       0     NZVAR =       9     COORD =ZMT     
 PP    =SBKJC        RELWFN=NONE         LOCAL =NONE         NUMGRD=       F
 ISPHER=      -1     NOSYM =       0     MAXIT =      30     UNITS =ANGS    
 PLTORB=       F     MOLPLT=       F     AIMPAC=       F     FRIEND=        
 NPRINT=       7     IREST =       0     GEOM  =INPUT   
 NORMF =       0     NORMP =       0     ITOL  =      20     ICUT  =       9
 INTTYP=BEST         GRDTYP=BEST         QMTTOL= 1.0E-06

     $SYSTEM OPTIONS
     ---------------
  REPLICATED MEMORY=     1000000 WORDS (ON EVERY NODE).
 DISTRIBUTED MEMDDI=           0 MILLION WORDS IN AGGREGATE,
 MEMDDI DISTRIBUTED OVER   1 PROCESSORS IS           0 WORDS/PROCESSOR.
 TOTAL MEMORY REQUESTED ON EACH PROCESSOR=     1000000 WORDS.
 TIMLIM=          10.00 MINUTES, OR       0.0 DAYS.
 PARALL= F  BALTYP=  DLB     KDIAG=    0  COREFL= F
 MXSEQ2=     300 MXSEQ3=     150  mem10=         0

          --------------
          ECP POTENTIALS
          --------------

 PARAMETERS FOR "SBKJC-71" ON ATOM    1 WITH ZCORE  46 AND LMAX  3 ARE
 FOR L= 3      COEFF    N           ZETA
    1      -16.15200    1       18.32044
    2       -6.36767    1        3.50798
 FOR L= 0      COEFF    N           ZETA
    1      -71.31717    2        3.34225
    2      169.40139    2        4.00509
    3       11.88612    0       16.18095
 FOR L= 1      COEFF    N           ZETA
    1        7.71934    0        2.72111
    2      116.10736    2        2.98200
    3      -78.17863    2        2.71480
 FOR L= 2      COEFF    N           ZETA
    1       33.91193    2        2.77571
    2        7.01871    0        5.89380

 PARAMETERS FOR "SBKJC-17" ON ATOM    2 WITH ZCORE  10 AND LMAX  2 ARE
 FOR L= 2      COEFF    N           ZETA
    1       -3.40738    1        4.87483
 FOR L= 0      COEFF    N           ZETA
    1        6.50966    0       17.00367
    2       42.27785    2        4.10380
 FOR L= 1      COEFF    N           ZETA
    1        3.42860    0        8.90029
    2       22.15256    2        3.52648

 PARAMETERS FOR "SBKJC- 8" ON ATOM    3 WITH ZCORE   2 AND LMAX  1 ARE
 FOR L= 1      COEFF    N           ZETA
    1       -0.92550    1       16.11718
 FOR L= 0      COEFF    N           ZETA
    1        1.96069    0        5.05348
    2       29.13442    2       15.95333

 THE ECP RUN REMOVES   58 CORE ELECTRONS, AND THE SAME NUMBER OF PROTONS.
 NUMBER OF ELECTRONS KEPT IN THE CALCULATION IS =   40
 NUMBER OF OCCUPIED ORBITALS (ALPHA) KEPT IS    =   20
 NUMBER OF OCCUPIED ORBITALS (BETA ) KEPT IS    =   20
 THE ADJUSTED NUCLEAR REPULSION ENERGY=       95.8868952083
          ECP ANGULAR INTS.........     0.02 SECONDS

          ----------------
          PROPERTIES INPUT
          ----------------

     MOMENTS            FIELD           POTENTIAL          DENSITY
 IEMOM =       1   IEFLD =       0   IEPOT =       0   IEDEN =       0
 WHERE =COMASS     WHERE =NUCLEI     WHERE =NUCLEI     WHERE =NUCLEI  
 OUTPUT=BOTH       OUTPUT=BOTH       OUTPUT=BOTH       OUTPUT=BOTH    
 IEMINT=       0   IEFINT=       0                     IEDINT=       0
                                                       MORB  =       0
          EXTRAPOLATION IN EFFECT
          DAMPING IN EFFECT
          SOSCF IN EFFECT
 ORBITAL PRINTING OPTION: NPREO=     1    68     2     1

     -------------------------------
     INTEGRAL TRANSFORMATION OPTIONS
     -------------------------------
     NWORD  =            0
     CUTOFF = 1.0E-09     MPTRAN =       0
     DIRTRF =       F     AOINTS =DUP     

          ----------------------
          INTEGRAL INPUT OPTIONS
          ----------------------
 NOPK  =       1 NORDER=       0 SCHWRZ=       F

   --- ENCODED Z MATRIX ---
 COORD  TYPE   I   J   K   L   M   N
    1      1    1   2
    2      1    1   3
    3      1    3   4
    4      1    1   5
    5      2    2   1   3
    6      2    5   1   3
    7      2    1   3   4
    8      3    4   3   1   2
    9      3    4   3   1   5

 THE DETERMINANT OF THE G MATRIX IS 10**(    -8)


                     --------------------
                     INTERNAL COORDINATES
                     --------------------

                 - - ATOMS - -         COORDINATE      COORDINATE
 NO.   TYPE    I  J  K  L  M  N        (BOHR,RAD)       (ANG,DEG)
 ----------------------------------------------------------------
   1 STRETCH   1  2                     4.9132876       2.6000000
   2 STRETCH   1  3                     4.1573972       2.2000000
   3 STRETCH   3  4                     1.8897260       1.0000000
   4 STRETCH   1  5                     3.4015068       1.8000000
   5 BEND      2  1  3                  1.8849556     108.0000000
   6 BEND      5  1  3                  1.8325957     105.0000000
   7 BEND      1  3  4                  1.9024089     109.0000000
   8 TORSION   4  3  1  2               1.5707963      90.0000000
   9 TORSION   4  3  1  5              -2.7440996    -157.2253263

     ------------------------------------------
     THE POINT GROUP IS C1 , NAXIS= 0, ORDER= 1
     ------------------------------------------

     DIMENSIONS OF THE SYMMETRY SUBSPACES ARE
 A   =   68

 ..... DONE SETTING UP THE RUN .....
 STEP CPU TIME =     0.04 TOTAL CPU TIME =        0.0 (    0.0 MIN)
 TOTAL WALL CLOCK TIME=        0.3 SECONDS, CPU UTILIZATION IS  13.79%

                    --------------------------------
                    SINGLE POINT ENERGY AND GRADIENT
                    --------------------------------

          ********************
          1 ELECTRON INTEGRALS
          ********************
 TIME TO DO ORDINARY INTEGRALS=      0.00
 TIME TO DO      ECP INTEGRALS=      0.02
 ...... END OF ONE-ELECTRON INTEGRALS ......
 STEP CPU TIME =     0.02 TOTAL CPU TIME =        0.1 (    0.0 MIN)
 TOTAL WALL CLOCK TIME=        0.3 SECONDS, CPU UTILIZATION IS  19.35%

          -------------
          GUESS OPTIONS
          -------------
          GUESS =HUCKEL            NORB  =       0          NORDER=       0
          MIX   =       F          PRTMO =       F          PUNMO =       F
          TOLZ  = 1.0E-08          TOLE  = 1.0E-05
          SYMDEN=       F          PURIFY=       F

 INITIAL GUESS ORBITALS GENERATED BY HUCKEL   ROUTINE.
 HUCKEL GUESS REQUIRES     50792 WORDS.

 SYMMETRIES FOR INITIAL GUESS ORBITALS FOLLOW.   BOTH SET(S).
    20 ORBITALS ARE OCCUPIED (   11 CORE ORBITALS).
    12=A       13=A       14=A       15=A       16=A       17=A       18=A   
    19=A       20=A       21=A       22=A       23=A       24=A       25=A   
    26=A       27=A       28=A       29=A       30=A   
 ...... END OF INITIAL ORBITAL SELECTION ......
 STEP CPU TIME =     0.01 TOTAL CPU TIME =        0.1 (    0.0 MIN)
 TOTAL WALL CLOCK TIME=        0.3 SECONDS, CPU UTILIZATION IS  21.87%

                    ----------------------
                    AO INTEGRAL TECHNOLOGY
                    ----------------------
     S,P,L SHELL ROTATED AXIS INTEGRALS, REPROGRAMMED BY
        KAZUYA ISHIMURA (IMS) AND JOSE SIERRA (SYNSTAR).
     S,P,D,L SHELL ROTATED AXIS INTEGRALS PROGRAMMED BY
        KAZUYA ISHIMURA (INSTITUTE FOR MOLECULAR SCIENCE).
     S,P,D,F,G SHELL TO TOTAL QUARTET ANGULAR MOMENTUM SUM 5,
        ERIC PROGRAM BY GRAHAM FLETCHER (ELORET AND NASA ADVANCED
        SUPERCOMPUTING DIVISION, AMES RESEARCH CENTER).
     S,P,D,F,G,L SHELL GENERAL RYS QUADRATURE PROGRAMMED BY
        MICHEL DUPUIS (PACIFIC NORTHWEST NATIONAL LABORATORY).

          --------------------
          2 ELECTRON INTEGRALS
          --------------------

 THE -PK- OPTION IS OFF, THE INTEGRALS ARE NOT IN SUPERMATRIX FORM.
 STORING   15000 INTEGRALS/RECORD ON DISK, USING 12 BYTES/INTEGRAL.
 TWO ELECTRON INTEGRAL EVALUATION REQUIRES   99236 WORDS OF MEMORY.
 II,JST,KST,LST =  1  1  1  1 NREC =         1 INTLOC =    1
 II,JST,KST,LST =  2  1  1  1 NREC =         1 INTLOC =   17
 II,JST,KST,LST =  3  1  1  1 NREC =         1 INTLOC =  139
 II,JST,KST,LST =  4  1  1  1 NREC =         1 INTLOC =  571
 II,JST,KST,LST =  5  1  1  1 NREC =         1 INTLOC = 1637
 II,JST,KST,LST =  6  1  1  1 NREC =         1 INTLOC = 4868
 II,JST,KST,LST =  7  1  1  1 NREC =         1 INTLOC =12014
 II,JST,KST,LST =  8  1  1  1 NREC =         3 INTLOC = 7424
 II,JST,KST,LST =  9  1  1  1 NREC =         7 INTLOC = 2909
 II,JST,KST,LST = 10  1  1  1 NREC =        24 INTLOC = 2707
 II,JST,KST,LST = 11  1  1  1 NREC =        45 INTLOC =11257
 II,JST,KST,LST = 12  1  1  1 NREC =        71 INTLOC = 9382
 II,JST,KST,LST = 13  1  1  1 NREC =       104 INTLOC = 1414
 II,JST,KST,LST = 14  1  1  1 NREC =       112 INTLOC =13968
 II,JST,KST,LST = 15  1  1  1 NREC =       122 INTLOC = 7433
 II,JST,KST,LST = 16  1  1  1 NREC =       132 INTLOC = 6343
 TOTAL NUMBER OF NONZERO TWO-ELECTRON INTEGRALS =             2128333
        142 INTEGRAL RECORDS WERE STORED ON DISK FILE  8.
  ...... END OF TWO-ELECTRON INTEGRALS .....
 STEP CPU TIME =     0.44 TOTAL CPU TIME =        0.5 (    0.0 MIN)
 TOTAL WALL CLOCK TIME=        0.8 SECONDS, CPU UTILIZATION IS  60.00%

          --------------------------
                 RHF SCF CALCULATION
          --------------------------

     NUCLEAR ENERGY =        95.8868952083
     MAXIT =   30     NPUNCH=    2
     EXTRAP=T  DAMP=T  SHIFT=F  RSTRCT=F  DIIS=F  DEM=F  SOSCF=T
     DENSITY MATRIX CONV=  1.00E-05
     SOSCF WILL OPTIMIZE     960 ORBITAL ROTATIONS, SOGTOL=   0.250
     MEMORY REQUIRED FOR RHF ITERS=     67160 WORDS.

 ITER EX DEM    TOTAL ENERGY       E CHANGE  DENSITY CHANGE     ORB. GRAD      VIR. SHIFT       DAMPING
   1  0  0     -293.1712209177  -293.1712209177 152.725487343   0.000000000     0.000000000     1.000000000
   2  1  0     -211.4887096490    81.6825112687 163.414334256   2.063239747     0.000000000     1.000000000
   3  2  0     -249.6313267366   -38.1426170876   0.315051327   1.617394573     0.000000000   247.566601109
   4  3  0     -250.1970195649    -0.5656928283   4.284730980   1.609675699     0.000000000    15.472912569
   5  4  0     -258.6263575981    -8.4293380332   2.811358037   1.577341522     0.000000000    15.472912569
   6  5  0     -268.2498764694    -9.6235188713   1.898069877   1.655245426     0.000000000    15.472912569
   7  6  0     -274.5439532047    -6.2940767353   1.781840693   1.560335074     0.000000000     6.618633509
   8  7  0     -297.6622931075   -23.1183399028   0.698366496   0.940631301     0.000000000     6.618633509
   9  8  0     -300.1177137141    -2.4554206066  15.058637138   0.962355166     0.000000000     0.413664594
  10  9  0     -302.9803825778    -2.8626688637  14.447931369   0.525726098     0.000000000     0.413664594
  11 10  0     -303.5569372918    -0.5765547139   0.508213814   0.266194274     0.000000000     0.025854037
  12  0  0     -303.5852093311    -0.0282720393   0.330811542   0.251607000     0.000000000     0.001615877
          ---------------START SECOND ORDER SCF---------------
  13  1  0     -303.7292996155    -0.1440902844   0.091650541   0.055550942     0.000000000     0.000000000
  14  2  0     -303.7311305497    -0.0018309342   0.052005474   0.048580946     0.000000000     0.000000000
  15  3  0     -303.7370305761    -0.0059000264   0.017663264   0.001159461     0.000000000     0.000000000
  16  4  0     -303.7370434092    -0.0000128331   0.011803162   0.000442072     0.000000000     0.000000000
  17  5  0     -303.7370455816    -0.0000021724   0.000763989   0.000073075     0.000000000     0.000000000
  18  6  0     -303.7370457335    -0.0000001520   0.000773697   0.000028941     0.000000000     0.000000000
  19  7  0     -303.7370457605    -0.0000000270   0.000199746   0.000008423     0.000000000     0.000000000
  20  8  0     -303.7370457637    -0.0000000032   0.000063191   0.000004841     0.000000000     0.000000000
  21  9  0     -303.7370457643    -0.0000000006   0.000029947   0.000001737     0.000000000     0.000000000
  22 10  0     -303.7370457644    -0.0000000001   0.000005423   0.000000449     0.000000000     0.000000000
  23 11  0     -303.7370457644    -0.0000000000   0.000001226   0.000000099     0.000000000     0.000000000

          -----------------
          DENSITY CONVERGED
          -----------------
     TIME TO FORM FOCK OPERATORS=       0.6 SECONDS (       0.0 SEC/ITER)
     TIME TO SOLVE SCF EQUATIONS=       0.0 SECONDS (       0.0 SEC/ITER)

 FINAL RHF ENERGY IS     -303.7370457644 AFTER  23 ITERATIONS

          ------------
          EIGENVECTORS
          ------------

                      1          2          3          4          5
                   -2.7655    -1.5126    -1.5107    -1.5071    -1.2507
                     A          A          A          A          A   
    1  LU 1  S    0.645726   0.014666   0.002609   0.006108  -0.029782
    2  LU 1  X    0.000609   0.057474   0.202111  -0.147702   0.037594
    3  LU 1  Y   -0.000342   0.183466  -0.127775  -0.115494  -0.062362
    4  LU 1  Z   -0.001330   0.170548   0.078781   0.170447  -0.002428
    5  LU 1  S    0.693037   0.001835  -0.000661   0.002548  -0.011156
    6  LU 1  X    0.001677   0.153521   0.540220  -0.394975   0.103560
    7  LU 1  Y    0.000824   0.489777  -0.341275  -0.308535  -0.171829
    8  LU 1  Z   -0.000479   0.454674   0.210025   0.454812  -0.007024
    9  LU 1  S    0.841165   0.028694   0.013339   0.007892  -0.093961
   10  LU 1  X    0.000345   0.148309   0.528527  -0.385876   0.081492
   11  LU 1  Y   -0.006041   0.481922  -0.338808  -0.305874  -0.133865
   12  LU 1  Z   -0.010952   0.450817   0.210484   0.454203  -0.000491
   13  LU 1  S   -0.029761   0.059705  -0.003760   0.030525   0.021107
   14  LU 1  X    0.000627   0.012915   0.039355  -0.030868  -0.012507
   15  LU 1  Y    0.000034   0.026716  -0.025534  -0.028279   0.019315
   16  LU 1  Z    0.000223   0.029961   0.018808   0.041093  -0.010600
   17  LU 1 XX   -0.039336  -0.017696  -0.004299  -0.001300   0.018043
   18  LU 1 YY   -0.039981  -0.023115   0.004071  -0.002575   0.035028
   19  LU 1 ZZ   -0.038891  -0.024400  -0.008074  -0.019620   0.008766
   20  LU 1 XY    0.001530  -0.001626  -0.006423   0.002704  -0.017939
   21  LU 1 XZ    0.002030  -0.002023  -0.004884   0.004899  -0.001818
   22  LU 1 YZ    0.004222  -0.007639   0.003627   0.004461   0.002442
   23  LU 1 XX    0.016983  -0.014000   0.007825  -0.014708  -0.001002
   24  LU 1 YY    0.016394  -0.020524   0.001218  -0.006152   0.018164
   25  LU 1 ZZ    0.016470  -0.020716   0.001831  -0.006058  -0.013152
   26  LU 1 XY   -0.000086   0.001940   0.002842   0.000890  -0.020494
   27  LU 1 XZ   -0.000275  -0.000741  -0.004672   0.000676   0.004056
   28  LU 1 YZ   -0.000889  -0.005948   0.001088  -0.003708  -0.001840
   29  LU 1 XXX   0.000251   0.000500   0.001742  -0.001647   0.007499
   30  LU 1 YYY   0.000030  -0.000502  -0.002231   0.000457   0.003727
   31  LU 1 ZZZ  -0.000034  -0.000654   0.001399   0.004400   0.000705
   32  LU 1 XXY   0.000124   0.001119   0.000590  -0.001517   0.003412
   33  LU 1 XXZ  -0.000097  -0.000189   0.001687  -0.002417   0.000418
   34  LU 1 YYX  -0.000238  -0.001114   0.001427  -0.000167  -0.014330
   35  LU 1 YYZ  -0.000026   0.003333  -0.002599  -0.001407  -0.001482
   36  LU 1 ZZX  -0.000067   0.001256  -0.001158   0.000487   0.005024
   37  LU 1 ZZY  -0.000243   0.001983   0.000843  -0.000500  -0.009713
   38  LU 1 XYZ   0.000020   0.002809   0.002669  -0.000569   0.000371
   39  LU 1 XXX  -0.001704  -0.027610  -0.087490   0.064181  -0.022422
   40  LU 1 YYY  -0.000480  -0.081387   0.049609   0.048365   0.050144
   41  LU 1 ZZZ   0.001699  -0.074774  -0.030594  -0.064550   0.004583
   42  LU 1 XXY  -0.000453  -0.034952   0.024116   0.019709   0.023812
   43  LU 1 XXZ   0.001113  -0.033539  -0.012504  -0.033629   0.002133
   44  LU 1 YYX   0.000017  -0.013287  -0.038917   0.028924  -0.023989
   45  LU 1 YYZ   0.000613  -0.029801  -0.017239  -0.032696   0.000452
   46  LU 1 ZZX  -0.000486  -0.011198  -0.040608   0.029783  -0.008605
   47  LU 1 ZZY   0.000813  -0.033816   0.023778   0.021024   0.013475
   48  LU 1 XYZ  -0.000184   0.003081   0.002824  -0.000682   0.000378
   49  CL 2  S    0.001794   0.014460   0.024711  -0.024791   0.007421
   50  CL 2  X   -0.001648  -0.009495  -0.014022   0.014843  -0.003281
   51  CL 2  Y   -0.000368   0.000496  -0.006423   0.001980  -0.001187
   52  CL 2  Z   -0.000012   0.002731   0.001109   0.003591  -0.000343
   53  CL 2  S   -0.001036  -0.002471  -0.001701   0.001324   0.005292
   54  CL 2  X    0.001053   0.001034   0.000310  -0.000794  -0.002204
   55  CL 2  Y    0.000261  -0.000689   0.002007   0.001020  -0.002359
   56  CL 2  Z    0.000075  -0.001256  -0.000665  -0.002744   0.000795
   57  O  3  S    0.003959   0.057524  -0.093960  -0.008243   0.676265
   58  O  3  X    0.001831   0.013285  -0.013044  -0.005931   0.002246
   59  O  3  Y   -0.002943  -0.013784   0.026923  -0.000660  -0.001529
   60  O  3  Z   -0.000357  -0.003251   0.013644   0.005183  -0.102735
   61  O  3  S   -0.000088   0.019512  -0.029802  -0.003447   0.227662
   62  O  3  X   -0.000167   0.005027  -0.005335   0.000428   0.003580
   63  O  3  Y    0.000236  -0.008225   0.009141   0.000186  -0.010002
   64  O  3  Z   -0.000242  -0.001749   0.003345  -0.000228  -0.001771
   65  H  4  S   -0.000021   0.007566  -0.016098  -0.003542   0.182595
   66  H  4  S   -0.000266  -0.001031   0.007313   0.003139  -0.004855
   67  H  5  S    0.004311   0.008996   0.014504   0.035472   0.005258
   68  H  5  S   -0.002419  -0.005097  -0.005264  -0.014897   0.007678

                      6          7          8          9         10
                   -1.0202    -0.8768    -0.8767    -0.8759    -0.8749
                     A          A          A          A          A   
    1  LU 1  S   -0.025977   0.000636   0.000470  -0.000778   0.000452
    2  LU 1  X   -0.034051   0.000338  -0.001515   0.000353  -0.002895
    3  LU 1  Y   -0.007735  -0.000571  -0.002361  -0.000076  -0.002616
    4  LU 1  Z   -0.001411   0.002029   0.003867  -0.000188   0.004746
    5  LU 1  S   -0.019095  -0.010803  -0.014707  -0.000058   0.005974
    6  LU 1  X   -0.094668   0.000854  -0.004002   0.000717  -0.008347
    7  LU 1  Y   -0.021632  -0.001668  -0.006401   0.000167  -0.007481
    8  LU 1  Z   -0.004134   0.006348   0.011494  -0.000535   0.013613
    9  LU 1  S   -0.065695   0.017695   0.023633   0.001906  -0.000879
   10  LU 1  X   -0.077922   0.000615  -0.004517   0.002048  -0.001073
   11  LU 1  Y   -0.015824   0.000126  -0.004834  -0.002288  -0.001680
   12  LU 1  Z   -0.000067   0.000013   0.001675   0.000220   0.004504
   13  LU 1  S    0.026144   0.025471   0.031566  -0.013749  -0.030653
   14  LU 1  X    0.047678   0.002830   0.001649  -0.003986  -0.010381
   15  LU 1  Y    0.002942   0.003143   0.001323   0.003755  -0.002677
   16  LU 1  Z   -0.006466   0.004416   0.002613  -0.002727   0.002092
   17  LU 1 XX    0.027486  -0.006135  -0.011942   0.005436   0.001626
   18  LU 1 YY    0.003345  -0.005477  -0.012159  -0.002747   0.008965
   19  LU 1 ZZ    0.001614  -0.015489  -0.011035   0.002483   0.006388
   20  LU 1 XY    0.007329   0.002395  -0.002482  -0.000557   0.001417
   21  LU 1 XZ    0.001376  -0.001047  -0.004098   0.003451   0.003126
   22  LU 1 YZ   -0.000053  -0.002140  -0.003379  -0.003777  -0.002939
   23  LU 1 XX    0.042121  -0.002757  -0.004440   0.007906  -0.000749
   24  LU 1 YY   -0.014208  -0.004111  -0.004371   0.006503   0.012436
   25  LU 1 ZZ   -0.012110  -0.006543  -0.005145   0.002829   0.013469
   26  LU 1 XY    0.018817   0.000592  -0.000977  -0.003824  -0.000700
   27  LU 1 XZ    0.000301  -0.000641  -0.003443   0.002945   0.000031
   28  LU 1 YZ    0.002253  -0.001442  -0.004129  -0.003170  -0.004717
   29  LU 1 XXX   0.026397  -0.064815  -0.297592   0.168295   0.448886
   30  LU 1 YYY  -0.007975  -0.198276  -0.267891   0.079837  -0.425766
   31  LU 1 ZZZ   0.001320   0.556077  -0.308476  -0.175951  -0.230610
   32  LU 1 XXY   0.016474  -0.202317  -0.076244  -0.336792   0.113694
   33  LU 1 XXZ  -0.001919  -0.421734   0.148808  -0.398193   0.424416
   34  LU 1 YYX  -0.015580  -0.170541  -0.026132   0.099399  -0.238373
   35  LU 1 YYZ   0.000080  -0.324255   0.265223   0.634242  -0.114833
   36  LU 1 ZZX  -0.020584   0.257511   0.425390  -0.325179  -0.364012
   37  LU 1 ZZY  -0.005963   0.468277   0.435597   0.229683   0.457394
   38  LU 1 XYZ  -0.001496  -0.193736   0.434007  -0.127981  -0.162569
   39  LU 1 XXX   0.039665  -0.034044  -0.155465   0.088489   0.239167
   40  LU 1 YYY   0.000993  -0.102446  -0.138539   0.040788  -0.218938
   41  LU 1 ZZZ   0.003155   0.287448  -0.167741  -0.091496  -0.127193
   42  LU 1 XXY   0.012854  -0.105575  -0.039192  -0.177181   0.061280
   43  LU 1 XXZ  -0.000143  -0.222371   0.075292  -0.208343   0.219290
   44  LU 1 YYX   0.000833  -0.089233  -0.013007   0.052296  -0.123014
   45  LU 1 YYZ   0.001075  -0.171210   0.135974   0.332073  -0.062978
   46  LU 1 ZZX  -0.002399   0.134870   0.223230  -0.169999  -0.188322
   47  LU 1 ZZY  -0.000903   0.245909   0.229187   0.119714   0.240927
   48  LU 1 XYZ  -0.000934  -0.101499   0.227225  -0.067053  -0.085183
   49  CL 2  S    0.744712   0.006983   0.016947  -0.001590  -0.017992
   50  CL 2  X   -0.053489   0.003454   0.005816   0.000332  -0.007511
   51  CL 2  Y   -0.016425  -0.000497   0.001145  -0.001775  -0.002401
   52  CL 2  Z   -0.005815  -0.002982   0.001635  -0.002404   0.002234
   53  CL 2  S    0.244373  -0.000661   0.003079   0.000155   0.000611
   54  CL 2  X    0.002063   0.003879   0.004526   0.000145  -0.007321
   55  CL 2  Y   -0.001742  -0.001509   0.000845  -0.002562  -0.003410
   56  CL 2  Z   -0.003317  -0.004814   0.002903  -0.003330   0.002737
   57  O  3  S   -0.007894   0.000735   0.003013   0.008790   0.002551
   58  O  3  X    0.001330  -0.002036  -0.005354   0.000016  -0.003487
   59  O  3  Y   -0.003099   0.003145   0.004029   0.008954   0.000480
   60  O  3  Z    0.001426  -0.003285  -0.002857   0.003439   0.001378
   61  O  3  S    0.005638  -0.002592  -0.002901  -0.005204  -0.003264
   62  O  3  X    0.001477  -0.002036  -0.004654   0.002033  -0.002590
   63  O  3  Y   -0.007447   0.002115   0.002355   0.007419  -0.001242
   64  O  3  Z    0.001879  -0.003359  -0.001533   0.010255   0.005372
   65  H  4  S   -0.003204   0.002432   0.003953   0.005842   0.002386
   66  H  4  S    0.004263  -0.000237  -0.000623   0.001215   0.003482
   67  H  5  S    0.005120  -0.011417  -0.016323   0.000552  -0.017956
   68  H  5  S    0.006702  -0.006680  -0.008981   0.001958  -0.007353

                     11         12         13         14         15
                   -0.8748    -0.8732    -0.8727    -0.5863    -0.4681
                     A          A          A          A          A   
    1  LU 1  S    0.000949   0.000106  -0.000446  -0.045323   0.119351
    2  LU 1  X    0.002137   0.000171  -0.001670   0.022746  -0.009765
    3  LU 1  Y   -0.004074  -0.000950   0.001263  -0.036854   0.030957
    4  LU 1  Z    0.003486   0.000723   0.004186  -0.012934   0.014295
    5  LU 1  S   -0.002183   0.002306  -0.022652  -0.022470   0.123274
    6  LU 1  X    0.006069   0.000539  -0.004851   0.065345  -0.028663
    7  LU 1  Y   -0.011794  -0.002697   0.003692  -0.105971   0.089984
    8  LU 1  Z    0.009820   0.002031   0.012050  -0.037035   0.042149
    9  LU 1  S    0.002100  -0.002081   0.037258  -0.157340   0.287288
   10  LU 1  X    0.001061   0.000645  -0.002347   0.036925  -0.018885
   11  LU 1  Y   -0.002900  -0.001607  -0.000516  -0.057956   0.059337
   12  LU 1  Z    0.003678   0.001090   0.005042  -0.030828   0.004892
   13  LU 1  S    0.017050  -0.007965   0.033430   0.110154  -0.282082
   14  LU 1  X    0.013903   0.003719  -0.004205  -0.011319  -0.013318
   15  LU 1  Y   -0.016505  -0.003403   0.017679   0.013871  -0.001064
   16  LU 1  Z    0.002601  -0.000602   0.000548   0.025462   0.044754
   17  LU 1 XX   -0.003484   0.000101  -0.015558   0.022235  -0.029323
   18  LU 1 YY   -0.005916   0.002946  -0.014647   0.060818  -0.057291
   19  LU 1 ZZ   -0.001104   0.002551  -0.016968   0.000246   0.004009
   20  LU 1 XY    0.004055   0.001443  -0.001585  -0.043923   0.047913
   21  LU 1 XZ   -0.001992  -0.000726   0.000816  -0.015085   0.002754
   22  LU 1 YZ    0.000557  -0.000281  -0.001347   0.023202   0.039131
   23  LU 1 XX   -0.004560  -0.001335   0.000874  -0.014382   0.000085
   24  LU 1 YY   -0.018978   0.002919   0.006198   0.004233   0.012886
   25  LU 1 ZZ    0.000090   0.003023  -0.008389  -0.038501   0.039116
   26  LU 1 XY    0.013529   0.002178  -0.010515  -0.026175   0.022488
   27  LU 1 XZ   -0.000342   0.001931   0.000000  -0.020238  -0.016629
   28  LU 1 YZ   -0.004879  -0.002502  -0.001540   0.033600   0.053169
   29  LU 1 XXX  -0.037524  -0.232417  -0.474564  -0.012695   0.021148
   30  LU 1 YYY   0.312338  -0.455563   0.019819  -0.008719   0.008969
   31  LU 1 ZZZ  -0.313920  -0.094624  -0.091811   0.011900   0.008786
   32  LU 1 XXY  -0.305336   0.639421  -0.223078  -0.008281   0.012687
   33  LU 1 XXZ   0.276943  -0.169529   0.285330  -0.001588  -0.006181
   34  LU 1 YYX  -0.385051   0.094319   0.685617   0.027240  -0.028613
   35  LU 1 YYZ   0.144376   0.296502  -0.162027  -0.014510  -0.004945
   36  LU 1 ZZX   0.435484   0.217478  -0.048936  -0.009557   0.000238
   37  LU 1 ZZY  -0.113841  -0.028228   0.196527   0.018869  -0.024140
   38  LU 1 XYZ  -0.404414  -0.329730  -0.252500   0.014410   0.009125
   39  LU 1 XXX  -0.022473  -0.121125  -0.245775  -0.028239   0.016800
   40  LU 1 YYY   0.169388  -0.237178   0.007566   0.035549  -0.025106
   41  LU 1 ZZZ  -0.168599  -0.050149  -0.053160   0.013763  -0.018624
   42  LU 1 XXY  -0.157104   0.334320  -0.117811   0.014315  -0.008825
   43  LU 1 XXZ   0.142909  -0.088673   0.146566   0.003652  -0.011354
   44  LU 1 YYX  -0.203048   0.049316   0.359261  -0.000823  -0.003767
   45  LU 1 YYZ   0.073522   0.154273  -0.086796  -0.001182  -0.011104
   46  LU 1 ZZX   0.226313   0.113609  -0.024334  -0.013916   0.004962
   47  LU 1 ZZY  -0.056627  -0.014391   0.101821   0.024041  -0.019766
   48  LU 1 XYZ  -0.211621  -0.172041  -0.131627   0.005305   0.002723
   49  CL 2  S    0.008751  -0.004071   0.022500  -0.008062   0.051775
   50  CL 2  X    0.004633  -0.002512   0.007998  -0.012152   0.235991
   51  CL 2  Y   -0.001688   0.003212   0.003538  -0.007213   0.081817
   52  CL 2  Z    0.000696  -0.001608   0.000965   0.000705   0.012951
   53  CL 2  S   -0.001601  -0.001508   0.004769  -0.004448   0.041418
   54  CL 2  X    0.004736  -0.001633   0.005708  -0.005733   0.106437
   55  CL 2  Y   -0.000741   0.004938   0.001974  -0.002081   0.037398
   56  CL 2  Z    0.000901  -0.002428   0.001374  -0.000980   0.004270
   57  O  3  S   -0.005765   0.002483   0.015552   0.176695   0.113514
   58  O  3  X    0.010970  -0.007173  -0.010711   0.154207  -0.256993
   59  O  3  Y   -0.010851  -0.005991   0.020137  -0.288333   0.434201
   60  O  3  Z    0.009365   0.005372  -0.003302   0.474635   0.309575
   61  O  3  S    0.015746   0.003009  -0.014739   0.214437   0.074862
   62  O  3  X    0.012597  -0.007396  -0.009869   0.056405  -0.143498
   63  O  3  Y   -0.013753  -0.008098   0.018003  -0.104428   0.242968
   64  O  3  Z    0.008335   0.007830   0.002786   0.155816   0.164526
   65  H  4  S   -0.009454  -0.000938   0.013984  -0.378164  -0.036110
   66  H  4  S    0.004578   0.001461  -0.004531  -0.118887  -0.022926
   67  H  5  S   -0.012153  -0.003056  -0.015184   0.008195  -0.103979
   68  H  5  S   -0.007962  -0.000674  -0.005341   0.002765  -0.090343

                     16         17         18         19         20
                   -0.4533    -0.4495    -0.4211    -0.4191    -0.4182
                     A          A          A          A          A   
    1  LU 1  S    0.009989   0.058328  -0.009178  -0.075056  -0.022553
    2  LU 1  X    0.002737   0.049002   0.000576   0.024027   0.012222
    3  LU 1  Y   -0.016621  -0.016976   0.000749   0.048774   0.003294
    4  LU 1  Z    0.001989   0.017638  -0.012710  -0.063136  -0.014079
    5  LU 1  S    0.023854   0.059787   0.011282  -0.167707  -0.027608
    6  LU 1  X    0.007929   0.141259   0.001745   0.069650   0.035358
    7  LU 1  Y   -0.047991  -0.049299   0.002240   0.141481   0.009683
    8  LU 1  Z    0.005873   0.051426  -0.036723  -0.184031  -0.041050
    9  LU 1  S    0.007302   0.128740  -0.038151  -0.140741  -0.055895
   10  LU 1  X   -0.004785   0.113906   0.008774   0.052900   0.038125
   11  LU 1  Y   -0.042724  -0.036067   0.003095   0.111297  -0.007733
   12  LU 1  Z    0.004492   0.033789  -0.046037  -0.123728  -0.023492
   13  LU 1  S   -0.063307  -0.108547  -0.060803   0.650932   0.087610
   14  LU 1  X    0.022033  -0.124711  -0.022626  -0.059934  -0.056144
   15  LU 1  Y    0.042660   0.024155  -0.006970  -0.127114   0.025283
   16  LU 1  Z   -0.003704  -0.021679   0.069952   0.102610   0.010986
   17  LU 1 XX   -0.050710  -0.050118   0.018897  -0.170040  -0.021318
   18  LU 1 YY    0.072923   0.034221   0.019466  -0.095937  -0.003597
   19  LU 1 ZZ    0.007277  -0.029237   0.027036   0.060314   0.028315
   20  LU 1 XY    0.008495  -0.076283   0.004346   0.021170   0.027199
   21  LU 1 XZ    0.003020   0.010700   0.034325  -0.047229  -0.013990
   22  LU 1 YZ    0.005962   0.018675   0.002199  -0.110123  -0.027359
   23  LU 1 XX   -0.080133  -0.076410   0.012376  -0.241231  -0.046499
   24  LU 1 YY    0.084309   0.037377   0.023579  -0.145660  -0.002709
   25  LU 1 ZZ    0.010204  -0.007618   0.025012  -0.014986   0.012757
   26  LU 1 XY    0.026345  -0.091684   0.005525   0.020717   0.050258
   27  LU 1 XZ    0.000597   0.025226   0.067525  -0.044214  -0.010364
   28  LU 1 YZ   -0.003021   0.002355   0.004231  -0.101045  -0.027981
   29  LU 1 XXX  -0.000228   0.013257  -0.001100  -0.002751   0.006322
   30  LU 1 YYY  -0.018410   0.000430  -0.000286  -0.017397   0.007692
   31  LU 1 ZZZ   0.000097   0.000820   0.007337  -0.007724  -0.002836
   32  LU 1 XXY   0.020158   0.003343  -0.002698  -0.001370  -0.018952
   33  LU 1 XXZ  -0.001010  -0.005363  -0.012347   0.015286   0.004082
   34  LU 1 YYX   0.001498   0.003043  -0.000613  -0.004735  -0.007542
   35  LU 1 YYZ   0.000875   0.004553   0.002728  -0.005921  -0.000600
   36  LU 1 ZZX  -0.000800  -0.019935   0.001901   0.008840  -0.001016
   37  LU 1 ZZY   0.004474  -0.004115   0.003035   0.025286   0.008991
   38  LU 1 XYZ   0.000221  -0.001165  -0.004816  -0.009823  -0.001475
   39  LU 1 XXX  -0.005518  -0.032263   0.001809  -0.020230  -0.004226
   40  LU 1 YYY   0.006241   0.016288  -0.000287  -0.044914  -0.006495
   41  LU 1 ZZZ  -0.001434  -0.015896   0.005636   0.055996   0.013639
   42  LU 1 XXY   0.011407   0.007743  -0.000877  -0.018380  -0.009507
   43  LU 1 XXZ  -0.000910  -0.008747  -0.001867   0.030215   0.007574
   44  LU 1 YYX  -0.001854  -0.015055   0.000809  -0.009643  -0.004787
   45  LU 1 YYZ  -0.000433  -0.005896   0.002376   0.024630   0.006383
   46  LU 1 ZZX  -0.002416  -0.021369   0.001504  -0.006072  -0.003024
   47  LU 1 ZZY   0.006586   0.005851   0.000787  -0.011037  -0.001505
   48  LU 1 XYZ   0.000036  -0.000388  -0.001389  -0.002588  -0.000367
   49  CL 2  S    0.024374   0.085981   0.009972   0.014514   0.009594
   50  CL 2  X    0.114618   0.545076  -0.024152   0.253124  -0.098989
   51  CL 2  Y    0.187739   0.069163   0.051602  -0.096034   0.638636
   52  CL 2  Z    0.003613   0.010720   0.677524  -0.019300  -0.065908
   53  CL 2  S    0.019245   0.093709   0.008548   0.024311   0.012862
   54  CL 2  X    0.050109   0.236984  -0.016092   0.115995  -0.062377
   55  CL 2  Y    0.094585   0.023614   0.029476  -0.054100   0.353310
   56  CL 2  Z    0.004179   0.006965   0.376943  -0.014543  -0.036626
   57  O  3  S   -0.007991  -0.036131  -0.001804   0.003237  -0.004374
   58  O  3  X    0.605765  -0.019083  -0.013849  -0.027442  -0.160676
   59  O  3  Y    0.250106  -0.323311  -0.012543   0.095498  -0.102696
   60  O  3  Z   -0.031374  -0.143396  -0.004330   0.050079  -0.002789
   61  O  3  S   -0.007693  -0.041986  -0.003479   0.012578  -0.006613
   62  O  3  X    0.334290  -0.019077  -0.008299  -0.004315  -0.100907
   63  O  3  Y    0.141264  -0.164042  -0.006998   0.047438  -0.061085
   64  O  3  Z   -0.017082  -0.085646  -0.003629   0.023801  -0.004447
   65  H  4  S    0.003486   0.005853   0.000481  -0.002767  -0.003138
   66  H  4  S   -0.005983  -0.010555   0.003487   0.001560  -0.004225
   67  H  5  S   -0.016067  -0.095650   0.024538   0.392421   0.089341
   68  H  5  S   -0.007746  -0.075864   0.009103   0.275252   0.072907

                     21         22         23         24         25
                   -0.0096     0.0778     0.0916     0.1227     0.1365
                     A          A          A          A          A   
    1  LU 1  S    0.024313  -0.022604   0.032933   0.009133   0.059592
    2  LU 1  X    0.002165   0.000223  -0.001003  -0.006115  -0.001470
    3  LU 1  Y    0.005664   0.001292   0.003087  -0.002803  -0.004691
    4  LU 1  Z    0.021143   0.000045   0.004093  -0.002336  -0.006521
    5  LU 1  S   -1.251128   0.098870  -0.130916  -0.126365  -0.412126
    6  LU 1  X    0.006751  -0.000643  -0.006480  -0.016362  -0.005169
    7  LU 1  Y    0.016801   0.000943   0.011283  -0.009524  -0.013376
    8  LU 1  Z    0.062896   0.002185   0.012116  -0.005136  -0.016471
    9  LU 1  S    0.885675  -0.103677   0.155987   0.121313   0.453930
   10  LU 1  X    0.043519  -0.078070  -0.192671   0.082829  -0.049601
   11  LU 1  Y    0.095244  -0.163896   0.123764  -0.064250   0.024364
   12  LU 1  Z    0.182744   0.106978   0.009159   0.080725   0.119514
   13  LU 1  S    5.823778  -0.592254   0.754355   0.583240   2.040657
   14  LU 1  X   -0.106877   0.260259   0.657080  -0.258615   0.148937
   15  LU 1  Y   -0.326200   0.538439  -0.418307   0.178487  -0.105649
   16  LU 1  Z   -0.409660  -0.369244  -0.009379  -0.232112  -0.309211
   17  LU 1 XX   -1.245836   0.026681  -0.316380  -0.041414  -0.462524
   18  LU 1 YY   -1.209938  -0.085493  -0.012691  -0.151634  -0.330095
   19  LU 1 ZZ   -1.187848   0.438123  -0.179765  -0.194439  -0.599555
   20  LU 1 XY    0.033930  -0.119084  -0.183358   0.158356  -0.068558
   21  LU 1 XZ    0.059833  -0.032080  -0.213755  -0.382284   0.061410
   22  LU 1 YZ    0.131931  -0.045643   0.083568  -0.052776  -0.387918
   23  LU 1 XX   -1.548635   0.053547  -0.446094  -0.006084  -0.562820
   24  LU 1 YY   -1.499338  -0.175242  -0.006470  -0.196731  -0.335997
   25  LU 1 ZZ   -1.363655   0.664083  -0.241507  -0.212847  -0.701383
   26  LU 1 XY    0.086177  -0.212726  -0.250712   0.259045  -0.103862
   27  LU 1 XZ    0.098936  -0.038310  -0.361456  -0.562513   0.083471
   28  LU 1 YZ    0.202013  -0.061651   0.143054  -0.087464  -0.586034
   29  LU 1 XXX   0.007177   0.001848   0.007589   0.002613   0.006124
   30  LU 1 YYY   0.002110   0.001345   0.003011   0.000381   0.009756
   31  LU 1 ZZZ   0.002651   0.005936  -0.000974   0.000932   0.004184
   32  LU 1 XXY   0.004817   0.001974  -0.006625   0.004838   0.003879
   33  LU 1 XXZ  -0.006542  -0.005336  -0.003192  -0.004308  -0.003805
   34  LU 1 YYX  -0.007211  -0.000653  -0.002093   0.003456  -0.007419
   35  LU 1 YYZ  -0.000052  -0.005250   0.004524   0.000894  -0.005235
   36  LU 1 ZZX  -0.003374   0.000183  -0.003418  -0.009462   0.000368
   37  LU 1 ZZY  -0.009473   0.000327  -0.000180  -0.003941  -0.017927
   38  LU 1 XYZ   0.003173   0.000162  -0.005154  -0.001337   0.004635
   39  LU 1 XXX   0.012214  -0.023790  -0.057499   0.035223  -0.011480
   40  LU 1 YYY   0.020583  -0.053786   0.035660  -0.016550   0.015134
   41  LU 1 ZZZ   0.024790   0.036181  -0.003978   0.029957   0.049578
   42  LU 1 XXY   0.010202  -0.023889   0.014365  -0.006574   0.006887
   43  LU 1 XXZ   0.009308   0.014616  -0.002214   0.012154   0.020690
   44  LU 1 YYX   0.003091  -0.010647  -0.026599   0.015999  -0.007297
   45  LU 1 YYZ   0.010685   0.014966  -0.001009   0.013632   0.021222
   46  LU 1 ZZX   0.003557  -0.010780  -0.026454   0.013996  -0.005793
   47  LU 1 ZZY   0.006445  -0.024798   0.015463  -0.008196   0.002914
   48  LU 1 XYZ   0.000714   0.000315  -0.000741  -0.000002   0.001182
   49  CL 2  S   -0.049018  -0.006806  -0.013134  -0.012165  -0.022123
   50  CL 2  X    0.078293  -0.020443  -0.051237   0.054760   0.005121
   51  CL 2  Y    0.027108   0.002683   0.081141  -0.058919   0.022010
   52  CL 2  Z    0.025921   0.050478   0.077985   0.163314   0.058300
   53  CL 2  S   -0.116613  -0.037761  -0.087607  -0.016673  -0.072459
   54  CL 2  X    0.090309   0.015234   0.012016   0.056510   0.043266
   55  CL 2  Y    0.040299  -0.003142   0.089436  -0.045327   0.031610
   56  CL 2  Z    0.027514   0.053555   0.062368   0.126166   0.039302
   57  O  3  S   -0.044961  -0.008262  -0.004120  -0.021416  -0.006721
   58  O  3  X   -0.025346   0.015404  -0.079352   0.030018  -0.059171
   59  O  3  Y    0.063080  -0.014368  -0.003710  -0.027477   0.056810
   60  O  3  Z    0.050019   0.059108  -0.059159   0.002609   0.149777
   61  O  3  S   -0.079653  -0.119051   0.107067  -0.101938  -0.119345
   62  O  3  X    0.013480   0.001740  -0.062653   0.033119  -0.042663
   63  O  3  Y    0.008671  -0.018125  -0.043332  -0.021426   0.023432
   64  O  3  Z    0.039716   0.096429  -0.068473   0.018029   0.182950
   65  H  4  S    0.005864  -0.001864   0.039256   0.020118  -0.087671
   66  H  4  S    0.036860   0.135609  -0.037880   0.108627   0.177259
   67  H  5  S   -0.085847  -0.001280  -0.001183  -0.021811  -0.043963
   68  H  5  S   -0.288619   0.061326  -0.039574  -0.100390  -0.251580

                     26         27         28         29         30
                    0.1523     0.1781     0.2456     0.2845     0.3197
                     A          A          A          A          A   
    1  LU 1  S    0.065554   0.070237   0.156343   0.670428   0.058045
    2  LU 1  X   -0.004731  -0.002480   0.042708  -0.024610  -0.067582
    3  LU 1  Y    0.000539   0.013114   0.011542  -0.026172   0.011668
    4  LU 1  Z   -0.001464   0.002601   0.016365  -0.020195   0.044346
    5  LU 1  S   -0.512875  -0.505070  -1.758393  -2.591244  -1.012489
    6  LU 1  X   -0.013143  -0.007653   0.118668  -0.069287  -0.192016
    7  LU 1  Y    0.003117   0.035644   0.029641  -0.076760   0.033775
    8  LU 1  Z   -0.004916   0.004943   0.045247  -0.056103   0.124107
    9  LU 1  S    0.495806   0.451156   1.589649   3.040551   0.942829
   10  LU 1  X    0.034645  -0.029430  -0.186168   0.059253   0.142223
   11  LU 1  Y    0.072872  -0.093869  -0.140692  -0.069044  -0.015709
   12  LU 1  Z   -0.037389  -0.122717  -0.084152   0.016540  -0.150389
   13  LU 1  S    2.585399   2.683326   8.645971  14.764690   4.881506
   14  LU 1  X   -0.077238   0.136156   0.999774  -0.349788  -1.165165
   15  LU 1  Y   -0.185100   0.337857   0.637015   0.272442  -0.037042
   16  LU 1  Z    0.112163   0.459224   0.481828  -0.261332   1.299261
   17  LU 1 XX   -0.209833  -0.625400  -1.700792  -3.465330  -1.245565
   18  LU 1 YY   -0.831084  -0.430385  -1.900762  -3.330373  -0.938883
   19  LU 1 ZZ   -0.676289  -0.675953  -1.969783  -3.379740  -0.845278
   20  LU 1 XY   -0.280758  -0.033425   0.143594  -0.056518  -0.184185
   21  LU 1 XZ   -0.052149  -0.001987   0.028052  -0.005983  -0.096763
   22  LU 1 YZ   -0.007799   0.098258  -0.031173  -0.005931  -0.120324
   23  LU 1 XX   -0.175842  -0.824441  -1.912221  -4.964980  -1.466278
   24  LU 1 YY   -1.064108  -0.602123  -2.323451  -4.775699  -0.822080
   25  LU 1 ZZ   -0.903049  -0.942135  -2.401658  -4.813333  -0.779631
   26  LU 1 XY   -0.396023  -0.053813   0.164324  -0.066095  -0.316373
   27  LU 1 XZ   -0.067685  -0.007553  -0.033814   0.018085  -0.161243
   28  LU 1 YZ    0.008637   0.071920  -0.107637   0.032511  -0.311522
   29  LU 1 XXX   0.007724   0.005431   0.022947  -0.006925   0.004579
   30  LU 1 YYY  -0.008820   0.007519   0.001284   0.000138   0.016376
   31  LU 1 ZZZ  -0.001634  -0.000479  -0.000761  -0.001258   0.007325
   32  LU 1 XXY   0.011649   0.001930   0.012748  -0.004631   0.004716
   33  LU 1 XXZ   0.005779   0.000421   0.000485  -0.000799  -0.009200
   34  LU 1 YYX  -0.012328  -0.010003  -0.010303   0.003773  -0.016643
   35  LU 1 YYZ  -0.002789   0.003253   0.003554   0.000351   0.005622
   36  LU 1 ZZX   0.000716   0.003301  -0.013548   0.002631   0.003321
   37  LU 1 ZZY  -0.001652  -0.008963  -0.010458   0.004113  -0.025717
   38  LU 1 XYZ  -0.004833   0.001040   0.002466  -0.001318   0.000094
   39  LU 1 XXX   0.019131  -0.003167  -0.122774   0.057765   0.152549
   40  LU 1 YYY   0.021056  -0.049000  -0.061715   0.021541  -0.020658
   41  LU 1 ZZZ  -0.010507  -0.043135  -0.051397   0.035818  -0.112369
   42  LU 1 XXY   0.012158  -0.022133  -0.025460   0.008612  -0.009764
   43  LU 1 XXZ  -0.003861  -0.019073  -0.023264   0.016899  -0.052419
   44  LU 1 YYX   0.005418  -0.003729  -0.058527   0.027920   0.065178
   45  LU 1 YYZ  -0.004872  -0.019161  -0.022560   0.016157  -0.049938
   46  LU 1 ZZX   0.008177  -0.001068  -0.058689   0.027528   0.068566
   47  LU 1 ZZY   0.010128  -0.023752  -0.029036   0.011752  -0.015483
   48  LU 1 XYZ  -0.000650   0.000074   0.000123  -0.000460   0.000806
   49  CL 2  S   -0.048266  -0.030756  -0.240638   0.063084   0.088703
   50  CL 2  X    0.040118   0.022941   0.169881  -0.134003  -0.035093
   51  CL 2  Y    0.163986  -0.047956   0.001000  -0.053284  -0.027487
   52  CL 2  Z    0.007743  -0.045869  -0.019857   0.009484  -0.067833
   53  CL 2  S   -0.121253  -0.096884  -0.650959  -0.007818   0.272402
   54  CL 2  X    0.124554   0.063914   0.697027  -0.294736  -0.414996
   55  CL 2  Y    0.142679  -0.008159   0.115021  -0.098049  -0.092035
   56  CL 2  Z   -0.000104  -0.044868  -0.029051   0.012103  -0.057657
   57  O  3  S   -0.043944  -0.187654   0.009858   0.035882  -0.081114
   58  O  3  X    0.142166  -0.029071  -0.102928   0.013771  -0.032871
   59  O  3  Y    0.131371  -0.057835   0.021540  -0.018117   0.134164
   60  O  3  Z    0.020594   0.186898  -0.123066  -0.062824  -0.098289
   61  O  3  S   -0.159993  -0.903535   0.235683   0.176593  -0.198555
   62  O  3  X    0.126901  -0.019557  -0.152578   0.031069  -0.169773
   63  O  3  Y    0.143091  -0.106263   0.090479  -0.038471   0.393647
   64  O  3  Z    0.023009   0.377811  -0.285331  -0.178787  -0.229229
   65  H  4  S    0.020518   0.089852  -0.021625  -0.026930   0.030618
   66  H  4  S    0.103919   1.318352  -0.841042  -0.639485  -0.670164
   67  H  5  S   -0.003041  -0.030964  -0.081381  -0.046278  -0.069328
   68  H  5  S    0.027350  -0.039437  -0.381191   0.420439  -1.724369

                     31         32         33         34         35
                    0.3541     0.6043     0.6159     0.6183     0.7299
                     A          A          A          A          A   
    1  LU 1  S    0.266649   0.074762  -0.022965   0.036854   0.178216
    2  LU 1  X    0.049625   0.050158  -0.004973   0.005141   0.039933
    3  LU 1  Y   -0.106420   0.011783  -0.012147  -0.008114   0.057699
    4  LU 1  Z    0.013069  -0.009645   0.009617  -0.021574  -0.221165
    5  LU 1  S   -1.105156  -0.302644   0.203499  -0.129531  -0.739613
    6  LU 1  X    0.142767   0.151072  -0.014478   0.014269   0.117184
    7  LU 1  Y   -0.304779   0.035274  -0.035164  -0.022049   0.167119
    8  LU 1  Z    0.035000  -0.027840   0.029566  -0.063190  -0.647231
    9  LU 1  S    1.247764   0.511133  -0.154312   0.168550   0.953143
   10  LU 1  X   -0.063385   0.053948  -0.004019  -0.014711   0.011291
   11  LU 1  Y    0.143936   0.008839   0.007077   0.041340   0.009023
   12  LU 1  Z   -0.120464  -0.005281   0.043310  -0.018874  -0.057351
   13  LU 1  S    6.559477   1.571681  -1.183198   0.804537   4.162582
   14  LU 1  X    0.579740   0.604527   0.150734   0.091434   0.037218
   15  LU 1  Y   -1.511938   0.102924  -0.038537  -0.384894  -0.335206
   16  LU 1  Z    1.022743   0.043586  -0.392294   0.173512   0.307784
   17  LU 1 XX   -1.399344  -0.690827   0.261947  -0.064595  -0.607489
   18  LU 1 YY   -1.696537  -0.222151   0.222626  -0.384570  -0.504874
   19  LU 1 ZZ   -1.160315  -0.218018   0.192519  -0.071797  -1.696714
   20  LU 1 XY    0.216338  -0.171192  -0.054102  -0.108708  -0.077827
   21  LU 1 XZ   -0.020987  -0.007146  -0.201276   0.051222  -0.123835
   22  LU 1 YZ   -0.139218   0.006917  -0.035555  -0.026378  -0.238409
   23  LU 1 XX   -2.084586   0.257346   0.371633  -0.239137  -1.477297
   24  LU 1 YY   -2.507794  -0.487636   0.273106  -0.194376  -1.679701
   25  LU 1 ZZ   -1.531849  -0.493087   0.319602  -0.278267  -0.530205
   26  LU 1 XY    0.550924   0.262933   0.039981  -0.035537   0.163468
   27  LU 1 XZ   -0.079895   0.034775  -0.004593   0.002069   0.152768
   28  LU 1 YZ   -0.297099   0.009440   0.015413   0.024617   0.256720
   29  LU 1 XXX  -0.007936   0.002136   0.001641   0.003315  -0.009590
   30  LU 1 YYY  -0.008245  -0.001524   0.000460   0.000373  -0.011558
   31  LU 1 ZZZ   0.011525  -0.001067   0.006848  -0.002633  -0.016987
   32  LU 1 XXY  -0.002414   0.000550  -0.002144  -0.008976  -0.007551
   33  LU 1 XXZ  -0.006594   0.000937  -0.010924   0.004455   0.013002
   34  LU 1 YYX   0.032369  -0.000875   0.000047  -0.003849   0.007434
   35  LU 1 YYZ  -0.005718  -0.000035   0.001921  -0.002049  -0.002697
   36  LU 1 ZZX  -0.017511  -0.001917  -0.002716  -0.000041   0.007457
   37  LU 1 ZZY   0.003860   0.001666   0.000768   0.007528   0.026786
   38  LU 1 XYZ   0.009290  -0.000866  -0.003900  -0.000540  -0.006399
   39  LU 1 XXX  -0.099682  -0.068649   0.006516  -0.013189  -0.060287
   40  LU 1 YYY   0.210424  -0.019195   0.022464   0.028557  -0.091131
   41  LU 1 ZZZ  -0.055613   0.015271   0.000384   0.029401   0.348033
   42  LU 1 XXY   0.094129  -0.005710   0.010459   0.012884  -0.040216
   43  LU 1 XXZ  -0.026688   0.006893   0.000455   0.012745   0.151333
   44  LU 1 YYX  -0.038518  -0.033875   0.002614  -0.006153  -0.027748
   45  LU 1 YYZ  -0.025444   0.006757   0.000343   0.013240   0.154315
   46  LU 1 ZZX  -0.046913  -0.035044   0.002690  -0.006131  -0.029906
   47  LU 1 ZZY   0.095228  -0.008899   0.010526   0.011893  -0.046354
   48  LU 1 XYZ   0.001152   0.000265  -0.000059   0.000221   0.001541
   49  CL 2  S   -0.035457  -0.169154  -0.008862  -0.001253  -0.003032
   50  CL 2  X   -0.054049  -0.997142  -0.045812   0.231687  -0.072190
   51  CL 2  Y    0.085149  -0.214668  -0.296413  -1.009290  -0.011665
   52  CL 2  Z   -0.050170   0.105012  -1.038711   0.266723  -0.004380
   53  CL 2  S   -0.178614  -0.368198  -0.030681  -0.010645   0.000893
   54  CL 2  X    0.103771   1.668319   0.109611  -0.281729   0.007493
   55  CL 2  Y    0.062431   0.363804   0.363795   1.217005   0.009947
   56  CL 2  Z   -0.045764  -0.124781   1.244642  -0.328481  -0.065106
   57  O  3  S    0.099365  -0.009913   0.022450   0.020194  -0.008822
   58  O  3  X    0.141856   0.008637  -0.024649  -0.022287  -0.025976
   59  O  3  Y   -0.208567   0.031846   0.006311  -0.053740   0.033712
   60  O  3  Z    0.048457  -0.002763   0.031755  -0.007091   0.015935
   61  O  3  S    0.408026   0.074606   0.072291   0.045775   0.214635
   62  O  3  X    0.413106   0.011502   0.041017   0.072509   0.169184
   63  O  3  Y   -0.660343  -0.058737  -0.036718  -0.004535  -0.247884
   64  O  3  Z    0.127907  -0.013477  -0.012306  -0.007442   0.001334
   65  H  4  S    0.022464  -0.016966  -0.039503  -0.021829   0.135962
   66  H  4  S    0.772145   0.009791   0.039570   0.088924  -0.022432
   67  H  5  S   -0.021490   0.068490  -0.087748   0.134053   0.908028
   68  H  5  S   -1.455824  -0.077396   0.331324  -0.298916  -1.337934

                     36         37         38         39         40
                    0.7622     0.7685     0.7843     0.8348     0.8939
                     A          A          A          A          A   
    1  LU 1  S    0.139131   0.103183   0.038004   0.004239  -0.046709
    2  LU 1  X    0.006465   0.036509   0.010871   0.001259  -0.002228
    3  LU 1  Y    0.042877   0.045048   0.065138   0.049391  -0.069061
    4  LU 1  Z   -0.083735  -0.071145  -0.003916  -0.040778  -0.001345
    5  LU 1  S   -0.794682  -0.539907  -0.211782   0.347457   0.104322
    6  LU 1  X    0.017314   0.108185   0.032279   0.001300  -0.011345
    7  LU 1  Y    0.125059   0.131832   0.194675   0.147385  -0.202844
    8  LU 1  Z   -0.242792  -0.205799  -0.011284  -0.116778  -0.005594
    9  LU 1  S    0.823769   0.582013   0.296696  -0.348456  -0.925948
   10  LU 1  X   -0.012321   0.016422   0.011749   0.006333  -0.085008
   11  LU 1  Y   -0.003526  -0.000973   0.041825  -0.006600   0.011293
   12  LU 1  Z   -0.019881   0.004162  -0.000810   0.026683  -0.020105
   13  LU 1  S    4.471978   3.147416   1.022030  -0.997692   1.618016
   14  LU 1  X    0.003652  -0.135903  -0.143858  -0.357286   0.642160
   15  LU 1  Y   -0.099960   0.071838   0.051581   0.798531  -0.483819
   16  LU 1  Z    0.298385   0.065127   0.058146  -0.365388   0.175034
   17  LU 1 XX   -0.924840  -0.614391  -0.614942   0.420371  -0.563577
   18  LU 1 YY   -1.138250  -0.798711   0.255016  -0.095977   0.631193
   19  LU 1 ZZ   -0.760563  -0.547895  -0.375934   0.546660   0.154428
   20  LU 1 XY   -0.131047  -0.047251   0.824717   0.257873  -0.393745
   21  LU 1 XZ   -0.391111   0.972204   0.028863  -0.167027   0.126666
   22  LU 1 YZ    0.845935   0.224683   0.262385  -0.436157  -0.219818
   23  LU 1 XX   -1.248320  -0.872447   0.124039   0.277753   0.131517
   24  LU 1 YY   -1.102421  -0.641083  -0.580850   1.056970  -1.565614
   25  LU 1 ZZ   -1.419748  -0.992733  -0.134351  -0.233514  -0.686459
   26  LU 1 XY    0.150813  -0.028046  -0.942721  -0.611298   0.711914
   27  LU 1 XZ    0.349674  -0.961315  -0.044012   0.196608  -0.198321
   28  LU 1 YZ   -0.751616  -0.210029  -0.273805   0.668289   0.377607
   29  LU 1 XXX  -0.001403  -0.002860   0.005499   0.001729  -0.000715
   30  LU 1 YYY  -0.009308  -0.005139   0.007686  -0.003611  -0.012299
   31  LU 1 ZZZ  -0.009536  -0.003637  -0.001079  -0.010266  -0.009955
   32  LU 1 XXY  -0.001841  -0.000543  -0.005232   0.001152  -0.000602
   33  LU 1 XXZ   0.007134   0.000893  -0.000794   0.009704   0.001812
   34  LU 1 YYX   0.000635  -0.004145  -0.008430  -0.016590   0.014719
   35  LU 1 YYZ   0.000364  -0.000543   0.002063   0.001855   0.011720
   36  LU 1 ZZX   0.002144   0.009748   0.001446   0.014906  -0.012577
   37  LU 1 ZZY   0.016796   0.009965  -0.002484   0.005515   0.013108
   38  LU 1 XYZ  -0.006656  -0.005570   0.001560  -0.009544  -0.011641
   39  LU 1 XXX  -0.013496  -0.054409  -0.015982  -0.002281  -0.025286
   40  LU 1 YYY  -0.072170  -0.072042  -0.091553  -0.076764   0.115948
   41  LU 1 ZZZ   0.132567   0.120507   0.007567   0.087189  -0.002788
   42  LU 1 XXY  -0.032618  -0.032284  -0.040432  -0.033803   0.049429
   43  LU 1 XXZ   0.056778   0.052990   0.003285   0.035571  -0.003001
   44  LU 1 YYX  -0.005440  -0.024957  -0.007120  -0.003654  -0.012362
   45  LU 1 YYZ   0.058515   0.053450   0.003068   0.037796  -0.005014
   46  LU 1 ZZX  -0.006547  -0.026399  -0.007070  -0.003600  -0.007369
   47  LU 1 ZZY  -0.036412  -0.035692  -0.041554  -0.040497   0.047600
   48  LU 1 XYZ   0.001180   0.001174  -0.000314   0.002032   0.002803
   49  CL 2  S   -0.034758  -0.013497   0.000898   0.022805  -0.090704
   50  CL 2  X    0.042694  -0.032906   0.020852  -0.119852   0.348095
   51  CL 2  Y    0.084331   0.051425  -0.194655   0.087277   0.031845
   52  CL 2  Z    0.005905  -0.228321  -0.021257  -0.027690   0.002607
   53  CL 2  S   -0.088226  -0.021285   0.012466   0.107969  -0.352223
   54  CL 2  X   -0.001262   0.028225  -0.097840   0.055832  -0.037632
   55  CL 2  Y   -0.119266  -0.090444   0.430557  -0.167571   0.090505
   56  CL 2  Z   -0.066305   0.483253   0.042149   0.006867   0.004822
   57  O  3  S    0.064560  -0.041043   0.006415  -0.032063   0.185935
   58  O  3  X   -0.089265   0.011772   0.325627   0.094169  -0.011525
   59  O  3  Y    0.037779  -0.073198   0.083977  -0.323777   0.105154
   60  O  3  Z   -0.031269  -0.082987  -0.087336  -0.468013  -0.042708
   61  O  3  S    0.109800  -0.108746  -0.207744  -0.415197   0.597114
   62  O  3  X    0.038209  -0.075429  -0.323999  -0.516678   0.220151
   63  O  3  Y    0.019097   0.172527   0.198192   0.997302  -0.272503
   64  O  3  Z   -0.128100   0.003736   0.052414   0.003428  -0.637685
   65  H  4  S   -0.414945   0.006655  -0.090848  -0.700980  -0.973492
   66  H  4  S    0.005660  -0.108094  -0.108084   0.050037   0.671694
   67  H  5  S    0.546513   0.461508   0.039836   0.380412   0.068977
   68  H  5  S   -1.019826  -0.770618  -0.183907   0.370405  -0.021142

                     41         42         43         44         45
                    0.9203     0.9443     0.9994     1.0859     1.1226
                     A          A          A          A          A   
    1  LU 1  S    0.045969   0.049587  -0.028884   0.382275  -0.310140
    2  LU 1  X   -0.022104  -0.019511  -0.113744  -0.060793   0.042723
    3  LU 1  Y    0.064690   0.033375   0.054281   0.036465   0.055344
    4  LU 1  Z   -0.061531  -0.079127  -0.014990   0.019167   0.115554
    5  LU 1  S   -0.296719  -0.367640   0.314574  -1.015747   0.681337
    6  LU 1  X   -0.065071  -0.058725  -0.343899  -0.183662   0.125440
    7  LU 1  Y    0.188216   0.090431   0.165010   0.116465   0.167902
    8  LU 1  Z   -0.177568  -0.228103  -0.040519   0.057521   0.337409
    9  LU 1  S    0.352119   0.227401  -0.654175   4.989175  -5.263483
   10  LU 1  X   -0.000480  -0.026086  -0.118406  -0.032324   0.034875
   11  LU 1  Y   -0.015950  -0.088209   0.041224   0.026204   0.056265
   12  LU 1  Z    0.021982   0.028724   0.048645  -0.034796   0.021428
   13  LU 1  S    1.370052   2.249320  -0.283954  -4.552275   9.073022
   14  LU 1  X   -0.176492   0.170096   0.425825  -0.297427  -0.455655
   15  LU 1  Y    0.282461   0.779558   0.157849   0.441340   0.182607
   16  LU 1  Z   -0.300840  -0.395243  -0.488411   0.373999   0.286773
   17  LU 1 XX   -0.837792  -0.606943  -0.137247  -1.059109   0.812503
   18  LU 1 YY   -0.195334  -0.777047   0.539235  -1.025637   0.606049
   19  LU 1 ZZ    0.031385   0.106169   0.437294  -1.251682   0.384568
   20  LU 1 XY    0.291495   0.076351  -0.432505  -0.110838  -0.001632
   21  LU 1 XZ   -0.076042  -0.092741  -0.151812   0.035186   0.013900
   22  LU 1 YZ   -0.123744  -0.297043   0.084956   0.061806   0.084685
   23  LU 1 XX    0.412232  -0.472220   0.646066   2.015625  -3.568565
   24  LU 1 YY   -0.593254  -0.058102  -0.207075   2.221795  -3.051686
   25  LU 1 ZZ   -0.993519  -1.583203  -0.278258   2.220552  -2.887727
   26  LU 1 XY   -0.540755  -0.162459   0.525294  -0.105903  -0.174121
   27  LU 1 XZ    0.123509   0.146204   0.320953  -0.156937  -0.108509
   28  LU 1 YZ    0.247096   0.603677  -0.207983   0.001030  -0.050350
   29  LU 1 XXX  -0.000622   0.004097   0.001370   0.011342  -0.000340
   30  LU 1 YYY  -0.020052   0.002518  -0.001123   0.005133   0.003227
   31  LU 1 ZZZ  -0.006498  -0.015426   0.012123  -0.009314  -0.005474
   32  LU 1 XXY   0.018099  -0.015484  -0.002058   0.006825  -0.000594
   33  LU 1 XXZ   0.007741   0.011400   0.000235  -0.001060   0.000678
   34  LU 1 YYX  -0.010638  -0.013103  -0.001492  -0.015462  -0.000416
   35  LU 1 YYZ  -0.002992   0.004135  -0.017978   0.015108   0.012776
   36  LU 1 ZZX   0.010646   0.006426  -0.004597  -0.001642   0.003279
   37  LU 1 ZZY   0.013005   0.015242   0.005154  -0.013315  -0.002962
   38  LU 1 XYZ  -0.005140  -0.013486   0.014081  -0.011296  -0.009060
   39  LU 1 XXX   0.037674   0.018325   0.144214   0.086772  -0.060250
   40  LU 1 YYY  -0.105786  -0.089239  -0.070556  -0.039111  -0.079304
   41  LU 1 ZZZ   0.112936   0.147320   0.037874  -0.032035  -0.189032
   42  LU 1 XXY  -0.052969  -0.036945  -0.031927  -0.018907  -0.033650
   43  LU 1 XXZ   0.047338   0.060332   0.018173  -0.014291  -0.085336
   44  LU 1 YYX   0.019923   0.013132   0.061349   0.039913  -0.032969
   45  LU 1 YYZ   0.050787   0.063515   0.023678  -0.019283  -0.088748
   46  LU 1 ZZX   0.014504   0.006395   0.067189   0.042705  -0.028382
   47  LU 1 ZZY  -0.053180  -0.044876  -0.036205  -0.015238  -0.037574
   48  LU 1 XYZ   0.001275   0.003524  -0.003955   0.002472   0.002410
   49  CL 2  S   -0.026272  -0.069393  -0.096553  -0.030989   0.036773
   50  CL 2  X    0.131231   0.087506   0.254516   0.039361  -0.187028
   51  CL 2  Y    0.048101   0.073493   0.041385   0.031477  -0.035575
   52  CL 2  Z   -0.028977  -0.041438  -0.038336   0.027881   0.017914
   53  CL 2  S   -0.134171  -0.142836  -0.278060  -0.022689   0.197108
   54  CL 2  X   -0.036991   0.069538   0.074432   0.095946  -0.109788
   55  CL 2  Y    0.087630  -0.139040  -0.013160  -0.058256  -0.065533
   56  CL 2  Z    0.042852   0.048618   0.063397  -0.049713  -0.039890
   57  O  3  S   -0.070828  -0.072514  -0.155256  -0.005187  -0.078823
   58  O  3  X   -0.553536   0.379374   0.401612   0.265722   0.195472
   59  O  3  Y   -0.341490   0.361483  -0.345530  -0.454872  -0.412880
   60  O  3  Z    0.277667   0.451275  -0.282437   0.466100   0.425438
   61  O  3  S   -0.214810  -0.224115   0.100844   0.019827   0.407796
   62  O  3  X    0.786392  -0.704958  -0.376217  -0.612119  -0.395824
   63  O  3  Y    0.601636  -0.292269   0.155832   1.029850   0.776296
   64  O  3  Z   -0.097738  -0.528371   1.023522  -0.970913  -0.865793
   65  H  4  S    0.469980   0.290170   0.793172  -0.128668  -0.015999
   66  H  4  S   -0.483635  -0.590511  -0.189486  -0.813618  -0.930884
   67  H  5  S    0.375430   0.579719   0.126546  -0.134142  -0.060910
   68  H  5  S    0.129388   0.260746   0.277663  -0.259959  -0.263838

                     46         47         48         49         50
                    1.6990     1.7210     1.7454     3.0227     3.6497
                     A          A          A          A          A   
    1  LU 1  S    0.064085   0.028536   0.042666   0.142812  -1.769868
    2  LU 1  X    0.856180   1.993678  -1.353833  -0.206610   0.004276
    3  LU 1  Y    1.874203  -1.416176  -0.943197   0.386221  -0.007854
    4  LU 1  Z    1.476982   0.682409   1.964756  -0.048268  -0.003582
    5  LU 1  S   -0.312244   0.035890  -0.172688   0.766120 -11.461238
    6  LU 1  X    2.558141   5.959345  -4.049589  -0.646246   0.015011
    7  LU 1  Y    5.599905  -4.233404  -2.822179   1.207683  -0.013652
    8  LU 1  Z    4.413953   2.040924   5.877914  -0.145230  -0.000779
    9  LU 1  S    0.420709   0.197783   0.164727  -0.963928  18.698346
   10  LU 1  X    0.115802   0.268946  -0.178031  -0.017159  -0.020417
   11  LU 1  Y    0.274906  -0.201944  -0.127785   0.024007  -0.030563
   12  LU 1  Z    0.223482   0.100610   0.277267  -0.041922  -0.028453
   13  LU 1  S    1.456740  -0.503157   1.245043  -0.686690  -4.025945
   14  LU 1  X    0.274715   0.635586  -0.424626   0.640594   0.134819
   15  LU 1  Y    0.389457  -0.488444  -0.462349  -0.974765  -0.022548
   16  LU 1  Z    0.363403   0.211498   0.743887   0.048740   0.037608
   17  LU 1 XX   -0.402325  -0.070038  -0.163755   0.273150  -4.378624
   18  LU 1 YY   -0.385419   0.072097  -0.216699   0.324298  -4.352992
   19  LU 1 ZZ   -0.359288  -0.011066  -0.324576   0.251722  -4.354262
   20  LU 1 XY   -0.039820  -0.056815   0.034952  -0.005088  -0.008383
   21  LU 1 XZ   -0.009992  -0.016620   0.020382   0.008904   0.001311
   22  LU 1 YZ   -0.026630   0.018135   0.029320   0.015751   0.000498
   23  LU 1 XX   -0.365124   0.337311  -0.484166  -0.014895   1.751308
   24  LU 1 YY   -0.421345   0.009603  -0.389338  -0.693509   1.631615
   25  LU 1 ZZ   -0.460175   0.237427  -0.111841   0.350479   1.666504
   26  LU 1 XY    0.096401   0.164057  -0.027984   0.618036   0.055163
   27  LU 1 XZ    0.017404   0.017347  -0.044815  -0.023260  -0.003667
   28  LU 1 YZ    0.030501  -0.039736  -0.089041  -0.068972  -0.002738
   29  LU 1 XXX   0.021399   0.045994  -0.036046  -0.093617   0.055141
   30  LU 1 YYY   0.041158  -0.035378  -0.021879  -0.064778  -0.047841
   31  LU 1 ZZZ   0.031463   0.015378   0.041479   0.003573  -0.015417
   32  LU 1 XXY   0.019218  -0.014973  -0.010793  -0.043204   0.029630
   33  LU 1 XXZ   0.017230   0.007719   0.020879  -0.012361   0.009665
   34  LU 1 YYX   0.008201   0.026438  -0.008232   0.234760   0.015944
   35  LU 1 YYZ   0.014848   0.005694   0.020923   0.007722   0.010692
   36  LU 1 ZZX   0.006749   0.012283  -0.011390  -0.115371  -0.089350
   37  LU 1 ZZY   0.020125  -0.008061  -0.006598   0.141572   0.034293
   38  LU 1 XYZ  -0.000407   0.001001  -0.001029   0.003285  -0.011225
   39  LU 1 XXX  -1.371268  -3.199419   2.176249   0.440445  -0.076275
   40  LU 1 YYY  -3.001259   2.278260   1.515849  -0.558206   0.086222
   41  LU 1 ZZZ  -2.362747  -1.093657  -3.154239   0.088324   0.035476
   42  LU 1 XXY  -1.343114   1.017919   0.678957  -0.233858  -0.028298
   43  LU 1 XXZ  -1.059017  -0.489967  -1.412217   0.055458  -0.006322
   44  LU 1 YYX  -0.611662  -1.434223   0.968030  -0.112633  -0.023248
   45  LU 1 YYZ  -1.057721  -0.488046  -1.412122   0.031736  -0.007279
   46  LU 1 ZZX  -0.611410  -1.424903   0.969219   0.280553   0.115387
   47  LU 1 ZZY  -1.343719   1.013513   0.675388  -0.440454  -0.035591
   48  LU 1 XYZ   0.000026  -0.000839   0.000941  -0.003375   0.014975
   49  CL 2  S   -0.056657  -0.042690   0.030115   0.054007   0.042242
   50  CL 2  X    0.042990   0.089278  -0.063304   0.039678   0.014969
   51  CL 2  Y    0.030170  -0.013322  -0.028831  -0.035311   0.001885
   52  CL 2  Z    0.015638   0.007929   0.030332   0.003310   0.001006
   53  CL 2  S   -0.102660  -0.165392   0.136351  -0.163321  -0.154907
   54  CL 2  X    0.027630   0.009234  -0.039003   0.022761   0.109099
   55  CL 2  Y   -0.070255   0.107151   0.048445   0.132200   0.030693
   56  CL 2  Z   -0.061109  -0.030514  -0.108100  -0.002224  -0.002357
   57  O  3  S    0.123572  -0.230880  -0.023305  -1.676899  -0.117265
   58  O  3  X   -0.007385   0.032369  -0.036433  -0.094150   0.015849
   59  O  3  Y    0.050196  -0.034147   0.012505   0.148374  -0.018395
   60  O  3  Z   -0.007105  -0.007388   0.006096   0.052506  -0.002180
   61  O  3  S   -0.232955   0.535841   0.051033   3.405038   0.170562
   62  O  3  X    0.026104  -0.039842   0.121514   0.473296  -0.004116
   63  O  3  Y   -0.184994   0.023290  -0.034926  -0.724624  -0.012037
   64  O  3  Z    0.002280   0.003268  -0.074933  -0.541804  -0.034080
   65  H  4  S   -0.001914   0.001883  -0.044012  -0.401814  -0.046277
   66  H  4  S    0.105574   0.018658   0.085303  -0.466834  -0.005403
   67  H  5  S    0.080450   0.060210   0.171755  -0.123987   0.030184
   68  H  5  S   -0.129255  -0.173439  -0.642583  -0.050018  -0.067562

                     51         52         53         54         55
                    3.7579     3.7646     3.7670     3.7773     3.7817
                     A          A          A          A          A   
    1  LU 1  S   -0.216268   0.035434   0.047897  -0.011036  -0.042707
    2  LU 1  X   -0.002246  -0.002269   0.000779  -0.002126  -0.014197
    3  LU 1  Y   -0.013234  -0.003379  -0.001817  -0.008045   0.010319
    4  LU 1  Z   -0.011538  -0.006749   0.004348  -0.000164  -0.004930
    5  LU 1  S   -1.203856   0.208921   0.266489  -0.017221  -0.307339
    6  LU 1  X   -0.002712  -0.005129   0.001506  -0.006998  -0.043148
    7  LU 1  Y   -0.037183  -0.008741  -0.004976  -0.024254   0.030768
    8  LU 1  Z   -0.032672  -0.021444   0.014963  -0.002742  -0.011403
    9  LU 1  S    2.090195  -0.358084  -0.460828   0.045448   0.518815
   10  LU 1  X   -0.004221  -0.002405   0.001317  -0.001582  -0.000415
   11  LU 1  Y   -0.008755  -0.002589   0.000735  -0.003039   0.008296
   12  LU 1  Z   -0.010754   0.000236  -0.000464   0.007717  -0.017841
   13  LU 1  S   -1.209566   0.168965   0.266267  -0.166191  -0.105556
   14  LU 1  X   -0.098768   0.016504   0.012092  -0.014360  -0.033753
   15  LU 1  Y   -0.018830   0.007988   0.009973  -0.003927  -0.024293
   16  LU 1  Z   -0.001165  -0.015265   0.012705  -0.031807   0.053822
   17  LU 1 XX   -0.375869   0.068859   0.086066   0.004528  -0.121279
   18  LU 1 YY   -0.370165   0.067315   0.080802   0.019572  -0.120436
   19  LU 1 ZZ   -0.371580   0.073720   0.080326   0.020410  -0.135588
   20  LU 1 XY    0.001805  -0.001402  -0.001978   0.001285   0.000342
   21  LU 1 XZ   -0.002169   0.002505  -0.001574  -0.002613   0.008790
   22  LU 1 YZ   -0.001235   0.000166  -0.001262   0.002107   0.000500
   23  LU 1 XX    0.369525  -0.052275  -0.081057   0.074231   0.032936
   24  LU 1 YY    0.409313  -0.054782  -0.081150   0.027351   0.036728
   25  LU 1 ZZ    0.415160  -0.065240  -0.085820   0.031419   0.087743
   26  LU 1 XY   -0.026775   0.001219   0.004255  -0.007868   0.002314
   27  LU 1 XZ   -0.003078  -0.006746   0.004160   0.014007  -0.031892
   28  LU 1 YZ    0.002455  -0.000678  -0.003114  -0.008706  -0.001926
   29  LU 1 XXX  -0.601679   0.007031   0.255366   0.164522   0.102207
   30  LU 1 YYY   0.189209  -0.046237  -0.223449   0.556388   0.117470
   31  LU 1 ZZZ   0.008966  -0.566551   0.072044  -0.241395   0.137475
   32  LU 1 XXY  -0.219008   0.153566  -0.122034  -0.594364  -0.439341
   33  LU 1 XXZ  -0.172446   0.416509  -0.481876   0.016104   0.308716
   34  LU 1 YYX   0.181076   0.053841  -0.295970   0.024150  -0.199721
   35  LU 1 YYZ   0.160157   0.343590   0.384989   0.307860  -0.493165
   36  LU 1 ZZX   0.625829  -0.063642  -0.046547  -0.244650   0.062211
   37  LU 1 ZZY  -0.035280  -0.091851   0.421530  -0.152247   0.281841
   38  LU 1 XYZ   0.138310   0.442433   0.233645  -0.179878   0.300055
   39  LU 1 XXX   0.813163  -0.005603  -0.344795  -0.216384  -0.112403
   40  LU 1 YYY  -0.228064   0.068098   0.302657  -0.734290  -0.177922
   41  LU 1 ZZZ   0.010637   0.773690  -0.105141   0.324476  -0.173468
   42  LU 1 XXY   0.305212  -0.203550   0.165027   0.806799   0.583168
   43  LU 1 XXZ   0.241489  -0.554085   0.644049  -0.022062  -0.410646
   44  LU 1 YYX  -0.240057  -0.070661   0.397016  -0.030288   0.280576
   45  LU 1 YYZ  -0.204789  -0.456202  -0.521216  -0.414844   0.669938
   46  LU 1 ZZX  -0.836972   0.087198   0.061777   0.331745  -0.072489
[...]
   23  LU 1 XX    0.031855   0.136885  -0.112080   0.053725   0.068076
   24  LU 1 YY    0.050247   0.184820  -0.102486   0.064014   0.093115
   25  LU 1 ZZ    0.044709   0.169483  -0.048391   0.044267   0.085058
   26  LU 1 XY   -0.010541  -0.036997   0.009954  -0.029363  -0.019767
   27  LU 1 XZ    0.001420  -0.002512  -0.004042  -0.000377  -0.001373
   28  LU 1 YZ    0.004615   0.002106  -0.013022  -0.005597   0.000830
   29  LU 1 XXX  -0.174053  -0.448103  -0.529000   0.249176  -1.741628
   30  LU 1 YYY   0.249175  -0.388970   0.033019  -0.626426  -1.481491
   31  LU 1 ZZZ  -0.062425  -0.439715   0.512775   0.298848  -1.622967
   32  LU 1 XXY   0.112087  -0.173763   0.014744  -0.280142  -0.662474
   33  LU 1 XXZ  -0.028561  -0.196189   0.228591   0.132988  -0.725665
   34  LU 1 YYX  -0.078346  -0.200187  -0.238532   0.114177  -0.778759
   35  LU 1 YYZ  -0.027488  -0.196483   0.228996   0.133546  -0.725759
   36  LU 1 ZZX  -0.079516  -0.201636  -0.237097   0.110742  -0.779314
   37  LU 1 ZZY   0.110588  -0.173396   0.013333  -0.279216  -0.662299
   38  LU 1 XYZ   0.000166  -0.000080   0.000190   0.000139  -0.000008
   39  LU 1 XXX  11.260715  -9.851663 -11.682730   5.524533  -4.672790
   40  LU 1 YYY -15.999098  -8.553930   0.721688 -13.816959  -3.981610
   41  LU 1 ZZZ   4.020778  -9.665529  11.278484   6.590421  -4.361603
   42  LU 1 XXY  -7.156317  -3.825930   0.322730  -6.179063  -1.780824
   43  LU 1 XXZ   1.799238  -4.323548   5.045460   2.948830  -1.950977
   44  LU 1 YYX   5.037183  -4.406383  -5.219959   2.463948  -2.090073
   45  LU 1 YYZ   1.797555  -4.322888   5.044564   2.947472  -1.950717
   46  LU 1 ZZX   5.038825  -4.402939  -5.223538   2.472381  -2.088505
   47  LU 1 ZZY  -7.153309  -3.826895   0.326241  -6.181530  -1.781298
   48  LU 1 XYZ  -0.000304   0.000121  -0.000432  -0.000317   0.000024
   49  CL 2  S   -0.012709  -0.037766  -0.011878   0.001301  -0.015633
   50  CL 2  X   -0.008825   0.014685   0.008816  -0.000732   0.005854
   51  CL 2  Y   -0.004551   0.001047   0.002273  -0.007149   0.000130
   52  CL 2  Z    0.000125  -0.004756   0.006894   0.003783  -0.002419
   53  CL 2  S    0.033969   0.118480   0.053927  -0.005040   0.058210
   54  CL 2  X   -0.016143  -0.042283  -0.014909  -0.004267  -0.020211
   55  CL 2  Y    0.000601   0.000201  -0.003304   0.025982   0.000798
   56  CL 2  Z   -0.000073   0.017920  -0.025481  -0.014942   0.009481
   57  O  3  S   -0.053268  -0.003282  -0.000218   0.025081  -0.000892
   58  O  3  X   -0.018013  -0.006914  -0.001154  -0.010613  -0.003259
   59  O  3  Y    0.029059  -0.001431  -0.007864   0.014594  -0.000980
   60  O  3  Z    0.001738  -0.002930   0.003776  -0.001417  -0.001314
   61  O  3  S    0.043523  -0.009759   0.017316  -0.098465  -0.006279
   62  O  3  X    0.011521   0.000682   0.035722  -0.022226   0.000406
   63  O  3  Y   -0.014735   0.036263  -0.029716   0.047529   0.019695
   64  O  3  Z    0.001608   0.009257  -0.020205   0.035699   0.004956
   65  H  4  S   -0.001673   0.001040  -0.010049   0.023255   0.000801
   66  H  4  S    0.005318  -0.010237   0.011862   0.058607  -0.005749
   67  H  5  S    0.009069  -0.019430   0.044267   0.045762  -0.009454
   68  H  5  S    0.005200   0.048908  -0.125511  -0.089218   0.024188

                     66         67         68
                   56.3655    56.3969    67.3352
                     A          A          A   
    1  LU 1  S    0.005017   0.000544  -2.740898
    2  LU 1  X   -0.855835   0.400058   0.008909
    3  LU 1  Y    0.075810  -1.016310   0.002150
    4  LU 1  Z    0.847250   0.497664   0.001533
    5  LU 1  S   -0.029777  -0.000256  -5.477065
    6  LU 1  X    6.261640  -2.953858   0.023624
    7  LU 1  Y   -0.578630   7.498951   0.012647
    8  LU 1  Z   -6.198372  -3.676949  -0.013632
    9  LU 1  S    0.027688   0.016523   6.466082
   10  LU 1  X    3.377513  -1.594047   0.002547
   11  LU 1  Y   -0.308460   4.047773   0.004717
   12  LU 1  Z   -3.343724  -1.984886  -0.012539
   13  LU 1  S    0.167740  -0.034154  -0.962434
   14  LU 1  X   -0.112005   0.034961   0.019491
   15  LU 1  Y   -0.025286  -0.117431   0.006065
   16  LU 1  Z    0.132090   0.080937   0.013311
   17  LU 1 XX   -0.028633   0.002386  -1.444418
   18  LU 1 YY   -0.033007   0.005135  -1.439354
   19  LU 1 ZZ   -0.038605   0.001117  -1.438644
   20  LU 1 XY    0.001000   0.000345  -0.001222
   21  LU 1 XZ    0.000680   0.000217   0.000480
   22  LU 1 YZ    0.002064   0.001167   0.000685
   23  LU 1 XX   -0.064865   0.026599   0.430039
   24  LU 1 YY   -0.058529   0.030612   0.412107
   25  LU 1 ZZ   -0.028599   0.023309   0.408291
   26  LU 1 XY    0.005312  -0.014230   0.003716
   27  LU 1 XZ   -0.002489  -0.000522  -0.001753
   28  LU 1 YZ   -0.007457  -0.003809  -0.001853
   29  LU 1 XXX  -1.989359   0.935681   0.000168
   30  LU 1 YYY   0.181923  -2.376883  -0.001376
   31  LU 1 ZZZ   1.969847   1.165042   0.003904
   32  LU 1 XXY   0.081373  -1.062992  -0.000861
   33  LU 1 XXZ   0.880713   0.520793   0.001677
   34  LU 1 YYX  -0.890447   0.419478   0.000555
   35  LU 1 YYZ   0.880833   0.521012   0.001663
   36  LU 1 ZZX  -0.889845   0.418190   0.000423
   37  LU 1 ZZY   0.080804  -1.062602  -0.000529
   38  LU 1 XYZ   0.000070   0.000045   0.000053
   39  LU 1 XXX  -5.355632   2.527281  -0.014138
   40  LU 1 YYY   0.492743  -6.413423  -0.009969
   41  LU 1 ZZZ   5.300097   3.144440   0.013734
   42  LU 1 XXY   0.220323  -2.868121  -0.003792
   43  LU 1 XXZ   2.370906   1.406863   0.006359
   44  LU 1 YYX  -2.392924   1.127348  -0.007616
   45  LU 1 YYZ   2.370580   1.406274   0.006373
   46  LU 1 ZZX  -2.394627   1.130941  -0.007261
   47  LU 1 ZZY   0.221888  -2.869239  -0.004640
   48  LU 1 XYZ  -0.000187  -0.000122  -0.000162
   49  CL 2  S   -0.004969   0.000667   0.000698
   50  CL 2  X    0.002979  -0.000055   0.004489
   51  CL 2  Y    0.000842  -0.003757   0.001262
   52  CL 2  Z    0.003665   0.002091   0.000380
   53  CL 2  S    0.028289  -0.003096  -0.025208
   54  CL 2  X   -0.007657  -0.002293   0.024008
   55  CL 2  Y   -0.001967   0.014514   0.005266
   56  CL 2  Z   -0.014143  -0.008512  -0.001026
   57  O  3  S   -0.001108   0.013387  -0.005052
   58  O  3  X   -0.000770  -0.004874   0.003701
   59  O  3  Y   -0.003508   0.006513  -0.005074
   60  O  3  Z    0.001949  -0.000795  -0.000432
   61  O  3  S    0.010038  -0.048936  -0.006166
   62  O  3  X    0.019760  -0.011685  -0.005261
   63  O  3  Y   -0.016848   0.025489   0.005855
   64  O  3  Z   -0.011794   0.018114  -0.003221
   65  H  4  S   -0.005821   0.011759  -0.005595
   66  H  4  S    0.005993   0.031484   0.002730
   67  H  5  S    0.023021   0.024090   0.008404
   68  H  5  S   -0.069488  -0.050996  -0.023393
 ...... END OF RHF CALCULATION ......
 STEP CPU TIME =     0.67 TOTAL CPU TIME =        1.2 (    0.0 MIN)
 TOTAL WALL CLOCK TIME=        4.4 SECONDS, CPU UTILIZATION IS  26.58%

     ----------------------------------------------------------------
     PROPERTY VALUES FOR THE RHF   SELF-CONSISTENT FIELD WAVEFUNCTION
     ----------------------------------------------------------------

          -----------------
          ENERGY COMPONENTS
          -----------------

         WAVEFUNCTION NORMALIZATION =       1.0000000000

                ONE ELECTRON ENERGY =    -761.4335029928
                TWO ELECTRON ENERGY =     361.8095620201
           NUCLEAR REPULSION ENERGY =      95.8868952083
                                      ------------------
                       TOTAL ENERGY =    -303.7370457644

 ELECTRON-ELECTRON POTENTIAL ENERGY =     361.8095620201
  NUCLEUS-ELECTRON POTENTIAL ENERGY =   -1202.2202921675
   NUCLEUS-NUCLEUS POTENTIAL ENERGY =      95.8868952083
                                      ------------------
             TOTAL POTENTIAL ENERGY =    -744.5238349391
               TOTAL KINETIC ENERGY =     440.7867891747
                 VIRIAL RATIO (V/T) =       1.6890792855

          ---------------------------------------
          MULLIKEN AND LOWDIN POPULATION ANALYSES
          ---------------------------------------

     ATOMIC MULLIKEN POPULATION IN EACH MOLECULAR ORBITAL

                      1          2          3          4          5

                  2.000000   2.000000   2.000000   2.000000   2.000000

    1             2.000947   1.978485   1.944931   1.992334   0.121131
    2            -0.000417   0.000775   0.003025   0.003070   0.000583
    3             0.000105   0.020216   0.051004   0.000531   1.676570
    4            -0.000032   0.000433   0.000185  -0.000132   0.200973
    5            -0.000604   0.000092   0.000855   0.004196   0.000743

                      6          7          8          9         10

                  2.000000   2.000000   2.000000   2.000000   2.000000

    1             0.096980   1.998787   1.997388   1.998858   1.997392
    2             1.901893   0.000338   0.001058   0.000134   0.001151
    3             0.000461   0.000175   0.000320   0.000942   0.000145
    4             0.000067   0.000029   0.000056   0.000059   0.000021
    5             0.000599   0.000671   0.001179   0.000007   0.001291

                     11         12         13         14         15

                  2.000000   2.000000   2.000000   2.000000   2.000000

    1             1.996666   1.998450   1.993579   0.092033   0.226765
    2             0.000303   0.000296   0.001879   0.001204   0.265342
    3             0.002175   0.001230   0.003021   1.387018   1.411318
    4             0.000245  -0.000004   0.000475   0.519193   0.007287
    5             0.000610   0.000028   0.001046   0.000552   0.089287

                     16         17         18         19         20

                  2.000000   2.000000   2.000000   2.000000   2.000000

    1             0.131021   0.264999   0.078533   0.665584   0.078796
    2             0.199960   1.194039   1.916266   0.274546   1.728479
    3             1.667141   0.471500   0.001360   0.040838   0.138087
    4             0.000083   0.000547  -0.000014   0.000082  -0.000160
    5             0.001794   0.068915   0.003855   1.018951   0.054797

               ----- POPULATIONS IN EACH AO -----
                             MULLIKEN      LOWDIN
              1  LU 1  S     -0.57419     0.00013
              2  LU 1  X     -0.23153     0.02368
              3  LU 1  Y     -0.23105     0.02372
              4  LU 1  Z     -0.22497     0.02331
              5  LU 1  S      1.12891     0.59568
              6  LU 1  X      1.24193     0.33744
              7  LU 1  Y      1.23705     0.33755
              8  LU 1  Z      1.20459     0.33161
              9  LU 1  S      1.60523     0.74296
             10  LU 1  X      1.31970     0.65053
             11  LU 1  Y      1.31478     0.64809
             12  LU 1  Z      1.31274     0.65708
             13  LU 1  S      0.61640     0.22648
             14  LU 1  X      0.18198     0.23208
             15  LU 1  Y      0.14689     0.20320
             16  LU 1  Z      0.16182     0.20440
             17  LU 1 XX      0.01075     0.24538
             18  LU 1 YY     -0.01151     0.22940
             19  LU 1 ZZ     -0.01247     0.25398
             20  LU 1 XY      0.05773     0.05318
             21  LU 1 XZ      0.01960     0.01729
             22  LU 1 YZ      0.06651     0.06028
             23  LU 1 XX      0.11571     0.24997
             24  LU 1 YY     -0.02759     0.17231
             25  LU 1 ZZ     -0.02753     0.24899
             26  LU 1 XY      0.11229     0.16706
             27  LU 1 XZ      0.06399     0.08205
             28  LU 1 YZ      0.11276     0.14145
             29  LU 1 XXX     0.57714     0.57107
             30  LU 1 YYY     0.57694     0.57107
             31  LU 1 ZZZ     0.57529     0.57035
             32  LU 1 XXY     1.15212     1.12929
             33  LU 1 XXZ     1.15220     1.12905
             34  LU 1 YYX     1.15124     1.12830
             35  LU 1 YYZ     1.15239     1.12937
             36  LU 1 ZZX     1.15053     1.12822
             37  LU 1 ZZY     1.14985     1.12751
             38  LU 1 XYZ     1.43939     1.40952
             39  LU 1 XXX     0.01043     0.70914
             40  LU 1 YYY     0.01311     0.70684
             41  LU 1 ZZZ     0.03021     0.70581
             42  LU 1 XXY     0.37840     0.69059
             43  LU 1 XXZ     0.37987     0.69062
             44  LU 1 YYX     0.37702     0.69076
             45  LU 1 YYZ     0.38241     0.68987
             46  LU 1 ZZX     0.37458     0.69177
             47  LU 1 ZZY     0.37980     0.69212
             48  LU 1 XYZ     0.56022     0.59018
             49  CL 2  S      1.48491     1.22959
             50  CL 2  X      1.23680     1.12704
             51  CL 2  Y      1.28259     1.19809
             52  CL 2  Z      1.27719     1.19413
             53  CL 2  S      0.45312     0.65485
             54  CL 2  X      0.48114     0.59263
             55  CL 2  Y      0.63250     0.71078
             56  CL 2  Z      0.64567     0.71625
             57  O  3  S      1.39256     1.15878
             58  O  3  X      1.26790     1.21018
             59  O  3  Y      1.22035     1.15522
             60  O  3  Z      1.01989     0.94336
             61  O  3  S      0.46874     0.54008
             62  O  3  X      0.59765     0.64228
             63  O  3  Y      0.53311     0.58350
             64  O  3  Z      0.37396     0.52022
             65  H  4  S      0.66391     0.55627
             66  H  4  S      0.06548     0.16752
             67  H  5  S      0.73953     0.65828
             68  H  5  S      0.50933     0.53026

          ----- MULLIKEN ATOMIC OVERLAP POPULATIONS -----
          (OFF-DIAGONAL ELEMENTS NEED TO BE MULTIPLIED BY 2)

             1           2           3           4           5

    1   22.8508264
    2    0.2753846   7.2210323
    3    0.2047089  -0.0011438   6.4460457
    4   -0.0037872   0.0002730   0.2237827   0.5089335
    5    0.3265252  -0.0016204   0.0007630   0.0001934   0.9230031

          TOTAL MULLIKEN AND LOWDIN ATOMIC POPULATIONS
       ATOM         MULL.POP.    CHARGE          LOW.POP.     CHARGE
    1 LU           23.653658    1.346342        23.910705    1.089295
    2 CL            7.493926   -0.493926         7.423349   -0.423349
    3 O             6.874157   -0.874157         6.753614   -0.753614
    4 H             0.729395    0.270605         0.723787    0.276213
    5 H             1.248864   -0.248864         1.188545   -0.188545

          -------------------------------
          BOND ORDER AND VALENCE ANALYSIS     BOND ORDER THRESHOLD=0.050
          -------------------------------

                   BOND                       BOND                       BOND
  ATOM PAIR DIST  ORDER      ATOM PAIR DIST  ORDER      ATOM PAIR DIST  ORDER
    1   2  2.600  0.854        1   3  2.200  0.693        1   5  1.800  0.925
    3   4  1.000  0.863

                       TOTAL       BONDED        FREE
      ATOM            VALENCE     VALENCE     VALENCE
    1 LU                2.496       2.496       0.000
    2 CL                0.856       0.856      -0.000
    3 O                 1.562       1.562      -0.000
    4 H                 0.889       0.889      -0.000
    5 H                 0.928       0.928       0.000

          ---------------------
          ELECTROSTATIC MOMENTS
          ---------------------

 POINT   1           X           Y           Z (BOHR)    CHARGE
                -0.000000    0.000000    0.000000       -0.00 (A.U.)
         DX          DY          DZ         /D/  (DEBYE)
    -3.954506   -5.049710   -6.181829    8.908013
 ...... END OF PROPERTY EVALUATION ......
 STEP CPU TIME =     0.01 TOTAL CPU TIME =        1.2 (    0.0 MIN)
 TOTAL WALL CLOCK TIME=        4.4 SECONDS, CPU UTILIZATION IS  26.80%

 BEGINNING ONE ELECTRON GRADIENT...
 TIME TO DO ORDINARY GRADIENT INTEGRALS=      0.01
 TIME TO DO      ECP GRADIENT INTEGRALS=      0.04
 ..... END OF 1-ELECTRON GRADIENT ......
 STEP CPU TIME =     0.05 TOTAL CPU TIME =        1.2 (    0.0 MIN)
 TOTAL WALL CLOCK TIME=        4.5 SECONDS, CPU UTILIZATION IS  27.56%

          ----------------------
          GRADIENT OF THE ENERGY
          ----------------------

 THE MINIMUM MEMORY REQUIRED FOR THIS RUN IS     266075 WORDS.
 USING     998200 WORDS FOR 2E- DERIVATIVE INTEGRAL CONTRIBUTIONS.
 THE COARSE/FINE SCHWARZ SCREENINGS SKIPPED            0/           0 BLOCKS.
 THE NUMBER OF GRADIENT INTEGRAL BLOCKS COMPUTED WAS      8626
 ...... END OF 2-ELECTRON GRADIENT ......
 STEP CPU TIME =     0.90 TOTAL CPU TIME =        2.1 (    0.0 MIN)
 TOTAL WALL CLOCK TIME=        5.4 SECONDS, CPU UTILIZATION IS  39.63%

                         ----------------------
                         GRADIENT OF THE ENERGY
                         ----------------------

 UNITS ARE HARTREE/BOHR    E'X               E'Y               E'Z 
    1 LU              -0.005152439      -0.063796852       0.003365755
    2 CL               0.014240919       0.007376494       0.005128196
    3 O               -0.018590980       0.043477394       0.044002575
    4 H                0.001898279      -0.006700563      -0.029051941
    5 H                0.007604220       0.019643527      -0.023444585

                   MAXIMUM GRADIENT =    0.063796852
                       RMS GRADIENT =    0.026393713


                     --------------------
                     INTERNAL COORDINATES
                     --------------------

                 - - ATOMS - -         COORDINATE        GRADIENT
 NO.   TYPE    I  J  K  L  M  N         (ANG,DEG)     (H/B,H/RAD)
 ----------------------------------------------------------------
   1 STRETCH   1  2                     2.6000000       0.0156061
   2 STRETCH   1  3                     2.2000000       0.0408043
   3 STRETCH   3  4                     1.0000000       0.0243905
   4 STRETCH   1  5                     1.8000000      -0.0308421
   5 BEND      2  1  3                108.0000000      -0.0206344
   6 BEND      5  1  3                105.0000000      -0.0128648
   7 BEND      1  3  4                109.0000000      -0.0322106
   8 TORSION   4  3  1  2              90.0000000       0.0220802
   9 TORSION   4  3  1  5            -157.2253263      -0.0173247

                   MAXIMUM GRADIENT =    0.040804294
                       RMS GRADIENT =    0.025541146
  $VIB   
          IVIB=   0 IATOM=   0 ICOORD=   0 E=     -303.7370457644
 -5.152438885E-03-6.379685202E-02 3.365754936E-03 1.424091926E-02 7.376493522E-03
  5.128195555E-03-1.859097973E-02 4.347739437E-02 4.400257540E-02 1.898279272E-03
 -6.700563317E-03-2.905194056E-02 7.604220079E-03 1.964352745E-02-2.344458533E-02
 -3.954506046E+00-5.049710177E+00-6.181829023E+00

..... END OF SINGLE POINT GRADIENT .....
 STEP CPU TIME =     0.00 TOTAL CPU TIME =        2.1 (    0.0 MIN)
 TOTAL WALL CLOCK TIME=        5.4 SECONDS, CPU UTILIZATION IS  39.63%
               998200  WORDS OF DYNAMIC MEMORY USED
 EXECUTION OF GAMESS TERMINATED NORMALLY Mon Nov 28 18:30:01 2016
 DDI: 263640 bytes (0.3 MB / 0 MWords) used by master data server.

 ----------------------------------------
 CPU timing information for all processes
 ========================================
 0: 2.01 + 0.155 = 2.157
 ----------------------------------------
 ddikick.x: exited gracefully.
unset echo
----- accounting info -----
Files used on the master node compute-3-0 were:
-rw-rw-r-- 1 sarom sarom    77345 Nov 29  2016 .//ecp-luclhoh.dat
-rw-rw-r-- 1 sarom sarom     1095 Nov 29  2016 .//ecp-luclhoh.F05
-rw-rw-r-- 1 sarom sarom 25562272 Nov 29  2016 .//ecp-luclhoh.F08
-rw-rw-r-- 1 sarom sarom  5398800 Nov 29  2016 .//ecp-luclhoh.F10
-rw-rw-r-- 1 sarom sarom     1095 Nov 28 17:27 .//ecp-luclhoh.inp
-rw-rw-r-- 1 sarom sarom   107800 Nov 29  2016 .//ecp-luclhoh.log
Mon Nov 28 18:30:04 CST 2016
0.193u 0.407s 0:09.07 6.5%	0+0k 0+136io 0pf+0w
